Membrane in water
40167
    1TCq1    O1    1   0.517   4.386  11.971 -0.1644  0.4569 -0.3816
    1TCq1    C1    2   0.473   4.283  12.046  0.4163 -0.1588  0.4197
    1TCq1    O2    3   0.524   4.244  12.149 -0.5698  0.3494  0.1045
    1TCq1    C2    4   0.356   4.229  11.987 -0.2208  0.3244 -0.0904
    1TCq1    C3    5   0.336   4.256  11.847 -0.6697  0.1555  0.5982
    1TCq1    C4    6   0.218   4.214  11.802  0.0806 -0.7482  0.3556
    1TCq1    C5    7   0.119   4.161  11.882  0.3620 -0.6250 -0.4050
    1TCq1    C6    8   0.147   4.130  12.015  0.1022 -0.1697 -0.3542
    1TCq1    C7    9   0.264   4.171  12.073  0.2649  0.6516  0.7946
    1TCq1    C8   10   0.035   4.100  12.106 -0.4273  0.0384 -0.1947
    1TCq1    O4   11   4.642   4.100  12.063 -0.2829  0.4056 -0.0399
    1TCq1    C9   12   0.197   4.245  11.663 -0.4957  0.9350  0.4099
    1TCq1    O5   13   0.246   4.359  11.635 -0.0182 -0.2386 -0.3434
    1TCq1    O6   14   0.082   4.212  11.618  0.1763 -0.2383  0.1928
    1TCq1    H1   15   0.452   4.416  11.904 -1.4468  1.8951  1.4841
    1TCq1    H2   16   0.405   4.300  11.776  0.4363 -1.6976  0.4988
    1TCq1    H3   17   0.022   4.137  11.838  0.6191 -2.4353  0.0184
    1TCq1    H4   18   0.301   4.159  12.174  1.0133 -2.2369  0.1856
    2MPD2     C   19   4.551   4.012  12.576  0.0094  0.2090  0.0446
    2MPD2    C1   20   4.491   4.069  12.459 -0.1941 -0.2991 -0.3905
    2MPD2    C2   21   4.582   4.093  12.346  0.4244  0.3714 -0.3360
    2MPD2    C3   22   4.717   4.056  12.342  0.2429  0.3445  0.0690
    2MPD2    C4   23   0.038   4.005  12.464  0.2733 -0.4026 -0.2109
    2MPD2    C5   24   4.683   3.977  12.577  0.2277  0.6341  0.4231
    2MPD2     H   25   4.532   4.136  12.260  1.1844 -1.1460 -1.5405
    2MPD2    H1   26   0.138   3.961  12.468  1.2528  1.8310 -0.4371
    2MPD2    H2   27   4.487   3.995  12.662  0.0217  5.0703  1.0203
    2MPD2    H3   28   0.014   3.942  12.662  0.2109  0.4928  0.3773
    2MPD2     N   29   0.081   4.066  12.232  0.0034 -0.2528  0.8805
    2MPD2    H5   30   0.178   4.047  12.258  0.5433  0.2894 -0.7056
    2MPD2    N1   31   4.360   4.089  12.431 -0.9409  0.0160 -0.1444
    2MPD2    H7   32   4.327   4.123  12.341  0.8088  0.0785 -0.7622
    3TCq1    O1   33   3.684   0.122   9.902  0.0369  0.1679  0.2765
    3TCq1    C1   34   3.593   0.144   9.992  0.4633  0.1794 -0.9582
    3TCq1    O2   35   3.557   0.256  10.024 -0.0155  0.7956 -0.3851
    3TCq1    C2   36   3.581   0.029  10.078  0.9538 -0.9447  0.2636
    3TCq1    C3   37   3.544   4.643  10.018  0.3210 -0.3125  0.0873
    3TCq1    C4   38   3.512   4.535  10.094 -0.8769 -0.6577  0.0159
    3TCq1    C5   39   3.501   4.549  10.229  0.4539  0.9978 -0.0236
    3TCq1    C6   40   3.538   4.666  10.283 -0.4364 -1.0006 -0.2304
    3TCq1    C7   41   3.578   0.044  10.214  0.2771 -0.6887  0.6933
    3TCq1    C8   42   3.522   4.682  10.426 -0.2868  1.1080  0.0836
    3TCq1    O4   43   3.502   4.578  10.482  0.2331 -1.0731 -0.3655
    3TCq1    C9   44   3.469   4.421  10.028 -0.0024  0.7545 -0.5383
    3TCq1    O5   45   3.483   4.425   9.903 -0.2760 -0.3250  0.2517
    3TCq1    O6   46   3.435   4.325  10.100  0.0969  0.7550 -0.3751
    3TCq1    H1   47   3.713   0.029   9.895  1.6808  0.8267 -1.8800
    3TCq1    H2   48   3.534   4.635   9.911 -1.0320 -0.4731  0.2183
    3TCq1    H3   49   3.458   4.468  10.287  1.1076 -0.7005 -1.9236
    3TCq1    H4   50   3.626   0.131  10.256  2.9037 -1.7772 -0.0818
    4MPD2     C   51   3.489   0.173  10.887  0.1060 -0.5622  0.3348
    4MPD2    C1   52   3.477   0.273  10.790  0.1470  0.2077  0.7004
    4MPD2    C2   53   3.504   0.237  10.658  0.7884  0.6821 -0.2276
    4MPD2    C3   54   3.522   0.107  10.620  0.6784  0.2238  0.3355
    4MPD2    C4   55   3.508   0.005  10.712 -0.2397 -0.2933 -0.1023
    4MPD2    C5   56   3.502   0.046  10.840 -0.2668  1.2334  1.2465
    4MPD2     H   57   3.496   0.315  10.582 -1.1375  0.0365 -0.6659
    4MPD2    H1   58   3.516   4.624  10.691  0.8609  0.1615 -2.0230
    4MPD2    H2   59   3.485   0.184  10.995 -1.5084  0.8923  0.1260
    4MPD2    H3   60   3.499   4.687  10.908  3.3820 -0.5500 -0.8332
    4MPD2     N   61   3.535   0.083  10.485  0.6205 -0.3867  0.5376
    4MPD2    H5   62   3.552   0.162  10.424 -1.9823  0.6626  1.1530
    4MPD2    N1   63   3.464   0.415  10.816  0.3593 -0.2821 -0.5437
    4MPD2    H7   64   3.491   0.473  10.738  3.7230 -0.4152  0.5194
    5TCq1    O1   65   0.225   1.838  11.635 -0.5324  0.4212 -0.1549
    5TCq1    C1   66   0.173   1.719  11.595  0.6202 -0.1431 -0.2892
    5TCq1    O2   67   0.237   1.631  11.540  0.2928  0.1559  0.5744
    5TCq1    C2   68   0.030   1.721  11.611  0.5252  0.0145  0.2400
    5TCq1    C3   69   4.692   1.802  11.716  0.1181  0.4426 -0.2820
    5TCq1    C4   70   4.560   1.807  11.723 -0.1856  0.1204 -0.6595
    5TCq1    C5   71   4.486   1.746  11.632  0.1504 -0.3615 -0.3523
    5TCq1    C6   72   4.544   1.665  11.536 -0.2768 -0.2628  0.6652
    5TCq1    C7   73   4.678   1.660  11.521 -0.2772 -0.6457 -0.1522
    5TCq1    C8   74   4.464   1.587  11.439 -0.0740  0.5307 -0.4055
    5TCq1    O4   75   4.496   1.582  11.322 -0.1643 -0.0991  0.5424
    5TCq1    C9   76   4.494   1.869  11.829 -0.2186  0.2379 -0.2884
    5TCq1    O5   77   4.568   1.936  11.910 -0.6515 -0.4324  0.1759
    5TCq1    O6   78   4.377   1.829  11.857  0.2126  0.2903  0.1658
    5TCq1    H1   79   0.149   1.892  11.663 -0.1784  1.1350 -0.5904
    5TCq1    H2   80   0.031   1.825  11.801 -0.5391  0.0850  0.3177
    5TCq1    H3   81   4.379   1.758  11.630  0.2389  0.4542 -0.0598
    5TCq1    H4   82   0.000   1.599  11.444  2.2342  1.5922 -0.3792
    6MPD2     C   83   4.137   1.446  11.512 -0.0855 -1.0092 -0.2997
    6MPD2    C1   84   4.253   1.472  11.445 -0.6144  0.0701  0.0508
    6MPD2    C2   85   4.275   1.408  11.317 -0.3930 -0.3742 -0.0083
    6MPD2    C3   86   4.188   1.321  11.264 -0.3379 -0.0438 -0.2543
    6MPD2    C4   87   4.069   1.291  11.334  0.9072  0.2495  0.3029
    6MPD2    C5   88   4.047   1.356  11.459  0.1141  0.1631 -0.0508
    6MPD2     H   89   4.366   1.421  11.261  0.3275  2.3224  1.7841
    6MPD2    H1   90   3.991   1.227  11.294 -0.4098  1.5181  0.8330
    6MPD2    H2   91   4.123   1.494  11.608 -0.5687 -0.7287 -0.5128
    6MPD2    H3   92   3.950   1.341  11.504 -0.1463  1.8879 -0.0159
    6MPD2     N   93   4.232   1.248  11.150  0.5942  0.2015 -0.0808
    6MPD2    H5   94   4.328   1.260  11.119  0.7757  0.9023  0.7513
    6MPD2    N1   95   4.350   1.552  11.499 -0.1007 -1.0475  0.0064
    6MPD2    H7   96   4.335   1.570  11.598  0.8481  1.2662 -0.2539
    7TCq1    O1   97   1.110   0.896  13.121 -0.1755 -0.1624  0.6722
    7TCq1    C1   98   1.173   0.978  13.210 -0.6506 -0.5735 -0.3385
    7TCq1    O2   99   1.119   1.055  13.288  0.1104 -0.8399  0.4437
    7TCq1    C2  100   1.312   0.925  13.218 -0.4744 -0.2465  0.1892
    7TCq1    C3  101   1.376   0.904  13.099 -0.0905 -0.2006 -0.5607
    7TCq1    C4  102   1.481   0.815  13.092  0.5683  0.0651 -0.3219
    7TCq1    C5  103   1.527   0.759  13.207  0.5388 -0.5858  0.4198
    7TCq1    C6  104   1.455   0.779  13.323  0.1354  0.2656 -0.6641
    7TCq1    C7  105   1.355   0.872  13.329 -0.2926 -0.2163  0.1524
    7TCq1    C8  106   1.496   0.713  13.448  0.9709 -0.4986  0.0115
    7TCq1    O4  107   1.459   0.765  13.549  0.2387  0.7148  0.3198
    7TCq1    C9  108   1.553   0.795  12.970 -0.3430 -0.2104  0.0326
    7TCq1    O5  109   1.620   0.692  12.953 -0.0626  0.6368 -0.0014
    7TCq1    O6  110   1.560   0.895  12.891  0.3770 -0.1488 -0.7074
    7TCq1    H1  111   1.177   0.835  13.084 -2.6153 -2.7497  0.5354
    7TCq1    H2  112   1.339   0.941  13.004 -0.3550  0.2602 -0.2795
    7TCq1    H3  113   1.604   0.684  13.193  0.2878 -0.4823 -1.5233
    7TCq1    H4  114   1.313   0.893  13.427 -0.9568 -3.2533  0.5218
    8MPD2     C  115   1.810   0.407  13.712  0.3087 -0.3269  0.3401
    8MPD2    C1  116   1.837   0.371  13.586 -0.1646  0.5639 -0.2062
    8MPD2    C2  117   1.758   0.445  13.497  0.7909 -0.1622  0.4419
    8MPD2    C3  118   1.659   0.535  13.530 -0.1993 -0.3073 -0.4093
    8MPD2    C4  119   1.635   0.565  13.665 -0.0264  0.7543 -0.2012
    8MPD2    C5  120   1.712   0.493  13.753  0.6245 -0.0800 -0.3509
    8MPD2     H  121   1.772   0.437  13.389  1.3177 -0.5790  0.5378
    8MPD2    H1  122   1.556   0.630  13.702 -1.3115 -0.7201 -0.3371
    8MPD2    H2  123   1.862   0.350  13.789  0.1839 -0.1581  0.5485
    8MPD2    H3  124   1.702   0.506  13.860  0.4786 -1.3133 -0.2195
    8MPD2     N  125   1.580   0.605  13.426 -0.5305 -0.4070  0.6542
    8MPD2    H5  126   1.580   0.563  13.334 -0.9223 -1.3036  1.0663
    8MPD2    N1  127   1.944   0.287  13.554 -0.1891 -0.2677 -0.7638
    8MPD2    H7  128   2.011   0.259  13.624  0.8773  4.8581  0.2639
    9TCq1    O1  129   3.852   3.866  10.895 -0.9312  0.9256  0.3051
    9TCq1    C1  130   3.955   3.792  10.940  0.9092 -0.1954  0.1755
    9TCq1    O2  131   3.983   3.793  11.059  0.2278 -0.0785 -0.9026
    9TCq1    C2  132   4.053   3.810  10.838  0.2928  0.1897  0.3035
    9TCq1    C3  133   4.021   3.777  10.709 -0.5834 -0.2534 -0.2772
    9TCq1    C4  134   4.091   3.828  10.607 -1.5972 -0.4004  0.2349
    9TCq1    C5  135   4.206   3.905  10.625 -0.1822  0.1106  0.6072
    9TCq1    C6  136   4.242   3.929  10.755  0.0041 -0.6221 -0.2599
    9TCq1    C7  137   4.172   3.878  10.865  0.0636  0.2025  0.1040
    9TCq1    C8  138   4.340   4.040  10.768  0.8089  0.4416  0.0344
    9TCq1    O4  139   4.408   4.058  10.667  0.0915 -0.8853  0.1183
    9TCq1    C9  140   4.040   3.814  10.473  0.1875  0.2786 -0.2594
    9TCq1    O5  141   3.919   3.817  10.454  0.3876 -0.0774  0.0972
    9TCq1    O6  142   4.123   3.838  10.378  0.2430  0.5949 -0.4689
    9TCq1    H1  143   3.830   3.833  10.805 -0.6672 -0.1326  0.6332
    9TCq1    H2  144   3.942   3.707  10.687 -2.1406  0.4787  2.9924
    9TCq1    H3  145   4.266   3.940  10.542 -0.4478 -0.0991  0.3271
    9TCq1    H4  146   4.186   3.918  10.965 -1.9813 -0.0227  0.4801
   10MPD2     C  147   4.504   4.262  10.848 -0.8235  0.0386 -0.6046
   10MPD2    C1  148   4.390   4.227  10.912  0.5565 -0.0584  0.4526
   10MPD2    C2  149   4.339   4.300  11.021 -0.7831 -0.1261  0.6199
   10MPD2    C3  150   4.404   4.410  11.074  0.6802  0.5719  0.1273
   10MPD2    C4  151   4.519   4.451  11.002 -0.3665 -0.2227 -0.5748
   10MPD2    C5  152   4.566   4.381  10.892 -0.7047  0.1587 -0.4425
   10MPD2     H  153   4.244   4.273  11.065 -1.5155  3.6473  1.3226
   10MPD2    H1  154   4.571   4.541  11.033 -0.3348 -0.1535 -0.8271
   10MPD2    H2  155   4.554   4.216  10.763  1.1928  0.9477  0.0726
   10MPD2    H3  156   4.650   4.418  10.835 -1.9021  0.7492 -1.8164
   10MPD2     N  157   4.358   4.483  11.188 -0.0117  0.1962  0.3240
   10MPD2    H5  158   4.405   4.571  11.200 -2.1117  1.4924 -0.9060
   10MPD2    N1  159   4.321   4.115  10.879  0.1385  0.0655  0.0036
   10MPD2    H7  160   4.232   4.097  10.924  0.2375 -2.3449 -0.7936
   11TCq1    O1  161   0.707   0.034  14.179 -0.0703 -0.4597 -0.1041
   11TCq1    C1  162   0.795   4.709  14.080  0.4280 -0.4355  0.5592
   11TCq1    O2  163   0.877   0.053  14.018 -0.5311 -0.0126  0.0762
   11TCq1    C2  164   0.838   4.588  14.139 -0.2956  0.1783 -0.6195
   11TCq1    C3  165   0.971   4.570  14.171  0.3596  0.0622 -0.4221
   11TCq1    C4  166   1.009   4.464  14.250  0.2088  0.3478 -0.6537
   11TCq1    C5  167   0.918   4.381  14.296 -0.4900  0.7870  0.5283
   11TCq1    C6  168   0.788   4.402  14.275  0.0169 -0.0514 -0.6729
   11TCq1    C7  169   0.743   4.498  14.186 -0.0600 -0.1163  0.3116
   11TCq1    C8  170   0.698   4.318  14.350  0.0175  0.0992  0.3732
   11TCq1    O4  171   0.723   4.280  14.462  0.0645 -0.0556 -0.8107
   11TCq1    C9  172   1.147   4.447  14.280  0.1179 -0.3963 -0.5980
   11TCq1    O5  173   1.216   4.532  14.215 -0.9309 -0.1784  0.1465
   11TCq1    O6  174   1.164   4.398  14.394  0.0421  0.1194  0.3002
   11TCq1    H1  175   0.667   4.700  14.246  0.4501 -0.5426  0.1361
   11TCq1    H2  176   1.045   4.636  14.127 -0.2477  0.7744 -0.3851
   11TCq1    H3  177   0.951   4.303  14.364  0.2802 -0.1955 -0.9841
   11TCq1    H4  178   0.637   4.513  14.166 -0.2656 -0.2365  1.2720
   12MPD2     C  179   0.439   4.196  14.445  0.2627  0.0822  0.1858
   12MPD2    C1  180   0.477   4.203  14.311 -0.6566  0.6798 -0.2792
   12MPD2    C2  181   0.384   4.163  14.217  0.2381 -0.5652 -0.8344
   12MPD2    C3  182   0.267   4.100  14.250 -0.0383 -0.5094  0.7336
   12MPD2    C4  183   0.237   4.073  14.385  0.1280  0.0396  0.1359
   12MPD2    C5  184   0.317   4.134  14.474 -0.0225  0.4459 -0.1334
   12MPD2     H  185   0.408   4.172  14.112 -0.4882  2.1182 -0.7709
   12MPD2    H1  186   0.143   4.031  14.416  0.1963 -0.6553 -0.5758
   12MPD2    H2  187   0.502   4.229  14.527 -0.5537  0.1079  0.8036
   12MPD2    H3  188   0.287   4.134  14.578  1.6862 -0.3859  0.3750
   12MPD2     N  189   0.183   4.047  14.154  0.0320  0.4193  0.0799
   12MPD2    H5  190   0.202   4.044  14.054 -1.2007 -0.5220 -0.1284
   12MPD2    N1  191   0.592   4.270  14.268  0.0238 -0.0077  0.3330
   12MPD2    H7  192   0.592   4.304  14.172 -1.4899 -0.8374  0.0443
   13TCq1    O1  193   0.310   4.178  10.754 -0.4103 -0.3489 -0.5875
   13TCq1    C1  194   0.178   4.183  10.779 -0.1117  0.2900  0.3877
   13TCq1    O2  195   0.086   4.173  10.701  0.3530  0.4872 -0.4487
   13TCq1    C2  196   0.158   4.209  10.924  0.4459 -0.3875 -0.3624
   13TCq1    C3  197   0.245   4.294  10.988 -0.2956  0.5293  1.1583
   13TCq1    C4  198   0.220   4.322  11.117 -0.3404 -0.4496 -0.0131
   13TCq1    C5  199   0.101   4.274  11.176 -0.0335 -0.4318  0.1243
   13TCq1    C6  200   0.026   4.177  11.116 -0.3336  0.5225 -1.1259
   13TCq1    C7  201   0.054   4.146  10.982  0.1113 -0.1730  0.3147
   13TCq1    C8  202   4.632   4.144  11.185  0.0019  0.8079 -0.0858
   13TCq1    O4  203   4.598   4.207  11.284 -0.0156 -0.0805 -0.0510
   13TCq1    C9  204   0.298   4.423  11.191 -0.8551 -0.1288 -0.1706
   13TCq1    O5  205   0.258   4.462  11.303  0.0880 -0.5221  0.4123
   13TCq1    O6  206   0.413   4.453  11.146 -1.3843  0.1736  0.4571
   13TCq1    H1  207   0.375   4.172  10.828  0.4337 -0.3254 -1.3256
   13TCq1    H2  208   0.321   4.342  10.928 -0.6365  0.1766  0.4402
   13TCq1    H3  209   0.067   4.312  11.272 -1.0033 -2.8328  0.7345
   13TCq1    H4  210   4.718   4.084  10.917 -1.7220  0.5913  1.2991
   14MPD2     C  211   4.468   3.833  11.168  0.8543  0.1523  0.0975
   14MPD2    C1  212   4.467   3.967  11.170  0.2874 -0.2824 -0.1252
   14MPD2    C2  213   4.362   4.035  11.226 -0.2590 -0.0224 -0.2818
   14MPD2    C3  214   4.255   3.972  11.290  0.2266 -0.2442 -0.0564
   14MPD2    C4  215   4.252   3.831  11.286  0.0549 -0.3526  0.6172
   14MPD2    C5  216   4.359   3.767  11.221 -0.0577  0.1663  0.2211
   14MPD2     H  217   4.355   4.143  11.234  0.0679  0.0567 -1.0370
   14MPD2    H1  218   4.167   3.780  11.329  0.7646 -1.1802  1.0445
   14MPD2    H2  219   4.547   3.770  11.129 -1.0845 -2.3399  0.1674
   14MPD2    H3  220   4.356   3.659  11.213 -0.0363  0.3319 -2.2866
   14MPD2     N  221   4.160   4.048  11.361  0.1074 -0.0207  0.8168
   14MPD2    H5  222   4.169   4.150  11.360 -0.9368  0.0340 -1.7385
   14MPD2    N1  223   4.580   4.039  11.119  0.2745  0.3407  0.0224
   14MPD2    H7  224   4.644   3.981  11.066 -0.8191 -2.0848  1.3342
   15TCq1    O1  225   2.207   2.777   1.929  0.0682 -0.5658 -0.1929
   15TCq1    C1  226   2.108   2.874   1.925 -0.6869 -0.5659 -0.6252
   15TCq1    O2  227   2.129   2.991   1.933 -0.1800 -0.3809  0.2369
   15TCq1    C2  228   1.972   2.818   1.900 -0.4882  0.2238 -0.0873
   15TCq1    C3  229   1.867   2.905   1.916 -0.5248 -0.3747 -0.4631
   15TCq1    C4  230   1.747   2.862   1.871 -0.4214  0.1834 -0.0409
   15TCq1    C5  231   1.740   2.739   1.806  0.3594  0.9542 -0.2184
   15TCq1    C6  232   1.847   2.655   1.785  1.2347  0.3254  0.6299
   15TCq1    C7  233   1.966   2.694   1.832  0.1012  0.2483  0.0418
   15TCq1    C8  234   1.840   2.529   1.710 -0.5856 -0.5527  0.8090
   15TCq1    O4  235   1.927   2.441   1.726 -0.0084 -1.0096 -0.2285
   15TCq1    C9  236   1.630   2.935   1.885 -0.4406  0.1252  0.4346
   15TCq1    O5  237   1.647   3.051   1.940 -0.3078  0.4527 -0.1871
   15TCq1    O6  238   1.528   2.884   1.834 -0.0479 -0.1064  0.5671
   15TCq1    H1  239   2.166   2.688   1.931 -0.3756 -0.3779 -1.1660
   15TCq1    H2  240   1.881   2.998   1.969  0.0809  0.4156 -2.0160
   15TCq1    H3  241   1.644   2.693   1.788  0.3608 -0.0324  2.3302
   15TCq1    H4  242   2.055   2.647   1.794  0.8368  1.1963  0.5957
   16MPD2     C  243   1.535   2.434   1.527 -0.2985 -0.1419 -0.5562
   16MPD2    C1  244   1.656   2.412   1.575  0.2638  0.3878  0.8957
   16MPD2    C2  245   1.720   2.285   1.555 -0.0023 -0.3107  0.2311
   16MPD2    C3  246   1.654   2.189   1.476 -0.6803  0.3018  0.0310
   16MPD2    C4  247   1.526   2.216   1.438  0.0469  0.1624 -0.0680
   16MPD2    C5  248   1.464   2.338   1.461  0.2806  0.4589  0.2727
   16MPD2     H  249   1.824   2.269   1.582  1.2238 -0.2038 -4.3931
   16MPD2    H1  250   1.472   2.138   1.386 -1.8727 -0.0420  2.2248
   16MPD2    H2  251   1.487   2.525   1.561 -1.7409 -0.8582 -0.6490
   16MPD2    H3  252   1.360   2.348   1.431  0.3936  0.3231 -0.1640
   16MPD2     N  253   1.728   2.078   1.429 -0.1618  0.0860  0.0144
   16MPD2    H5  254   1.817   2.065   1.474  1.1603  0.4708 -2.4799
   16MPD2    N1  255   1.713   2.523   1.640  0.4167  0.3950 -0.6058
   16MPD2    H7  256   1.661   2.609   1.636  0.2530  0.2505 -1.4281
   17TCq1    O1  257   3.472   2.922  10.415 -0.2080 -0.3092 -0.5556
   17TCq1    C1  258   3.473   3.008  10.522  0.2946  0.3026  0.1825
   17TCq1    O2  259   3.463   2.967  10.636  0.0178 -0.0780  0.0177
   17TCq1    C2  260   3.592   3.081  10.499 -0.0881 -0.1779 -0.3780
   17TCq1    C3  261   3.596   3.163  10.395 -0.3905  0.0469 -0.2657
   17TCq1    C4  262   3.686   3.261  10.389  1.0093  0.2075  0.3703
   17TCq1    C5  263   3.754   3.291  10.505  0.4157  0.2277  0.3443
   17TCq1    C6  264   3.752   3.206  10.610  0.2011  0.6126 -0.3947
   17TCq1    C7  265   3.673   3.095  10.605  0.2752 -0.2027  1.1354
   17TCq1    C8  266   3.828   3.239  10.721  0.3186 -0.4256 -0.0609
   17TCq1    O4  267   3.795   3.194  10.831  0.1241  0.3188  0.1953
   17TCq1    C9  268   3.683   3.343  10.272 -0.1470  0.0515  0.7883
   17TCq1    O5  269   3.631   3.287  10.173  0.3890  0.0549 -0.0921
   17TCq1    O6  270   3.710   3.466  10.280 -0.6135 -0.0139  0.1537
   17TCq1    H1  271   3.486   2.957  10.324 -0.6718 -1.0493 -0.9145
   17TCq1    H2  272   3.532   3.143  10.309 -1.1930  0.3096  0.2724
   17TCq1    H3  273   3.800   3.389  10.505  0.0121  0.4119  2.2652
   17TCq1    H4  274   3.663   3.030  10.691 -2.5758 -1.2743 -0.0109
   18MPD2     C  275   4.003   3.379  10.941 -0.1598  0.5271 -0.5266
   18MPD2    C1  276   4.011   3.397  10.800  0.5700  0.5891 -0.4607
   18MPD2    C2  277   4.118   3.471  10.758 -0.5218  0.2574  0.0659
   18MPD2    C3  278   4.222   3.514  10.847 -0.6881 -0.2506  0.5455
   18MPD2    C4  279   4.212   3.482  10.978 -0.4706  0.4581  0.4140
   18MPD2    C5  280   4.103   3.420  11.030 -0.4091  0.3781 -0.3627
   18MPD2     H  281   4.128   3.505  10.656  0.2040  2.0474  0.7282
   18MPD2    H1  282   4.298   3.498  11.042 -0.2169 -1.4197  0.5285
   18MPD2    H2  283   3.910   3.342  10.981 -0.9247  1.8309 -1.0818
   18MPD2    H3  284   4.095   3.407  11.137  1.9066  0.9501 -0.1148
   18MPD2     N  285   4.335   3.584  10.807  0.4564  0.2605  0.1229
   18MPD2    H5  286   4.395   3.601  10.886  0.2918  1.6365 -0.0385
   18MPD2    N1  287   3.920   3.349  10.703  0.2459 -0.1578  0.1560
   18MPD2    H7  288   3.940   3.380  10.609 -0.7134 -1.0010 -0.3239
   19TMC2    C1  289   1.131   3.760  13.901 -0.5637 -0.5225 -0.3294
   19TMC2    C2  290   1.049   3.834  13.818  0.3138  1.0406  0.1406
   19TMC2    C3  291   0.914   3.827  13.840  0.6914  0.5823  0.2411
   19TMC2    C4  292   1.080   3.691  14.007  0.7355  0.5108  1.1175
   19TMC2    C5  293   0.944   3.665  14.004  0.0962  0.0673  0.1499
   19TMC2    C6  294   0.856   3.738  13.925 -1.4265 -0.0988  0.5892
   19TMC2     C  295   1.277   3.785  13.879  0.1039  0.6021 -0.1678
   19TMC2     O  296   1.307   3.881  13.800  0.1491 -0.2287 -0.0028
   19TMC2     H  297   1.083   3.876  13.724 -1.7126 -0.5055 -1.2779
   19TMC2    H1  298   1.143   3.637  14.077  1.4126  0.9552  0.8480
   19TMC2    H2  299   0.750   3.717  13.915 -1.5106 -0.4293  2.1711
   19TMC2    C7  300   0.894   3.545  14.071 -0.1556  0.6334  0.7812
   19TMC2    C8  301   0.834   3.834  13.721  0.4241  1.2132 -0.9731
   19TMC2    O1  302   0.775   3.541  14.089 -0.6991 -0.5072  0.7078
   19TMC2    O2  303   0.717   3.862  13.731 -0.3182 -0.7344 -0.1668
   19TMC2    O5  304   0.876   3.722  13.655  0.2018 -0.0777  0.0855
   19TMC2    H5  305   0.966   3.684  13.666 -0.3995 -0.9972  1.7784
   20MPD2     C  306   1.571   3.778  13.833 -0.3993 -0.6415  0.5961
   20MPD2    C1  307   1.496   3.680  13.894 -0.0885  0.4739  0.1996
   20MPD2    C2  308   1.564   3.569  13.947  0.3928  0.0174  0.4324
   20MPD2    C3  309   1.700   3.560  13.930 -0.1151 -0.2566  0.2919
   20MPD2    C4  310   1.771   3.656  13.861 -0.0148  0.0871 -0.0103
   20MPD2    C5  311   1.703   3.765  13.807 -0.3879  0.3623 -0.2696
   20MPD2     H  312   1.501   3.508  14.012  0.3734 -0.0263  0.3725
   20MPD2    H1  313   1.873   3.634  13.830  0.1006 -1.0232  1.1340
   20MPD2    H2  314   1.526   3.868  13.794  0.4812 -0.9058 -1.0098
   20MPD2    H3  315   1.761   3.830  13.742  1.0724  1.8034  2.4552
   20MPD2     N  316   1.783   3.464  13.995  0.4162  0.5904 -0.6042
   20MPD2    H5  317   1.883   3.477  13.996  0.7782 -2.4577  2.3216
   20MPD2    N1  318   1.361   3.678  13.910 -0.3281 -1.0220  0.3758
   20MPD2    H7  319   1.319   3.596  13.953  1.8822 -1.2495  2.0649
   21MPD2     C  320   3.895   4.649  14.438 -0.0343  0.5098 -0.0313
   21MPD2    C1  321   3.935   4.515  14.457 -0.1174 -0.9236 -0.0583
   21MPD2    C2  322   3.842   4.431  14.515 -0.0399 -0.0693 -0.8888
   21MPD2    C3  323   3.724   4.480  14.568  0.6978  0.1559 -0.9821
   21MPD2    C4  324   3.689   4.606  14.544  0.1590 -0.0838 -0.1587
   21MPD2    C5  325   3.775   4.695  14.483 -0.7399 -0.4465  0.1850
   21MPD2     H  326   3.871   4.327  14.528 -2.2321 -0.5277  0.6040
   21MPD2    H1  327   3.596   4.648  14.581  0.5435  0.1087  0.6047
   21MPD2    H2  328   3.957   0.001  14.392 -0.4733  1.3052  0.7285
   21MPD2    H3  329   3.749   0.073  14.462 -0.6211 -0.4218  0.1602
   21MPD2     N  330   3.640   4.404  14.656  0.3912  0.3341  0.7906
   21MPD2    H5  331   3.563   4.455  14.698 -0.4765  0.6142 -1.1642
   21MPD2    N1  332   4.057   4.459  14.416 -0.0743 -0.2839  0.2283
   21MPD2    H7  333   4.076   4.361  14.438 -0.4189 -0.1693  1.0467
   22TCq2    C1  334   3.660   4.271  14.689 -0.5539  0.5523  0.7674
   22TCq2    O2  335   3.750   4.195  14.656  0.0271  0.4280  0.4746
   22TCq2    C2  336   3.548   4.204  14.762  0.3312 -0.6572  0.1219
   22TCq2    C3  337   3.587   4.094  14.834 -0.5991 -0.4672  0.3248
   22TCq2    C4  338   3.505   4.053  14.936 -0.4238  0.2281 -0.5019
   22TCq2    C5  339   3.386   4.106  14.964 -0.2513 -0.7868 -0.4757
   22TCq2    C6  340   3.346   4.202  14.877  0.1651  0.0555 -0.0300
   22TCq2    C7  341   3.427   4.269  14.786  0.1927  0.0106  0.0986
   22TCq2    C8  342   3.217   4.268  14.910 -0.3386 -0.0644 -0.3053
   22TCq2    O4  343   3.151   4.235  15.010  0.0169 -0.1509 -0.2769
   22TCq2    C9  344   3.542   3.938  15.022 -0.4538 -0.3554  0.0288
   22TCq2    O5  345   3.520   3.938  15.145  0.3829  0.3227  0.3198
   22TCq2    O6  346   3.603   3.844  14.961  0.9756 -0.0814  0.0185
   22TCq2    H2  347   3.686   4.050  14.828 -0.0107  0.7371  1.1424
   22TCq2    H3  348   3.335   4.073  15.054 -0.7673 -0.6994 -0.7367
   22TCq2    H4  349   3.405   4.354  14.723 -0.1301 -0.2016 -0.0751
   23MPD2     C  350   0.867   0.267  14.486  0.0792 -0.3986  0.0158
   23MPD2    C1  351   0.865   0.334  14.610  0.2622 -0.2412  0.1535
   23MPD2    C2  352   0.796   0.456  14.620  0.1146  0.6339  0.0501
   23MPD2    C3  353   0.730   0.507  14.503 -0.4196 -0.0436 -0.3297
   23MPD2    C4  354   0.728   0.430  14.391  0.3570  0.1913  0.8905
   23MPD2    C5  355   0.804   0.317  14.377 -1.0090 -0.1615  0.2392
   23MPD2     H  356   0.778   0.512  14.712 -0.0140  0.0023  0.4069
   23MPD2    H1  357   0.666   0.458  14.307  0.5050 -2.9840 -0.2920
   23MPD2    H2  358   0.923   0.174  14.479  1.6821  0.4658  1.2815
   23MPD2    H3  359   0.808   0.269  14.280  2.5587 -0.8684  0.7506
   23MPD2     N  360   0.649   0.627  14.493 -0.2544 -0.0280  0.5883
   23MPD2    H5  361   0.612   0.655  14.402 -0.7659 -0.1603  0.7564
   23MPD2    N1  362   0.903   0.271  14.737 -0.3482  0.1011  0.6841
   23MPD2    H7  363   0.859   0.306  14.822  0.4856  2.1416  0.2738
   24TCq2    C1  364   0.635   0.728  14.586  0.0054 -0.0344  0.1302
   24TCq2    O2  365   0.676   0.731  14.701 -0.0907 -0.2892  0.2552
   24TCq2    C2  366   0.540   0.831  14.555  0.5114 -0.1548 -0.2091
   24TCq2    C3  367   0.494   0.902  14.653  0.0868  0.4774  0.3254
   24TCq2    C4  368   0.483   1.039  14.642 -0.3113 -0.4393  0.3094
   24TCq2    C5  369   0.500   1.098  14.519  0.0709 -0.2927  0.6856
   24TCq2    C6  370   0.533   1.023  14.408  0.9947  0.0315 -0.3107
   24TCq2    C7  371   0.563   0.890  14.426  0.3579  0.1196  0.4079
   24TCq2    C8  372   0.493   1.064  14.274 -0.1899 -0.3385  0.2501
   24TCq2    O4  373   0.552   1.017  14.177 -0.1732  0.8019 -0.5910
   24TCq2    C9  374   0.441   1.115  14.762 -0.1086 -0.0461 -0.2471
   24TCq2    O5  375   0.478   1.235  14.762 -0.3179 -0.3123 -0.9715
   24TCq2    O6  376   0.397   1.048  14.856  0.6217 -0.5667  0.2595
   24TCq2    H2  377   0.463   0.863  14.749  0.9005  0.6031  0.6431
   24TCq2    H3  378   0.467   1.201  14.514  0.6146 -0.1560 -0.1665
   24TCq2    H4  379   0.593   0.827  14.344 -1.0492 -0.2136  0.1556
   25TMC2    C1  380   4.232   2.969  11.506 -0.3602 -0.1494  0.7291
   25TMC2    C2  381   4.341   3.048  11.514 -0.3459  0.1330 -0.1607
   25TMC2    C3  382   4.377   3.086  11.645  0.6170  0.3372  0.8842
   25TMC2    C4  383   4.151   2.926  11.609 -0.2060 -0.3079 -0.0638
   25TMC2    C5  384   4.184   2.971  11.732  0.1441 -0.0393 -0.3517
   25TMC2    C6  385   4.302   3.040  11.751  0.7734 -0.5948 -0.2621
   25TMC2     C  386   4.174   2.958  11.375 -0.6428  0.0040 -0.4752
   25TMC2     O  387   4.202   3.055  11.302 -0.0341  0.1818  0.1808
   25TMC2     H  388   4.398   3.077  11.426  0.3593  1.2177  0.6503
   25TMC2    H1  389   4.060   2.872  11.589 -0.7636  0.4698  0.3612
   25TMC2    H2  390   4.336   3.073  11.848  1.9654  0.6037 -1.0845
   25TMC2    C7  391   4.131   2.912  11.849 -0.5182  0.0274 -0.7195
   25TMC2    C8  392   4.498   3.171  11.663  0.2670 -0.3465  0.1724
   25TMC2    O1  393   4.196   2.915  11.954  0.1914  0.3980  0.4339
   25TMC2    O2  394   4.592   3.164  11.585  0.5397 -0.0069  0.4489
   25TMC2    O5  395   4.456   3.278  11.728  0.0588  0.0413 -0.1523
   25TMC2    H5  396   4.359   3.286  11.740  0.3194  0.6320  1.5950
   26MPD2     C  397   3.880   2.796  10.988  0.1767 -0.0609 -0.5313
   26MPD2    C1  398   3.898   2.688  11.068  0.2060 -0.3238 -0.3424
   26MPD2    C2  399   3.968   2.701  11.189 -0.5843 -0.1211 -0.3335
   26MPD2    C3  400   4.019   2.829  11.225  0.1292 -0.1947 -0.0058
   26MPD2    C4  401   3.999   2.936  11.134  0.4041  0.3901 -0.8077
   26MPD2    C5  402   3.936   2.919  11.014  0.1667 -0.0917 -0.3922
   26MPD2     H  403   3.965   2.626  11.266 -1.9211  0.2509 -0.0221
   26MPD2    H1  404   4.049   3.032  11.141  1.1851 -0.0227 -0.7742
   26MPD2    H2  405   3.818   2.782  10.900 -1.1133  0.0181  0.3586
   26MPD2    H3  406   3.915   3.003  10.948 -3.5912  0.6051  1.6837
   26MPD2     N  407   4.091   2.850  11.349  0.2126  0.6187  0.3815
   26MPD2    H5  408   4.097   2.774  11.417 -0.5313  0.5320  0.3581
   26MPD2    N1  409   3.846   2.564  11.030  0.4310  0.1371  1.1164
   26MPD2    H7  410   3.804   2.557  10.938 -1.4381  1.9117  1.8132
   27TMC2    C1  411   2.847   1.050  12.133  0.6676  0.3789  0.0409
   27TMC2    C2  412   2.945   1.096  12.049 -0.1805  0.0817 -0.2977
   27TMC2    C3  413   3.074   1.116  12.086 -0.1797 -0.0433  0.1257
   27TMC2    C4  414   2.881   1.037  12.267  0.1525 -0.2519  0.5056
   27TMC2    C5  415   3.012   1.057  12.309 -0.4140 -0.4903 -0.2298
   27TMC2    C6  416   3.111   1.095  12.219 -0.9578  0.2449  0.2177
   27TMC2     C  417   2.754   0.956  12.071 -0.3917  0.1854 -0.1082
   27TMC2     O  418   2.775   0.923  11.953  0.0422 -0.1842 -0.1691
   27TMC2     H  419   2.924   1.103  11.943 -1.8443  0.6573  0.0722
   27TMC2    H1  420   2.813   0.996  12.341 -0.1142  0.2767  0.5543
   27TMC2    H2  421   3.214   1.110  12.249 -0.9974 -2.3803  1.6592
   27TMC2    C7  422   3.059   0.976  12.426 -0.1475  0.2898 -0.1003
   27TMC2    C8  423   3.156   1.177  11.982  0.2760 -0.3213 -0.0432
   27TMC2    O1  424   2.975   0.929  12.504 -0.2250  0.1572 -0.2620
   27TMC2    O2  425   3.112   1.239  11.888 -0.1306 -0.6610  0.0937
   27TMC2    O5  426   3.281   1.150  12.017 -0.0767 -0.5945  0.5514
   27TMC2    H5  427   3.288   1.081  12.085  0.5882 -0.5115  0.5713
   28MPD2     C  428   2.443   0.575  12.147  0.3628  0.0377 -0.2277
   28MPD2    C1  429   2.447   0.647  12.261  0.4488 -0.4201 -0.7239
   28MPD2    C2  430   2.509   0.768  12.259 -0.8436  0.0650 -0.0648
   28MPD2    C3  431   2.579   0.801  12.143 -0.1905 -0.8698 -0.9386
   28MPD2    C4  432   2.580   0.720  12.034 -0.2344 -0.0730  0.0348
   28MPD2    C5  433   2.511   0.605  12.030 -0.4767  0.3391  0.6623
   28MPD2     H  434   2.506   0.834  12.345  1.8670 -0.4324  0.4196
   28MPD2    H1  435   2.641   0.735  11.945  0.6003 -3.4786  0.0408
   28MPD2    H2  436   2.415   0.470  12.155  1.3419 -0.0837  1.8981
   28MPD2    H3  437   2.510   0.541  11.943 -0.0182  0.0580  0.8617
   28MPD2     N  438   2.658   0.917  12.160  0.2045 -0.0741 -0.0808
   28MPD2    H5  439   2.654   0.968  12.248 -2.6255  0.4914 -0.5314
   28MPD2    N1  440   2.385   0.591  12.379 -0.1482  0.7457 -0.4466
   28MPD2    H7  441   2.354   0.495  12.384  0.1138  0.7205  0.6669
   29MPD2     C  442   2.034   2.543  14.110 -0.4524 -0.1475 -0.1627
   29MPD2    C1  443   2.153   2.505  14.160  0.3268 -0.1559  0.0097
   29MPD2    C2  444   2.240   2.603  14.216  0.4017 -0.3464  0.0778
   29MPD2    C3  445   2.205   2.735  14.207 -0.4538 -0.1793  0.1515
   29MPD2    C4  446   2.079   2.770  14.150 -0.3038 -0.0359  0.1963
   29MPD2    C5  447   1.999   2.679  14.098  0.4955 -0.2721  0.5913
   29MPD2     H  448   2.330   2.573  14.269  1.0257  0.6689 -0.3991
   29MPD2    H1  449   2.043   2.871  14.134  1.4831  0.2892 -1.9491
   29MPD2    H2  450   1.965   2.474  14.064 -0.5870  1.8982 -3.0680
   29MPD2    H3  451   1.905   2.698  14.046  0.2585  1.4205  1.6409
   29MPD2     N  452   2.294   2.830  14.244 -0.6074  0.5600  0.4379
   29MPD2    H5  453   2.380   2.807  14.292 -0.6459  1.0003  0.7248
   29MPD2    N1  454   2.193   2.368  14.176 -0.3261  0.1875 -0.2418
   29MPD2    H7  455   2.288   2.355  14.212 -0.7995  0.7342  1.2105
   30TCq2    C1  456   2.296   2.964  14.200 -0.7396  0.0109 -0.0555
   30TCq2    O2  457   2.239   3.012  14.104 -0.1417 -0.3113 -0.6050
   30TCq2    C2  458   2.406   3.041  14.261  0.2825 -0.7913  0.0788
   30TCq2    C3  459   2.443   3.025  14.387  0.9694  0.4001 -0.5389
   30TCq2    C4  460   2.550   3.086  14.439 -0.0126 -0.4478  0.6897
   30TCq2    C5  461   2.617   3.169  14.358 -0.3812  0.5093  0.3687
   30TCq2    C6  462   2.575   3.188  14.227 -0.2728  0.5993  0.1860
   30TCq2    C7  463   2.470   3.117  14.172 -0.2490 -0.2497 -0.2125
   30TCq2    C8  464   2.658   3.252  14.133  0.4021  0.5585  0.4890
   30TCq2    O4  465   2.602   3.298  14.033 -0.1768  0.6869  0.1179
   30TCq2    C9  466   2.588   3.063  14.585 -0.9989  0.6847  0.0227
   30TCq2    O5  467   2.697   3.115  14.620  0.5062 -0.0894  0.7121
   30TCq2    O6  468   2.520   2.990  14.659 -0.7015  0.8483 -0.5165
   30TCq2    H2  469   2.393   2.960  14.457  3.1244 -0.2596  0.3817
   30TCq2    H3  470   2.693   3.234  14.400  0.6157  0.8995 -2.0552
   30TCq2    H4  471   2.443   3.122  14.067 -0.0197 -2.7714 -0.3885
   31MPD2     C  472   0.194   1.314  14.963 -0.7608 -0.2792 -0.4394
   31MPD2    C1  473   0.081   1.390  14.931  0.0804 -0.2621  0.5961
   31MPD2    C2  474   4.702   1.390  15.019 -0.6564  0.3383 -0.3290
   31MPD2    C3  475   4.709   1.306  15.131 -0.5155  0.0529  0.1249
   31MPD2    C4  476   0.093   1.233  15.158 -0.0890  0.2944  0.4851
   31MPD2    C5  477   0.190   1.225  15.064  0.2775  0.4595  0.6840
   31MPD2     H  478   4.613   1.449  14.999 -0.2185  1.1231  0.0449
   31MPD2    H1  479   0.097   1.166  15.244 -0.4313 -0.8656 -0.4083
   31MPD2    H2  480   0.283   1.320  14.901 -0.4999  1.4152  0.1179
   31MPD2    H3  481   0.285   1.176  15.083  0.1323 -0.7780 -1.8355
   31MPD2     N  482   4.606   1.309  15.232  0.0605  0.9505  0.2551
   31MPD2    H5  483   4.631   1.247  15.308  3.5760  2.1103  0.0756
   31MPD2    N1  484   0.091   1.476  14.815 -0.0267  0.5062  0.0286
   31MPD2    H7  485   0.178   1.474  14.763  0.5509  1.1031  0.9568
   32TCq2    C1  486   4.485   1.375  15.224  0.0451 -0.2443 -0.2593
   32TCq2    O2  487   4.427   1.428  15.132 -0.4043 -0.2938 -0.1139
   32TCq2    C2  488   4.405   1.349  15.340 -0.4819  0.6895 -0.0377
   32TCq2    C3  489   4.281   1.394  15.344 -0.1178  0.0609 -0.3315
   32TCq2    C4  490   4.199   1.363  15.451 -0.2651 -0.0125 -0.9037
   32TCq2    C5  491   4.243   1.280  15.547 -0.1382  0.1131 -0.6599
   32TCq2    C6  492   4.369   1.236  15.539 -0.6020  0.0511 -0.0775
   32TCq2    C7  493   4.454   1.275  15.442  0.3412  0.1569 -1.0313
   32TCq2    C8  494   4.436   1.172  15.657 -0.7983 -0.7467  0.5982
   32TCq2    O4  495   4.543   1.113  15.631 -0.4132  0.0371 -0.2290
   32TCq2    C9  496   4.064   1.419  15.474  0.3947 -0.5811 -0.5710
   32TCq2    O5  497   4.027   1.432  15.593  0.5090  0.1034  0.4380
   32TCq2    O6  498   4.004   1.465  15.374 -0.3403 -0.1667 -0.4896
   32TCq2    H2  499   4.238   1.466  15.275 -0.2085 -2.3720 -2.8447
   32TCq2    H3  500   4.172   1.266  15.628  2.3939 -1.7017  1.2045
   32TCq2    H4  501   4.560   1.253  15.446  0.3051  0.2391  0.6852
   33MPD2     C  502   0.116   4.212  10.341 -0.0721 -0.2382 -0.4353
   33MPD2    C1  503   0.030   4.108  10.307 -0.4453 -0.5122 -0.8651
   33MPD2    C2  504   0.001   4.087  10.173 -0.7480  0.0987  0.2943
   33MPD2    C3  505   0.038   4.179  10.077 -0.2776 -0.0016  0.3456
   33MPD2    C4  506   0.118   4.286  10.114 -0.5490  0.3988  0.7087
   33MPD2    C5  507   0.159   4.304  10.248  0.2836 -0.0793  0.2170
   33MPD2     H  508   4.664   4.004  10.142  0.2263 -0.3054 -0.5984
   33MPD2    H1  509   0.157   4.359  10.044  0.5172  1.4182  2.3434
   33MPD2    H2  510   0.161   4.215  10.439 -0.0858  0.0476 -0.4378
   33MPD2    H3  511   0.226   4.382  10.281 -0.3450 -0.2342  1.8896
   33MPD2     N  512   0.018   4.163   9.933  0.6666  0.8141  0.0949
   33MPD2    H5  513   0.058   4.243   9.884  0.7512 -1.2168 -3.1668
   33MPD2    N1  514   4.708   4.029  10.418 -0.1672 -0.1445  0.1740
   33MPD2    H7  515   0.014   4.050  10.512  0.1591 -0.7261  0.1958
   34TCq2    C1  516   4.711   4.052   9.862 -0.3871 -0.2677 -0.0165
   34TCq2    O2  517   4.712   3.936   9.896 -0.0479 -0.1108  0.1637
   34TCq2    C2  518   4.693   4.089   9.720 -0.3595  0.1948 -0.2355
   34TCq2    C3  519   4.697   3.983   9.633  0.5112 -0.1919  0.0595
   34TCq2    C4  520   4.666   4.006   9.498  0.6623 -0.2223  0.0923
   34TCq2    C5  521   4.650   4.136   9.451 -0.1740 -0.4113  0.6589
   34TCq2    C6  522   4.671   4.242   9.542  0.2408 -0.2514  0.1984
   34TCq2    C7  523   4.678   4.217   9.676 -0.6353 -0.1088  0.4186
   34TCq2    C8  524   4.680   4.383   9.497 -0.1324  0.6092  0.0357
   34TCq2    O4  525   0.007   4.462   9.577 -0.5304 -0.0508  0.8481
   34TCq2    C9  526   4.642   3.890   9.421 -0.3377 -0.2071  0.1125
   34TCq2    O5  527   4.636   3.785   9.487  0.3289 -0.6919 -0.3691
   34TCq2    O6  528   4.637   3.897   9.296  0.1060 -0.3444 -0.4015
   34TCq2    H2  529   4.722   3.885   9.672  0.9919  0.6259  1.8135
   34TCq2    H3  530   4.639   4.152   9.344  1.6560 -0.8228  0.4242
   34TCq2    H4  531   4.679   4.298   9.749  2.0022 -0.0088  0.2900
   35MPD2     C  532   1.953   1.155  11.651 -0.4497 -0.4186 -0.9083
   35MPD2    C1  533   1.940   1.024  11.688 -0.0694  0.2172 -0.1698
   35MPD2    C2  534   1.852   0.950  11.607  0.5182  0.1065 -0.1918
   35MPD2    C3  535   1.772   1.000  11.502 -0.0108  0.2085  0.4378
   35MPD2    C4  536   1.808   1.125  11.458 -0.1601  0.7874 -0.2541
   35MPD2    C5  537   1.886   1.201  11.542 -0.6290  0.7843  0.1729
   35MPD2     H  538   1.847   0.844  11.629 -0.0126 -0.1855 -1.7262
   35MPD2    H1  539   1.767   1.179  11.374  1.5005  0.9910 -0.9285
   35MPD2    H2  540   2.029   1.209  11.706 -0.9249  0.6027 -1.2552
   35MPD2    H3  541   1.904   1.305  11.516  0.0167  0.7337  0.4092
   35MPD2     N  542   1.670   0.918  11.454 -0.3378 -0.0879  0.1170
   35MPD2    H5  543   1.661   0.831  11.505 -0.8770 -0.9724 -1.4930
   35MPD2    N1  544   2.007   0.969  11.801 -0.0612 -0.1409 -0.2095
   35MPD2    H7  545   2.036   1.037  11.870 -0.4477 -1.3513  1.1388
   36TCq2    C1  546   1.561   0.972  11.389 -0.8157 -0.0309  0.0809
   36TCq2    O2  547   1.549   1.082  11.332 -0.3856  0.0656 -0.4301
   36TCq2    C2  548   1.435   0.890  11.397  0.1261 -0.7279  0.5490
   36TCq2    C3  549   1.317   0.953  11.371  0.7346  0.0526  0.5949
   36TCq2    C4  550   1.205   0.878  11.370  0.4601 -0.2258 -0.2738
   36TCq2    C5  551   1.211   0.744  11.391  0.6753 -0.0923 -0.3527
   36TCq2    C6  552   1.330   0.689  11.409  0.0643 -0.3591 -0.5611
   36TCq2    C7  553   1.444   0.756  11.414 -0.5248  0.0238 -0.0376
   36TCq2    C8  554   1.320   0.543  11.394 -0.6445 -0.3742  0.4646
   36TCq2    O4  555   1.230   0.498  11.331  0.0853  0.5219  0.8316
   36TCq2    C9  556   1.087   0.941  11.319 -0.0436 -0.3287  0.1387
   36TCq2    O5  557   0.984   0.868  11.310 -0.1926 -0.3623 -0.2810
   36TCq2    O6  558   1.107   1.041  11.240 -0.6733 -0.0505  0.5609
   36TCq2    H2  559   1.318   1.060  11.352 -0.7827 -0.1204 -0.3897
   36TCq2    H3  560   1.126   0.683  11.365  0.7681  0.2885 -1.5264
   36TCq2    H4  561   1.541   0.707  11.415 -0.9172 -0.7078  1.4364
   37TMC2    C1  562   3.617   0.832  11.304  0.2750 -0.5805  0.0692
   37TMC2    C2  563   3.556   0.872  11.192 -0.0657 -0.3438  0.3959
   37TMC2    C3  564   3.633   0.905  11.082 -0.2181 -0.2535  0.0833
   37TMC2    C4  565   3.751   0.817  11.312  0.2046 -0.0303  0.6746
   37TMC2    C5  566   3.827   0.856  11.198  0.2825 -0.2127 -0.0998
   37TMC2    C6  567   3.768   0.893  11.078  0.6044 -0.4914 -0.7140
   37TMC2     C  568   3.535   0.805  11.424 -0.9410 -0.2590  1.0658
   37TMC2     O  569   3.423   0.757  11.414  0.3817  0.5570 -0.4856
   37TMC2     H  570   3.449   0.887  11.181  0.3000  1.9109 -0.2661
   37TMC2    H1  571   3.805   0.759  11.385  1.7472 -0.5707 -0.8892
   37TMC2    H2  572   3.826   0.934  10.996  1.2347 -1.6368 -0.8473
   37TMC2    C7  573   3.966   0.829  11.190  0.7715  0.2659 -0.6636
   37TMC2    C8  574   3.559   0.977  10.981 -0.2314 -0.0247 -0.3332
   37TMC2    O1  575   4.021   0.849  11.297  0.6440 -0.6843  0.1130
   37TMC2    O2  576   3.457   1.037  11.004  0.1491 -0.0674  0.5726
   37TMC2    O5  577   3.614   0.971  10.857  0.7249 -0.1605 -0.4438
   37TMC2    H5  578   3.674   0.899  10.830  0.8700 -0.0321 -0.4674
   38MPD2     C  579   3.532   0.719  11.944 -0.3154  0.2345  0.2497
   38MPD2    C1  580   3.661   0.763  11.905  0.0190  0.6809 -0.1170
   38MPD2    C2  581   3.683   0.811  11.774 -0.5085  0.5542  0.2635
   38MPD2    C3  582   3.587   0.795  11.675  0.3252 -0.3982  0.0098
   38MPD2    C4  583   3.463   0.752  11.713  0.1990 -0.5066  0.7012
   38MPD2    C5  584   3.437   0.713  11.841  0.1205 -0.2072  0.0918
   38MPD2     H  585   3.783   0.846  11.749 -0.1110 -1.2765 -0.7194
   38MPD2    H1  586   3.383   0.730  11.644 -0.3827 -1.0035  1.5446
   38MPD2    H2  587   3.495   0.698  12.044  1.6543  0.8854  1.1083
   38MPD2    H3  588   3.342   0.664  11.858 -1.1946  1.9839 -0.9466
   38MPD2     N  589   3.616   0.820  11.535  0.4067  0.2202 -0.7949
   38MPD2    H5  590   3.715   0.829  11.515  0.5273  0.7328  0.0439
   38MPD2    N1  591   3.761   0.775  12.005 -0.1034  0.3821 -0.1169
   38MPD2    H7  592   3.855   0.794  11.971 -0.0081  0.5715  0.2540
   39MPD2     C  593   2.417   1.242   1.376 -0.6744 -0.9762  0.2014
   39MPD2    C1  594   2.326   1.259   1.479 -0.8571  0.1594  0.0259
   39MPD2    C2  595   2.196   1.294   1.447  0.6428  0.2719  0.0979
   39MPD2    C3  596   2.164   1.308   1.312 -0.6263 -0.1057 -0.1144
   39MPD2    C4  597   2.258   1.300   1.215 -0.5473  0.8326 -0.3345
   39MPD2    C5  598   2.383   1.259   1.247 -0.0177 -0.2469 -0.0926
   39MPD2     H  599   2.124   1.306   1.527  0.4138  0.1957 -0.0938
   39MPD2    H1  600   2.230   1.299   1.111 -2.0847  0.7016  0.0865
   39MPD2    H2  601   2.521   1.217   1.391 -0.4304 -1.2898 -1.9731
   39MPD2    H3  602   2.455   1.242   1.167 -0.4968  0.2595 -0.6275
   39MPD2     N  603   2.029   1.339   1.266 -0.2776  0.7537 -0.7280
   39MPD2    H5  604   2.020   1.320   1.167 -0.0586 -0.7753 -0.4599
   39MPD2    N1  605   2.381   1.245   1.608 -0.5656 -0.4575 -0.4718
   39MPD2    H7  606   2.481   1.227   1.615 -0.4534  0.6354  0.7009
   40TCq2    C1  607   2.317   1.270   1.728  0.0716  0.0663 -0.6670
   40TCq2    O2  608   2.196   1.271   1.743 -0.0150 -0.3580 -0.1612
   40TCq2    C2  609   2.400   1.276   1.849  0.9694 -0.2461  0.3820
   40TCq2    C3  610   2.325   1.273   1.971  0.7335  0.5832  0.1613
   40TCq2    C4  611   2.387   1.232   2.083  0.3590 -0.4930  0.3086
   40TCq2    C5  612   2.515   1.181   2.080 -0.0217  0.3264 -0.0227
   40TCq2    C6  613   2.597   1.203   1.966  0.4401 -0.0017  0.7354
   40TCq2    C7  614   2.537   1.250   1.851 -0.5106 -0.3278 -0.0011
   40TCq2    C8  615   2.739   1.204   1.985 -0.4689  0.1903 -0.6640
   40TCq2    O4  616   2.780   1.179   2.097  0.1017  0.4075  0.1542
   40TCq2    C9  617   2.312   1.235   2.209  0.3373 -0.1083  0.6575
   40TCq2    O5  618   2.208   1.305   2.222 -0.5122  0.2305 -0.9890
   40TCq2    O6  619   2.354   1.156   2.298  0.4657 -0.5115 -0.1990
   40TCq2    H2  620   2.227   1.315   1.985  1.3434  2.0169  0.0865
   40TCq2    H3  621   2.558   1.143   2.172 -2.9327 -1.4623  0.5787
   40TCq2    H4  622   2.585   1.226   1.756 -0.0341  0.1066  0.1287
   41TMC2    C1  623   1.083   0.177  13.654 -0.2574 -0.7972 -0.3454
   41TMC2    C2  624   1.063   0.073  13.744 -0.1810 -0.2502  0.0243
   41TMC2    C3  625   1.044   4.671  13.689 -0.4060 -0.0127  0.3637
   41TMC2    C4  626   1.108   0.154  13.520 -0.6166  0.5331 -0.6031
   41TMC2    C5  627   1.107   0.021  13.479 -0.2157  0.0782 -0.3831
   41TMC2    C6  628   1.083   4.647  13.561 -0.2307 -0.4391  1.0603
   41TMC2     C  629   1.024   0.304  13.693  0.3833  0.3107  0.5342
   41TMC2     O  630   0.986   0.373  13.601 -0.0061  0.1732 -0.1264
   41TMC2     H  631   1.029   0.078  13.846 -0.7774 -1.7937 -0.0914
   41TMC2    H1  632   1.109   0.241  13.455 -2.1004  0.0805 -1.2205
   41TMC2    H2  633   1.068   4.552  13.511  2.1042 -1.3847  2.1767
   41TMC2    C7  634   1.056   0.009  13.343 -0.3781  0.3993  0.0589
   41TMC2    C8  635   1.039   4.561  13.785 -0.2854  0.5277  0.4333
   41TMC2    O1  636   0.976   4.648  13.320 -0.3248 -0.3252  0.4319
   41TMC2    O2  637   1.115   4.556  13.882  0.1394  0.5552 -0.7284
   41TMC2    O5  638   0.990   4.469  13.704 -0.4659 -0.0680  0.8237
   41TMC2    H5  639   0.916   4.504  13.650 -0.8439 -0.2512  1.2220
   42MPD2     C  640   0.923   0.542  13.833  0.7807 -0.1789 -0.4303
   42MPD2    C1  641   1.002   0.444  13.898  0.0906  0.2549  0.0072
   42MPD2    C2  642   1.036   0.457  14.028 -0.3063 -0.3184 -0.3303
   42MPD2    C3  643   0.985   0.571  14.101 -0.5717 -0.5974 -0.3080
   42MPD2    C4  644   0.902   0.661  14.036  0.2655  0.7183  0.6571
   42MPD2    C5  645   0.874   0.651  13.902  0.4298  0.2954  0.0820
   42MPD2     H  646   1.106   0.385  14.070 -1.0735 -0.8616 -0.0023
   42MPD2    H1  647   0.856   0.737  14.098 -0.6619 -1.0318  2.1130
   42MPD2    H2  648   0.914   0.532  13.725 -0.3652  1.4969 -0.4962
   42MPD2    H3  649   0.814   0.727  13.853 -1.6025 -0.0816  2.0189
   42MPD2     N  650   1.028   0.595  14.235  0.2577  0.4424 -0.0782
   42MPD2    H5  651   0.988   0.680  14.273 -2.3092 -0.3469 -1.0750
   42MPD2    N1  652   1.038   0.325  13.829 -0.2596 -0.0581  0.2408
   42MPD2    H7  653   1.084   0.255  13.886  0.6437 -0.7991 -1.4134
   43MPD2     C  654   2.175   2.429   0.907  0.2716  0.5488 -0.5778
   43MPD2    C1  655   2.302   2.481   0.897 -0.3510  0.6775 -0.0570
   43MPD2    C2  656   2.332   2.612   0.943 -0.4317  0.8829 -0.6895
   43MPD2    C3  657   2.228   2.674   1.007 -0.3827  0.4739  0.3020
   43MPD2    C4  658   2.097   2.629   1.005  0.5572 -0.0218 -0.4791
   43MPD2    C5  659   2.069   2.507   0.957  0.1571  0.6941 -0.0841
   43MPD2     H  660   2.427   2.663   0.931  0.6259 -0.6083  1.3115
   43MPD2    H1  661   2.018   2.696   1.039 -0.7044 -2.2164  0.9246
   43MPD2    H2  662   2.148   2.328   0.876  2.0885  0.3307 -1.4315
   43MPD2    H3  663   1.964   2.481   0.947 -0.2657  1.9163  1.1332
   43MPD2     N  664   2.252   2.796   1.078  0.5036  0.4069 -0.1189
   43MPD2    H5  665   2.166   2.847   1.098  0.4492  1.4024 -2.9958
   43MPD2    N1  666   2.409   2.407   0.841 -1.0843 -0.8602 -0.0291
   43MPD2    H7  667   2.490   2.467   0.823 -0.2277 -1.3486  2.1008
   44TCq2    C1  668   2.536   3.156   1.461 -0.1542 -0.2490  0.3003
   44TCq2    O2  669   2.645   3.097   1.459 -0.1395  0.2978  0.1781
   44TCq2    C2  670   2.425   3.109   1.382 -0.8564 -0.1009  0.1114
   44TCq2    C3  671   2.305   3.181   1.375 -0.0005  0.4881 -0.0323
   44TCq2    C4  672   2.215   3.148   1.282 -0.2909  0.2393  0.0739
   44TCq2    C5  673   2.226   3.038   1.203 -0.4025  0.5322  0.0468
   44TCq2    C6  674   2.348   2.971   1.208  0.7805  0.2304 -0.1499
   44TCq2    C7  675   2.444   2.991   1.304 -0.3119 -0.6020 -0.2851
   44TCq2    C8  676   2.367   2.859   1.116 -0.0878 -0.1411 -0.4346
   44TCq2    O4  677   2.477   2.815   1.096  0.4505  0.0217 -0.6313
   44TCq2    C9  678   2.111   3.244   1.257 -1.0749 -0.4782 -0.4134
   44TCq2    O5  679   2.123   3.360   1.298  0.3463 -0.7983  0.4147
   44TCq2    O6  680   2.045   3.216   1.150  0.4280 -0.4335  0.0896
   44TCq2    H2  681   2.290   3.274   1.428  0.0618  1.1922 -1.2386
   44TCq2    H3  682   2.159   3.030   1.118  0.0737 -1.5150 -0.1458
   44TCq2    H4  683   2.541   2.943   1.314 -1.2038 -2.6421 -1.5080
   45TMC2    C1  684   3.700   0.531   9.732  0.8578 -0.0671 -0.5900
   45TMC2    C2  685   3.711   0.488   9.860  0.7940 -0.2808 -0.2682
   45TMC2    C3  686   3.741   0.589   9.950  0.1860 -0.4881  0.6170
   45TMC2    C4  687   3.698   0.660   9.693  0.6830  0.4334 -0.2821
   45TMC2    C5  688   3.741   0.753   9.783 -0.5514  0.3542  0.6643
   45TMC2    C6  689   3.761   0.718   9.912 -0.1445  0.3245 -1.0964
   45TMC2     C  690   3.645   0.436   9.635 -0.1745 -0.4158 -0.0569
   45TMC2     O  691   3.684   0.320   9.642  0.1597 -0.4280 -0.4531
   45TMC2     H  692   3.704   0.382   9.879 -1.9109 -0.0808 -0.2360
   45TMC2    H1  693   3.682   0.690   9.590 -0.6267  1.5458  0.2458
   45TMC2    H2  694   3.773   0.794   9.989 -1.3084 -0.1904 -0.4022
   45TMC2    C7  695   3.727   0.896   9.749 -0.6522 -0.2681 -0.5303
   45TMC2    C8  696   3.777   0.565  10.089  0.0839  0.1688  0.3816
   45TMC2    O1  697   3.756   0.963   9.846  0.0803 -0.2528  0.0903
   45TMC2    O2  698   3.852   0.645  10.153  0.1100  0.1461 -0.4455
   45TMC2    O5  699   3.738   0.436  10.122  0.2525 -0.3912 -0.4835
   45TMC2    H5  700   3.675   0.389  10.064 -0.5601  2.4618 -1.9191
   46MPD2     C  701   3.535   0.322   9.390  0.5607  0.2168  0.0387
   46MPD2    C1  702   3.487   0.432   9.446 -0.5691  0.0806 -0.1999
   46MPD2    C2  703   3.377   0.488   9.396  0.0384 -0.3582  0.4696
   46MPD2    C3  704   3.302   0.441   9.288 -0.3679 -0.1651 -0.1498
   46MPD2    C4  705   3.353   0.330   9.225  0.1161  0.1647  0.1173
   46MPD2    C5  706   3.467   0.272   9.275 -0.1791 -0.0408  0.4830
   46MPD2     H  707   3.344   0.577   9.449  2.9409  1.5334 -0.9397
   46MPD2    H1  708   3.293   0.287   9.146  0.5958  2.0201 -1.2447
   46MPD2    H2  709   3.628   0.268   9.407  0.1145 -0.7986 -0.7265
   46MPD2    H3  710   3.505   0.188   9.218  0.9270  1.6897 -1.3319
   46MPD2     N  711   3.184   0.508   9.244 -0.4172 -0.0862  0.2061
   46MPD2    H5  712   3.142   0.566   9.316  1.2205 -1.4585  2.2787
   46MPD2    N1  713   3.544   0.491   9.560  0.3200  0.3581 -0.1691
   46MPD2    H7  714   3.506   0.581   9.587  0.2768  0.5509 -0.8780
   47TMC2    C1  715   3.492   1.615   9.411 -0.3166 -0.3249  0.5508
   47TMC2    C2  716   3.372   1.672   9.432 -0.4713 -0.2680  0.2395
   47TMC2    C3  717   3.266   1.637   9.352 -0.0748 -0.2450  0.9063
   47TMC2    C4  718   3.503   1.509   9.322  0.4975  0.3230 -0.5456
   47TMC2    C5  719   3.397   1.468   9.248  0.1668  0.2537 -0.4794
   47TMC2    C6  720   3.277   1.532   9.260 -0.4168  0.6751 -0.3369
   47TMC2     C  721   3.610   1.672   9.477 -0.0557 -0.2057  0.3678
   47TMC2     O  722   3.579   1.761   9.553 -0.2249 -0.7071  0.1466
   47TMC2     H  723   3.360   1.759   9.495  0.8838 -1.3914  2.0484
   47TMC2    H1  724   3.596   1.453   9.324  0.5083  0.4643  3.6957
   47TMC2    H2  725   3.196   1.518   9.190 -1.9969 -0.5525  1.7485
   47TMC2    C7  726   3.414   1.345   9.173 -0.2353  0.4086 -0.8055
   47TMC2    C8  727   3.166   1.737   9.332 -0.5911 -0.3963 -0.2655
   47TMC2    O1  728   3.526   1.289   9.181  0.3180 -0.3067  0.2979
   47TMC2    O2  729   3.051   1.710   9.322 -0.3203 -0.0390 -0.1017
   47TMC2    O5  730   3.229   1.849   9.293  0.2465  0.3734  0.5837
   47TMC2    H5  731   3.326   1.840   9.278  0.1300  2.4347 -1.4757
   48MPD2     C  732   3.846   1.735   9.640 -0.5011 -0.4689 -0.0104
   48MPD2    C1  733   3.849   1.637   9.539  0.2326 -0.2259  0.5931
   48MPD2    C2  734   3.968   1.563   9.519 -0.0041 -0.8072  0.5173
   48MPD2    C3  735   4.086   1.607   9.589 -0.3403  0.5790 -0.3355
   48MPD2    C4  736   4.076   1.690   9.698  0.1637  0.0701  0.7395
   48MPD2    C5  737   3.955   1.756   9.718  0.0603  0.1231  0.0983
   48MPD2     H  738   3.969   1.482   9.447  2.0758 -0.2748 -0.0460
   48MPD2    H1  739   4.155   1.713   9.769  1.2702 -0.8559 -0.1927
   48MPD2    H2  740   3.769   1.810   9.652 -0.5307 -0.3369 -0.9917
   48MPD2    H3  741   3.961   1.841   9.784  3.3775 -0.3604  0.4127
   48MPD2     N  742   4.213   1.550   9.548  0.4003  0.6524 -0.1819
   48MPD2    H5  743   4.207   1.487   9.469  0.3221 -0.9401  1.0838
   48MPD2    N1  744   3.734   1.609   9.457  0.2260 -0.5571 -0.3418
   48MPD2    H7  745   3.743   1.537   9.386  1.0699 -0.6028 -0.1866
   49MPD2     C  746   3.075   3.151  10.281  0.6200  0.2362 -0.4605
   49MPD2    C1  747   3.091   3.090  10.402 -0.1628 -0.1085  0.1412
   49MPD2    C2  748   3.179   3.151  10.491  0.1888 -0.4122  0.2504
   49MPD2    C3  749   3.249   3.270  10.458 -0.1436  0.0591  0.1706
   49MPD2    C4  750   3.234   3.327  10.332  0.5830 -0.5631 -0.5588
   49MPD2    C5  751   3.142   3.262  10.249  0.3853 -0.6130  0.4427
   49MPD2     H  752   3.202   3.103  10.585 -1.1139 -3.0838 -0.7887
   49MPD2    H1  753   3.291   3.417  10.315  0.3193 -0.7166 -2.2195
   49MPD2    H2  754   3.004   3.115  10.208 -0.7034 -1.3721  1.6303
   49MPD2    H3  755   3.124   3.309  10.153  1.5175  0.8241  0.9197
   49MPD2     N  756   3.344   3.338  10.542  0.8064  0.7637  0.2236
   49MPD2    H5  757   3.390   3.423  10.511  0.2904  0.0693 -2.4393
   49MPD2    N1  758   3.007   2.980  10.443  0.3338 -0.4258 -1.1440
   49MPD2    H7  759   3.035   2.939  10.532 -2.1684  1.9432  0.7234
   50TCq2    C1  760   2.887   2.954  10.377 -0.0892  0.3427  0.2495
   50TCq2    O2  761   2.829   3.017  10.291  0.1772  0.4501  0.4404
   50TCq2    C2  762   2.810   2.839  10.434  0.1437 -0.5024  0.1073
   50TCq2    C3  763   2.870   2.755  10.517  0.1535  0.0576  0.5096
   50TCq2    C4  764   2.796   2.655  10.573 -1.0000  0.1438  0.7275
   50TCq2    C5  765   2.660   2.654  10.561 -0.3171 -0.1159  0.1133
   50TCq2    C6  766   2.601   2.748  10.483  0.1492 -0.6473 -0.2267
   50TCq2    C7  767   2.671   2.849  10.422  0.3779 -0.9797  0.3826
   50TCq2    C8  768   2.460   2.753  10.454  0.0992 -0.1150 -0.3429
   50TCq2    O4  769   2.419   2.823  10.360  0.2178 -0.5353  0.0359
   50TCq2    C9  770   2.854   2.542  10.640 -0.5463 -0.4507  0.5193
   50TCq2    O5  771   2.782   2.466  10.716 -0.0075 -0.5962 -0.8292
   50TCq2    O6  772   2.976   2.527  10.628 -0.3112 -0.3553  0.2457
   50TCq2    H2  773   2.975   2.761  10.541  0.5839  0.2496 -1.4976
   50TCq2    H3  774   2.600   2.576  10.607  2.2991 -2.7930 -0.9732
   50TCq2    H4  775   2.629   2.915  10.347  0.1170 -0.3477  1.0751
   51MPD2     C  776   0.732   4.536   0.901 -0.2863  0.0348 -0.0570
   51MPD2    C1  777   0.729   4.667   0.856  0.0093 -0.6269  0.3719
   51MPD2    C2  778   0.819   0.031   0.913 -0.1480 -0.1126  0.6031
   51MPD2    C3  779   0.904   4.717   1.015  0.0388 -1.0040 -0.1154
   51MPD2    C4  780   0.907   4.582   1.058  0.6149  0.4075  0.2638
   51MPD2    C5  781   0.826   4.492   0.994 -0.1992  0.4448  0.2871
   51MPD2     H  782   0.823   0.129   0.867 -1.0315 -1.2012 -1.7777
   51MPD2    H1  783   0.981   4.539   1.124  1.8131  0.8782 -0.7658
   51MPD2    H2  784   0.666   4.466   0.851  2.1574 -2.4936  0.2776
   51MPD2    H3  785   0.821   4.388   1.023 -0.9706  0.5458  0.5207
   51MPD2     N  786   0.991   0.087   1.084 -0.4141  0.2828  0.3078
   51MPD2    H5  787   1.026   0.056   1.174  0.6514  0.1755 -0.1464
   51MPD2    N1  788   0.636   4.720   0.773 -0.4820 -0.4239 -0.6753
   51MPD2    H7  789   0.634   0.096   0.765  0.2345 -0.3654 -0.1410
   52TCq2    C1  790   0.977   0.225   1.082  0.0315 -0.5713  0.4067
   52TCq2    O2  791   0.882   0.290   1.036  0.5098 -0.9531  0.0605
   52TCq2    C2  792   1.072   0.299   1.169  0.2649  0.0022  0.5260
   52TCq2    C3  793   1.182   0.250   1.228  0.0280  0.0676 -0.4209
   52TCq2    C4  794   1.250   0.322   1.323  0.6487  0.5114 -0.1986
   52TCq2    C5  795   1.217   0.452   1.353  0.4333  0.8599 -0.3397
   52TCq2    C6  796   1.099   0.495   1.295 -0.7300  0.1355  0.1352
   52TCq2    C7  797   1.031   0.423   1.197  0.0748  0.5229  0.6520
   52TCq2    C8  798   1.033   0.616   1.344  0.4053  0.2719 -0.1746
   52TCq2    O4  799   0.915   0.624   1.308  0.0356  0.4115  0.3084
   52TCq2    C9  800   1.372   0.269   1.381  0.0149 -0.3422  0.7863
   52TCq2    O5  801   1.401   0.148   1.379  0.5311 -0.0459 -0.2362
   52TCq2    O6  802   1.436   0.356   1.445 -0.1083  0.0236 -0.0311
   52TCq2    H2  803   1.216   0.149   1.207 -0.7852 -0.8186  2.5839
   52TCq2    H3  804   1.287   0.520   1.400  1.5928 -1.3189  1.0958
   52TCq2    H4  805   0.930   0.455   1.170 -0.6338 -2.1158  0.2468
   53TMC2    C1  806   4.644   0.793  11.353  0.3406 -0.4913 -0.9325
   53TMC2    C2  807   0.051   0.827  11.360  0.0935  0.7311 -0.9771
   53TMC2    C3  808   0.084   0.888  11.480 -0.9704 -0.2443  0.0029
   53TMC2    C4  809   4.557   0.811  11.457  0.1180 -0.2679 -0.0426
   53TMC2    C5  810   4.590   0.891  11.561 -0.0832  0.0674 -0.1319
   53TMC2    C6  811   4.723   0.931  11.580  0.6047  0.4989 -0.8987
   53TMC2     C  812   4.582   0.730  11.238  0.1280 -0.8033  0.1497
   53TMC2     O  813   4.652   0.650  11.184 -0.0435  0.3363 -0.2451
   53TMC2     H  814   0.122   0.805  11.281  0.8736  0.6738 -0.2593
   53TMC2    H1  815   4.457   0.769  11.449  0.2295 -1.1541  3.0007
   53TMC2    H2  816   0.023   1.001  11.659 -1.3627 -0.9248  0.9811
   53TMC2    C7  817   4.480   0.917  11.654 -0.9634  0.5770 -0.9781
   53TMC2    C8  818   0.220   0.920  11.514  0.2589 -0.2022  0.7331
   53TMC2    O1  819   4.369   0.923  11.613  0.4819  0.2522 -0.5000
   53TMC2    O2  820   0.239   1.010  11.593 -0.7053  0.2384 -0.3128
   53TMC2    O5  821   0.304   0.851  11.435  0.4212  0.0710 -0.2421
   53TMC2    H5  822   0.265   0.772  11.392 -1.3830  0.6782  0.2833
   54MPD2     C  823   4.378   0.613  11.042 -0.4228  0.0495  0.5348
   54MPD2    C1  824   4.357   0.713  11.130 -0.1057  0.6267 -0.0632
   54MPD2    C2  825   4.235   0.768  11.143 -0.4913 -0.1732 -0.6954
   54MPD2    C3  826   4.135   0.711  11.068  0.4183  0.2492  0.5523
   54MPD2    C4  827   4.151   0.598  10.984  0.1221  0.4924 -0.1872
   54MPD2    C5  828   4.274   0.547  10.974 -0.0818  0.1093 -0.3890
   54MPD2     H  829   4.225   0.854  11.209 -1.4765  0.0619 -1.1491
   54MPD2    H1  830   4.069   0.552  10.930  1.0222 -1.2621 -0.0494
   54MPD2    H2  831   4.479   0.576  11.029 -0.5230 -0.3519  0.9086
   54MPD2    H3  832   4.289   0.456  10.918  0.0272 -0.4678  0.5866
   54MPD2     N  833   4.008   0.756  11.079  0.1309  0.9291 -0.0315
   54MPD2    H5  834   3.944   0.731  11.003 -0.5909 -1.0930  1.2199
   54MPD2    N1  835   4.457   0.773  11.209 -0.6005  0.3155 -0.2155
   54MPD2    H7  836   4.419   0.844  11.270  0.1767  0.5840 -0.0384
   55MPD2     C  837   0.748   2.992  17.628  0.0720 -0.9037 -0.4887
   55MPD2    C1  838   0.744   2.933   0.050  0.1985 -0.2444 -0.2906
   55MPD2    C2  839   0.631   2.965   0.134 -0.2402 -0.0034 -0.4182
   55MPD2    C3  840   0.545   3.061   0.086  0.3727  0.1229  0.3118
   55MPD2    C4  841   0.551   3.108  17.660 -0.1103 -0.0446  0.7347
   55MPD2    C5  842   0.655   3.074  17.582 -0.0392  0.3450  0.7293
   55MPD2     H  843   0.613   2.923   0.232 -2.2334 -0.2211 -0.8824
   55MPD2    H1  844   0.487   3.190  17.631  1.3492  1.7292  2.5419
   55MPD2    H2  845   0.827   2.969  17.557  1.3639  0.2662  0.5418
   55MPD2    H3  846   0.665   3.111  17.480 -0.8317  0.7328  0.7914
   55MPD2     N  847   0.443   3.097   0.177  1.0443  0.1514 -1.3462
   55MPD2    H5  848   0.441   3.045   0.264 -0.8528  1.3675 -0.6595
   55MPD2    N1  849   0.846   2.832   0.079  0.1502  0.3912  0.5969
   55MPD2    H7  850   0.919   2.813   0.011 -0.7066 -1.6206  0.2279
   56TCq2    C1  851   0.848   2.753   0.196 -0.4269 -0.5426 -0.6855
   56TCq2    O2  852   0.782   2.763   0.302  0.0001  0.1936  0.0221
   56TCq2    C2  853   0.961   2.662   0.191 -0.3689 -0.7406 -0.3654
   56TCq2    C3  854   1.056   2.690   0.099  0.1936  0.4223 -0.0070
   56TCq2    C4  855   1.131   2.588   0.051  0.2995 -0.5252  0.5007
   56TCq2    C5  856   1.114   2.460   0.099  0.7579  0.4205  0.0463
   56TCq2    C6  857   1.024   2.437   0.198 -0.4475  0.7108 -0.3043
   56TCq2    C7  858   0.939   2.537   0.241 -0.4591  0.3709 -0.2168
   56TCq2    C8  859   1.007   2.303   0.258 -0.8316  0.5633 -0.0422
   56TCq2    O4  860   1.098   2.222   0.241  0.0906 -0.4630  0.1998
   56TCq2    C9  861   1.241   2.624  17.670  0.9551 -0.4406  0.0034
   56TCq2    O5  862   1.247   2.743  17.638 -0.3201  0.6059  0.9726
   56TCq2    O6  863   1.342   2.548  17.682 -0.9149 -0.3779  0.0724
   56TCq2    H2  864   1.083   2.791   0.070  2.5408 -0.8060 -2.1224
   56TCq2    H3  865   1.176   2.378   0.066  0.6663  0.0574  0.7733
   56TCq2    H4  866   0.871   2.529   0.325  0.0455 -2.4856 -0.1011
   57TMC2    C1  867   4.480   4.455  13.747 -0.0929 -1.0530 -0.3586
   57TMC2    C2  868   4.557   4.383  13.826 -0.5088 -0.1563 -0.2559
   57TMC2    C3  869   4.661   4.314  13.784 -0.3233  0.3862  0.0352
   57TMC2    C4  870   4.503   4.459  13.616 -0.0268  0.5062 -0.3953
   57TMC2    C5  871   4.605   4.379  13.567  0.0104  0.3182  0.4455
   57TMC2    C6  872   4.688   4.308  13.650  0.6932  0.6862 -0.0438
   57TMC2     C  873   4.348   4.488  13.801 -0.7705 -0.0957 -0.0345
   57TMC2     O  874   4.290   4.589  13.760 -0.0058 -0.1615  0.0056
   57TMC2     H  875   4.529   4.380  13.931 -0.7709  4.6607 -0.1576
   57TMC2    H1  876   4.434   4.522  13.561  0.2835  0.3839 -0.9224
   57TMC2    H2  877   0.036   4.240  13.607  0.2878  0.0383  0.2881
   57TMC2    C7  878   4.588   4.337  13.430 -0.5419 -0.4208 -0.9146
   57TMC2    C8  879   0.018   4.249  13.882  0.7647 -0.2580 -0.0933
   57TMC2    O1  880   4.506   4.396  13.362 -0.3321  0.1092  0.6512
   57TMC2    O2  881   0.074   4.148  13.847 -0.0148 -0.1468 -0.2241
   57TMC2    O5  882   4.716   4.285  14.014 -0.4782 -0.2689  0.7744
   57TMC2    H5  883   4.685   4.377  14.029 -0.8532  0.2183 -2.7894
   58MPD2     C  884   3.928   4.374  14.066 -0.4288  0.2157 -0.2752
   58MPD2    C1  885   3.988   4.504  14.033  0.1671 -0.5954  0.3859
   58MPD2    C2  886   4.110   4.498  13.974  0.1017  0.2891  0.0840
   58MPD2    C3  887   4.166   4.382  13.923 -0.0555 -0.1937  0.7497
   58MPD2    C4  888   4.104   4.263  13.946 -0.5201  0.7085  0.3276
   58MPD2    C5  889   3.988   4.261  14.014  0.0674  0.6827 -0.3566
   58MPD2     H  890   4.162   4.590  13.953 -0.3644 -0.1441 -2.9990
   58MPD2    H1  891   4.160   4.172  13.924 -0.4059  0.6384  0.9080
   58MPD2    H2  892   3.844   4.359  14.133 -1.4067  2.1791 -1.0762
   58MPD2    H3  893   3.947   4.166  14.043 -1.7792  1.6590  0.2446
   58MPD2     N  894   4.291   4.381  13.864 -0.0551 -0.3843 -0.1198
   58MPD2    H5  895   4.329   4.287  13.858  0.0430 -0.5505  2.8817
   58MPD2    N1  896   3.936   4.630  14.075 -0.2509 -0.7945 -0.2147
   58MPD2    H7  897   3.993   4.713  14.063 -2.8944  1.2199  1.2089
   59MPD2     C  898   2.275   0.159  12.974 -0.1433  0.0480  0.5924
   59MPD2    C1  899   2.361   0.057  12.930 -0.8223 -0.2359 -0.2817
   59MPD2    C2  900   2.487   0.045  12.979  0.2695  0.5639  0.0978
   59MPD2    C3  901   2.527   0.126  13.085 -0.3937 -0.1191  1.0144
   59MPD2    C4  902   2.437   0.215  13.135 -0.3973 -0.0990  0.3538
   59MPD2    C5  903   2.311   0.226  13.088 -0.3452 -0.5765 -0.8488
   59MPD2     H  904   2.560   4.699  12.943  1.0493  1.7384 -0.6578
   59MPD2    H1  905   2.466   0.281  13.216 -1.7491 -0.2991  1.0021
   59MPD2    H2  906   2.174   0.174  12.936  1.0195  0.1524 -2.4422
   59MPD2    H3  907   2.242   0.304  13.119  0.6620  0.1512 -0.4260
   59MPD2     N  908   2.647   0.111  13.163  0.3873 -0.6369  0.0004
   59MPD2    H5  909   2.661   0.178  13.238  4.1682  0.5343 -1.7915
   59MPD2    N1  910   2.312   4.684  12.838  0.0796  0.8874  0.5280
   59MPD2    H7  911   2.389   4.627  12.807 -1.5066 -0.6848 -0.5397
   60TCq2    C1  912   2.180   4.658  12.813  0.3601 -0.1112  0.0324
   60TCq2    O2  913   2.083   4.666  12.888 -0.3506  0.1800 -0.2416
   60TCq2    C2  914   2.158   4.568  12.695 -0.3491 -0.3263  0.2001
   60TCq2    C3  915   2.045   4.488  12.710 -0.1853 -0.1167  0.5449
   60TCq2    C4  916   1.992   4.432  12.596  0.4136 -0.0194  0.2876
   60TCq2    C5  917   2.039   4.476  12.469  0.1976 -0.2018 -0.9376
   60TCq2    C6  918   2.143   4.563  12.460 -0.6504 -0.5048 -0.2966
   60TCq2    C7  919   2.195   4.621  12.573 -0.2047  0.0861  0.3467
   60TCq2    C8  920   2.183   4.606  12.335  0.9575 -0.2507 -0.6042
   60TCq2    O4  921   2.172   4.522  12.243  0.1502 -0.0511 -0.1243
   60TCq2    C9  922   1.883   4.348  12.610  0.5439 -0.5517  0.4789
   60TCq2    O5  923   1.856   4.267  12.512 -0.6716 -0.6786  0.6090
   60TCq2    O6  924   1.818   4.354  12.718 -0.6158 -0.2391 -0.0524
   60TCq2    H2  925   2.012   4.458  12.808  0.6595  0.7242  1.0765
   60TCq2    H3  926   1.979   4.445  12.385  0.9975  0.4504 -1.7556
   60TCq2    H4  927   2.267   4.701  12.560  0.9914 -1.3040 -1.5527
   61MPD2     C  928   1.657   0.847  14.829  0.0970 -0.0256  0.2920
   61MPD2    C1  929   1.555   0.924  14.779 -0.3661  0.2792 -0.0373
   61MPD2    C2  930   1.586   0.993  14.665  0.6024 -0.0673  0.2033
   61MPD2    C3  931   1.709   0.987  14.604  0.0424 -0.0765 -0.0676
   61MPD2    C4  932   1.806   0.901  14.648 -0.0647  0.4786  0.4507
   61MPD2    C5  933   1.779   0.836  14.771 -0.0666  0.5403 -0.1094
   61MPD2     H  934   1.508   1.063  14.638  1.7143  1.3306  0.5893
   61MPD2    H1  935   1.910   0.901  14.619 -0.5089  0.6322 -1.1316
   61MPD2    H2  936   1.650   0.796  14.924 -0.2341 -2.5972 -1.0920
   61MPD2    H3  937   1.850   0.762  14.803  0.2298  1.2327  0.8190
   61MPD2     N  938   1.734   1.067  14.495  0.1752 -0.4830 -0.2902
   61MPD2    H5  939   1.669   1.143  14.478  0.5400 -0.0815  0.1279
   61MPD2    N1  940   1.437   0.949  14.852 -0.1001 -0.1536  0.6261
   61MPD2    H7  941   1.380   1.026  14.819  1.7312 -0.2304 -2.7266
   62TCq2    C1  942   1.390   0.876  14.965 -0.5001 -0.2889  0.3618
   62TCq2    O2  943   1.424   0.765  14.995 -0.3301 -0.1330 -0.6822
   62TCq2    C2  944   1.289   0.950  15.037 -0.2240 -0.3699  0.5936
   62TCq2    C3  945   1.173   0.889  15.044  0.4760 -0.0025 -0.3904
   62TCq2    C4  946   1.065   0.953  15.100 -0.1613 -0.0242 -0.6007
   62TCq2    C5  947   1.071   1.081  15.134  0.0060  0.3916  0.4232
   62TCq2    C6  948   1.187   1.147  15.108  0.5018  0.3648  0.4172
   62TCq2    C7  949   1.299   1.083  15.061 -1.2775  0.1581 -0.2487
   62TCq2    C8  950   1.195   1.295  15.115  0.0873  0.7580 -0.2974
   62TCq2    O4  951   1.308   1.347  15.112  0.0577  0.0922  0.3091
   62TCq2    C9  952   0.950   0.879  15.116 -0.4854  0.6308  0.0603
   62TCq2    O5  953   0.962   0.753  15.119  0.3145  0.1104  0.0660
   62TCq2    O6  954   0.844   0.949  15.147 -0.2900  0.0979  0.3837
   62TCq2    H2  955   1.173   0.786  15.011  1.0249  0.1940 -0.9968
   62TCq2    H3  956   0.980   1.121  15.177 -0.0470  0.4277  0.2757
   62TCq2    H4  957   1.378   1.151  15.030  0.2393 -0.6970  1.7608
   63TMC2    C1  958   0.088   1.242  10.781 -0.4793  0.2824 -0.6330
   63TMC2    C2  959   4.702   1.286  10.853 -0.3489  0.7173  0.2160
   63TMC2    C3  960   0.007   1.343  10.974 -0.2057 -0.9730  1.0384
   63TMC2    C4  961   0.215   1.268  10.814  0.1082 -0.8412 -0.3078
   63TMC2    C5  962   0.234   1.329  10.938  0.0629 -0.7423 -0.2028
   63TMC2    C6  963   0.134   1.367  11.018 -0.0366  0.3371 -0.3337
   63TMC2     C  964   0.060   1.146  10.672  0.6735 -0.3670 -0.0166
   63TMC2     O  965   4.670   1.141  10.636 -1.2947  0.0441  0.3252
   63TMC2     H  966   4.600   1.262  10.827 -0.1727  1.8672 -1.5266
   63TMC2    H1  967   0.295   1.242  10.745  0.1038 -0.7512 -0.3469
   63TMC2    H2  968   0.160   1.419  11.109  2.6817 -0.1992 -0.8150
   63TMC2    C7  969   0.367   1.366  10.972 -0.0876 -0.2477 -0.1351
   63TMC2    C8  970   4.625   1.339  11.065  0.8333 -0.9885  0.2589
   63TMC2    O1  971   0.389   1.404  11.085 -0.5173  0.2565  1.6111
   63TMC2    O2  972   4.508   1.325  11.034 -0.1858 -0.9532  0.1561
   63TMC2    O5  973   4.673   1.329  11.187  0.0918  0.2221  0.1771
   63TMC2    H5  974   0.046   1.325  11.189  0.1647  2.1478 -0.1678
   64MPD2     C  975   0.210   0.787  10.336 -0.2872  0.9571 -0.0254
   64MPD2    C1  976   0.287   0.780  10.450  0.0278  0.1149  0.8945
   64MPD2    C2  977   0.275   0.871  10.556  0.8389  0.3932  0.2165
   64MPD2    C3  978   0.170   0.966  10.551 -0.0051  0.1389  0.5484
   64MPD2    C4  979   0.081   0.960  10.447 -0.1533 -0.0543  0.6126
   64MPD2    C5  980   0.102   0.866  10.343 -0.6800  0.9926 -0.2558
   64MPD2     H  981   0.352   0.869  10.632  0.3027 -2.1417  0.7131
   64MPD2    H1  982   4.721   1.025  10.430  0.3402  0.3326 -0.4042
   64MPD2    H2  983   0.222   0.711  10.260  1.3296 -0.2980  1.4764
   64MPD2    H3  984   0.032   0.867  10.261 -1.9974  1.0775  0.8643
   64MPD2     N  985   0.168   1.063  10.652  0.4261  0.4881  0.1454
   64MPD2    H5  986   0.237   1.069  10.727  0.3693  0.1420  0.2221
   64MPD2    N1  987   0.396   0.688  10.449 -0.5487 -0.6231 -0.1229
   64MPD2    H7  988   0.458   0.696  10.530 -0.0608  0.2083 -0.5730
   65MPD2     C  989   1.818   0.243  15.728 -0.2633  0.0132 -0.2560
   65MPD2    C1  990   1.782   0.250  15.593 -0.9084  0.4538 -0.9664
   65MPD2    C2  991   1.833   0.149  15.519 -0.2430 -0.3933 -0.1410
   65MPD2    C3  992   1.911   0.044  15.571  0.0710  0.0838  0.1118
   65MPD2    C4  993   1.956   0.048  15.697  0.3481 -0.2179 -0.2266
   65MPD2    C5  994   1.896   0.140  15.779 -0.0636  0.2286 -0.3185
   65MPD2     H  995   1.799   0.152  15.416  0.0186  1.8576 -0.1746
   65MPD2    H1  996   2.027   4.701  15.737  0.6960 -0.4262 -1.2147
   65MPD2    H2  997   1.772   0.309  15.801 -1.0725 -1.4494  0.5627
   65MPD2    H3  998   1.909   0.132  15.886  1.1797 -0.0915 -0.4882
   65MPD2     N  999   1.954   4.663  15.490  0.1313 -0.7004  0.0845
   65MPD2    H5 1000   1.984   4.574  15.528 -0.4621 -0.8998  0.0850
   65MPD2    N1 1001   1.702   0.355  15.536  0.5090 -0.3402 -0.1068
   65MPD2    H7 1002   1.669   0.357  15.440  0.5638 -0.6564 -0.1324
   66TCq2    C1 1003   1.666   0.470  15.605  0.7307 -0.0968  0.7092
   66TCq2    O2 1004   1.703   0.509  15.715  0.5737  0.4964  0.0437
   66TCq2    C2 1005   1.584   0.552  15.515 -0.0459 -0.6199  0.4496
   66TCq2    C3 1006   1.503   0.490  15.423 -0.0202 -0.6740 -0.6245
   66TCq2    C4 1007   1.435   0.575  15.335 -0.2872 -0.1901 -0.6643
   66TCq2    C5 1008   1.456   0.710  15.329  0.2711 -0.4246  0.0099
   66TCq2    C6 1009   1.544   0.767  15.412  0.0606  0.1732  0.1947
   66TCq2    C7 1010   1.602   0.693  15.516  0.6447  0.3923 -0.0521
   66TCq2    C8 1011   1.560   0.909  15.403 -0.1507  0.6254  0.2363
   66TCq2    O4 1012   1.482   0.974  15.338  0.2142  0.3185  0.2543
   66TCq2    C9 1013   1.351   0.512  15.239 -0.0119 -0.1542  0.5805
   66TCq2    O5 1014   1.398   0.418  15.169 -0.0301  0.0257 -0.2076
   66TCq2    O6 1015   1.275   0.594  15.186 -0.5615  0.3760 -0.3092
   66TCq2    H2 1016   1.477   0.386  15.410 -0.5009 -0.5361 -0.7661
   66TCq2    H3 1017   1.407   0.771  15.254 -0.5695 -0.7622  0.2841
   66TCq2    H4 1018   1.657   0.735  15.600  0.5915  0.2020  0.0790
   67MPD2     C 1019   2.322   4.525  13.714  0.1930  0.2574 -0.2320
   67MPD2    C1 1020   2.279   4.618  13.806  0.7182  0.4621 -0.3779
   67MPD2    C2 1021   2.169   4.692  13.785  0.3718  0.2227  0.1839
   67MPD2    C3 1022   2.082   4.667  13.690  0.4215  0.6336 -0.4053
   67MPD2    C4 1023   2.110   4.571  13.602 -0.3497 -0.4539  0.6911
   67MPD2    C5 1024   2.230   4.497  13.614 -0.0164 -0.1055  0.1807
   67MPD2     H 1025   2.159   0.048  13.857  0.4163  1.0962 -0.7991
   67MPD2    H1 1026   2.039   4.541  13.526 -0.6594 -2.1823  1.6519
   67MPD2    H2 1027   2.414   4.470  13.725 -0.2580 -0.7969 -1.7583
   67MPD2    H3 1028   2.241   4.414  13.545 -0.1037  1.0761 -1.2393
   67MPD2     N 1029   1.948   4.708  13.691  0.1606 -0.5491 -0.0265
   67MPD2    H5 1030   1.888   4.666  13.621 -0.2653  0.6574 -0.3812
   67MPD2    N1 1031   2.361   4.653  13.913  0.5082 -0.2979  0.3633
   67MPD2    H7 1032   2.344   0.016  13.960  2.2226  1.0813 -1.6501
   68TCq2    C1 1033   2.459   4.570  13.966 -1.1028  0.1709 -0.2062
   68TCq2    O2 1034   2.488   4.458  13.931  0.1739  1.2249 -0.1211
   68TCq2    C2 1035   2.516   4.617  14.093 -0.0399  0.8165  0.3252
   68TCq2    C3 1036   2.490   0.017  14.127 -0.2005  0.1318  1.2218
   68TCq2    C4 1037   2.493   0.050  14.256 -0.3196 -0.1952  0.9102
   68TCq2    C5 1038   2.518   4.684  14.349  0.0876 -0.3702 -0.1878
   68TCq2    C6 1039   2.537   4.553  14.315  0.1150 -0.0095 -1.3615
   68TCq2    C7 1040   2.535   4.519  14.183 -0.1279  0.1027  0.1120
   68TCq2    C8 1041   2.570   4.446  14.411 -0.9042  0.2307  0.6880
   68TCq2    O4 1042   2.613   4.343  14.364  0.4209  0.0514 -0.1642
   68TCq2    C9 1043   2.476   0.191  14.295 -0.2195 -0.8443 -0.3985
   68TCq2    O5 1044   2.492   0.219  14.416 -0.0743  1.0437 -0.1263
   68TCq2    O6 1045   2.422   0.268  14.217  0.4265  0.4882 -0.5149
   68TCq2    H2 1046   2.476   0.101  14.060 -0.0195 -0.7897  0.0272
   68TCq2    H3 1047   2.532   4.706  14.455  2.0883 -0.8934 -0.3507
   68TCq2    H4 1048   2.543   4.417  14.145 -1.8986 -0.0603  0.1672
   69TMC2    C1 1049   4.445   1.437  12.341  0.5303  0.4409  0.5755
   69TMC2    C2 1050   4.335   1.520  12.337 -0.2338  0.8333 -0.2750
   69TMC2    C3 1051   4.321   1.598  12.225  0.5377 -0.1358 -0.1492
   69TMC2    C4 1052   4.546   1.434  12.251  0.5533 -0.6874 -0.1592
   69TMC2    C5 1053   4.527   1.522  12.152 -0.2618  0.4449  0.3560
   69TMC2    C6 1054   4.414   1.595  12.130 -0.0198  0.3297 -0.4095
   69TMC2     C 1055   4.443   1.318  12.430 -0.4792  0.3261  0.2125
   69TMC2     O 1056   4.348   1.241  12.443  0.7762 -0.2278 -0.0075
   69TMC2     H 1057   4.265   1.507  12.418  1.9799  1.7063  1.7739
   69TMC2    H1 1058   4.636   1.375  12.260  1.2816  0.3002 -1.0292
   69TMC2    H2 1059   4.408   1.654  12.040  0.7547 -0.5890 -1.0622
   69TMC2    C7 1060   4.611   1.493  12.033 -0.4992  0.1531  0.4561
   69TMC2    C8 1061   4.205   1.689  12.212  0.3707 -0.3004  0.1584
   69TMC2    O1 1062   0.005   1.488  12.045 -0.9977  0.2796 -0.6068
   69TMC2    O2 1063   4.175   1.730  12.101 -0.1484 -0.1782 -0.5569
   69TMC2    O5 1064   4.198   1.756  12.333  0.1286  0.0890 -0.3611
   69TMC2    H5 1065   4.236   1.692  12.398  2.7920  1.6134 -0.4208
   70MPD2     C 1066   0.024   1.220  12.610 -0.2140  0.0452  0.2070
   70MPD2    C1 1067   4.626   1.203  12.551  0.7473 -0.2556  0.8401
   70MPD2    C2 1068   4.565   1.075  12.566 -0.4142 -0.1573 -0.1122
   70MPD2    C3 1069   4.629   0.977  12.641  0.3249  0.4799 -0.1834
   70MPD2    C4 1070   0.024   1.006  12.706 -0.7559  0.3135  0.4599
   70MPD2    C5 1071   0.082   1.122  12.686  0.5847 -0.3847  0.5819
   70MPD2     H 1072   4.468   1.050  12.523 -1.4179  0.8921  1.5315
   70MPD2    H1 1073   0.085   0.929  12.751 -2.5390 -1.5994 -0.4088
   70MPD2    H2 1074   0.073   1.317  12.605  0.3460 -0.3380 -1.4412
   70MPD2    H3 1075   0.181   1.143  12.725 -0.2535 -0.2069  2.6288
   70MPD2     N 1076   4.586   0.848  12.662 -0.3941 -0.3316  0.2926
   70MPD2    H5 1077   4.656   0.791  12.707 -1.7570 -1.0731  1.4769
   70MPD2    N1 1078   4.572   1.316  12.491  0.1753  0.1329  0.6211
   70MPD2    H7 1079   4.635   1.395  12.484 -1.4409  1.3172 -0.6090
   71TMC2    C1 1080   2.101   0.954   1.485 -0.3884 -0.6511  0.0459
   71TMC2    C2 1081   2.187   0.921   1.595  0.8039  0.1530  0.2152
   71TMC2    C3 1082   2.123   0.936   1.715 -0.1037 -0.5293 -0.8289
   71TMC2    C4 1083   1.991   1.037   1.500 -0.0649 -0.3612  0.4420
   71TMC2    C5 1084   1.956   1.071   1.627 -0.0511  0.3859 -0.1635
   71TMC2    C6 1085   2.017   1.021   1.741 -0.2789 -0.5666 -0.1721
   71TMC2     C 1086   2.150   0.941   1.352 -0.0278 -0.2655 -0.5074
   71TMC2     O 1087   2.068   0.945   1.261  0.4097  0.1808 -0.6116
   71TMC2     H 1088   2.264   0.846   1.582  0.6657  0.1027 -0.3037
   71TMC2    H1 1089   1.942   1.070   1.409  0.1450 -2.8229 -0.5659
   71TMC2    H2 1090   1.994   1.056   1.841  1.4105  1.2115 -0.4103
   71TMC2    C7 1091   1.822   1.125   1.657 -0.1556  0.6111  0.3520
   71TMC2    C8 1092   2.197   0.898   1.826  0.2927 -0.0126  0.6231
   71TMC2    O1 1093   1.817   1.177   1.766 -0.3025 -0.0892  0.7616
   71TMC2    O2 1094   2.319   0.922   1.831  0.2132 -0.8801  0.1947
   71TMC2    O5 1095   2.113   0.900   1.932  0.0863 -0.0770  0.5825
   71TMC2    H5 1096   2.022   0.897   1.895  0.2802 -0.1864  0.1288
   72MPD2     C 1097   2.541   0.959   1.018 -0.1745 -0.3582  0.3082
   72MPD2    C1 1098   2.406   0.990   0.996 -0.3745 -0.5252 -0.1307
   72MPD2    C2 1099   2.318   0.983   1.104 -1.0692 -0.0933  0.9501
   72MPD2    C3 1100   2.365   0.928   1.222  0.2005  0.3847 -0.0066
   72MPD2    C4 1101   2.500   0.912   1.243 -0.0993  0.3198  0.4382
   72MPD2    C5 1102   2.588   0.926   1.143  0.2765  0.7057  0.1289
   72MPD2     H 1103   2.217   1.016   1.085 -0.7234  0.4002 -0.0180
   72MPD2    H1 1104   2.529   0.882   1.343 -0.9031  0.7762  0.8078
   72MPD2    H2 1105   2.620   0.952   0.945 -3.4382  3.9662 -3.6168
   72MPD2    H3 1106   2.695   0.914   1.155  0.1543 -1.4966 -1.1119
   72MPD2     N 1107   2.282   0.918   1.340 -0.1878  0.1821  0.5263
   72MPD2    H5 1108   2.338   0.906   1.424  1.2790  0.8170 -0.3504
   72MPD2    N1 1109   2.357   1.021   0.866  0.0796 -0.3330 -0.3086
   72MPD2    H7 1110   2.261   1.047   0.850  0.4776  2.2561  1.5628
   73TMC2    C1 1111   1.059   3.022  13.271 -0.2613  0.1052  0.3486
   73TMC2    C2 1112   1.127   2.915  13.224  0.3573 -0.4498 -0.6788
   73TMC2    C3 1113   1.196   2.847  13.319  0.2996  0.3898  0.0751
   73TMC2    C4 1114   1.049   3.059  13.406 -0.7733  0.4862  0.5033
   73TMC2    C5 1115   1.123   2.990  13.495  0.1550  1.0328 -0.0336
   73TMC2    C6 1116   1.195   2.887  13.446 -0.0940 -0.3911  0.6819
   73TMC2     C 1117   1.060   3.134  13.178 -0.7508  0.3181  0.5522
   73TMC2     O 1118   1.047   3.244  13.225  0.0950 -0.2277  0.4118
   73TMC2     H 1119   1.144   2.883  13.122  0.6265  1.7241 -1.3282
   73TMC2    H1 1120   0.980   3.138  13.436  0.3303  1.6288  0.0269
   73TMC2    H2 1121   1.274   2.850  13.511  1.3481 -1.4691 -1.6582
   73TMC2    C7 1122   1.211   3.086  13.563 -0.0187 -0.0572 -0.0888
   73TMC2    C8 1123   1.313   2.786  13.264  1.1086 -0.0963 -0.3391
   73TMC2    O1 1124   1.267   3.053  13.665  0.0706 -0.3957  0.0545
   73TMC2    O2 1125   1.378   2.842  13.178 -0.2448  0.0903 -0.0776
   73TMC2    O5 1126   1.291   2.653  13.281 -0.3586 -0.5328 -0.0776
   73TMC2    H5 1127   1.208   2.644  13.331 -0.7118  0.3145 -0.5125
   74MPD2     C 1128   1.205   3.350  12.723  0.0440 -0.9176 -0.0269
   74MPD2    C1 1129   1.199   3.400  12.852  0.1025  0.6385 -0.4906
   74MPD2    C2 1130   1.160   3.319  12.959 -0.2862 -0.4723  0.0026
   74MPD2    C3 1131   1.118   3.190  12.932  0.3848  0.8723 -0.0980
   74MPD2    C4 1132   1.127   3.143  12.808  0.1849  0.5199  0.5065
   74MPD2    C5 1133   1.174   3.219  12.701 -0.1657  0.1030  0.5150
   74MPD2     H 1134   1.148   3.356  13.060  0.4823 -0.1286 -0.0325
   74MPD2    H1 1135   1.111   3.039  12.784 -4.1278  0.6844  2.5860
   74MPD2    H2 1136   1.237   3.403  12.635  1.0259 -1.0545  0.2518
   74MPD2    H3 1137   1.192   3.167  12.607  2.2999 -1.3661  1.7977
   74MPD2     N 1138   1.084   3.099  13.042 -0.0087  0.1940  0.2208
   74MPD2    H5 1139   1.065   3.004  13.011 -2.8893 -0.1127  2.9687
   74MPD2    N1 1140   1.238   3.532  12.871  0.0819 -0.5315  0.1369
   74MPD2    H7 1141   1.282   3.577  12.791 -0.3414 -1.4171 -0.5878
   75TCq2    C1 1142   1.898   0.058  13.798  0.6008  0.9616 -0.7949
   75TCq2    O2 1143   1.945   0.099  13.900  0.0697  0.1732  0.0739
   75TCq2    C2 1144   1.752   0.068  13.786  0.7413 -0.2383  0.1533
   75TCq2    C3 1145   1.691   0.025  13.905 -0.6297  0.1388  0.5469
   75TCq2    C4 1146   1.559   4.719  13.898  0.1779 -0.1104  0.2655
   75TCq2    C5 1147   1.484   4.716  13.778  0.1746 -0.3728  0.7240
   75TCq2    C6 1148   1.561   0.015  13.662  0.0172 -0.8499  0.3654
   75TCq2    C7 1149   1.690   0.060  13.665 -0.4237  0.3187  0.9683
   75TCq2    C8 1150   1.506   4.705  13.533  0.4199  0.1456 -0.3378
   75TCq2    O4 1151   1.550   0.038  13.435 -0.0141  0.3077 -0.0058
   75TCq2    C9 1152   1.494   4.695  14.024 -0.1861  0.1709 -0.5454
   75TCq2    O5 1153   1.564   4.711  14.126 -0.6697  0.5702  1.0145
   75TCq2    O6 1154   1.369   4.691  14.020  0.2018  0.0167 -0.4843
   75TCq2    H2 1155   1.739   0.032  14.002 -2.6789  2.0933  1.4128
   75TCq2    H3 1156   1.378   4.698  13.769 -0.4463  3.9531 -0.4475
   75TCq2    H4 1157   1.744   0.097  13.578  0.1740  0.4283  1.3869
   76MPD2     C 1158   0.914   1.139  11.819  0.1279 -0.6240  0.2662
   76MPD2    C1 1159   0.832   1.064  11.737  0.0099 -0.2649  0.2167
   76MPD2    C2 1160   0.864   0.935  11.713  0.3169 -0.8236 -0.1164
   76MPD2    C3 1161   0.967   0.868  11.779  0.0112  0.0057 -0.5269
   76MPD2    C4 1162   1.044   0.946  11.866  0.0091  0.0629 -0.3934
   76MPD2    C5 1163   1.019   1.077  11.881  0.7375 -0.0571  0.5330
   76MPD2     H 1164   0.798   0.874  11.653 -1.8009 -0.1733  1.5253
   76MPD2    H1 1165   1.133   0.922  11.923  0.7109  1.8343 -0.7555
   76MPD2    H2 1166   0.890   1.242  11.843  3.8665 -0.6505  4.0379
   76MPD2    H3 1167   1.078   1.143  11.945 -3.2493  1.8098  2.2788
   76MPD2     N 1168   1.007   0.733  11.760  0.2021 -0.4635 -0.5476
   76MPD2    H5 1169   1.086   0.698  11.813  2.9873  3.1844 -2.2745
   76MPD2    N1 1170   0.719   1.129  11.680  0.0655 -0.2472  0.5645
   76MPD2    H7 1171   0.694   1.218  11.722 -1.4570  0.6948 -2.2945
   77TCq2    C1 1172   0.960   0.654  11.660  0.3520  0.8303 -0.1790
   77TCq2    O2 1173   0.892   0.685  11.562 -0.0039 -0.0665  0.2922
   77TCq2    C2 1174   1.023   0.522  11.652 -0.4045  0.3677  0.3926
   77TCq2    C3 1175   0.949   0.433  11.572  0.1515  0.0783 -0.4733
   77TCq2    C4 1176   0.999   0.317  11.527 -0.0195  0.4460  0.6805
   77TCq2    C5 1177   1.113   0.271  11.583 -0.0324 -0.3142 -0.3031
   77TCq2    C6 1178   1.179   0.355  11.672  0.5467 -0.0712 -0.3830
   77TCq2    C7 1179   1.144   0.484  11.700 -0.5028 -0.9597 -0.0173
   77TCq2    C8 1180   1.292   0.299  11.747  0.5208 -0.1307 -0.8164
   77TCq2    O4 1181   1.338   0.193  11.699 -0.5676 -0.5287 -0.6155
   77TCq2    C9 1182   0.911   0.238  11.447 -0.3468  0.7210  0.0342
   77TCq2    O5 1183   0.889   0.116  11.480 -0.0614 -0.5885  0.1887
   77TCq2    O6 1184   0.832   0.306  11.372  0.2162 -0.0714 -0.2289
   77TCq2    H2 1185   0.854   0.463  11.531 -0.2415  0.0595  0.4111
   77TCq2    H3 1186   1.146   0.173  11.551  0.8074  0.3702 -1.5199
   77TCq2    H4 1187   1.201   0.552  11.762  0.6323 -0.3869 -1.6835
   78MPD1     C 1188   2.176   3.822   1.996 -0.5713  0.3819  0.2788
   78MPD1    C1 1189   2.119   3.944   2.036 -0.5853 -0.3118  0.7221
   78MPD1    C2 1190   2.198   4.037   2.097  0.4375  0.0422  0.6294
   78MPD1    C3 1191   2.325   4.002   2.145 -0.2998  0.8365 -0.2867
   78MPD1    C4 1192   2.375   3.870   2.109 -0.0645  0.4773  0.1557
   78MPD1    C5 1193   2.301   3.787   2.033  0.9643 -0.1310 -0.1821
   78MPD1     H 1194   2.155   4.132   2.128  0.8583  0.0552  1.1793
   78MPD1    H1 1195   2.476   3.833   2.123 -0.4112 -0.9462 -1.0757
   78MPD1    H2 1196   2.117   3.739   1.958  1.6653 -1.2343  0.3560
   78MPD1    H3 1197   2.345   3.698   1.989 -0.4278 -0.5207 -0.7885
   78MPD1     N 1198   2.403   4.090   2.223 -0.2570  0.1607  0.0332
   78MPD1    H5 1199   2.477   4.039   2.270 -0.7759 -0.4174  0.2188
   78MPD1    N1 1200   1.976   3.958   2.017 -0.2002  0.4579 -0.0725
   78MPD1    H6 1201   1.946   4.054   2.000  0.4241  0.7025  0.2008
   78MPD1    H7 1202   1.935   3.903   1.942  1.8397 -0.2037 -0.6883
   79TCq2    C1 1203   2.382   4.223   2.249 -0.1740 -0.5191 -0.0301
   79TCq2    O2 1204   2.306   4.300   2.197 -0.5292 -0.2076 -0.5590
   79TCq2    C2 1205   2.480   4.274   2.344  0.3851 -0.3543 -0.0121
   79TCq2    C3 1206   2.535   4.192   2.438 -0.1566  0.3690  0.0003
   79TCq2    C4 1207   2.632   4.238   2.518 -0.3766  0.7966  0.4595
   79TCq2    C5 1208   2.678   4.362   2.510  0.0179 -0.1409 -0.2869
   79TCq2    C6 1209   2.628   4.451   2.419 -0.7555  0.9228  0.5327
   79TCq2    C7 1210   2.532   4.402   2.329 -0.0116  0.2086  0.6815
   79TCq2    C8 1211   2.679   4.591   2.417 -0.4583  0.2964 -0.4157
   79TCq2    O4 1212   2.794   4.613   2.456  0.1167 -0.3757 -0.1138
   79TCq2    C9 1213   2.695   4.140   2.606  0.4222  0.7949  0.7433
   79TCq2    O5 1214   2.670   4.016   2.588 -0.0672  0.0314 -0.2535
   79TCq2    O6 1215   2.780   4.191   2.690 -0.0343 -0.2213  0.1458
   79TCq2    H2 1216   2.498   4.091   2.451  3.3571 -0.7789  1.0996
   79TCq2    H3 1217   2.753   4.393   2.581 -0.8015  1.1720  0.0142
   79TCq2    H4 1218   2.485   4.471   2.260 -4.0582 -2.1723  1.0769
   80MPD2     C 1219   0.013   0.748  12.109 -0.5373  0.0376 -0.5287
   80MPD2    C1 1220   4.639   0.669  12.058  0.1141  0.3390 -0.2497
   80MPD2    C2 1221   4.518   0.659  12.119 -0.3622 -0.5763 -0.5068
   80MPD2    C3 1222   4.475   0.743  12.221 -0.2146 -0.1258 -0.5483
   80MPD2    C4 1223   4.578   0.806  12.278 -0.1583 -0.2475 -0.3577
   80MPD2    C5 1224   4.709   0.807  12.232  1.2215 -0.1959 -0.4339
   80MPD2     H 1225   4.440   0.603  12.069  0.7908 -0.7344 -2.1046
   80MPD2    H1 1226   4.552   0.864  12.366  2.1393  0.6087 -0.2431
   80MPD2    H2 1227   0.107   0.767  12.060  1.0265 -2.3718  1.5313
   80MPD2    H3 1228   0.061   0.863  12.285 -0.4223  1.4407  0.2313
   80MPD2     N 1229   4.339   0.755  12.276  0.4289 -0.1823 -0.1665
   80MPD2    H5 1230   4.330   0.813  12.359 -2.8092 -0.2454 -0.4803
   80MPD2    N1 1231   4.656   0.596  11.939  0.5665  0.2893  0.0230
   80MPD2    H7 1232   4.597   0.515  11.923 -0.6502  1.0974  0.4187
   81TCq2    C1 1233   0.015   0.631  11.839 -0.3768  0.2532 -0.4915
   81TCq2    O2 1234   0.099   0.722  11.843  0.0414  0.2525  0.0738
   81TCq2    C2 1235   4.706   0.571  11.716  0.0375 -0.3414 -0.1791
   81TCq2    C3 1236   0.075   0.573  11.620 -0.2006 -0.0745 -0.0305
   81TCq2    C4 1237   0.044   0.508  11.502  0.3509  0.0252  0.3752
   81TCq2    C5 1238   4.652   0.441  11.484  0.4695  0.2854  0.7353
   81TCq2    C6 1239   4.553   0.459  11.580 -0.6724  1.0814 -0.1703
   81TCq2    C7 1240   4.576   0.518  11.705 -0.2072 -0.3412 -0.0421
   81TCq2    C8 1241   4.422   0.413  11.542 -0.5172  0.2238  0.3770
   81TCq2    O4 1242   4.387   0.427  11.427 -0.0360  0.9442  0.7170
   81TCq2    C9 1243   0.151   0.497  11.401 -0.2886  0.6069 -0.2772
   81TCq2    O5 1244   0.138   0.408  11.313 -0.0558 -0.4753 -0.1647
   81TCq2    O6 1245   0.228   0.595  11.387  0.2348  0.3934  0.0167
   81TCq2    H2 1246   0.168   0.625  11.637 -1.0163  2.3028 -2.9352
   81TCq2    H3 1247   4.624   0.395  11.389  1.7827  0.2447  0.3678
   81TCq2    H4 1248   4.489   0.537  11.768 -1.2289 -0.7464 -1.3364
   82MPD2     C 1249   2.353   0.287  10.488  0.5107 -0.5482 -0.4195
   82MPD2    C1 1250   2.296   0.182  10.426  0.0683 -0.7331 -0.3057
   82MPD2    C2 1251   2.337   0.051  10.457 -0.1295  0.7296 -0.0693
   82MPD2    C3 1252   2.440   0.024  10.546 -0.3238  0.0665 -0.5367
   82MPD2    C4 1253   2.501   0.129  10.612 -0.8370 -0.1802  0.2943
   82MPD2    C5 1254   2.449   0.258  10.588  0.3787  0.4455  0.1446
   82MPD2     H 1255   2.290   4.700  10.397  1.0519 -0.5539  0.6493
   82MPD2    H1 1256   2.584   0.121  10.681  0.4912  0.8152 -1.1807
   82MPD2    H2 1257   2.336   0.389  10.457 -1.0409 -0.8312 -0.4888
   82MPD2    H3 1258   2.499   0.336  10.645  1.0103  2.3314 -3.0168
   82MPD2     N 1259   2.490   4.626  10.571 -0.7941 -0.0347  0.8747
   82MPD2    H5 1260   2.575   4.619  10.626  0.0850  2.7912 -0.1335
   82MPD2    N1 1261   2.209   0.209  10.317 -0.4971  0.3163  0.3532
   82MPD2    H7 1262   2.175   0.304  10.327  1.4147  1.0080  0.2288
   83TCq2    C1 1263   2.421   4.505  10.557 -0.3207  0.3599  0.8489
   83TCq2    O2 1264   2.304   4.494  10.524  0.4874  0.3673 -0.8940
   83TCq2    C2 1265   2.486   4.399  10.632 -0.5962  0.5194 -0.1031
   83TCq2    C3 1266   2.616   4.402  10.642 -0.0420  0.2064 -1.2394
   83TCq2    C4 1267   2.682   4.340  10.739  0.2690  0.8445 -0.2556
   83TCq2    C5 1268   2.619   4.250  10.820  0.1720 -0.1410  0.5035
   83TCq2    C6 1269   2.478   4.248  10.812 -0.2852 -0.5779  0.0830
   83TCq2    C7 1270   2.412   4.324  10.722 -0.2631 -0.1114  0.6058
   83TCq2    C8 1271   2.408   4.174  10.916  0.4670  1.5055  0.1363
   83TCq2    O4 1272   2.459   4.160  11.028  0.2953  0.0283  0.4689
   83TCq2    C9 1273   2.831   4.341  10.754  0.6096 -0.6207 -0.4193
   83TCq2    O5 1274   2.871   4.312  10.870 -0.1132 -0.1787  0.2554
   83TCq2    O6 1275   2.881   4.426  10.677  0.5304  0.7418  0.5391
   83TCq2    H2 1276   2.671   4.445  10.558  0.6389  0.3375 -0.7244
   83TCq2    H3 1277   2.669   4.197  10.900  2.9616 -0.4539 -1.4546
   83TCq2    H4 1278   2.305   4.343  10.719 -0.2686 -0.5650 -1.6602
   84TCq2    C1 1279   3.369   3.308  10.673  0.2954 -0.7473  0.1403
   84TCq2    O2 1280   3.332   3.212  10.742  0.1228  0.1756 -0.1285
   84TCq2    C2 1281   3.468   3.400  10.730 -0.5825 -0.4303  0.1883
   84TCq2    C3 1282   3.515   3.502  10.651  0.0304 -0.4230 -0.0254
   84TCq2    C4 1283   3.573   3.605  10.716 -0.0422  0.0207 -0.2594
   84TCq2    C5 1284   3.580   3.628  10.847 -0.0783 -0.8197 -0.1460
   84TCq2    C6 1285   3.527   3.524  10.924 -0.0211 -0.1796  0.0304
   84TCq2    C7 1286   3.468   3.415  10.868  1.3009 -0.0589  0.4130
   84TCq2    C8 1287   3.573   3.522  11.064  0.2230 -0.5318 -0.5697
   84TCq2    O4 1288   3.582   3.628  11.129 -0.0572 -0.2976 -0.0606
   84TCq2    C9 1289   3.626   3.708  10.630 -0.6666  0.1332  0.0176
   84TCq2    O5 1290   3.613   3.689  10.506 -0.4405  0.9922 -0.2672
   84TCq2    O6 1291   3.694   3.797  10.684  0.0688 -0.5233 -0.1786
   84TCq2    H2 1292   3.515   3.499  10.542 -0.7001  1.0082 -0.0665
   84TCq2    H3 1293   3.624   3.712  10.900  0.3549 -1.2829  0.2244
   84TCq2    H4 1294   3.417   3.346  10.934  0.6448  0.0365  0.0145
   85MPD2     C 1295   4.072   1.187  16.419 -1.1904  0.6636 -0.4593
   85MPD2    C1 1296   4.019   1.173  16.297  0.4583 -0.6374 -0.5376
   85MPD2    C2 1297   4.028   1.273  16.204 -0.3220  0.4019  0.1109
   85MPD2    C3 1298   4.089   1.391  16.238  0.0733  0.2170  0.2760
   85MPD2    C4 1299   4.139   1.404  16.368  0.0868 -0.3345 -0.2233
   85MPD2    C5 1300   4.128   1.305  16.457 -0.6152  0.2478  0.3483
   85MPD2     H 1301   3.984   1.267  16.105  1.3689  0.6588 -0.6495
   85MPD2    H1 1302   4.193   1.492  16.401 -1.2114  0.2144  0.4294
   85MPD2    H2 1303   4.072   1.108  16.494 -3.5046  1.6833  0.5994
   85MPD2    H3 1304   4.158   1.324  16.560  1.5215 -0.2315 -0.1802
   85MPD2     N 1305   4.103   1.487  16.134 -0.4710  0.4679  0.2238
   85MPD2    H5 1306   4.066   1.461  16.044  0.1050  2.4568 -0.5880
   85MPD2    N1 1307   3.952   1.051  16.262 -0.5872 -0.3356  0.1190
   85MPD2    H7 1308   3.894   1.059  16.180  2.1914 -0.9521 -1.8935
   86TCq2    C1 1309   4.179   1.599  16.147 -0.3182  0.1680  0.4513
   86TCq2    O2 1310   4.263   1.633  16.230 -0.5385 -0.1667  0.5119
   86TCq2    C2 1311   4.187   1.684  16.024 -0.1957  0.2757  0.1497
   86TCq2    C3 1312   4.093   1.665  15.926 -0.0207  0.1904  0.1279
   86TCq2    C4 1313   4.111   1.734  15.811  0.1169  0.7203  0.1372
   86TCq2    C5 1314   4.223   1.816  15.794  0.4186 -0.0650  0.4663
   86TCq2    C6 1315   4.301   1.844  15.894 -0.1458  0.4689  0.0354
   86TCq2    C7 1316   4.298   1.764  16.005 -0.6230  0.5574 -0.0176
   86TCq2    C8 1317   4.438   1.866  15.857 -0.0854 -0.8297 -0.1462
   86TCq2    O4 1318   4.527   1.821  15.926 -0.0718  0.1836  0.0814
   86TCq2    C9 1319   4.013   1.718  15.708  0.1180 -0.2127 -0.2995
   86TCq2    O5 1320   4.049   1.729  15.590  0.1649 -0.1204  0.2652
   86TCq2    O6 1321   3.891   1.695  15.731  0.4016 -0.1244 -0.4438
   86TCq2    H2 1322   4.005   1.602  15.937  0.3474 -0.2100  0.7621
   86TCq2    H3 1323   4.233   1.864  15.697 -0.9027 -0.2095  0.2542
   86TCq2    H4 1324   4.367   1.781  16.087 -1.2113 -0.9006  0.7951
   87MPD2     C 1325   2.387   0.213   1.693 -0.3331  0.1857  0.1261
   87MPD2    C1 1326   2.443   0.202   1.568  0.5821 -0.4837  0.3586
   87MPD2    C2 1327   2.402   0.296   1.469  0.1832 -0.0284  0.6152
   87MPD2    C3 1328   2.308   0.393   1.495 -0.1026  0.3670 -0.6449
   87MPD2    C4 1329   2.252   0.393   1.624 -0.5838  0.3535  0.5326
   87MPD2    C5 1330   2.289   0.300   1.714 -0.0188 -0.0700 -1.0801
   87MPD2     H 1331   2.446   0.291   1.370  1.2110  2.2714  0.9765
   87MPD2    H1 1332   2.177   0.465   1.656  0.0790  1.5608 -0.6447
   87MPD2    H2 1333   2.429   0.141   1.763 -0.2886 -0.1365 -0.2368
   87MPD2    H3 1334   2.246   0.298   1.813  1.6817 -0.0222 -0.3353
   87MPD2     N 1335   2.237   0.468   1.397 -0.1431  0.3568 -0.3555
   87MPD2    H5 1336   2.145   0.502   1.423 -0.4267 -0.3316 -0.4711
   87MPD2    N1 1337   2.523   0.089   1.540  0.0836  0.3979  0.3867
   87MPD2    H7 1338   2.530   0.020   1.613 -1.8326  0.5924  0.7593
   88TCq2    C1 1339   2.593   0.069   1.424 -0.4900 -0.8177  0.4543
   88TCq2    O2 1340   2.607   0.143   1.327 -0.8728 -0.0510  0.2646
   88TCq2    C2 1341   2.674   4.677   1.424 -0.4126  0.4631  0.0444
   88TCq2    C3 1342   2.729   4.625   1.539 -0.1898 -0.2223  0.7862
   88TCq2    C4 1343   2.798   4.510   1.528  0.1388 -0.7841  0.3897
   88TCq2    C5 1344   2.817   4.448   1.411 -0.2881  0.2579  1.0142
   88TCq2    C6 1345   2.752   4.499   1.300  0.4502 -0.0135  0.1220
   88TCq2    C7 1346   2.687   4.613   1.305  0.3086 -0.2306  0.4892
   88TCq2    C8 1347   2.743   4.425   1.175  0.2992 -0.0652  0.4065
   88TCq2    O4 1348   2.693   4.484   1.082  0.1059 -0.5283  0.1453
   88TCq2    C9 1349   2.848   4.451   1.652  0.3394 -0.1581 -0.1795
   88TCq2    O5 1350   2.901   4.338   1.649 -0.0347 -0.2000 -0.0135
   88TCq2    O6 1351   2.779   4.482   1.753  0.1976  0.5663 -0.2996
   88TCq2    H2 1352   2.724   4.668   1.639  0.1335 -0.9678  1.1247
   88TCq2    H3 1353   2.878   4.359   1.417 -1.0334 -0.1741  2.2479
   88TCq2    H4 1354   2.656   4.665   1.216 -1.0615  1.1164  1.7451
   89MPD2     C 1355   3.040   1.176   1.929  0.2032  0.2517 -0.8756
   89MPD2    C1 1356   2.954   1.262   1.862  0.3514 -0.3018  0.1618
   89MPD2    C2 1357   3.001   1.349   1.773 -0.5762 -0.2225 -0.3733
   89MPD2    C3 1358   3.135   1.357   1.735  0.2130  0.3147 -0.2994
   89MPD2    C4 1359   3.213   1.255   1.784  0.7937  0.0236  0.0801
   89MPD2    C5 1360   3.173   1.178   1.893 -0.5819  0.3851  0.7478
   89MPD2     H 1361   2.935   1.423   1.729 -0.8654  0.3693  1.0383
   89MPD2    H1 1362   3.315   1.229   1.760  0.3623 -0.9916 -0.6154
   89MPD2    H2 1363   3.012   1.104   2.004  0.4375  0.8029 -0.2603
   89MPD2    H3 1364   3.245   1.117   1.946  0.6363  1.9791  0.9271
   89MPD2     N 1365   3.179   1.446   1.643  0.0011 -0.2731  0.6246
   89MPD2    H5 1366   3.120   1.525   1.618  1.7533  1.0970  0.8358
   89MPD2    N1 1367   2.811   1.259   1.886 -0.0372 -0.1625 -0.1583
   89MPD2    H7 1368   2.752   1.297   1.812  0.3621 -0.1120 -0.4493
   90TCq2    C1 1369   3.298   1.429   1.579 -0.2912  1.0413  0.7644
   90TCq2    O2 1370   3.388   1.349   1.605  0.1627  0.4633  0.8770
   90TCq2    C2 1371   3.318   1.523   1.470 -0.3274 -0.1346 -1.0888
   90TCq2    C3 1372   3.440   1.534   1.410  0.2230 -0.1609 -0.0860
   90TCq2    C4 1373   3.466   1.621   1.309 -0.2353  0.5424 -0.5640
   90TCq2    C5 1374   3.360   1.686   1.255 -0.1552 -0.4976 -0.5888
   90TCq2    C6 1375   3.233   1.668   1.311  0.2201  0.8496 -0.1897
   90TCq2    C7 1376   3.209   1.597   1.427  0.5618  0.3535 -0.6609
   90TCq2    C8 1377   3.126   1.744   1.259  0.7819 -0.0759  0.5902
   90TCq2    O4 1378   3.018   1.730   1.315 -0.3641 -0.3065 -0.1553
   90TCq2    C9 1379   3.601   1.624   1.252  0.2790 -0.1184  0.9083
   90TCq2    O5 1380   3.639   1.729   1.201  0.5464 -0.1660  0.7251
   90TCq2    O6 1381   3.677   1.530   1.272  1.0642  0.6169  0.1194
   90TCq2    H2 1382   3.522   1.472   1.445  0.1037 -0.6573 -0.6780
   90TCq2    H3 1383   3.386   1.731   1.160  0.1169 -0.4870 -0.5107
   90TCq2    H4 1384   3.106   1.566   1.440  0.4513  1.2585  0.6062
   91TMC2    C1 1385   4.137   2.437  16.633 -0.4693  0.6015  0.0280
   91TMC2    C2 1386   4.186   2.490  16.518  0.5149 -0.6814 -0.6991
   91TMC2    C3 1387   4.113   2.469  16.406  0.5866  0.3433 -0.4463
   91TMC2    C4 1388   4.014   2.382  16.640 -0.0375  0.0309  1.0199
   91TMC2    C5 1389   3.951   2.342  16.522  0.3004  0.2201  0.4222
   91TMC2    C6 1390   3.996   2.391  16.402  0.7104  0.5114  0.0870
   91TMC2     C 1391   4.206   2.463  16.759 -0.6173 -0.5673  0.2064
   91TMC2     O 1392   4.157   2.417  16.865  0.6273  0.0583 -0.0643
   91TMC2     H 1393   4.290   2.515  16.498  0.4985 -0.5130 -0.5691
   91TMC2    H1 1394   3.978   2.347  16.737 -1.9229  0.6436  0.5415
   91TMC2    H2 1395   3.938   2.382  16.310 -1.5299  2.2574  1.3056
   91TMC2    C7 1396   3.843   2.240  16.527 -0.1189 -0.5455  0.1385
   91TMC2    C8 1397   4.191   2.502  16.287 -0.0784  0.3206  0.1451
   91TMC2    O1 1398   3.819   2.206  16.641 -0.2509 -0.1619  0.0736
   91TMC2    O2 1399   4.288   2.575  16.270 -0.6088 -0.1535 -0.4354
   91TMC2    O5 1400   4.151   2.417  16.192  0.5137 -0.1190 -0.5876
   91TMC2    H5 1401   4.087   2.349  16.222  1.2521 -0.0585  1.0985
   92MPD2     C 1402   4.385   2.542  16.989  0.4612  0.6595 -0.1984
   92MPD2    C1 1403   4.424   2.524  16.856  0.3547  0.4628  0.7141
   92MPD2    C2 1404   4.560   2.497  16.824 -0.6524 -0.0660  0.7677
   92MPD2    C3 1405   4.653   2.486  16.929  0.0036  0.0298 -0.2505
   92MPD2    C4 1406   4.616   2.502  17.058 -0.0536  0.4136 -0.0335
   92MPD2    C5 1407   4.485   2.534  17.088  0.0114 -0.1009  0.3932
   92MPD2     H 1408   4.594   2.477  16.723 -1.0231  0.4722  0.5360
   92MPD2    H1 1409   4.687   2.508  17.139 -0.3128 -0.7512  0.2763
   92MPD2    H2 1410   4.281   2.564  17.012  0.3255 -1.5062  1.2670
   92MPD2    H3 1411   4.458   2.549  17.192  1.2893 -0.3727  0.7585
   92MPD2     N 1412   0.055   2.443  16.895  0.0310  0.3386 -0.2410
   92MPD2    H5 1413   0.072   2.430  16.796 -1.0876  0.4231 -0.4399
   92MPD2    N1 1414   4.330   2.513  16.752 -0.6626  0.0882  0.8158
   92MPD2    H7 1415   4.368   2.530  16.660 -0.7247 -1.8305  0.4344
   93MPD2     C 1416   0.834   3.153  13.829 -0.2269 -0.3586  0.3733
   93MPD2    C1 1417   0.787   3.023  13.801 -0.8984 -0.5635 -0.1666
   93MPD2    C2 1418   0.658   3.009  13.748  0.2730  0.2543 -0.5415
   93MPD2    C3 1419   0.569   3.115  13.713 -0.1246 -0.1625  0.2972
   93MPD2    C4 1420   0.627   3.245  13.722  0.0766 -0.0560 -0.1777
   93MPD2    C5 1421   0.754   3.257  13.778  0.0022  0.1242  0.0679
   93MPD2     H 1422   0.617   2.911  13.726  1.7845 -0.4755 -0.0628
   93MPD2    H1 1423   0.576   3.334  13.686  1.7790  1.0306  0.0893
   93MPD2    H2 1424   0.932   3.175  13.871  0.0788 -2.1522  0.5923
   93MPD2    H3 1425   0.790   3.358  13.789  1.5890 -0.6545  2.0091
   93MPD2     N 1426   0.433   3.104  13.681 -0.2267 -0.3244 -0.1114
   93MPD2    H5 1427   0.384   3.193  13.676  2.2720  1.0055 -0.8491
   93MPD2    N1 1428   0.871   2.908  13.815  0.1250 -0.4109  0.0534
   93MPD2    H7 1429   0.823   2.824  13.782 -1.0776  0.3820 -0.2293
   94TCq2    C1 1430   0.993   2.890  13.869 -0.0191  0.1939 -0.5177
   94TCq2    O2 1431   1.056   2.962  13.947 -0.0179 -0.6053  0.0943
   94TCq2    C2 1432   1.053   2.767  13.818 -0.9705 -0.1573  0.6549
   94TCq2    C3 1433   0.999   2.702  13.714 -0.0030  0.5204  0.7462
   94TCq2    C4 1434   1.074   2.634  13.630  0.5712  0.3673 -0.3753
   94TCq2    C5 1435   1.217   2.632  13.640  0.6934  0.1898  0.1971
   94TCq2    C6 1436   1.273   2.706  13.744  0.3290 -0.1786  0.0794
   94TCq2    C7 1437   1.191   2.767  13.837 -0.4009  0.5768  0.2011
   94TCq2    C8 1438   1.425   2.719  13.755 -0.4573  0.0951 -0.0431
   94TCq2    O4 1439   1.495   2.628  13.706 -0.7038 -0.6799 -0.4147
   94TCq2    C9 1440   1.009   2.578  13.513 -0.1083 -0.3239 -0.7902
   94TCq2    O5 1441   1.076   2.569  13.409  0.2881  0.0886 -0.7114
   94TCq2    O6 1442   0.882   2.564  13.513 -0.5565 -0.1995 -0.1109
   94TCq2    H2 1443   0.891   2.695  13.702  0.1073  0.7070 -0.3185
   94TCq2    H3 1444   1.284   2.567  13.587  0.0457 -0.3624  0.0590
   94TCq2    H4 1445   1.234   2.817  13.923 -0.7798 -0.3410  0.9185
   95TMC2    C1 1446   1.232   4.133  15.924  0.3929  0.0957 -0.1914
   95TMC2    C2 1447   1.283   4.190  16.041 -0.1443  0.3432 -0.4694
   95TMC2    C3 1448   1.198   4.217  16.142 -0.5508  0.1892  0.0508
   95TMC2    C4 1449   1.103   4.093  15.917  0.4955 -0.0325 -0.5790
   95TMC2    C5 1450   1.023   4.112  16.024 -1.3571  0.0590  0.9375
   95TMC2    C6 1451   1.067   4.172  16.142 -0.1022 -0.1911  0.0695
   95TMC2     C 1452   1.322   4.135  15.813  0.1658  0.0431  0.1726
   95TMC2     O 1453   1.414   4.216  15.813 -0.3434  1.1915  0.1320
   95TMC2     H 1454   1.390   4.208  16.040 -0.2831  1.1777 -0.0965
   95TMC2    H1 1455   1.049   4.060  15.829 -2.4653  0.1411  1.1579
   95TMC2    H2 1456   0.996   4.165  16.223 -1.5889  2.4860 -1.0252
   95TMC2    C7 1457   0.891   4.069  15.994  0.0736  0.1818 -0.2531
   95TMC2    C8 1458   1.257   4.268  16.259 -0.2768  0.2476 -0.4234
   95TMC2    O1 1459   0.858   4.001  15.895  0.4444 -0.7215 -0.0245
   95TMC2    O2 1460   1.375   4.263  16.294  0.3969  0.6618  0.5573
   95TMC2    O5 1461   1.149   4.304  16.340 -0.1033  0.1190  0.1230
   95TMC2    H5 1462   1.083   4.339  16.277  0.7200  1.1256 -0.1683
   96MPD2     C 1463   1.462   3.970  15.354 -0.6065  0.3978  1.1002
   96MPD2    C1 1464   1.500   4.076  15.431  0.4974 -0.0991  0.1475
   96MPD2    C2 1465   1.434   4.118  15.546  0.2143 -0.0486 -0.6767
   96MPD2    C3 1466   1.339   4.034  15.595 -0.0689  0.1861 -0.3686
   96MPD2    C4 1467   1.298   3.933  15.516  0.1565 -0.1418 -0.5039
   96MPD2    C5 1468   1.353   3.901  15.397  0.5845 -0.4129 -0.6747
   96MPD2     H 1469   1.473   4.202  15.602 -0.4977  0.6623 -1.2506
   96MPD2    H1 1470   1.224   3.866  15.560  0.0236  0.8008  0.7147
   96MPD2    H2 1471   1.513   3.935  15.265 -2.7012 -1.1773  0.5167
   96MPD2    H3 1472   1.330   3.806  15.350  0.8445 -1.5461  1.4825
   96MPD2     N 1473   1.280   4.050  15.720  0.0972  0.2673 -0.2690
   96MPD2    H5 1474   1.198   3.994  15.740  1.4595 -1.6382 -0.0584
   96MPD2    N1 1475   1.608   4.151  15.374 -0.2015  0.4170 -0.0805
   96MPD2    H7 1476   1.625   4.129  15.276 -0.5235  1.4026 -0.3575
   97MPD2     C 1477   4.010   1.029   0.561  0.8262  0.3671  0.2230
   97MPD2    C1 1478   3.891   1.061   0.612  0.3540  0.4863  0.2980
   97MPD2    C2 1479   3.842   1.184   0.591  0.7632  0.0242  0.2850
   97MPD2    C3 1480   3.908   1.276   0.513  0.9334  0.5147  0.3706
   97MPD2    C4 1481   4.019   1.237   0.447 -0.2547  0.1801  0.0133
   97MPD2    C5 1482   4.078   1.118   0.480  0.3978 -0.5442 -0.7992
   97MPD2     H 1483   3.746   1.209   0.635  1.4088  0.3322  1.5274
   97MPD2    H1 1484   4.056   1.297   0.365  0.3724 -0.1700  0.0455
   97MPD2    H2 1485   4.060   0.935   0.582 -1.7732 -1.6185 -2.3938
   97MPD2    H3 1486   4.177   1.098   0.442  0.6025  0.5435 -0.8284
   97MPD2     N 1487   3.865   1.408   0.484  0.7256  0.4126  0.3976
   97MPD2    H5 1488   3.929   1.474   0.441 -0.1952  1.0180 -0.0292
   97MPD2    N1 1489   3.832   0.963   0.692  0.0683  0.3008 -1.1310
   97MPD2    H7 1490   3.890   0.881   0.706  0.5456  0.8187 -0.0528
   98TCq2    C1 1491   3.759   1.468   0.548  1.0933 -0.1293  0.0638
   98TCq2    O2 1492   3.673   1.429   0.626  0.3545  0.5284 -0.2392
   98TCq2    C2 1493   3.743   1.612   0.518  0.5583 -0.2582 -0.0932
   98TCq2    C3 1494   3.656   1.687   0.591 -0.2582  0.1983  0.0557
   98TCq2    C4 1495   3.655   1.822   0.578 -0.1319 -0.0135 -0.0680
   98TCq2    C5 1496   3.734   1.881   0.489  0.4770 -0.0468  0.3325
   98TCq2    C6 1497   3.812   1.805   0.406 -0.6661 -0.0555  0.4181
   98TCq2    C7 1498   3.820   1.666   0.417 -0.0060 -0.3674  0.0464
   98TCq2    C8 1499   3.902   1.873   0.308  0.5061 -0.3279  0.0053
   98TCq2    O4 1500   3.936   1.983   0.350 -0.2173 -0.0951 -0.0599
   98TCq2    C9 1501   3.584   1.901   0.678 -0.3630 -0.0958 -0.2224
   98TCq2    O5 1502   3.573   2.025   0.664 -0.6997  0.5585 -0.0093
   98TCq2    O6 1503   3.526   1.842   0.774 -0.8492  0.3040  0.0826
   98TCq2    H2 1504   3.595   1.649   0.672  0.4969 -0.5012  0.2924
   98TCq2    H3 1505   3.738   1.989   0.482 -1.9042  0.0401  0.2680
   98TCq2    H4 1506   3.896   1.614   0.360  0.9072  1.6462 -0.5873
   99MPD2     C 1507   2.734   3.503   1.777 -0.4386  0.0801  0.5089
   99MPD2    C1 1508   2.608   3.545   1.740  0.0541 -0.0016 -0.4039
   99MPD2    C2 1509   2.537   3.466   1.651 -0.0081  0.2792 -0.5857
   99MPD2    C3 1510   2.588   3.347   1.607 -1.1830 -0.1748 -0.8436
   99MPD2    C4 1511   2.721   3.311   1.631  0.2240  0.3186  0.6894
   99MPD2    C5 1512   2.795   3.390   1.721 -0.0205  0.3090 -0.3971
   99MPD2     H 1513   2.441   3.502   1.616 -0.8489 -0.0452  1.3510
   99MPD2    H1 1514   2.770   3.220   1.597 -2.6036 -0.9787  0.0740
   99MPD2    H2 1515   2.800   3.557   1.845  4.2952 -1.6609 -2.6975
   99MPD2    H3 1516   2.893   3.369   1.762  0.1509  0.8411 -0.5286
   99MPD2     N 1517   2.505   3.274   1.524 -0.3637  0.3994 -0.2721
   99MPD2    H5 1518   2.412   3.313   1.517 -1.1014 -1.9132 -3.0427
   99MPD2    N1 1519   2.547   3.674   1.765 -0.1824 -0.6916 -0.7316
   99MPD2    H7 1520   2.449   3.678   1.741 -0.3963 -1.3195  0.0360
  100TCq2    C1 1521   2.603   3.776   1.829 -0.7881  0.3420 -0.6911
  100TCq2    O2 1522   2.714   3.780   1.887  0.4629 -0.7050 -0.7102
  100TCq2    C2 1523   2.540   3.904   1.816  0.1629  0.6449  0.4461
  100TCq2    C3 1524   2.601   4.014   1.870 -0.5519  0.4105  0.2369
  100TCq2    C4 1525   2.539   4.136   1.863 -0.1879  0.3879 -0.5874
  100TCq2    C5 1526   2.434   4.157   1.783 -0.4306  0.0886 -0.1270
  100TCq2    C6 1527   2.378   4.049   1.722  0.4480  0.0489 -0.5994
  100TCq2    C7 1528   2.429   3.919   1.741  0.5859  0.6821 -0.2238
  100TCq2    C8 1529   2.248   4.070   1.668  0.7351 -0.4257  0.0750
  100TCq2    O4 1530   2.216   4.187   1.654  0.1652  0.0636 -0.0162
  100TCq2    C9 1531   2.589   4.246   1.940 -0.2646 -0.1122  0.9087
  100TCq2    O5 1532   2.524   4.349   1.928  0.1436  0.6298  0.2587
  100TCq2    O6 1533   2.701   4.225   1.991 -0.0038 -0.0956 -0.0847
  100TCq2    H2 1534   2.691   4.004   1.929 -0.6852  0.9023  0.5260
  100TCq2    H3 1535   2.386   4.254   1.780 -0.7377  0.0374  3.9591
  100TCq2    H4 1536   2.385   3.845   1.675  0.6417  0.9419 -0.5541
  101MPD2     C 1537   3.464   0.635  13.009 -0.2725  0.4340  0.7857
  101MPD2    C1 1538   3.350   0.680  13.071  0.2162 -1.3412 -0.4979
  101MPD2    C2 1539   3.265   0.593  13.130  0.6169 -0.8185  0.1264
  101MPD2    C3 1540   3.287   0.457  13.114  0.0501 -0.2868 -0.3265
  101MPD2    C4 1541   3.391   0.415  13.033  0.3629 -0.0017  0.0769
  101MPD2    C5 1542   3.485   0.504  12.992 -0.1060  0.0264  0.6282
  101MPD2     H 1543   3.171   0.627  13.172  0.1315 -1.1094 -0.7251
  101MPD2    H1 1544   3.414   0.312  13.007 -1.8241  0.3465 -3.2053
  101MPD2    H2 1545   3.532   0.712  12.976 -0.0227  0.0424  0.3855
  101MPD2    H3 1546   3.572   0.458  12.947 -1.0424 -1.4630  0.3414
  101MPD2     N 1547   3.190   0.364  13.165  0.2897  0.0006 -0.2386
  101MPD2    H5 1548   3.135   0.400  13.242  2.6976 -0.4433  1.6862
  101MPD2    N1 1549   3.319   0.815  13.039  0.0588 -0.4451  0.1420
  101MPD2    H7 1550   3.392   0.860  12.983  0.1743 -1.1697 -0.2935
  102TCq2    C1 1551   3.358   1.187  12.741 -0.4363  0.1383 -0.0688
  102TCq2    O2 1552   3.441   1.109  12.696  0.0360  0.5920 -0.3416
  102TCq2    C2 1553   3.320   1.184  12.881  0.5259 -0.6337  0.2686
  102TCq2    C3 1554   3.240   1.272  12.933 -0.1367  0.3939 -0.0845
  102TCq2    C4 1555   3.145   1.242  13.029 -0.5206  0.4378  0.1962
  102TCq2    C5 1556   3.137   1.115  13.081  0.7913  0.0372  0.8164
  102TCq2    C6 1557   3.213   1.016  13.020 -0.1788  0.2428 -0.1013
  102TCq2    C7 1558   3.298   1.050  12.915  0.0414 -0.0092 -0.0860
  102TCq2    C8 1559   3.207   0.881  13.071  0.1947 -0.5133  0.3387
  102TCq2    O4 1560   3.119   0.858  13.157 -0.0637  0.2159  0.0687
  102TCq2    C9 1561   3.088   1.349  13.112 -0.0138  1.1215  0.2682
  102TCq2    O5 1562   3.018   1.309  13.208 -0.0502 -0.4977  0.7620
  102TCq2    O6 1563   3.104   1.474  13.079  0.0894 -0.1408 -0.3200
  102TCq2    H2 1564   3.259   1.378  12.922 -1.1130  0.8690  2.8802
  102TCq2    H3 1565   3.067   1.098  13.163 -1.0028  0.2374 -0.6605
  102TCq2    H4 1566   3.357   0.976  12.862 -0.7196 -0.0743 -0.8490
  103TMC2    C1 1567   1.450   0.414  12.514 -0.5607  0.0626  0.9847
  103TMC2    C2 1568   1.552   0.500  12.535  0.3694 -0.9534 -0.0614
  103TMC2    C3 1569   1.589   0.521  12.659 -0.0049 -0.4039  0.3167
  103TMC2    C4 1570   1.373   0.369  12.619  0.0230  0.2725  0.1576
  103TMC2    C5 1571   1.408   0.410  12.747  0.3737 -0.1748 -0.1926
  103TMC2    C6 1572   1.519   0.486  12.772  0.6408 -0.6049 -0.3949
  103TMC2     C 1573   1.424   0.368  12.376 -0.2873 -0.4926  0.7774
  103TMC2     O 1574   1.312   0.335  12.346  0.1199  0.0802  0.3579
  103TMC2     H 1575   1.604   0.536  12.448 -0.8144 -2.9532 -1.5890
  103TMC2    H1 1576   1.292   0.302  12.592 -0.1923  0.4247  0.4235
  103TMC2    H2 1577   1.552   0.496  12.875  0.4826 -2.6293 -0.1541
  103TMC2    C7 1578   1.352   0.346  12.865 -0.2870  0.2791 -0.1383
  103TMC2    C8 1579   1.731   0.541  12.666  0.5689  0.2203 -0.4742
  103TMC2    O1 1580   1.425   0.325  12.958 -0.3616  0.2191 -0.4479
  103TMC2    O2 1581   1.804   0.546  12.568 -0.1527 -0.2761 -0.2906
  103TMC2    O5 1582   1.774   0.575  12.787 -0.1655 -0.0541  0.4066
  103TMC2    H5 1583   1.702   0.583  12.854 -0.0284  1.3011  0.4073
  104MPD2     C 1584   1.646   0.281  12.103 -0.1186 -0.0022  0.4041
  104MPD2    C1 1585   1.537   0.330  12.162 -0.0260  0.2712 -0.3541
  104MPD2    C2 1586   1.425   0.343  12.084  0.2167  0.5029  0.0015
  104MPD2    C3 1587   1.428   0.323  11.948  0.5082 -0.3949  0.0216
  104MPD2    C4 1588   1.549   0.286  11.895  0.5712 -0.2311 -0.7330
  104MPD2    C5 1589   1.656   0.255  11.970  0.4314 -0.0273 -0.1099
  104MPD2     H 1590   1.333   0.374  12.131 -0.3984 -0.4411 -0.5924
  104MPD2    H1 1591   1.553   0.270  11.787  1.7539  2.3491 -1.0915
  104MPD2    H2 1592   1.736   0.273  12.163 -0.7625  1.5926  1.5863
  104MPD2    H3 1593   1.742   0.196  11.940 -0.1099 -0.3161 -1.0746
  104MPD2     N 1594   1.316   0.350  11.874 -0.2573  0.5329 -0.1049
  104MPD2    H5 1595   1.250   0.402  11.929  1.2161  2.3015 -0.0023
  104MPD2    N1 1596   1.538   0.361  12.302 -0.0011 -0.2927  1.0356
  104MPD2    H7 1597   1.626   0.355  12.352  1.0573  1.5080 -0.6247
  105MPD2     C 1598   3.117   4.409  17.441  0.2517  0.1708  0.4080
  105MPD2    C1 1599   2.981   4.453  17.437  0.2524  0.6241  0.7562
  105MPD2    C2 1600   2.889   4.416  17.532 -0.2591  0.3297  0.2304
  105MPD2    C3 1601   2.928   4.344  17.644 -0.1274  0.4072 -0.4936
  105MPD2    C4 1602   3.066   4.314  17.656  0.2794 -0.0844  0.1704
  105MPD2    C5 1603   3.158   4.344  17.557  0.8936 -0.3414  0.4521
  105MPD2     H 1604   2.787   4.451  17.522 -1.1315 -1.0697  4.4735
  105MPD2    H1 1605   3.109   4.276   0.046  0.0416  1.0101  0.7344
  105MPD2    H2 1606   3.195   4.462  17.387  0.4854 -1.4252 -0.8274
  105MPD2    H3 1607   3.263   4.335  17.578  0.8738 -1.4629  0.0814
  105MPD2     N 1608   2.838   4.312   0.047  0.3057  0.2695  0.2251
  105MPD2    H5 1609   2.748   4.360   0.045 -0.2867 -0.7591  2.2078
  105MPD2    N1 1610   2.926   4.530  17.333  0.1149  0.7129  0.5430
  105MPD2    H7 1611   2.827   4.552  17.346 -0.0385  1.4738 -2.0150
  106TCq2    C1 1612   2.855   4.210   0.138  0.4135 -0.1622  0.1567
  106TCq2    O2 1613   2.947   4.130   0.143 -0.2418 -0.0561 -0.4732
  106TCq2    C2 1614   2.770   4.215   0.254 -0.4378  0.2192  0.0174
  106TCq2    C3 1615   2.688   4.324   0.254  0.1931  0.3976 -0.0057
  106TCq2    C4 1616   2.627   4.342   0.371 -0.1407  0.8784 -0.3452
  106TCq2    C5 1617   2.658   4.271   0.491 -0.2620 -0.4953  0.3816
  106TCq2    C6 1618   2.747   4.169   0.475  0.5099  0.4642  0.2583
  106TCq2    C7 1619   2.804   4.139   0.357  0.0712 -0.3558  0.1905
  106TCq2    C8 1620   2.792   4.095   0.595  0.0058  0.1527  0.4232
  106TCq2    O4 1621   2.836   3.985   0.582 -0.4277  0.0729 -0.3470
  106TCq2    C9 1622   2.512   4.430   0.370 -0.7652 -0.2068  0.5565
  106TCq2    O5 1623   2.484   4.501   0.267 -0.4185 -0.4166  0.3287
  106TCq2    O6 1624   2.440   4.440   0.475  0.0808 -0.4944 -0.2924
  106TCq2    H2 1625   2.641   4.359   0.163  2.6827  2.1705 -0.5965
  106TCq2    H3 1626   2.599   4.295   0.579 -3.8736 -0.4265 -2.0821
  106TCq2    H4 1627   2.881   4.062   0.356 -0.0205 -0.4674  1.2974
  107TMC2    C1 1628   3.704   3.760  11.824 -0.0967 -0.3547  0.2904
  107TMC2    C2 1629   3.793   3.797  11.915  0.2903 -0.0593  0.2793
  107TMC2    C3 1630   3.914   3.743  11.910 -0.8865  0.1586 -0.8567
  107TMC2    C4 1631   3.734   3.684  11.714  0.4110 -0.8642  0.7573
  107TMC2    C5 1632   3.864   3.648  11.698  0.5649  0.1178 -0.5123
  107TMC2    C6 1633   3.953   3.674  11.795 -0.5172 -0.3347  0.7291
  107TMC2     C 1634   3.573   3.812  11.849  0.2916  0.3973  0.3573
  107TMC2     O 1635   3.545   3.832  11.967 -0.2297  0.2934  0.4639
  107TMC2     H 1636   3.762   3.869  11.991  0.3105 -2.7753  2.8616
  107TMC2    H1 1637   3.651   3.660  11.648  0.7694  0.4559 -0.1822
  107TMC2    H2 1638   4.056   3.638  11.788 -0.4138  0.2279 -0.6627
  107TMC2    C7 1639   3.880   3.521  11.622  0.6163  0.1523  0.1119
  107TMC2    C8 1640   4.024   3.806  11.988 -0.0272 -0.2277 -0.4226
  107TMC2    O1 1641   3.970   3.445  11.661  0.3369  0.3970  0.0015
  107TMC2    O2 1642   4.129   3.745  12.016 -0.1278  0.2739  0.2511
  107TMC2    O5 1643   4.012   3.937  11.964 -0.5853 -0.1748 -0.3732
  107TMC2    H5 1644   3.920   3.958  11.939 -0.1612  2.8896  0.6563
  108MPD2     C 1645   3.379   4.039  11.625  0.4452 -1.0193  0.1399
  108MPD2    C1 1646   3.402   3.957  11.735  0.3827  0.7143 -0.1957
  108MPD2    C2 1647   3.306   3.943  11.839 -0.2426 -0.1363 -0.1112
  108MPD2    C3 1648   3.199   4.029  11.839 -0.4661 -0.0862 -0.1205
  108MPD2    C4 1649   3.184   4.120  11.736 -0.1312 -0.6587  0.3959
  108MPD2    C5 1650   3.272   4.122  11.632 -0.2460  0.2734 -0.5579
  108MPD2     H 1651   3.330   3.892  11.931  2.1577 -1.8192 -1.6615
  108MPD2    H1 1652   3.097   4.184  11.728 -0.0841 -0.0941  4.2488
  108MPD2    H2 1653   3.455   4.055  11.550  0.7129  0.3854  0.7204
  108MPD2    H3 1654   3.266   4.203  11.560 -0.7449  1.8280  1.2255
  108MPD2     N 1655   3.111   4.012  11.945 -0.1958  0.2898 -0.0894
  108MPD2    H5 1656   3.036   4.081  11.941  1.0406  1.6470  0.0154
  108MPD2    N1 1657   3.525   3.887  11.743 -0.4425  0.5620 -0.3982
  108MPD2    H7 1658   3.586   3.898  11.662  1.4244  2.1533  1.2283
  109MPD2     C 1659   3.501   4.706   1.973  0.2443 -0.4825 -0.4136
  109MPD2    C1 1660   3.495   0.105   1.915  0.5732  0.1090 -0.2621
  109MPD2    C2 1661   3.618   0.155   1.872  0.4872  0.4546 -0.8273
  109MPD2    C3 1662   3.736   0.083   1.874 -0.5041  0.1919 -0.6769
  109MPD2    C4 1663   3.732   4.682   1.934  1.2236 -0.6495 -0.2320
  109MPD2    C5 1664   3.614   4.634   1.986 -0.6847  0.0588  0.1013
  109MPD2     H 1665   3.611   0.249   1.819  0.1750  1.0664  0.3024
  109MPD2    H1 1666   3.816   4.614   1.922  1.7706  0.1987 -1.3074
  109MPD2    H2 1667   3.411   4.665   2.016  0.1970 -0.5731 -0.6024
  109MPD2    H3 1668   3.616   4.530   2.017 -0.8805  0.2534  0.7598
  109MPD2     N 1669   3.857   0.143   1.808  0.1918  0.4398  0.0667
  109MPD2    H5 1670   3.841   0.235   1.770 -0.9523  0.5456  0.8075
  109MPD2    N1 1671   3.373   0.176   1.920 -0.0140 -0.5485 -0.2795
  109MPD2    H7 1672   3.285   0.129   1.941  1.1159 -2.2469  0.5990
  110TCq2    C1 1673   3.980   0.075   1.807  0.5202 -0.1992  0.2284
  110TCq2    O2 1674   4.014   4.705   1.870 -0.7484  0.0157 -1.0845
  110TCq2    C2 1675   4.079   0.124   1.717  0.7280  0.3245  0.3880
  110TCq2    C3 1676   4.200   0.062   1.716  0.1217  0.1396  0.3505
  110TCq2    C4 1677   4.302   0.104   1.640 -0.6660  0.4969  0.0928
  110TCq2    C5 1678   4.287   0.207   1.548 -0.3131 -0.6427  0.5375
  110TCq2    C6 1679   4.158   0.259   1.539 -0.6500 -0.3684  0.2559
  110TCq2    C7 1680   4.054   0.216   1.619  0.7887  0.0631  0.1339
  110TCq2    C8 1681   4.114   0.340   1.425 -0.3571 -0.1980  0.4922
  110TCq2    O4 1682   3.990   0.365   1.408  0.0652 -0.2986 -0.0871
  110TCq2    C9 1683   4.430   0.039   1.641 -0.2795  0.3254 -0.0656
  110TCq2    O5 1684   4.428   4.640   1.669 -0.1384 -0.2140  0.1950
  110TCq2    O6 1685   4.524   0.104   1.586  0.1514  0.0126  0.2916
  110TCq2    H2 1686   4.217   4.693   1.766  0.0004 -0.9657 -1.6849
  110TCq2    H3 1687   4.370   0.236   1.485 -1.1649  1.0395  0.2028
  110TCq2    H4 1688   3.962   0.273   1.624  1.5618  1.3628 -0.4495
  111TMC2    C1 1689   3.519   1.412  10.973 -0.4278  0.0723  0.0409
  111TMC2    C2 1690   3.607   1.362  10.878 -0.1023 -0.0249  0.1048
  111TMC2    C3 1691   3.708   1.287  10.934  0.1101 -0.1354  0.4758
  111TMC2    C4 1692   3.515   1.370  11.101  0.1209 -0.3059 -0.7257
  111TMC2    C5 1693   3.615   1.289  11.151 -0.0202  0.0599  0.2834
  111TMC2    C6 1694   3.712   1.259  11.065 -0.6010  0.3570 -0.0113
  111TMC2     C 1695   3.406   1.497  10.919  0.4806  0.0763  0.2897
  111TMC2     O 1696   3.400   1.519  10.797  0.0761 -0.0513  0.6205
  111TMC2     H 1697   3.617   1.398  10.776  0.0224  0.4164  0.2754
  111TMC2    H1 1698   3.443   1.397  11.177  0.0485  1.7020 -1.5072
  111TMC2    H2 1699   3.793   1.192  11.095 -1.6235 -1.3024 -0.9462
  111TMC2    C7 1700   3.604   1.213  11.270  0.0604  0.2676 -0.1864
  111TMC2    C8 1701   3.834   1.317  10.873 -0.1604 -0.3394  0.1552
  111TMC2    O1 1702   3.702   1.165  11.326 -0.5538  0.3227 -0.1360
  111TMC2    O2 1703   3.857   1.312  10.755 -0.7283  0.5976 -0.4246
  111TMC2    O5 1704   3.921   1.375  10.962 -0.6134 -0.2071 -0.0476
  111TMC2    H5 1705   3.876   1.409  11.043  0.4680  2.7522 -0.6938
  112MPD2     C 1706   2.902   1.545  11.020  0.1885 -0.1198 -0.2830
  112MPD2    C1 1707   2.967   1.551  10.899  0.6160 -0.0710 -0.5330
  112MPD2    C2 1708   3.104   1.537  10.902  0.1684  0.1364  0.1061
  112MPD2    C3 1709   3.178   1.544  11.023  0.2414  0.5115 -0.4886
  112MPD2    C4 1710   3.110   1.523  11.139  0.8684  0.3257 -0.0848
  112MPD2    C5 1711   2.968   1.525  11.136 -0.4297  0.0695  0.3895
  112MPD2     H 1712   3.142   1.545  10.801 -0.1550 -0.1119 -0.0339
  112MPD2    H1 1713   3.165   1.503  11.230  1.5232  0.7282 -0.3893
  112MPD2    H2 1714   2.795   1.534  11.032 -0.0078  1.2031 -0.8277
  112MPD2    H3 1715   2.911   1.518  11.227  1.2502  0.4808  1.4686
  112MPD2     N 1716   3.317   1.519  11.027  0.6213  0.1298 -0.2145
  112MPD2    H5 1717   3.345   1.508  11.124 -1.7078  0.0658  0.4412
  112MPD2    N1 1718   2.904   1.546  10.776  0.2817 -0.1132  0.2343
  112MPD2    H7 1719   2.961   1.533  10.693  1.3438 -0.3750  1.0049
  113MPD2     C 1720   1.771   3.381   1.220  0.0466  0.2810 -0.0132
  113MPD2    C1 1721   1.685   3.480   1.219 -0.7532 -0.4132 -0.2009
  113MPD2    C2 1722   1.550   3.450   1.217  0.2832  0.7683 -0.6740
  113MPD2    C3 1723   1.501   3.321   1.214  0.1302  0.2959  0.2535
  113MPD2    C4 1724   1.591   3.220   1.229  0.4610  0.0603  0.1377
  113MPD2    C5 1725   1.727   3.249   1.224 -0.1288 -0.4027 -0.3758
  113MPD2     H 1726   1.484   3.536   1.215 -0.1786  0.4747  1.3167
  113MPD2    H1 1727   1.555   3.117   1.228  0.0511  0.1975  0.8402
  113MPD2    H2 1728   1.876   3.401   1.237  0.7533 -2.0863 -1.5242
  113MPD2    H3 1729   1.787   3.161   1.243  0.6516  0.1983 -0.0898
  113MPD2     N 1730   1.368   3.293   1.189  0.0235 -0.6700 -0.2544
  113MPD2    H5 1731   1.356   3.193   1.178 -1.3713 -0.5412  0.1577
  113MPD2    N1 1732   1.709   3.613   1.214 -0.2473  0.0660 -0.3499
  113MPD2    H7 1733   1.628   3.674   1.202 -1.5415 -1.3912  0.8556
  114TCq2    C1 1734   1.272   3.381   1.153  0.5173 -0.8044  0.3304
  114TCq2    O2 1735   1.277   3.504   1.152 -0.2301 -0.1340  0.1934
  114TCq2    C2 1736   1.142   3.319   1.123 -0.0440  0.7144 -0.1505
  114TCq2    C3 1737   1.048   3.389   1.051 -0.3295 -0.4588 -0.2503
  114TCq2    C4 1738   0.936   3.331   1.021  0.1990 -0.6749 -0.2186
  114TCq2    C5 1739   0.907   3.197   1.057  0.0233 -0.3102 -0.1997
  114TCq2    C6 1740   1.004   3.132   1.129  0.5179  0.1839  0.6110
  114TCq2    C7 1741   1.123   3.184   1.161 -0.6650  1.0989 -0.2528
  114TCq2    C8 1742   0.970   2.999   1.184  0.7890  0.1618  0.4128
  114TCq2    O4 1743   1.068   2.935   1.225 -0.1906  0.1238 -0.0084
  114TCq2    C9 1744   0.827   3.392   0.950 -0.4276 -0.7364  0.3986
  114TCq2    O5 1745   0.710   3.358   0.980 -0.1277 -0.4854  0.0062
  114TCq2    O6 1746   0.849   3.495   0.878  0.0110  0.3654 -0.3670
  114TCq2    H2 1747   1.063   3.491   1.017  0.3977 -1.4136 -2.7786
  114TCq2    H3 1748   0.814   3.151   1.024  0.6712 -1.8026  0.0466
  114TCq2    H4 1749   1.197   3.125   1.215 -4.2082 -2.5552  0.6291
  115TMC2    C1 1750   2.032   1.109  17.490  0.5252  0.7767  0.8965
  115TMC2    C2 1751   2.170   1.134  17.495 -0.0331 -0.4832 -0.1700
  115TMC2    C3 1752   2.211   1.258  17.531  0.4098 -0.1955  0.0838
  115TMC2    C4 1753   1.935   1.209  17.495 -0.2153  0.4371  0.4833
  115TMC2    C5 1754   1.985   1.338  17.508  0.4436  0.3032 -0.3613
  115TMC2    C6 1755   2.117   1.359  17.536 -0.2618 -0.3835 -0.1535
  115TMC2     C 1756   1.997   0.970  17.446  0.0864  0.2475  0.3761
  115TMC2     O 1757   2.084   0.886  17.420 -0.2128  0.2458  0.0597
  115TMC2     H 1758   2.236   1.049  17.491 -0.4154 -0.6822 -2.3520
  115TMC2    H1 1759   1.829   1.207  17.475  0.1866 -1.5571 -1.4093
  115TMC2    H2 1760   2.157   1.444  17.590 -0.2884 -0.5299  0.0972
  115TMC2    C7 1761   1.895   1.438  17.562  0.1740  0.2247 -0.0581
  115TMC2    C8 1762   2.346   1.289  17.560  0.0072  0.0662  0.5182
  115TMC2    O1 1763   1.790   1.407  17.610  0.0351  0.4904  0.0829
  115TMC2    O2 1764   2.388   1.404  17.552 -0.1295 -0.2651  0.0011
  115TMC2    O5 1765   2.422   1.175  17.567 -0.1446 -0.5049  0.1165
  115TMC2    H5 1766   2.362   1.098  17.575 -0.3751 -0.4876 -1.4713
  116MPD2     C 1767   1.623   0.651  17.307  0.0201  0.2132 -0.2838
  116MPD2    C1 1768   1.759   0.636  17.290  0.8906  0.4430 -0.3266
  116MPD2    C2 1769   1.849   0.731  17.339  0.0249  0.7696 -0.1258
  116MPD2    C3 1770   1.791   0.846  17.400  0.8572  0.3479 -0.1516
  116MPD2    C4 1771   1.661   0.856  17.417 -0.5013 -0.3238 -0.0055
  116MPD2    C5 1772   1.574   0.763  17.373 -0.0960  0.4104 -0.2973
  116MPD2     H 1773   1.955   0.732  17.314 -0.0968 -0.1860 -0.6933
  116MPD2    H1 1774   1.614   0.944  17.459 -1.2369 -0.0284 -1.4642
  116MPD2    H2 1775   1.548   0.577  17.283 -0.0738  0.0037  0.6483
  116MPD2    H3 1776   1.469   0.772  17.398 -0.2678 -0.4734 -0.7298
  116MPD2     N 1777   1.865   0.961  17.442 -0.2974  0.0522  0.5535
  116MPD2    H5 1778   1.809   1.040  17.471  0.0257  0.6488 -0.4424
  116MPD2    N1 1779   1.798   0.525  17.208 -0.4824  0.0604 -0.1063
  116MPD2    H7 1780   1.727   0.486  17.148  0.7005  0.5869 -1.8528
  117TMC2    C1 1781   0.297   2.951  13.971 -0.1811  0.0039 -0.4053
  117TMC2    C2 1782   0.332   2.821  13.943 -0.4857 -0.0446  0.3820
  117TMC2    C3 1783   0.460   2.792  13.971  0.5739  0.5022 -1.1626
  117TMC2    C4 1784   0.382   3.036  14.040  0.1752  0.8584  0.3870
  117TMC2    C5 1785   0.509   2.995  14.075  0.4105  0.4852  0.1603
  117TMC2    C6 1786   0.556   2.870  14.040 -0.3320 -0.6754 -0.1276
  117TMC2     C 1787   0.171   3.002  13.922 -0.6359 -0.4632 -0.1164
  117TMC2     O 1788   0.096   2.917  13.870  0.2389 -0.6212 -0.5045
  117TMC2     H 1789   0.275   2.761  13.872  1.1622  0.4402 -1.3586
  117TMC2    H1 1790   0.350   3.136  14.067  0.2869  0.6520  1.2747
  117TMC2    H2 1791   0.659   2.839  14.030 -0.1886 -1.2432  3.1997
  117TMC2    C7 1792   0.599   3.092  14.125 -0.4523 -0.6588 -0.2952
  117TMC2    C8 1793   0.518   2.672  13.918  0.8899  0.3928  0.1384
  117TMC2    O1 1794   0.551   3.203  14.146 -0.2505 -0.3109  0.0592
  117TMC2    O2 1795   0.636   2.666  13.898 -0.2355 -0.1357 -0.4730
  117TMC2    O5 1796   0.436   2.572  13.955 -0.1807 -0.0558 -0.3155
  117TMC2    H5 1797   0.349   2.598  13.992 -0.4699 -0.4461 -0.7192
  118MPD2     C 1798   0.935   3.069  14.276 -0.1654 -0.2999  0.0717
  118MPD2    C1 1799   0.829   3.124  14.207  0.1096 -0.3968  0.2959
  118MPD2    C2 1800   0.847   3.260  14.164 -0.3708 -0.2020 -0.8661
  118MPD2    C3 1801   0.965   3.332  14.187 -0.6472  0.0499  0.3692
  118MPD2    C4 1802   1.064   3.275  14.257 -0.2962  0.0374 -0.4770
  118MPD2    C5 1803   1.041   3.149  14.309  0.2067  0.1886 -0.0397
  118MPD2     H 1804   0.769   3.297  14.098  0.0116  0.5711 -0.8892
  118MPD2    H1 1805   1.148   3.339  14.282 -1.2229  1.5486 -1.2488
  118MPD2    H2 1806   0.929   2.970  14.322  1.2870  0.0134  0.9522
  118MPD2    H3 1807   1.117   3.102  14.371  1.0352  0.9918 -0.4343
  118MPD2     N 1808   0.986   3.461  14.128  0.3064 -0.1895  0.3521
  118MPD2    H5 1809   1.084   3.485  14.120  0.3761 -1.5591 -2.9933
  118MPD2    N1 1810   0.720   3.044  14.174 -0.1980  0.4136 -0.2704
  118MPD2    H7 1811   0.719   2.946  14.200  4.4951  0.5638  0.4049
  119MPD2     C 1812   4.089   0.183  13.610 -0.1738 -0.4763 -0.0270
  119MPD2    C1 1813   3.949   0.203  13.628 -0.4178  0.6919 -0.3774
  119MPD2    C2 1814   3.864   0.200  13.519  0.2562 -0.2378  0.2906
  119MPD2    C3 1815   3.914   0.171  13.393 -0.1129 -0.0560  0.1408
  119MPD2    C4 1816   4.048   0.156  13.380 -0.1781  0.0798 -0.3702
  119MPD2    C5 1817   4.131   0.170  13.485  0.1799  0.8487  0.4634
  119MPD2     H 1818   3.759   0.227  13.526 -0.1030 -0.8714 -2.4481
  119MPD2    H1 1819   4.086   0.126  13.284 -0.9884 -0.2467 -0.5896
  119MPD2    H2 1820   4.154   0.189  13.697  1.0158  2.0270 -1.0620
  119MPD2    H3 1821   4.239   0.165  13.479  0.1586  1.9170 -0.7976
  119MPD2     N 1822   3.833   0.157  13.271  0.1492 -0.2741 -0.1282
  119MPD2    H5 1823   3.888   0.144  13.187 -0.5556  0.4946 -0.7095
  119MPD2    N1 1824   3.909   0.240  13.754 -0.0768 -0.0670 -0.7942
  119MPD2    H7 1825   3.988   0.230  13.817 -1.1434  0.7048  0.6628
  120TCq2    C1 1826   3.696   0.153  13.271 -0.6876 -0.7180 -0.9112
  120TCq2    O2 1827   3.620   0.159  13.365  0.6575 -0.5788 -0.1354
  120TCq2    C2 1828   3.645   0.124  13.137  0.2095  0.4979  0.8150
  120TCq2    C3 1829   3.727   0.117  13.029  0.1023 -0.3116 -0.2526
  120TCq2    C4 1830   3.677   0.037  12.925  0.3484  0.1105 -0.1498
  120TCq2    C5 1831   3.561   4.688  12.927 -0.2469 -0.3862  0.1750
  120TCq2    C6 1832   3.488   4.692  13.038  0.4121 -0.0227 -0.1813
  120TCq2    C7 1833   3.523   0.055  13.136  1.0866 -0.1668 -0.0548
  120TCq2    C8 1834   3.367   4.616  13.050  0.1142 -0.3907  0.4004
  120TCq2    O4 1835   3.313   4.578  12.945 -0.2421 -0.0847 -0.4511
  120TCq2    C9 1836   3.757   0.008  12.805  0.4066  0.2067  0.5166
  120TCq2    O5 1837   3.692   4.680  12.713 -0.2299 -0.1385  0.0590
  120TCq2    O6 1838   3.879   0.017  12.818  0.2488  0.1445  0.3801
  120TCq2    H2 1839   3.817   0.177  13.022 -0.8416  1.0391 -0.9339
  120TCq2    H3 1840   3.528   4.624  12.845 -0.3067 -0.5887  0.3590
  120TCq2    H4 1841   3.469   0.071  13.229  0.4166 -0.7440 -0.3373
  121TMC2    C1 1842   0.455   1.896  14.002  0.1911  0.4064 -0.4106
  121TMC2    C2 1843   0.450   1.815  14.115 -0.4555 -0.4797  0.7270
  121TMC2    C3 1844   0.352   1.718  14.124  0.5502 -0.6154 -0.0747
  121TMC2    C4 1845   0.368   1.873  13.895 -0.8330 -0.4355  0.3049
  121TMC2    C5 1846   0.264   1.777  13.912  0.0697  0.3639  0.5266
  121TMC2    C6 1847   0.253   1.703  14.028  0.7368  0.5544  0.2989
  121TMC2     C 1848   0.563   1.991  13.988 -0.3682 -0.3481 -0.0607
  121TMC2     O 1849   0.627   2.011  14.090  0.4492  0.0382  0.0068
  121TMC2     H 1850   0.522   1.830  14.194  0.6714  0.8662 -0.5340
  121TMC2    H1 1851   0.361   1.931  13.803  2.1580 -0.9621 -0.2453
  121TMC2    H2 1852   0.177   1.626  14.034  1.9531 -0.8001 -1.8704
  121TMC2    C7 1853   0.226   1.698  13.793  0.9550  1.0348 -0.1426
  121TMC2    C8 1854   0.360   1.618  14.227  0.5301 -0.0379 -0.5963
  121TMC2    O1 1855   0.302   1.688  13.699 -0.2388 -0.0605 -0.4075
  121TMC2    O2 1856   0.259   1.557  14.254 -0.6514  0.7905  0.8004
  121TMC2    O5 1857   0.483   1.583  14.255 -0.2298  0.2356  0.3686
  121TMC2    H5 1858   0.549   1.634  14.203  0.8575  0.0947  1.5919
  122MPD2     C 1859   0.712   2.228  13.910  0.6672 -0.2227 -0.1508
  122MPD2    C1 1860   0.671   2.134  13.817  0.0619 -0.3386  0.7183
  122MPD2    C2 1861   0.707   2.143  13.684 -0.1674 -0.0845 -0.4174
  122MPD2    C3 1862   0.773   2.258  13.636 -0.0684  0.1345 -0.0511
  122MPD2    C4 1863   0.793   2.356  13.730 -0.3098 -0.3902 -0.1745
  122MPD2    C5 1864   0.769   2.343  13.864  1.0113 -0.0991  0.4677
  122MPD2     H 1865   0.689   2.054  13.625  0.2820  0.2653 -1.0782
  122MPD2    H1 1866   0.842   2.447  13.695  0.4773  0.0860  2.1873
  122MPD2    H2 1867   0.682   2.237  14.014 -1.4196 -1.3795 -0.6734
  122MPD2    H3 1868   0.788   2.427  13.929  0.3021  0.4411 -0.0160
  122MPD2     N 1869   0.794   2.285  13.499  0.6681  0.6045  0.3926
  122MPD2    H5 1870   0.827   2.377  13.469  4.5658 -1.3906 -1.5035
  122MPD2    N1 1871   0.590   2.028  13.857 -0.4050  0.2204 -0.4389
  122MPD2    H7 1872   0.560   1.966  13.782  0.1121 -0.0061 -0.4599
  123MPD2     C 1873   3.926   4.442   8.939  0.8353  0.4996 -0.0323
  123MPD2    C1 1874   3.843   4.421   9.049  0.3935 -0.5552 -0.5552
  123MPD2    C2 1875   3.778   4.298   9.054  0.3487  1.1361  0.3334
  123MPD2    C3 1876   3.783   4.206   8.949  0.2608  0.4246  0.2657
  123MPD2    C4 1877   3.850   4.236   8.832  0.4566 -0.0090 -0.2155
  123MPD2    C5 1878   3.927   4.351   8.831  0.2730  0.0605 -0.9827
  123MPD2     H 1879   3.713   4.276   9.138 -0.4040  2.0934  0.0081
  123MPD2    H1 1880   3.861   4.164   8.752 -0.1190  1.2039 -1.3889
  123MPD2    H2 1881   3.975   4.538   8.933  0.1787  0.7396 -1.4360
  123MPD2    H3 1882   3.986   4.364   8.741 -1.2101 -1.7408 -2.1972
  123MPD2     N 1883   3.713   4.084   8.973 -0.6571 -0.0292 -0.2534
  123MPD2    H5 1884   3.672   4.083   9.066 -1.3941  0.6919 -0.5783
  123MPD2    N1 1885   3.815   4.533   9.140 -0.4549 -0.3809 -0.2218
  123MPD2    H7 1886   3.877   4.612   9.125  1.1200 -1.4333  0.7334
  124TCq2    C1 1887   3.698   3.984   8.883 -0.4218  0.6202  0.4622
  124TCq2    O2 1888   3.738   3.972   8.770 -0.1710 -0.5951  0.9281
  124TCq2    C2 1889   3.610   3.880   8.929 -0.2193 -0.0094  0.3499
  124TCq2    C3 1890   3.540   3.816   8.831  0.0004 -0.6527 -0.3153
  124TCq2    C4 1891   3.428   3.741   8.864  0.5454  0.8496  0.0750
  124TCq2    C5 1892   3.394   3.723   8.998 -0.1753  0.1381 -0.4851
  124TCq2    C6 1893   3.472   3.789   9.089  0.1018 -0.3921  0.0870
  124TCq2    C7 1894   3.578   3.868   9.063 -0.0025 -0.3131  0.5032
  124TCq2    C8 1895   3.451   3.769   9.235  0.6251  0.4333  0.4312
  124TCq2    O4 1896   3.545   3.786   9.316 -0.0671 -0.5896  0.9997
  124TCq2    C9 1897   3.350   3.686   8.759  0.5693 -0.3046  0.3702
  124TCq2    O5 1898   3.241   3.633   8.784  0.9702 -0.2784 -0.4253
  124TCq2    O6 1899   3.406   3.690   8.647 -0.4501  0.1442 -0.2922
  124TCq2    H2 1900   3.568   3.831   8.727 -0.7153 -0.7099 -0.5182
  124TCq2    H3 1901   3.314   3.654   9.024 -1.9376  2.6715  0.8007
  124TCq2    H4 1902   3.628   3.921   9.143 -0.9047 -1.0950  1.5903
  125TMC2    C1 1903   3.657   0.608   9.166  0.1696 -0.2148 -0.1521
  125TMC2    C2 1904   3.707   0.510   9.080 -0.0693  0.3476  0.0041
  125TMC2    C3 1905   3.611   0.475   8.991 -0.6870  0.3386  0.1614
  125TMC2    C4 1906   3.546   0.680   9.143  0.1903  0.1883 -0.4667
  125TMC2    C5 1907   3.452   0.644   9.049  0.4956  0.2115 -0.2419
  125TMC2    C6 1908   3.488   0.528   8.974 -0.8795  0.1344  0.1418
  125TMC2     C 1909   3.737   0.640   9.289  0.0938 -0.2563 -0.8073
  125TMC2     O 1910   3.722   0.743   9.356  0.3448  0.2085 -0.6928
  125TMC2     H 1911   3.797   0.451   9.087 -0.6193 -0.3507  1.2004
  125TMC2    H1 1912   3.522   0.758   9.215 -0.2315  0.4854 -0.9248
  125TMC2    H2 1913   3.428   0.501   8.887 -0.2814  0.2716 -0.3116
  125TMC2    C7 1914   3.375   0.742   8.977 -0.9141 -0.0126 -0.0190
  125TMC2    C8 1915   3.645   0.375   8.901 -0.1006 -0.3515 -0.0108
  125TMC2    O1 1916   3.313   0.700   8.880 -0.5444 -0.4825  0.2463
  125TMC2    O2 1917   3.557   0.332   8.827 -0.1428  0.0634 -0.2429
  125TMC2    O5 1918   3.776   0.345   8.879  0.1073  0.1623  0.4348
  125TMC2    H5 1919   3.844   0.407   8.912  0.1043  1.8777 -2.8134
  126MPD1     C 1920   4.139   0.521   9.588  0.0753 -0.0237 -0.9066
  126MPD1    C1 1921   4.097   0.399   9.527 -0.9114  0.1801 -0.0778
  126MPD1    C2 1922   3.986   0.405   9.440  0.2819 -0.9275 -0.2881
  126MPD1    C3 1923   3.914   0.525   9.418 -0.9015 -0.3871  0.3918
  126MPD1    C4 1924   3.958   0.636   9.491  0.2696 -0.7978 -0.4110
  126MPD1    C5 1925   4.067   0.631   9.573 -0.9484  0.7455  0.2878
  126MPD1     H 1926   3.952   0.321   9.380  0.9232  0.0780 -2.0677
  126MPD1    H1 1927   3.926   0.739   9.480 -1.1062 -1.0314  1.4999
  126MPD1    H2 1928   4.236   0.531   9.636 -0.3775  0.2592 -0.0576
  126MPD1    H3 1929   4.098   0.723   9.621  1.9216 -0.5350  0.8740
  126MPD1     N 1930   3.814   0.530   9.322  0.1775  0.3009  0.3270
  126MPD1    H5 1931   3.779   0.441   9.286  1.8506 -0.2807  0.1105
  126MPD1    N1 1932   4.183   0.288   9.532 -0.3910  0.1382  0.4286
  126MPD1    H6 1933   4.129   0.201   9.533  0.7967 -0.5518  2.8057
  126MPD1    H7 1934   4.243   0.284   9.614 -0.5515  0.4036  0.5596
  127MPD2     C 1935   4.622   0.792   9.132  0.4569 -0.0533 -0.2652
  127MPD2    C1 1936   0.006   0.809   9.218  0.2113  0.8549 -0.2130
  127MPD2    C2 1937   0.011   0.921   9.301 -0.0628 -0.1421  0.4222
  127MPD2    C3 1938   4.631   1.017   9.289 -0.9521  0.1706  0.0562
  127MPD2    C4 1939   4.528   1.005   9.193  0.3858 -0.2195  0.3960
  127MPD2    C5 1940   4.529   0.888   9.118 -0.0284  0.5985  0.0301
  127MPD2     H 1941   0.091   0.943   9.370 -0.5043 -0.7947  1.1459
  127MPD2    H1 1942   4.443   1.072   9.182  0.5849  0.4810  3.1682
  127MPD2    H2 1943   4.613   0.705   9.067  0.0842 -1.6121  1.8626
  127MPD2    H3 1944   4.455   0.867   9.042  0.3578  0.9815 -0.4521
  127MPD2     N 1945   4.635   1.132   9.374 -0.2010 -0.0876 -0.0630
  127MPD2    H5 1946   4.701   1.124   9.451  0.8616  3.6159 -0.6062
  127MPD2    N1 1947   0.100   0.699   9.220 -0.0727 -0.4351  0.3052
  127MPD2    H7 1948   0.072   0.620   9.163  0.0096 -0.2581  0.0217
  128TCq2    C1 1949   0.217   0.689   9.292 -1.1996 -1.1433 -0.4688
  128TCq2    O2 1950   0.271   0.779   9.350  0.4519  0.4271 -0.1720
  128TCq2    C2 1951   0.270   0.553   9.284 -0.0738  0.2942 -0.5183
  128TCq2    C3 1952   0.345   0.514   9.392  0.1715  0.2774  0.3379
  128TCq2    C4 1953   0.343   0.387   9.442  0.9402  0.5511 -0.5436
  128TCq2    C5 1954   0.266   0.295   9.382 -0.0349 -0.2576 -0.0433
  128TCq2    C6 1955   0.190   0.330   9.267 -0.4922 -0.0479  0.3888
  128TCq2    C7 1956   0.192   0.456   9.219  0.1371  0.2980 -0.2304
  128TCq2    C8 1957   0.090   0.243   9.209  0.2176  0.3659  0.3285
  128TCq2    O4 1958   0.016   0.292   9.125 -0.2609  0.8455  0.6617
  128TCq2    C9 1959   0.421   0.348   9.559 -0.3996 -0.4172 -0.3573
  128TCq2    O5 1960   0.381   0.242   9.610  0.3191  0.9901 -0.2441
  128TCq2    O6 1961   0.483   0.442   9.612 -0.2749  0.0248 -0.0621
  128TCq2    H2 1962   0.395   0.588   9.453  2.3833  0.2907 -1.4915
  128TCq2    H3 1963   0.277   0.194   9.420 -1.5764  0.7371  2.9998
  128TCq2    H4 1964   0.128   0.478   9.134  1.9305 -1.2324 -1.9719
  129MPD2     C 1965   4.484   4.311   0.531  0.6055  0.5965 -0.6006
  129MPD2    C1 1966   4.523   4.338   0.665 -0.1812 -0.1617 -0.2936
  129MPD2    C2 1967   4.626   4.434   0.677  0.4674 -0.4796 -0.1992
  129MPD2    C3 1968   4.668   4.513   0.569  0.2197  0.5595  0.1034
  129MPD2    C4 1969   4.619   4.489   0.441 -0.4752 -0.2502 -0.2979
  129MPD2    C5 1970   4.527   4.388   0.426 -0.1924 -0.2821 -0.9110
  129MPD2     H 1971   4.667   4.456   0.775  0.1572  1.6090 -0.5379
  129MPD2    H1 1972   4.642   4.542   0.349 -2.3015 -1.7951 -1.6548
  129MPD2    H2 1973   4.416   4.228   0.515 -1.0651  1.4324  2.2437
  129MPD2    H3 1974   4.500   4.360   0.324  0.8799 -1.0758 -0.9873
  129MPD2     N 1975   0.062   4.591   0.583  0.0443  0.0833 -0.0568
  129MPD2    H5 1976   0.108   4.588   0.674 -1.8736 -0.4578  0.8829
  129MPD2    N1 1977   4.484   4.266   0.778 -0.3202  0.4219  0.6065
  129MPD2    H7 1978   4.515   4.300   0.868 -0.9483  0.3439  0.8457
  130TCq2    C1 1979   4.431   4.139   0.773  0.1438  0.7403  1.2550
  130TCq2    O2 1980   4.408   4.065   0.674 -0.5376  0.2968  0.2658
  130TCq2    C2 1981   4.411   4.080   0.901 -0.3469 -0.7269 -0.7956
  130TCq2    C3 1982   4.396   3.943   0.898 -0.1432  0.3658  0.3630
  130TCq2    C4 1983   4.333   3.887   1.000 -0.0123  0.6161 -0.0387
  130TCq2    C5 1984   4.276   3.957   1.103 -0.0378  0.1475  0.2459
  130TCq2    C6 1985   4.301   4.089   1.114 -0.5938  0.4273 -0.4985
  130TCq2    C7 1986   4.358   4.153   1.008 -0.5064 -0.1345 -0.4398
  130TCq2    C8 1987   4.227   4.163   1.220 -0.5758  0.3562 -0.0947
  130TCq2    O4 1988   4.137   4.114   1.281  0.1366  1.2618  0.2227
  130TCq2    C9 1989   4.329   3.748   1.014 -0.0932  1.1304  0.2301
  130TCq2    O5 1990   4.378   3.679   0.924  0.1935  0.2468 -0.0904
  130TCq2    O6 1991   4.299   3.700   1.131 -0.0427 -0.1009 -0.4826
  130TCq2    H2 1992   4.445   3.875   0.829  2.2918 -0.4058  2.8155
  130TCq2    H3 1993   4.220   3.909   1.182 -3.2207  2.0300 -0.8768
  130TCq2    H4 1994   4.352   4.260   0.988 -2.6676 -0.7540 -3.1411
  131MPD2     C 1995   3.086   0.266   9.770 -0.2944 -0.3954 -0.4103
  131MPD2    C1 1996   3.204   0.342   9.770 -0.4247 -0.4811  0.0516
  131MPD2    C2 1997   3.320   0.290   9.714  0.6578  0.0540  0.5672
  131MPD2    C3 1998   3.319   0.162   9.669 -0.4633 -0.6179  0.1567
  131MPD2    C4 1999   3.201   0.092   9.657  0.1096  0.4946  0.1237
  131MPD2    C5 2000   3.091   0.145   9.717 -0.2561 -0.5145 -0.1387
  131MPD2     H 2001   3.408   0.353   9.722  0.6867 -0.1919  2.3542
  131MPD2    H1 2002   3.186   4.711   9.638  1.3154 -0.2052  2.9963
  131MPD2    H2 2003   2.992   0.297   9.815  0.5771  1.0013  0.4734
  131MPD2    H3 2004   3.000   0.090   9.736 -0.4020  0.0263  0.7159
  131MPD2     N 2005   3.444   0.122   9.619 -0.0565 -0.0303 -0.2367
  131MPD2    H5 2006   3.521   0.188   9.629  0.3362 -0.4612 -0.4363
  131MPD2    N1 2007   3.191   0.465   9.836 -0.4919 -0.4959 -0.2109
  131MPD2    H7 2008   3.103   0.473   9.886 -0.2969 -2.6455  0.5187
  132TCq2    C1 2009   3.504   0.846  10.159 -0.7578  0.1692 -0.3293
  132TCq2    O2 2010   3.560   0.887  10.058  0.5120  0.1048 -0.4595
  132TCq2    C2 2011   3.389   0.757  10.136  0.3993  0.2102  0.3021
  132TCq2    C3 2012   3.292   0.732  10.229  0.1485  0.3645 -0.0273
  132TCq2    C4 2013   3.177   0.668  10.191 -0.6390  0.7494 -0.1654
  132TCq2    C5 2014   3.171   0.608  10.068 -0.2457  0.2337 -0.8349
  132TCq2    C6 2015   3.269   0.634   9.970 -0.5140 -0.2015 -0.1001
  132TCq2    C7 2016   3.371   0.714  10.004 -0.3831 -0.6957  0.5197
  132TCq2    C8 2017   3.287   0.563   9.843 -0.2756 -0.0584  0.1155
  132TCq2    O4 2018   3.388   0.575   9.775 -0.4498 -0.2305 -0.1567
  132TCq2    C9 2019   3.074   0.634  10.281 -0.0334  0.8499  0.0375
  132TCq2    O5 2020   3.085   0.661  10.400 -0.1544 -0.3800  0.4949
  132TCq2    O6 2021   2.970   0.584  10.235 -0.3243  0.6642 -0.3028
  132TCq2    H2 2022   3.306   0.756  10.333 -1.3864 -2.2716  0.7912
  132TCq2    H3 2023   3.085   0.547  10.042  0.5012  0.1828 -3.2292
  132TCq2    H4 2024   3.445   0.736   9.927  0.3241 -1.8278  0.8864
  133MPD2     C 2025   2.905   1.449   9.150  0.2331 -0.1805  0.3862
  133MPD2    C1 2026   2.930   1.379   9.263 -0.0969  0.3158 -0.0712
  133MPD2    C2 2027   2.957   1.243   9.251 -0.1432 -0.4302  0.1723
  133MPD2    C3 2028   2.949   1.179   9.131  0.3856 -0.0918  0.5104
  133MPD2    C4 2029   2.921   1.252   9.018  0.2823  0.3408 -0.2579
  133MPD2    C5 2030   2.901   1.388   9.032 -0.7228  0.1518 -0.2772
  133MPD2     H 2031   2.986   1.187   9.340  0.9279 -0.9098 -0.4784
  133MPD2    H1 2032   2.905   1.206   8.922  1.4703 -2.4677  0.8792
  133MPD2    H2 2033   2.893   1.557   9.144 -2.2712 -0.5811 -1.9141
  133MPD2    H3 2034   2.886   1.452   8.946 -0.8264 -2.5469 -2.2650
  133MPD2     N 2035   2.961   1.036   9.123  0.1614  0.0453  0.1017
  133MPD2    H5 2036   2.922   0.995   9.039  2.1097  0.2265 -0.8931
  133MPD2    N1 2037   2.936   1.450   9.386  0.4328  0.1396 -0.7365
  133MPD2    H7 2038   2.912   1.549   9.385  1.3318  0.3856  1.0953
  134TCq2    C1 2039   2.971   1.403   9.513  0.1872  0.4150 -0.3388
  134TCq2    O2 2040   3.010   1.294   9.548  0.0671 -0.6141  1.0447
  134TCq2    C2 2041   2.977   1.514   9.614 -0.5125 -0.3343  0.5161
  134TCq2    C3 2042   2.882   1.611   9.614 -0.2900 -0.1976  0.6220
  134TCq2    C4 2043   2.904   1.718   9.697  0.0323 -0.7105 -0.6283
  134TCq2    C5 2044   3.023   1.722   9.772 -0.3255 -0.1398 -1.1873
  134TCq2    C6 2045   3.107   1.614   9.780 -0.8630 -0.8058  0.6477
  134TCq2    C7 2046   3.089   1.508   9.691  0.4844  0.0396 -0.8438
  134TCq2    C8 2047   3.245   1.636   9.821 -0.3729 -0.2244  0.3277
  134TCq2    O4 2048   3.331   1.573   9.758  0.7063  0.0776  0.2298
  134TCq2    C9 2049   2.810   1.828   9.702  0.2394 -0.3117  0.1018
  134TCq2    O5 2050   2.689   1.793   9.710  0.4258  0.0839  0.3615
  134TCq2    O6 2051   2.851   1.946   9.728  0.4890  0.7279 -0.2003
  134TCq2    H2 2052   2.789   1.609   9.558  0.2724  1.6568 -0.4066
  134TCq2    H3 2053   3.052   1.808   9.832 -2.7809  0.6611 -1.1880
  134TCq2    H4 2054   3.160   1.426   9.691  1.3716  0.7964  0.3222
  135MPD2     C 2055   4.407   1.661   9.224  0.5277 -0.1368  0.3224
  135MPD2    C1 2056   4.533   1.711   9.242  0.1130  0.3666  0.7563
  135MPD2    C2 2057   4.644   1.623   9.236 -0.0194 -0.2375  0.6311
  135MPD2    C3 2058   4.626   1.505   9.171  0.4489 -0.3224  0.1763
  135MPD2    C4 2059   4.499   1.454   9.142  0.7613 -0.1627  0.6559
  135MPD2    C5 2060   4.391   1.530   9.177  0.8489 -0.2384  0.1326
  135MPD2     H 2061   0.019   1.655   9.263 -0.2747 -1.4051  2.8939
  135MPD2    H1 2062   4.492   1.350   9.110 -1.2695  0.6484 -1.5320
  135MPD2    H2 2063   4.317   1.718   9.246  1.0776  0.1015  1.9654
  135MPD2    H3 2064   4.291   1.492   9.167  0.9043 -0.4540  0.4073
  135MPD2     N 2065   0.007   1.417   9.140 -0.2179 -0.1275  0.1616
  135MPD2    H5 2066   4.710   1.339   9.079 -1.2974 -1.1380  1.8161
  135MPD2    N1 2067   4.557   1.848   9.274  0.7764 -0.4191 -0.0703
  135MPD2    H7 2068   4.653   1.878   9.286  0.6254  0.1422 -0.2836
  136TCq2    C1 2069   4.465   1.945   9.251 -0.2123  0.0859  0.3828
  136TCq2    O2 2070   4.366   1.940   9.178 -0.2050 -0.4583 -0.0811
  136TCq2    C2 2071   4.510   2.086   9.261 -0.3521 -0.2712  0.4569
  136TCq2    C3 2072   4.462   2.183   9.171  0.4118  0.6247  0.0805
  136TCq2    C4 2073   4.540   2.294   9.156  0.0294  0.3350  0.4095
  136TCq2    C5 2074   4.646   2.323   9.233 -0.3873  0.9754  0.1987
  136TCq2    C6 2075   4.678   2.236   9.328  0.0129  0.3096  0.1596
  136TCq2    C7 2076   4.616   2.115   9.338 -0.3002 -0.7838  0.5307
  136TCq2    C8 2077   0.058   2.271   9.416  0.9400 -0.6500  0.1862
  136TCq2    O4 2078   0.104   2.380   9.392 -0.2934  0.1114 -0.5757
  136TCq2    C9 2079   4.501   2.392   9.060  0.2378 -0.7138  0.0729
  136TCq2    O5 2080   4.577   2.490   9.040  0.2764 -0.8570 -0.0303
  136TCq2    O6 2081   4.391   2.382   9.009  0.4132  0.0153  0.2831
  136TCq2    H2 2082   4.376   2.165   9.108 -2.1770  4.2899  2.5631
  136TCq2    H3 2083   4.693   2.420   9.216  1.0889  0.1199 -0.5920
  136TCq2    H4 2084   4.641   2.048   9.419  3.6808  1.0819  0.8363
  137MPD2     C 2085   4.586   0.311   9.496 -0.3626  0.2609  0.1214
  137MPD2    C1 2086   4.552   0.442   9.462 -0.2973 -0.1705 -0.0150
  137MPD2    C2 2087   4.642   0.537   9.495  0.4451  0.5473 -0.4169
  137MPD2    C3 2088   0.022   0.509   9.575 -0.6685 -0.2415  0.5767
  137MPD2    C4 2089   0.044   0.383   9.623  0.4048  0.4319 -0.3044
  137MPD2    C5 2090   4.690   0.280   9.584  0.4512  0.1739  0.2573
  137MPD2     H 2091   4.624   0.636   9.457  0.9840  0.3744 -1.1269
  137MPD2    H1 2092   0.116   0.364   9.701 -0.9655  1.1174  1.1333
  137MPD2    H2 2093   4.511   0.237   9.467 -0.7709  0.7929 -0.1922
  137MPD2    H3 2094   4.699   0.178   9.619 -1.8850 -0.5151 -1.2152
  137MPD2     N 2095   0.104   0.619   9.609 -0.1357 -0.2269 -0.2901
  137MPD2    H5 2096   0.080   0.711   9.576 -0.4845 -0.6564 -1.2201
  137MPD2    N1 2097   4.429   0.468   9.401 -0.1217  0.1356  0.4034
  137MPD2    H7 2098   4.368   0.398   9.362 -1.1726  0.1339  2.0575
  138TCq2    C1 2099   4.396   0.600   9.372 -0.4401  0.1704  0.0897
  138TCq2    O2 2100   4.408   0.699   9.445  0.0893  0.2299  0.2919
  138TCq2    C2 2101   4.300   0.618   9.267 -0.1963  0.3310 -0.2595
  138TCq2    C3 2102   4.245   0.518   9.191  0.0863 -0.4385 -1.2986
  138TCq2    C4 2103   4.144   0.548   9.109  0.1386  0.0577 -0.4646
  138TCq2    C5 2104   4.090   0.671   9.099  0.2538  0.1107  0.5241
  138TCq2    C6 2105   4.144   0.766   9.183 -0.9004  0.4785 -0.5059
  138TCq2    C7 2106   4.248   0.741   9.262  0.5989  0.1543  0.6129
  138TCq2    C8 2107   4.064   0.888   9.203  0.5273  0.1250  0.6246
  138TCq2    O4 2108   3.990   0.924   9.116  0.2312  0.0545  0.2043
  138TCq2    C9 2109   4.083   0.436   9.032 -0.4946  0.4325  0.9063
  138TCq2    O5 2110   4.135   0.322   9.039 -0.4350 -0.0707 -0.4292
  138TCq2    O6 2111   3.979   0.471   8.969 -0.1710  0.9958  0.2906
  138TCq2    H2 2112   4.284   0.416   9.195 -2.4253 -1.3979 -1.3000
  138TCq2    H3 2113   4.000   0.699   9.046 -0.5718 -0.3238  1.7047
  138TCq2    H4 2114   4.295   0.819   9.322 -0.2239 -0.3227  1.8833
  139TMC2    C1 2115   0.339   4.197  13.081 -0.2138  0.2097  0.2471
  139TMC2    C2 2116   0.268   4.227  12.970 -0.0274 -0.4639 -0.3273
  139TMC2    C3 2117   0.180   4.334  12.973  0.2368 -0.2682  0.2815
  139TMC2    C4 2118   0.330   4.284  13.187  0.8272 -0.1928  0.5960
  139TMC2    C5 2119   0.237   4.385  13.187  0.0286  0.4940  0.5979
  139TMC2    C6 2120   0.160   4.410  13.082  0.2512 -0.7800  1.2171
  139TMC2     C 2121   0.446   4.109  13.077  0.1122 -1.1344  0.2500
  139TMC2     O 2122   0.479   4.067  12.962 -0.2881 -0.5162 -0.7860
  139TMC2     H 2123   0.295   4.185  12.873 -0.6870 -0.7871 -0.3713
  139TMC2    H1 2124   0.402   4.266  13.266 -1.9969 -1.8894  2.7929
  139TMC2    H2 2125   0.083   4.487  13.085  2.8922  1.8812  0.6660
  139TMC2    C7 2126   0.219   4.474  13.297  0.0623  0.2318  0.0691
  139TMC2    C8 2127   0.094   4.363  12.857  0.6307 -0.6024 -0.1404
  139TMC2    O1 2128   0.173   4.584  13.263  0.6784 -0.1673 -0.0201
  139TMC2    O2 2129   0.004   4.447  12.865  0.1977 -0.0494  0.1154
  139TMC2    O5 2130   0.068   4.245  12.804  0.5863  0.5457  0.0769
  139TMC2    H5 2131   0.150   4.193  12.792 -0.6704 -1.8086  1.7077
  140MPD2     C 2132   0.553   3.885  13.349  0.6012  0.1879 -0.0262
  140MPD2    C1 2133   0.560   3.945  13.224  0.4575 -0.1056 -0.0284
  140MPD2    C2 2134   0.636   3.877  13.132 -0.3392 -0.2831 -0.0870
  140MPD2    C3 2135   0.703   3.760  13.161  0.2190 -0.0289  0.1119
  140MPD2    C4 2136   0.689   3.705  13.285  0.2960  0.5990  0.5320
  140MPD2    C5 2137   0.636   3.783  13.378  0.0506 -0.6536  0.0469
  140MPD2     H 2138   0.644   3.908  13.029  0.4690  0.6870  0.2631
  140MPD2    H1 2139   0.741   3.617  13.319 -2.4607 -0.0940  3.0080
  140MPD2    H2 2140   0.488   3.921  13.428 -1.1480 -4.6324  0.7277
  140MPD2    H3 2141   0.644   3.752  13.482  1.5331 -2.2094 -0.5314
  140MPD2     N 2142   0.769   3.691  13.060  0.0468 -0.1212 -0.0838
  140MPD2    H5 2143   0.782   3.737  12.970 -1.9030  0.9134  0.1843
  140MPD2    N1 2144   0.466   4.054  13.198  0.3910  0.5985  0.0062
  140MPD2    H7 2145   0.409   4.092  13.274 -0.5796 -0.0286 -0.4104
  141TCq2    C1 2146   1.094   0.505  14.321  0.1861  0.4560 -0.1274
  141TCq2    O2 2147   1.137   0.391  14.302  0.3835  0.2301 -0.3389
  141TCq2    C2 2148   1.107   0.565  14.454  0.7568  0.6644 -0.6369
  141TCq2    C3 2149   1.149   0.483  14.555 -0.4328  0.1627  0.7203
  141TCq2    C4 2150   1.148   0.535  14.684  0.6173  0.5617  0.1012
  141TCq2    C5 2151   1.098   0.661  14.706 -0.1978  0.4079 -0.0155
  141TCq2    C6 2152   1.071   0.743  14.599 -0.3652 -0.0244  0.0556
  141TCq2    C7 2153   1.071   0.695  14.474  0.1065  0.1051 -0.6055
  141TCq2    C8 2154   1.063   0.885  14.616 -0.1577  0.4456 -0.0674
  141TCq2    O4 2155   1.009   0.919  14.719 -0.1068 -0.5760  0.5042
  141TCq2    C9 2156   1.207   0.463  14.799  0.6585  0.4726 -0.4485
  141TCq2    O5 2157   1.187   0.518  14.912 -0.0523 -0.0754  0.4499
  141TCq2    O6 2158   1.304   0.384  14.777  0.0157  0.0607 -0.2914
  141TCq2    H2 2159   1.172   0.377  14.546  1.5837  0.4266  2.7765
  141TCq2    H3 2160   1.101   0.707  14.804  0.8588  1.8981 -0.7444
  141TCq2    H4 2161   1.078   0.764  14.391  0.0095 -0.7934 -1.3627
  142MPD2     C 2162   3.132   3.585  10.677  0.2165  0.2870  1.1284
  142MPD2    C1 2163   3.076   3.570  10.553 -0.1628 -0.6644  0.8709
  142MPD2    C2 2164   3.107   3.659  10.449  0.3654 -1.0849  0.7029
  142MPD2    C3 2165   3.208   3.753  10.466 -0.5039  0.1309 -0.3597
  142MPD2    C4 2166   3.275   3.750  10.589  0.2681  0.3122 -0.6459
  142MPD2    C5 2167   3.238   3.668  10.690  0.1009  0.0494 -0.4364
  142MPD2     H 2168   3.066   3.649  10.349 -2.8306  0.9318  1.8165
  142MPD2    H1 2169   3.376   3.790  10.594 -0.3256  1.5645  1.2810
  142MPD2    H2 2170   3.094   3.527  10.760 -0.5183  0.1828  0.7222
  142MPD2    H3 2171   3.299   3.658  10.779 -1.1770 -0.3136  0.4007
  142MPD2     N 2172   3.269   3.825  10.366  0.2068  0.1683 -0.1799
  142MPD2    H5 2173   3.360   3.869  10.380  0.4889 -0.3255 -0.4475
  142MPD2    N1 2174   2.967   3.467  10.546 -0.0738 -0.0303  0.5374
  142MPD2    H7 2175   2.934   3.419  10.628 -0.5314 -0.9350 -0.1800
  143TCq2    C1 2176   3.228   3.831  10.234  0.8600 -0.0845  0.3237
  143TCq2    O2 2177   3.128   3.778  10.182 -0.0102 -0.2547 -0.6055
  143TCq2    C2 2178   3.332   3.886  10.142  0.5452 -0.1993  0.1526
  143TCq2    C3 2179   3.461   3.908  10.186  0.0892  0.5201 -0.7909
  143TCq2    C4 2180   3.568   3.901  10.101 -0.9864 -1.0741 -0.7778
  143TCq2    C5 2181   3.556   3.885   9.965  0.0893 -0.3385 -0.1623
  143TCq2    C6 2182   3.429   3.874   9.918 -0.5699 -0.0668  0.4354
  143TCq2    C7 2183   3.322   3.868  10.004  0.0423  0.1228  0.2884
  143TCq2    C8 2184   3.411   3.837   9.774 -0.0535  0.0494  0.9659
  143TCq2    O4 2185   3.515   3.832   9.713 -0.2509  0.0429 -0.2729
  143TCq2    C9 2186   3.696   3.901  10.168 -0.1798 -0.4370  0.7201
  143TCq2    O5 2187   3.694   3.858  10.286 -0.5011 -0.5585 -0.0327
  143TCq2    O6 2188   3.804   3.912  10.103 -0.5519  0.1468 -0.1664
  143TCq2    H2 2189   3.487   3.914  10.291 -1.6618  2.3335 -0.4805
  143TCq2    H3 2190   3.641   3.866   9.901  0.1465 -0.6022 -0.0073
  143TCq2    H4 2191   3.220   3.858   9.971 -0.1924  2.5097  0.3016
  144MPD2     C 2192   1.101   2.345   1.030  0.0983  0.4182  0.4462
  144MPD2    C1 2193   1.181   2.458   1.045 -0.4602 -0.7831  0.1320
  144MPD2    C2 2194   1.311   2.446   1.086  0.7565  0.8063 -0.2552
  144MPD2    C3 2195   1.369   2.320   1.092  0.5697  0.7133  0.4460
  144MPD2    C4 2196   1.291   2.206   1.087  0.3314  0.2823 -0.1187
  144MPD2    C5 2197   1.156   2.230   1.068  0.6733 -0.0978 -0.3320
  144MPD2     H 2198   1.370   2.537   1.092  0.0734  1.2988 -1.0614
  144MPD2    H1 2199   1.332   2.106   1.093  1.7266  0.8304 -0.5086
  144MPD2    H2 2200   0.994   2.359   1.014  0.2296 -0.0614 -0.8337
  144MPD2    H3 2201   1.102   2.137   1.074 -0.5927  0.6183 -0.7152
  144MPD2     N 2202   1.503   2.304   1.124  1.4229  0.6055 -0.3026
  144MPD2    H5 2203   1.530   2.207   1.142 -0.7390  0.4336  2.0056
  144MPD2    N1 2204   1.137   2.589   1.041  0.1090 -0.4353  0.0658
  144MPD2    H7 2205   1.204   2.662   1.064 -0.6198  0.0529  0.6633
  145TCq2    C1 2206   1.594   2.403   1.145  0.1334 -0.5343 -0.2136
  145TCq2    O2 2207   1.579   2.521   1.160  0.3043 -0.5414  0.1107
  145TCq2    C2 2208   1.727   2.362   1.160  0.0515 -0.6311 -0.1565
  145TCq2    C3 2209   1.783   2.264   1.086  0.2216  0.3605  0.2870
  145TCq2    C4 2210   1.917   2.247   1.105 -0.3315  0.2347  0.2616
  145TCq2    C5 2211   1.989   2.317   1.203  0.8257  0.0350  0.6752
  145TCq2    C6 2212   1.926   2.418   1.273 -0.2302 -0.4766  0.1837
  145TCq2    C7 2213   1.795   2.437   1.253 -0.3518 -0.9746 -0.8606
  145TCq2    C8 2214   1.998   2.509   1.359  0.5549 -0.2898 -0.9362
  145TCq2    O4 2215   2.111   2.480   1.373  0.1268  0.1417  0.1654
  145TCq2    C9 2216   1.986   2.151   1.027 -0.1486  0.1838 -0.7463
  145TCq2    O5 2217   2.105   2.135   1.057 -0.7655 -0.1456  0.3940
  145TCq2    O6 2218   1.918   2.065   0.965  0.2221  0.6882 -0.3923
  145TCq2    H2 2219   1.720   2.222   1.008 -0.1484  0.2766  0.6312
  145TCq2    H3 2220   2.094   2.298   1.219  0.7711  0.9236  2.1812
  145TCq2    H4 2221   1.744   2.511   1.314  0.2560 -1.0604 -0.2452
  146TMC2    C1 2222   2.855   2.020  13.108 -0.2044  0.9442  0.1947
  146TMC2    C2 2223   2.747   2.109  13.088 -0.2650 -0.3287  0.1490
  146TMC2    C3 2224   2.730   2.155  12.959 -0.1243 -0.0662 -0.8614
  146TMC2    C4 2225   2.939   1.998  13.004  0.6770 -0.1595 -0.0601
  146TMC2    C5 2226   2.920   2.052  12.882  0.4053 -0.4768 -0.2440
  146TMC2    C6 2227   2.816   2.136  12.862 -0.3825  0.3855 -0.0825
  146TMC2     C 2228   2.883   1.979  13.245 -0.1055  0.3948  0.0740
  146TMC2     O 2229   2.818   2.026  13.337  0.3758 -0.0140 -0.1815
  146TMC2     H 2230   2.674   2.132  13.165 -1.0186  4.3109 -1.9531
  146TMC2    H1 2231   3.017   1.924  13.018  0.4768 -0.2237  0.7705
  146TMC2    H2 2232   2.797   2.180  12.765 -1.8404  1.5959  0.7440
  146TMC2    C7 2233   3.014   2.037  12.772 -0.3626  0.0685 -0.1486
  146TMC2    C8 2234   2.618   2.242  12.946  0.0792  0.0118 -0.7400
  146TMC2    O1 2235   3.009   2.106  12.674  0.1771 -0.0817  0.1023
  146TMC2    O2 2236   2.516   2.243  13.006  0.3985 -0.2219 -0.5472
  146TMC2    O5 2237   2.640   2.345  12.861 -0.3132  0.2036  0.1616
  146TMC2    H5 2238   2.729   2.346  12.820  0.5538 -0.4403  2.0263
  147MPD2     C 2239   3.284   1.733  12.467 -0.0109 -0.2497  0.3794
  147MPD2    C1 2240   3.316   1.705  12.599  0.9207 -0.7539 -1.0691
  147MPD2    C2 2241   3.255   1.771  12.707 -1.0781 -0.2364  0.2593
  147MPD2    C3 2242   3.159   1.862  12.682 -0.4910 -0.0167  0.6372
  147MPD2    C4 2243   3.120   1.871  12.548 -0.0926 -0.3446 -0.3165
  147MPD2    C5 2244   3.180   1.810  12.439  0.7275 -0.0783  0.1527
  147MPD2     H 2245   3.294   1.755  12.807  1.7170 -1.2734 -1.0153
  147MPD2    H1 2246   3.037   1.935  12.518 -0.2785 -0.1442  0.6006
  147MPD2    H2 2247   3.343   1.694  12.385 -1.0886 -0.9129 -0.0832
  147MPD2    H3 2248   3.153   1.843  12.339 -2.2523 -2.4914  0.1547
  147MPD2     N 2249   3.091   1.923  12.789  0.2405  0.4929 -0.3509
  147MPD2    H5 2250   3.126   1.886  12.877  0.7491 -1.0875 -1.2142
  147MPD2    N1 2251   3.418   1.611  12.626 -0.2925  0.7037 -0.0700
  147MPD2    H7 2252   3.458   1.567  12.544 -1.9103  1.0797 -1.0626
  148MPD2     C 2253   2.583   0.615  10.435  0.1398  0.8134 -0.8397
  148MPD2    C1 2254   2.653   0.501  10.399 -1.3949 -0.1635  0.9144
  148MPD2    C2 2255   2.611   0.418  10.298 -0.4138 -0.4624 -0.3252
  148MPD2    C3 2256   2.491   0.446  10.228 -0.2640 -0.2513 -1.0047
  148MPD2    C4 2257   2.421   0.553  10.270 -0.4884  0.4240 -0.0146
  148MPD2    C5 2258   2.465   0.639  10.365  0.0051 -0.8527  0.3909
  148MPD2     H 2259   2.672   0.330  10.283 -0.1038 -0.5278  1.2433
  148MPD2    H1 2260   2.329   0.582  10.219 -1.0659  0.6245  1.1362
  148MPD2    H2 2261   2.602   0.688  10.512 -1.0110 -0.7010  0.8650
  148MPD2    H3 2262   2.407   0.724  10.399 -0.9801 -1.5757  0.5111
  148MPD2     N 2263   2.434   0.369  10.120 -0.2568 -1.0326  0.6766
  148MPD2    H5 2264   2.359   0.413  10.067  1.1017  1.2216  0.6241
  148MPD2    N1 2265   2.758   0.453  10.477 -0.2910 -0.1545 -0.3560
  148MPD2    H7 2266   2.806   0.372  10.439 -0.5939  0.3217 -1.7388
  149TCq2    C1 2267   2.802   0.501  10.598  0.6467  0.4587  0.1752
  149TCq2    O2 2268   2.751   0.579  10.681 -0.2130  0.0140  0.0067
  149TCq2    C2 2269   2.911   0.415  10.646 -0.6051  0.1642  0.6906
  149TCq2    C3 2270   2.929   0.418  10.785  0.1763  0.3099  0.4859
  149TCq2    C4 2271   3.040   0.372  10.844 -0.2183 -0.3336  0.4428
  149TCq2    C5 2272   3.130   0.299  10.764  0.6290  0.0856  0.0260
  149TCq2    C6 2273   3.122   0.311  10.630 -0.2079  0.2090 -0.2771
  149TCq2    C7 2274   3.016   0.378  10.566 -0.3335 -0.1100  0.4177
  149TCq2    C8 2275   3.190   0.206  10.568 -0.2177 -0.2617 -0.0361
  149TCq2    O4 2276   3.177   0.091  10.609  0.7315 -0.4673  0.2310
  149TCq2    C9 2277   3.037   0.333  10.982  0.5583  1.0406 -0.6633
  149TCq2    O5 2278   2.974   0.410  11.061  0.4458  0.3884  0.0141
  149TCq2    O6 2279   3.094   0.224  11.011 -0.1664 -0.4075 -0.3489
  149TCq2    H2 2280   2.850   0.451  10.852  0.5741  0.8763  0.6714
  149TCq2    H3 2281   3.217   0.251  10.807  0.7629  1.3111  1.1265
  149TCq2    H4 2282   3.018   0.376  10.457  1.4830  2.3442  0.4139
  150MPD2     C 2283   4.506   0.122  11.924  0.6655  0.4239  0.5475
  150MPD2    C1 2284   4.518   0.103  11.790  0.2350 -0.0780 -0.1312
  150MPD2    C2 2285   4.627   0.157  11.724  0.3051  0.2491 -0.4642
  150MPD2    C3 2286   0.001   0.216  11.798  0.5834 -0.8933 -0.1320
  150MPD2    C4 2287   4.714   0.247  11.932 -0.1358  0.4338  0.4345
  150MPD2    C5 2288   4.595   0.205  11.990  0.2877 -0.6651 -0.5427
  150MPD2     H 2289   4.643   0.148  11.617 -1.9506 -1.4325 -0.6602
  150MPD2    H1 2290   0.061   0.304  11.989 -0.1622 -1.6418  2.5105
  150MPD2    H2 2291   4.422   0.084  11.981  1.3956  0.1141  1.4114
  150MPD2    H3 2292   4.589   0.228  12.095 -0.9574  0.0326 -0.7693
  150MPD2     N 2293   0.118   0.253  11.727  0.0069 -0.1975 -0.0586
  150MPD2    H5 2294   0.126   0.223  11.631 -1.5566 -2.0456  0.3885
  150MPD2    N1 2295   4.431   0.014  11.726  0.2317  0.7242 -0.4488
  150MPD2    H7 2296   4.352   4.701  11.777 -0.5435  1.1785 -1.3146
  151TCq2    C1 2297   0.228   0.317  11.782 -0.0987 -0.2344  0.2844
  151TCq2    O2 2298   0.236   0.391  11.879 -0.0825  0.0554 -0.3601
  151TCq2    C2 2299   0.354   0.284  11.710 -0.1200 -0.0233  0.1938
  151TCq2    C3 2300   0.366   0.162  11.650 -0.1074 -1.0126 -0.0641
  151TCq2    C4 2301   0.491   0.118  11.628 -0.3137 -0.2943 -0.0100
  151TCq2    C5 2302   0.607   0.196  11.649  0.4432 -0.3529  0.0457
  151TCq2    C6 2303   0.592   0.319  11.700  0.1003  0.0551  0.2112
  151TCq2    C7 2304   0.466   0.362  11.734  0.7499  0.5269  0.5225
  151TCq2    C8 2305   0.701   0.369  11.781 -0.1684  0.2180 -0.2677
  151TCq2    O4 2306   0.712   0.490  11.809  0.0002 -0.4000  0.6358
  151TCq2    C9 2307   0.501   4.722  11.561 -0.7656  0.2689  0.1233
  151TCq2    O5 2308   0.397   4.666  11.516 -0.5121  0.3047  0.1991
  151TCq2    O6 2309   0.620   4.678  11.548  0.2352  0.6180  0.3542
  151TCq2    H2 2310   0.284   0.092  11.635 -0.8948  0.4399 -2.5787
  151TCq2    H3 2311   0.704   0.170  11.607  0.0135 -0.0143 -1.1486
  151TCq2    H4 2312   0.458   0.466  11.765  1.4581  0.7167  0.0984
  152MPD2     C 2313   4.450   4.353  12.650  0.2426  0.1809 -0.4669
  152MPD2    C1 2314   4.495   4.400  12.532 -0.0556  0.2020  0.0682
  152MPD2    C2 2315   4.405   4.435  12.431  0.9342  0.1462  0.7127
  152MPD2    C3 2316   4.268   4.460  12.467 -0.4036 -0.1558  0.2907
  152MPD2    C4 2317   4.228   4.441  12.600 -0.3524 -0.5018 -0.3153
  152MPD2    C5 2318   4.322   4.379  12.683  0.1343  0.1257 -0.5272
  152MPD2     H 2319   4.444   4.466  12.335 -1.1553 -1.2782 -0.5840
  152MPD2    H1 2320   4.129   4.445  12.642 -0.4044  0.8140 -0.5421
  152MPD2    H2 2321   4.512   4.307  12.725  2.2534  1.5562 -1.3036
  152MPD2    H3 2322   4.287   4.349  12.781 -0.5588  0.4281 -0.6806
  152MPD2     N 2323   4.180   4.515  12.374  0.2400 -0.4795  0.3335
  152MPD2    H5 2324   4.191   4.509  12.273  0.0808 -2.0412  0.4046
  152MPD2    N1 2325   4.626   4.386  12.505  0.1998  0.0624 -0.8964
  152MPD2    H7 2326   4.686   4.349  12.578  0.6979  2.8583  0.1306
  153TCq2    C1 2327   4.696   4.416  12.384 -0.5905 -1.0926 -0.9508
  153TCq2    O2 2328   4.655   4.474  12.286 -0.1674  0.4663 -0.5524
  153TCq2    C2 2329   0.114   4.392  12.388  0.2021 -0.2187 -0.4457
  153TCq2    C3 2330   0.164   4.301  12.482 -0.1395  0.1701  0.0863
  153TCq2    C4 2331   0.299   4.294  12.502 -0.7439  0.1598 -0.5131
  153TCq2    C5 2332   0.382   4.366  12.425  0.5107  0.5610 -0.3071
  153TCq2    C6 2333   0.327   4.449  12.334 -0.5817  0.5050  0.4469
  153TCq2    C7 2334   0.195   4.468  12.309  0.1397 -0.4693  0.3708
  153TCq2    C8 2335   0.406   4.555  12.279  0.1530 -0.1431 -0.1107
  153TCq2    O4 2336   0.348   4.641  12.212  0.0970 -0.1325 -0.0177
  153TCq2    C9 2337   0.353   4.216  12.610 -0.6285  0.0763  0.7181
  153TCq2    O5 2338   0.474   4.239  12.642 -0.1311  0.1684  0.7179
  153TCq2    O6 2339   0.271   4.129  12.652  0.0122  0.0273  0.2756
  153TCq2    H2 2340   0.092   4.255  12.549  1.2663 -0.4185  1.1951
  153TCq2    H3 2341   0.489   4.354  12.438  0.4313  0.4016  0.1960
  153TCq2    H4 2342   0.162   4.566  12.278 -0.1530 -1.7760 -3.4982
  154MPD2     C 2343   1.198   0.020  17.634  0.7164  0.2120 -1.0137
  154MPD2    C1 2344   1.282   4.660  17.695  0.2927  0.2905  0.7779
  154MPD2    C2 2345   1.291   4.668   0.124  0.0903 -0.1722  0.5784
  154MPD2    C3 2346   1.215   0.029   0.197  0.2039 -0.4536 -0.0528
  154MPD2    C4 2347   1.124   0.112   0.136  0.5013  0.5814 -0.5668
  154MPD2    C5 2348   1.111   0.101   0.002 -0.4978  0.0270 -0.1018
  154MPD2     H 2349   1.376   4.617   0.168  1.8346 -1.4461 -4.3195
  154MPD2    H1 2350   1.051   0.178   0.184 -1.4159 -1.7277 -0.2960
  154MPD2    H2 2351   1.189   0.022  17.526  1.1059  0.0348 -1.0473
  154MPD2    H3 2352   1.040   0.164  17.652  0.4277  3.4809  2.7529
  154MPD2     N 2353   1.227   0.032   0.339  0.3373 -0.0185  0.4363
  154MPD2    H5 2354   1.296   4.697   0.384 -1.9233 -1.0742  2.4862
  154MPD2    N1 2355   1.357   4.569  17.613 -0.3685  0.2306  0.1580
  154MPD2    H7 2356   1.344   4.576  17.513  0.8244  0.0142 -0.0022
  155TCq2    C1 2357   1.427   4.464  17.665  0.2357 -0.3382 -0.9204
  155TCq2    O2 2358   1.444   4.434   0.081 -0.1699 -0.7409 -0.2707
  155TCq2    C2 2359   1.466   4.368  17.570 -0.6981 -0.6702 -0.3979
  155TCq2    C3 2360   1.545   4.264  17.621 -0.3083 -0.1881  0.2577
  155TCq2    C4 2361   1.589   4.161  17.539  0.0826 -0.7592  0.2474
  155TCq2    C5 2362   1.555   4.154  17.407  0.2994 -0.0682 -0.2293
  155TCq2    C6 2363   1.474   4.256  17.360 -0.7230 -0.7372 -0.1770
  155TCq2    C7 2364   1.431   4.365  17.436 -0.0930  0.1553  0.8723
  155TCq2    C8 2365   1.424   4.239  17.224 -0.4688 -0.4651 -0.1492
  155TCq2    O4 2366   1.373   4.335  17.167  0.0148  0.4342  0.2714
  155TCq2    C9 2367   1.675   4.060  17.595  0.6795  0.7304  0.6001
  155TCq2    O5 2368   1.693   4.064   0.018 -0.1927  0.0993 -0.2375
  155TCq2    O6 2369   1.735   3.984  17.516  0.2937  0.5127  0.0678
  155TCq2    H2 2370   1.586   4.267   0.019  1.0388  0.0005 -0.2993
  155TCq2    H3 2371   1.598   4.075  17.346 -0.0610  0.5139 -1.2363
  155TCq2    H4 2372   1.380   4.447  17.386  0.5077  0.2388  0.3939
  156MPD2     C 2373   0.131   2.035  12.057  0.3227 -0.7265 -0.1992
  156MPD2    C1 2374   0.109   2.162  12.007 -0.1187  1.0258 -0.2518
  156MPD2    C2 2375   0.204   2.266  12.038  0.0780  0.0655 -0.8439
  156MPD2    C3 2376   0.304   2.239  12.124 -0.3434  0.6060  0.2075
  156MPD2    C4 2377   0.326   2.110  12.168  0.1813 -0.0240 -0.5141
  156MPD2    C5 2378   0.242   2.010  12.129  0.5066  0.0164 -0.4028
  156MPD2     H 2379   0.195   2.364  11.992 -0.2440  0.1468 -0.6025
  156MPD2    H1 2380   0.412   2.083  12.228 -0.6080  1.0172  1.0876
  156MPD2    H2 2381   0.065   1.951  12.039 -0.4493  0.0673 -1.1275
  156MPD2    H3 2382   0.269   1.911  12.163  1.8316  0.4319 -0.2071
  156MPD2     N 2383   0.373   2.347  12.176 -0.1152 -0.4624 -0.7949
  156MPD2    H5 2384   0.338   2.434  12.138  1.3278  0.2197 -0.5666
  156MPD2    N1 2385   4.717   2.185  11.924 -0.1875  0.6455  0.1218
  156MPD2    H7 2386   4.658   2.104  11.913  1.7311 -0.1517 -4.2853
  157TCq2    C1 2387   4.694   2.300  11.848  0.4220  0.9031 -0.6523
  157TCq2    O2 2388   0.034   2.404  11.829  0.2147 -0.3782  0.5580
  157TCq2    C2 2389   4.580   2.281  11.771  0.4036 -0.3374  0.3159
  157TCq2    C3 2390   4.471   2.211  11.822  0.1784 -0.2940  0.2689
  157TCq2    C4 2391   4.350   2.212  11.753 -0.1919 -0.4245  0.3746
  157TCq2    C5 2392   4.342   2.273  11.631  0.6469 -0.0456 -0.3559
  157TCq2    C6 2393   4.449   2.343  11.586  0.5156  0.7738 -0.0527
  157TCq2    C7 2394   4.569   2.341  11.649 -0.7871  0.5517  0.3470
  157TCq2    C8 2395   4.429   2.414  11.465  0.3174 -0.4367  0.4596
  157TCq2    O4 2396   4.509   2.504  11.439 -0.2667  0.5977  0.3879
  157TCq2    C9 2397   4.226   2.167  11.808 -0.5570  0.1049 -0.3892
  157TCq2    O5 2398   4.225   2.133  11.932  0.5400  0.0973 -0.5875
  157TCq2    O6 2399   4.118   2.209  11.749 -0.9870 -0.6215 -0.4238
  157TCq2    H2 2400   4.474   2.183  11.926 -0.6495 -0.4595  0.2494
  157TCq2    H3 2401   4.255   2.262  11.567  2.0946 -0.4939 -2.2388
  157TCq2    H4 2402   4.655   2.402  11.621  1.3493 -1.8905  1.6274
  158TMC2    C1 2403   0.510   0.600  12.952 -0.3493 -0.1867 -0.1149
  158TMC2    C2 2404   0.565   0.650  12.838  0.5607  0.4303  0.0111
  158TMC2    C3 2405   0.490   0.718  12.746  0.1553  0.1065 -0.2754
  158TMC2    C4 2406   0.377   0.610  12.976 -0.7023  0.0260  0.1240
  158TMC2    C5 2407   0.303   0.694  12.892  0.6786  0.1419 -0.3575
  158TMC2    C6 2408   0.357   0.743  12.774  0.3948  0.0633  0.1760
  158TMC2     C 2409   0.605   0.524  13.038  0.4328  0.0397  0.2239
  158TMC2     O 2410   0.708   0.482  12.984 -0.8670  0.5331 -0.1897
  158TMC2     H 2411   0.670   0.632  12.819  0.4285  2.9261 -3.0352
  158TMC2    H1 2412   0.331   0.557  13.059  1.0957 -0.8904  0.5179
  158TMC2    H2 2413   0.293   0.799  12.707 -0.4983  0.1617  1.1138
  158TMC2    C7 2414   0.153   0.691  12.906 -0.3806  0.3097  0.5426
  158TMC2    C8 2415   0.554   0.747  12.619 -0.1159 -0.0867 -0.0803
  158TMC2    O1 2416   0.084   0.700  12.803  0.0427  0.5876  0.1244
  158TMC2    O2 2417   0.679   0.736  12.601  0.3442  0.2697  0.2716
  158TMC2    O5 2418   0.475   0.722  12.516  0.0958  0.1619  0.1952
  158TMC2    H5 2419   0.380   0.713  12.539  0.0917 -2.2505 -0.8411
  159MPD2     C 2420   0.733   0.251  13.448 -0.0244 -0.1108 -0.1384
  159MPD2    C1 2421   0.652   0.354  13.488 -0.0039  0.6471  0.2549
  159MPD2    C2 2422   0.600   0.441  13.395  0.0220 -1.0402 -0.2679
  159MPD2    C3 2423   0.632   0.426  13.264 -0.3000  0.1908 -0.2900
  159MPD2    C4 2424   0.715   0.319  13.221 -0.4516 -0.3199  0.5215
  159MPD2    C5 2425   0.771   0.242  13.315  0.1012 -0.3667  0.2411
  159MPD2     H 2426   0.527   0.514  13.427 -2.1015 -2.2792 -2.2978
  159MPD2    H1 2427   0.749   0.306  13.119 -0.4693  0.3862  0.4316
  159MPD2    H2 2428   0.788   0.191  13.519 -0.0980 -0.8501 -0.6986
  159MPD2    H3 2429   0.845   0.169  13.286 -1.8550 -2.6839  1.0566
  159MPD2     N 2430   0.566   0.507  13.167 -0.9568  0.3362 -0.2684
  159MPD2    H5 2431   0.489   0.564  13.200  0.3809  0.3690  2.7521
  159MPD2    N1 2432   0.622   0.361  13.625  0.0196  0.5088  0.1449
  159MPD2    H7 2433   0.654   0.281  13.679  1.5827  0.4714 -0.8477
  160TMC2    C1 2434   4.714   3.632   0.129  0.1100 -0.5458  0.3018
  160TMC2    C2 2435   0.044   3.749   0.069 -0.1520 -0.8819  0.2260
  160TMC2    C3 2436   0.130   3.832   0.139 -0.4100  0.6515  0.0238
  160TMC2    C4 2437   0.012   3.620   0.262 -0.2075  0.5011  0.1022
  160TMC2    C5 2438   0.101   3.703   0.323 -0.5591 -0.3748  0.4099
  160TMC2    C6 2439   0.174   3.804   0.261  0.7464  0.7812 -0.3846
  160TMC2     C 2440   4.582   3.603   0.088 -0.7637 -0.0886 -0.1779
  160TMC2     O 2441   4.552   3.603  17.671 -0.3719  0.1906  0.4000
  160TMC2     H 2442   0.020   3.764  17.667  2.7763  1.8920 -0.0571
  160TMC2    H1 2443   4.698   3.536   0.317  0.1660 -0.8491 -1.7075
  160TMC2    H2 2444   0.244   3.863   0.318  0.8058  2.1947 -1.9016
  160TMC2    C7 2445   0.072   3.718   0.463 -0.0293 -1.1542 -0.5497
  160TMC2    C8 2446   0.212   3.920   0.065  0.0778  0.9226 -0.5648
  160TMC2    O1 2447   4.687   3.672   0.502 -0.0915  0.2845 -0.6073
  160TMC2    O2 2448   0.199   3.925  17.646 -0.0294  0.6496  0.3449
  160TMC2    O5 2449   0.195   4.028   0.145  0.2864 -0.2713  0.2810
  160TMC2    H5 2450   0.204   4.013   0.241  1.2472  0.2792  0.2695
  161MPD2     C 2451   4.293   3.526   0.108  0.0975  0.9324  0.4987
  161MPD2    C1 2452   4.372   3.571   0.210  0.3353 -0.2346  0.6014
  161MPD2    C2 2453   4.324   3.573   0.340  0.8959 -0.0522 -0.3756
  161MPD2    C3 2454   4.200   3.529   0.372 -0.9522 -0.0425 -0.2797
  161MPD2    C4 2455   4.117   3.482   0.278  0.3337  0.5827  0.3002
  161MPD2    C5 2456   4.158   3.488   0.147  0.4618 -0.6346 -0.8008
  161MPD2     H 2457   4.397   3.599   0.416  2.3401 -2.3698 -0.9741
  161MPD2    H1 2458   4.016   3.453   0.304 -0.2152  0.2265 -2.2491
  161MPD2    H2 2459   4.326   3.525   0.005  0.5025  2.9951  0.6157
  161MPD2    H3 2460   4.086   3.468   0.068 -1.2542  1.5736  0.1786
  161MPD2     N 2461   4.167   3.549   0.507 -0.1910  0.7179  0.2492
  161MPD2    H5 2462   4.243   3.573   0.569 -1.0573  2.3809  0.6739
  161MPD2    N1 2463   4.501   3.613   0.202  0.2795  0.3516  0.0552
  161MPD2    H7 2464   4.543   3.632   0.293  0.0059  1.1848  0.0052
  162TMC2    C1 2465   2.717   0.432   1.376 -0.0587 -0.4235  0.0696
  162TMC2    C2 2466   2.641   0.537   1.416  0.1413 -0.0395 -0.8761
  162TMC2    C3 2467   2.598   0.537   1.548 -0.3497 -0.1712 -0.1078
  162TMC2    C4 2468   2.766   0.340   1.467 -1.6032 -0.2252  0.5366
  162TMC2    C5 2469   2.728   0.353   1.603  0.2939  0.0901 -0.4610
  162TMC2    C6 2470   2.645   0.451   1.646 -0.7192 -0.2189 -0.0417
  162TMC2     C 2471   2.766   0.424   1.238 -0.3530  0.4601  0.0734
  162TMC2     O 2472   2.849   0.343   1.212 -0.0461 -0.4028 -0.2868
  162TMC2     H 2473   2.606   0.624   1.362 -0.3099  0.9292  0.9778
  162TMC2    H1 2474   2.833   0.258   1.442  0.4185  1.8539 -0.9230
  162TMC2    H2 2475   2.600   0.448   1.745  0.9374 -1.4876  0.6628
  162TMC2    C7 2476   2.787   0.266   1.703 -0.0777 -0.2923  0.2784
  162TMC2    C8 2477   2.525   0.654   1.589 -0.1413  0.9401 -0.2787
  162TMC2    O1 2478   2.741   0.276   1.819  0.5411  0.1648 -0.0837
  162TMC2    O2 2479   2.465   0.729   1.517  0.0792  0.4801  0.0838
  162TMC2    O5 2480   2.608   0.701   1.682 -0.2909  0.2010  0.0106
  162TMC2    H5 2481   2.666   0.633   1.723  0.6035  1.3312  0.6234
  163MPD2     C 2482   2.706   0.540   0.731  0.4460  0.5491 -0.0037
  163MPD2    C1 2483   2.786   0.443   0.784 -0.4538  0.3209 -0.1094
  163MPD2    C2 2484   2.787   0.433   0.928 -0.6323  0.4890 -0.0806
  163MPD2    C3 2485   2.706   0.519   1.005  0.0521 -0.2075 -0.4222
  163MPD2    C4 2486   2.642   0.616   0.942  0.2224 -0.0944  0.1414
  163MPD2    C5 2487   2.630   0.621   0.807  0.2776  0.8006  0.9166
  163MPD2     H 2488   2.832   0.346   0.974  0.2748  1.4694  0.8778
  163MPD2    H1 2489   2.588   0.692   0.998 -0.1852  0.4277 -0.9643
  163MPD2    H2 2490   2.687   0.550   0.624 -1.0849  2.9068  0.5040
  163MPD2    H3 2491   2.566   0.694   0.760 -0.2427  0.6256  1.3545
  163MPD2     N 2492   2.696   0.505   1.146 -0.1312  0.2608 -0.0812
  163MPD2    H5 2493   2.625   0.566   1.184 -0.7117 -0.8370  0.6202
  163MPD2    N1 2494   2.864   0.369   0.690 -0.1873 -0.4162 -0.0336
  163MPD2    H7 2495   2.855   0.401   0.594 -2.2275 -1.5485 -0.2161
  164TCq2    C1 2496   3.429   0.471  10.936 -0.3497  0.3441 -0.5097
  164TCq2    O2 2497   3.403   0.429  11.050  0.2358 -0.1273  0.0287
  164TCq2    C2 2498   3.409   0.615  10.916  0.7281  0.9189 -1.0757
  164TCq2    C3 2499   3.422   0.664  10.788 -0.1093  0.6980  0.0162
  164TCq2    C4 2500   3.336   0.767  10.751 -0.6584  0.3265 -0.4048
  164TCq2    C5 2501   3.235   0.816  10.835 -0.2914 -0.1115  0.3371
  164TCq2    C6 2502   3.232   0.767  10.964 -0.5750 -0.4028  0.2030
  164TCq2    C7 2503   3.317   0.667  11.001 -0.3107  0.2151  0.0020
  164TCq2    C8 2504   3.139   0.824  11.065 -0.1304  0.1029 -0.2260
  164TCq2    O4 2505   3.148   0.799  11.184 -0.1239  0.3919 -0.3154
  164TCq2    C9 2506   3.338   0.821  10.619  0.5174  0.7034  0.5019
  164TCq2    O5 2507   3.418   0.766  10.539 -0.3782  0.2498 -0.1476
  164TCq2    O6 2508   3.230   0.874  10.577 -0.4905  0.1294  0.3516
  164TCq2    H2 2509   3.503   0.628  10.724 -0.4546 -0.9955  0.5283
  164TCq2    H3 2510   3.180   0.905  10.808  0.2436  0.6192  1.6384
  164TCq2    H4 2511   3.298   0.619  11.096 -2.2304 -0.9562 -0.9730
  165MPD2     C 2512   1.195   0.886   1.526 -0.1914  0.3743  0.2530
  165MPD2    C1 2513   1.091   0.825   1.467 -0.5002 -0.1278 -0.4419
  165MPD2    C2 2514   0.960   0.867   1.476 -0.2642  0.4466  1.1265
  165MPD2    C3 2515   0.938   0.993   1.533  0.1699 -0.3112  0.1394
  165MPD2    C4 2516   1.038   1.055   1.597 -0.1662 -0.0854 -0.6205
  165MPD2    C5 2517   1.160   0.989   1.610  0.6896 -0.8899  0.3141
  165MPD2     H 2518   0.876   0.806   1.444 -0.0983  0.7477  0.1338
  165MPD2    H1 2519   1.020   1.148   1.650 -2.4361 -0.1581 -1.2634
  165MPD2    H2 2520   1.298   0.853   1.527 -0.5178 -0.6868 -0.8586
  165MPD2    H3 2521   1.235   1.044   1.665  2.1050 -1.2307 -1.2494
  165MPD2     N 2522   0.805   1.053   1.540  0.1079  0.0967 -0.0340
  165MPD2    H5 2523   0.802   1.139   1.593 -3.2556  0.5358 -0.9433
  165MPD2    N1 2524   1.118   0.696   1.414  0.0295 -0.3423  0.3092
  165MPD2    H7 2525   1.208   0.651   1.425  0.2306 -0.0655 -0.1998
  166TCq2    C1 2526   0.699   1.021   1.461  0.4448 -0.3305  0.6683
  166TCq2    O2 2527   0.677   0.916   1.397  0.0119 -0.2957 -0.1263
  166TCq2    C2 2528   0.593   1.120   1.482  0.6045  0.6297  0.0651
  166TCq2    C3 2529   0.461   1.085   1.453  0.1747 -0.2877  0.1696
  166TCq2    C4 2530   0.365   1.181   1.444 -0.5959  0.0742 -0.3481
  166TCq2    C5 2531   0.403   1.312   1.456 -0.5265 -0.0525  0.1160
  166TCq2    C6 2532   0.541   1.337   1.470  0.2681 -0.5217  0.5733
  166TCq2    C7 2533   0.636   1.243   1.481 -0.1516  0.0091 -0.1867
  166TCq2    C8 2534   0.584   1.476   1.467  0.0157  0.5619  0.0218
  166TCq2    O4 2535   0.693   1.500   1.417  0.1399  0.1613 -0.3200
  166TCq2    C9 2536   0.227   1.151   1.415  0.1290 -0.2842 -0.5136
  166TCq2    O5 2537   0.138   1.234   1.434  0.3278  0.5249 -0.7279
  166TCq2    O6 2538   0.202   1.028   1.417 -0.6255  0.0107 -0.6339
  166TCq2    H2 2539   0.435   0.984   1.425  3.6174 -1.5917  1.7296
  166TCq2    H3 2540   0.325   1.388   1.455  0.0389  0.5526  1.3970
  166TCq2    H4 2541   0.740   1.271   1.494 -0.4967  0.7504  0.9989
  167TMC2    C1 2542   3.011   0.529  12.920 -0.4556  0.0256  0.8656
  167TMC2    C2 2543   2.915   0.565  13.011 -0.1402 -0.6865  0.6809
  167TMC2    C3 2544   2.813   0.482  13.041 -0.2721 -0.5236 -0.4485
  167TMC2    C4 2545   3.009   0.405  12.859 -0.2208 -0.0360  0.0394
  167TMC2    C5 2546   2.906   0.323  12.888 -0.7860 -0.9101 -0.2795
  167TMC2    C6 2547   2.803   0.352  12.979  0.2049  0.5510 -0.0575
  167TMC2     C 2548   3.064   0.634  12.843 -0.6055  0.4567 -0.4673
  167TMC2     O 2549   3.004   0.739  12.855 -0.3500 -0.0197  0.2845
  167TMC2     H 2550   2.921   0.660  13.063  0.2365 -1.7429  2.5608
  167TMC2    H1 2551   3.073   0.381  12.775 -1.8938  0.6389 -1.4261
  167TMC2    H2 2552   2.720   0.284  12.992 -1.2474  2.1187 -1.2033
  167TMC2    C7 2553   2.879   0.244  12.766 -0.7286 -0.7353 -0.8433
  167TMC2    C8 2554   2.755   0.492  13.172  0.5934  0.0124 -0.2383
  167TMC2    O1 2555   2.976   0.188  12.717 -0.5981  0.6193  0.1240
  167TMC2    O2 2556   2.722   0.394  13.238  0.1078  0.5646 -0.1977
  167TMC2    O5 2557   2.701   0.618  13.178  0.2794  0.5347 -0.2649
  167TMC2    H5 2558   2.707   0.670  13.095  0.0959  0.5892 -0.2437
  168MPD2     C 2559   3.361   0.624  12.633  0.3254 -0.2953  0.1956
  168MPD2    C1 2560   3.244   0.670  12.675  0.6330  0.1654 -0.4771
  168MPD2    C2 2561   3.193   0.777  12.611 -0.0305  2.0757 -0.4493
  168MPD2    C3 2562   3.251   0.839  12.503 -0.0647 -0.5646  0.9429
  168MPD2    C4 2563   3.381   0.795  12.468  0.3771  0.0082  0.2972
  168MPD2    C5 2564   3.427   0.679  12.527  0.4139  0.2749  0.1781
  168MPD2     H 2565   3.106   0.815  12.664 -0.4681  1.6940 -0.9004
  168MPD2    H1 2566   3.435   0.839  12.384 -1.1808 -2.0090 -1.7813
  168MPD2    H2 2567   3.389   0.534  12.688  0.6009  0.6705  1.6513
  168MPD2    H3 2568   3.517   0.627  12.498 -1.1113 -2.0864 -0.3665
  168MPD2     N 2569   3.194   0.940  12.419 -0.6716 -0.1506  0.7268
  168MPD2    H5 2570   3.252   0.971  12.342  0.9115 -1.0786  1.5573
  168MPD2    N1 2571   3.175   0.596  12.769 -0.3132 -0.5757 -0.3357
  168MPD2    H7 2572   3.220   0.513  12.806  0.9953  0.5423  0.5524
  169MPD1     C 2573   4.418   4.220   8.564 -0.4812  0.6227 -0.8016
  169MPD1    C1 2574   4.502   4.141   8.641 -0.0661 -0.3515  0.0866
  169MPD1    C2 2575   4.599   4.194   8.712 -0.1838 -0.2375  0.0651
  169MPD1    C3 2576   4.634   4.328   8.706 -0.5949  0.6683  0.0799
  169MPD1    C4 2577   4.552   4.407   8.623  0.2473 -0.3164  0.3219
  169MPD1    C5 2578   4.451   4.349   8.546  0.5938 -0.2217 -0.4433
  169MPD1     H 2579   4.672   4.134   8.766 -1.9817 -1.8692  0.6782
  169MPD1    H1 2580   4.564   4.514   8.610  1.7389 -0.1405  3.1709
  169MPD1    H2 2581   4.325   4.179   8.526  0.7826 -2.1086 -0.9675
  169MPD1    H3 2582   4.382   4.420   8.502  3.0445  1.2509 -1.9023
  169MPD1     N 2583   0.010   4.379   8.793  0.1403 -0.2542  0.0794
  169MPD1    H5 2584   0.058   4.313   8.853 -1.0942  1.1579  2.6470
  169MPD1    N1 2585   4.466   4.006   8.653 -0.6478 -0.1310 -0.0223
  169MPD1    H6 2586   4.544   3.943   8.635 -0.1868  0.5924 -0.5545
  169MPD1    H7 2587   4.400   3.995   8.576 -2.2144  1.6952  1.0432
  170MPD1     C 2588   2.975   2.540  13.500  0.6677 -0.3579  0.2715
  170MPD1    C1 2589   3.036   2.529  13.628 -0.5657 -1.0496 -0.3738
  170MPD1    C2 2590   3.139   2.616  13.656  0.8907  0.3773  0.3193
  170MPD1    C3 2591   3.187   2.709  13.569  0.1923  0.7111 -0.3742
  170MPD1    C4 2592   3.132   2.716  13.448 -0.5235  0.5124  0.6052
  170MPD1    C5 2593   3.019   2.635  13.414  0.3715 -0.3455 -0.0189
  170MPD1     H 2594   3.181   2.599  13.754  0.9189  0.5329  0.3343
  170MPD1    H1 2595   3.167   2.791  13.378  0.0246 -0.5677 -0.2687
  170MPD1    H2 2596   2.898   2.468  13.472 -0.1874 -0.2147  2.2630
  170MPD1    H3 2597   2.983   2.640  13.312  1.2549 -1.3385 -0.3784
  170MPD1     N 2598   3.300   2.781  13.610  0.3773 -0.2449 -0.4446
  170MPD1    H5 2599   3.332   2.780  13.706 -0.9149 -3.1553 -0.0433
  170MPD1    N1 2600   3.005   2.420  13.710  0.5730 -0.0495 -0.2355
  170MPD1    H6 2601   3.008   2.443  13.809 -2.1743  2.9207 -0.8445
  170MPD1    H7 2602   2.907   2.395  13.697  0.1563  0.8483  1.1168
  171MPD1     C 2603   2.262   3.829  15.673 -0.0266 -0.6191  0.3412
  171MPD1    C1 2604   2.180   3.728  15.702 -0.3531  0.2281  0.1381
  171MPD1    C2 2605   2.234   3.605  15.741 -0.8677  0.3155  0.3793
  171MPD1    C3 2606   2.367   3.581  15.751 -0.1582  0.3373 -0.1570
  171MPD1    C4 2607   2.454   3.686  15.718 -0.0584  0.0083 -0.5989
  171MPD1    C5 2608   2.396   3.811  15.684 -0.9430  0.0736 -0.4802
  171MPD1     H 2609   2.165   3.527  15.771  0.0422 -0.5799  0.1248
  171MPD1    H1 2610   2.563   3.689  15.721 -0.0289  0.1280 -2.0949
  171MPD1    H2 2611   2.221   3.929  15.661  0.6578 -0.3542  0.2128
  171MPD1    H3 2612   2.453   3.900  15.662  2.0374 -1.5578  0.6163
  171MPD1     N 2613   2.424   3.461  15.792 -1.0318 -0.2929  0.1853
  171MPD1    H5 2614   2.524   3.458  15.812 -0.4971 -1.3737 -2.5668
  171MPD1    N1 2615   2.039   3.747  15.722 -0.0497  0.0790  0.4358
  171MPD1    H6 2616   2.002   3.817  15.658  1.8592 -1.3970 -2.2390
  171MPD1    H7 2617   1.983   3.664  15.705 -0.1531  0.2539 -0.0658
  172MPD1     C 2618   1.508   2.820   1.015 -0.5712  0.1418  0.3582
  172MPD1    C1 2619   1.395   2.897   1.027 -0.1544  0.3722  0.1990
  172MPD1    C2 2620   1.386   3.021   0.972 -0.0632  0.3891  0.4765
  172MPD1    C3 2621   1.500   3.074   0.905 -0.2127  0.1677 -0.4759
  172MPD1    C4 2622   1.610   2.994   0.892 -0.5480  0.0864 -0.0586
  172MPD1    C5 2623   1.606   2.868   0.941  0.8626 -0.4389  0.1527
  172MPD1     H 2624   1.292   3.074   0.964  0.7953  1.8386 -0.0569
  172MPD1    H1 2625   1.695   3.033   0.837 -0.0639  1.1439  1.4448
  172MPD1    H2 2626   1.509   2.719   1.054  0.9249  0.8340  2.1019
  172MPD1    H3 2627   1.696   2.807   0.946 -0.8579 -2.9331  1.0031
  172MPD1     N 2628   1.503   3.208   0.857  0.4476  0.6236  0.3954
  172MPD1    H5 2629   1.591   3.236   0.815 -0.1114  0.4558 -0.8925
  172MPD1    N1 2630   1.278   2.836   1.086 -0.2674 -0.2345  0.0372
  172MPD1    H6 2631   1.215   2.901   1.133 -0.3498 -0.6014  0.4369
  172MPD1    H7 2632   1.316   2.773   1.157 -1.6474 -0.6069  0.4377
  173MPD1     C 2633   2.583   2.943  13.794  0.6949  0.0454  0.1212
  173MPD1    C1 2634   2.710   2.996  13.804 -0.1691  0.0443  0.3454
  173MPD1    C2 2635   2.768   2.990  13.934  0.3477 -0.5243  0.2900
  173MPD1    C3 2636   2.709   2.903  14.033 -0.2797  0.2125  0.0742
  173MPD1    C4 2637   2.587   2.857  14.014  0.0599  0.6982  0.0090
  173MPD1    C5 2638   2.528   2.872  13.895 -0.8257  1.0510  0.6012
  173MPD1     H 2639   2.863   3.039  13.950 -0.5889  0.8994  1.3941
  173MPD1    H1 2640   2.523   2.793  14.073 -2.2061  2.3504 -0.6542
  173MPD1    H2 2641   2.524   2.931  13.704 -0.8862  2.7777  0.8117
  173MPD1    H3 2642   2.430   2.825  13.886  0.2386 -0.9646 -0.4130
  173MPD1     N 2643   2.775   2.883  14.159  0.0731 -0.8195  0.5124
  173MPD1    H5 2644   2.864   2.929  14.175 -0.0478 -0.4493  0.1109
  173MPD1    N1 2645   2.758   3.081  13.700  0.7873 -0.3077  0.5127
  173MPD1    H6 2646   2.719   3.060  13.608 -0.2361 -0.2777  0.9391
  173MPD1    H7 2647   2.858   3.078  13.685  1.2150  1.3260  3.0042
  174MPD1     C 2648   2.975   3.599  14.527  0.2809  0.5926  0.5151
  174MPD1    C1 2649   3.091   3.524  14.519  0.2432  0.7031 -0.2536
  174MPD1    C2 2650   3.078   3.386  14.503 -0.8403 -0.3277 -0.3683
  174MPD1    C3 2651   2.958   3.319  14.538 -0.5702  0.2973 -0.5124
  174MPD1    C4 2652   2.849   3.400  14.572 -0.3616  0.0153 -0.3526
  174MPD1    C5 2653   2.857   3.537  14.547  0.2219  0.3210  0.4443
  174MPD1     H 2654   3.164   3.324  14.483 -1.1258 -0.0350 -2.4290
  174MPD1    H1 2655   2.753   3.354  14.586 -0.8423  1.0836 -0.1115
  174MPD1    H2 2656   2.976   3.707  14.524 -2.3720  0.6485  1.6412
  174MPD1    H3 2657   2.766   3.595  14.540  1.4509  2.4053  1.6490
  174MPD1     N 2658   2.947   3.182  14.543 -0.0084 -0.5499  0.4425
  174MPD1    H5 2659   2.857   3.138  14.564 -0.4515  0.4001  0.5395
  174MPD1    N1 2660   3.206   3.590  14.489  0.2248 -0.9035 -0.3505
  174MPD1    H6 2661   3.293   3.545  14.518 -0.8461 -2.6855  0.1584
  174MPD1    H7 2662   3.197   3.674  14.545 -0.4610 -0.6328 -0.8797
  175MPD1     C 2663   1.315   3.458  15.513 -0.3180 -0.1444  0.6358
  175MPD1    C1 2664   1.191   3.420  15.545  0.4637  0.2485 -0.2106
  175MPD1    C2 2665   1.169   3.389  15.679 -0.5603  0.5778 -0.5209
  175MPD1    C3 2666   1.273   3.400  15.775  0.4561  0.5610 -0.3794
  175MPD1    C4 2667   1.401   3.438  15.737  0.5957 -0.3847 -0.3638
  175MPD1    C5 2668   1.419   3.467  15.606  0.4663  0.3719  0.1784
  175MPD1     H 2669   1.073   3.347  15.709  0.9460 -1.7562  0.9402
  175MPD1    H1 2670   1.487   3.445  15.803  0.0503  0.2582  0.2871
  175MPD1    H2 2671   1.342   3.492  15.414  0.3142 -1.8260  0.2266
  175MPD1    H3 2672   1.516   3.508  15.581  0.2161  2.0755  1.8922
  175MPD1     N 2673   1.253   3.383  15.920 -0.0921 -0.4385 -0.2877
  175MPD1    H5 2674   1.333   3.391  15.982 -0.7715  1.7998  0.3101
  175MPD1    N1 2675   1.096   3.391  15.444  0.1410  0.3241  0.1393
  175MPD1    H6 2676   1.004   3.409  15.484  0.1170 -1.8260  1.0259
  175MPD1    H7 2677   1.109   3.446  15.359  0.4494  0.4196  0.2487
  176MPD1     C 2678   3.093   0.284  16.896  0.8923  0.1812 -0.3368
  176MPD1    C1 2679   3.107   0.399  16.823  0.1956  0.6479 -0.9539
  176MPD1    C2 2680   3.105   0.521  16.887 -0.0897 -0.4791 -0.0109
  176MPD1    C3 2681   3.070   0.529  17.022 -0.2642  0.6840 -0.0782
  176MPD1    C4 2682   3.047   0.411  17.091 -0.7600 -0.2653 -0.0626
  176MPD1    C5 2683   3.053   0.290  17.027  0.5590  0.0550 -0.4672
  176MPD1     H 2684   3.122   0.617  16.839 -0.7690 -0.8673 -1.0464
  176MPD1    H1 2685   3.006   0.411  17.191 -0.4825 -1.5297  0.0506
  176MPD1    H2 2686   3.097   0.187  16.848 -0.7635 -0.0842  0.0347
  176MPD1    H3 2687   3.041   0.202  17.088  1.8237 -0.5920 -1.1454
  176MPD1     N 2688   3.066   0.660  17.081  0.2304  0.0251  0.3867
  176MPD1    H5 2689   3.095   0.734  17.018  3.4270 -0.2397  1.5495
  176MPD1    N1 2690   3.151   0.385  16.689  0.0628  0.3165 -0.2073
  176MPD1    H6 2691   3.111   0.299  16.652  0.4028  0.9300 -2.0336
  176MPD1    H7 2692   3.136   0.461  16.622  2.4158 -0.5545 -1.7383
  177MPD1     C 2693   0.563   1.599   9.749 -0.1099  0.1996  0.8853
  177MPD1    C1 2694   0.544   1.488   9.666 -0.1228  0.2710 -0.0859
  177MPD1    C2 2695   0.413   1.457   9.625 -0.8031 -0.0700 -0.6910
  177MPD1    C3 2696   0.307   1.545   9.657 -0.8292 -0.3543  0.4605
  177MPD1    C4 2697   0.337   1.669   9.717 -0.2614  0.9037 -0.0223
  177MPD1    C5 2698   0.467   1.696   9.757  0.3334  0.0988 -0.2996
  177MPD1     H 2699   0.396   1.360   9.581 -0.9968  0.0232 -0.8201
  177MPD1    H1 2700   0.261   1.744   9.738  0.8762  2.1406 -0.2625
  177MPD1    H2 2701   0.660   1.625   9.790 -0.4394 -0.1358  1.8940
  177MPD1    H3 2702   0.488   1.785   9.815 -1.2924  0.5022 -0.3049
  177MPD1     N 2703   0.184   1.503   9.612 -0.4868  0.4243 -0.8658
  177MPD1    H5 2704   0.174   1.405   9.586  1.2756 -0.6769  2.6204
  177MPD1    N1 2705   0.633   1.382   9.671 -0.0630  0.4394 -0.5924
  177MPD1    H6 2706   0.632   1.321   9.589 -1.0133 -0.7818  0.3387
  177MPD1    H7 2707   0.727   1.419   9.654  0.9964 -1.4300  1.2005
  178MPD1     C 2708   3.494   2.107   0.045  0.4111 -0.4879 -0.6778
  178MPD1    C1 2709   3.518   2.007   0.133 -0.1894  1.2614  0.2575
  178MPD1    C2 2710   3.578   1.884   0.099 -0.5738  0.2017  0.6229
  178MPD1    C3 2711   3.586   1.861  17.666 -0.8791  0.1336  0.0750
  178MPD1    C4 2712   3.555   1.955  17.577  0.1041 -0.7871  0.2003
  178MPD1    C5 2713   3.513   2.082  17.616 -0.6368  0.8378  0.1537
  178MPD1     H 2714   3.609   1.809   0.170 -1.3893  0.4061  1.1871
  178MPD1    H1 2715   3.556   1.933  17.471 -1.1462  0.2457 -0.0245
  178MPD1    H2 2716   3.455   2.205   0.072  0.4714  0.2879 -3.4900
  178MPD1    H3 2717   3.494   2.162  17.546 -0.3771 -2.1765 -3.3412
  178MPD1     N 2718   3.636   1.736  17.609 -0.4304  0.7438 -0.5606
  178MPD1    H5 2719   3.635   1.728  17.508 -2.6933  1.7172 -0.6135
  178MPD1    N1 2720   3.525   2.040   0.268 -0.3056 -0.1444  0.2841
  178MPD1    H6 2721   3.455   2.110   0.290 -0.1411  0.2091 -0.3063
  178MPD1    H7 2722   3.501   1.954   0.318 -1.3610  0.6406  1.1165
  179MPD1     C 2723   3.248   4.646  15.129 -0.4315 -0.1966 -0.6088
  179MPD1    C1 2724   3.141   4.604  15.199  0.5286 -0.1292  0.1643
  179MPD1    C2 2725   3.157   4.497  15.287 -0.0008  0.3588  0.2558
  179MPD1    C3 2726   3.267   4.410  15.268 -1.0484 -0.1271 -0.1995
  179MPD1    C4 2727   3.368   4.450  15.185 -0.1803  0.0781 -0.2258
  179MPD1    C5 2728   3.364   4.575  15.131  0.2161 -0.1379 -0.3407
  179MPD1     H 2729   3.077   4.472  15.356 -0.5988 -0.0068 -0.5736
  179MPD1    H1 2730   3.452   4.387  15.158  0.1500 -0.6674  2.4686
  179MPD1    H2 2731   3.242   0.016  15.077  4.3285 -0.3470 -1.4180
  179MPD1    H3 2732   3.448   4.617  15.076 -0.3947  4.1039  2.0026
  179MPD1     N 2733   3.285   4.290  15.342  0.1983 -0.1145  0.4325
  179MPD1    H5 2734   3.373   4.239  15.333  0.0652 -0.3649  0.5524
  179MPD1    N1 2735   3.034   4.687  15.217 -0.2590  0.6208 -0.6643
  179MPD1    H6 2736   3.008   0.008  15.130 -0.5844 -1.6982 -1.8159
  179MPD1    H7 2737   2.951   4.631  15.238 -0.1565  0.2242 -1.3409
  180MPD1     C 2738   2.828   1.196  14.961  0.5913  0.5984  0.4249
  180MPD1    C1 2739   2.808   1.150  14.832  0.3905 -0.2543 -0.1137
  180MPD1    C2 2740   2.922   1.120  14.759 -0.1956  0.2543  0.6506
  180MPD1    C3 2741   3.053   1.118  14.807  0.3982  0.2077  0.1869
  180MPD1    C4 2742   3.066   1.170  14.934  0.7163 -0.1080 -0.5044
  180MPD1    C5 2743   2.960   1.213  15.004 -0.7195  0.1291  0.2184
  180MPD1     H 2744   2.900   1.111  14.654  2.2368  1.2862  0.0464
  180MPD1    H1 2745   3.166   1.184  14.974 -0.4536  0.9898  2.0067
  180MPD1    H2 2746   2.750   1.234  15.026  0.5161 -2.0296  1.8407
  180MPD1    H3 2747   2.980   1.272  15.093 -1.5765  1.1379 -0.2643
  180MPD1     N 2748   3.155   1.098  14.712 -0.5691  0.1898 -0.1456
  180MPD1    H5 2749   3.120   1.054  14.627  3.1679 -4.0253  0.4763
  180MPD1    N1 2750   2.684   1.173  14.767 -0.1709  0.0059 -0.8798
  180MPD1    H6 2751   2.613   1.164  14.839 -0.1928 -0.8209 -1.0012
  180MPD1    H7 2752   2.674   1.094  14.703 -0.2833 -1.0194  0.3929
  181MPD1     C 2753   4.257   3.248   9.218 -0.2181  0.9484 -0.3583
  181MPD1    C1 2754   4.350   3.190   9.132  0.7923  0.1373  1.2271
  181MPD1    C2 2755   4.480   3.191   9.176 -0.4911 -0.0329  0.4304
  181MPD1    C3 2756   4.524   3.239   9.298 -0.8104 -0.3085 -0.0865
  181MPD1    C4 2757   4.430   3.299   9.376  0.4056  0.5135 -0.4956
  181MPD1    C5 2758   4.298   3.295   9.336 -0.7267 -0.1653 -0.0224
  181MPD1     H 2759   4.556   3.137   9.120 -1.3424  0.2808 -1.0359
  181MPD1    H1 2760   4.450   3.339   9.475  1.8701  1.6131 -1.2394
  181MPD1    H2 2761   4.151   3.248   9.193 -0.6505  0.0379  1.5124
  181MPD1    H3 2762   4.227   3.339   9.405  0.7199  1.8615  0.1767
  181MPD1     N 2763   4.657   3.232   9.351  0.5711  0.2797 -0.0866
  181MPD1    H5 2764   4.668   3.280   9.439 -3.7054  1.4367 -0.1948
  181MPD1    N1 2765   4.306   3.101   9.031  0.1220  0.0904  0.1272
  181MPD1    H6 2766   4.384   3.093   8.967 -0.1348  1.7028 -0.3909
  181MPD1    H7 2767   4.225   3.140   8.982  0.1411  2.0693  1.6630
  182MPD1     C 2768   1.670   0.879   0.894 -0.2087  0.3476  0.4080
  182MPD1    C1 2769   1.620   0.962   0.997 -0.5497 -0.5889  0.2550
  182MPD1    C2 2770   1.542   1.074   0.961  0.1078 -0.4502  0.2813
  182MPD1    C3 2771   1.508   1.097   0.828  0.2944 -0.5902  0.4591
  182MPD1    C4 2772   1.549   1.008   0.734  0.9485  0.4815  0.4644
  182MPD1    C5 2773   1.630   0.895   0.764 -0.6763  0.1008 -0.8319
  182MPD1     H 2774   1.500   1.140   1.036  0.8399  0.1493  0.1608
  182MPD1    H1 2775   1.528   1.019   0.628  3.1730  0.0001 -0.0279
  182MPD1    H2 2776   1.750   0.808   0.913 -1.7323 -1.4689  0.0497
  182MPD1    H3 2777   1.662   0.817   0.696 -1.5952 -0.6666 -0.3838
  182MPD1     N 2778   1.428   1.202   0.779  0.4856  0.7248 -0.2847
  182MPD1    H5 2779   1.406   1.196   0.680  0.5532 -0.2636 -0.2379
  182MPD1    N1 2780   1.668   0.957   1.128 -0.2362  0.2098 -0.0832
  182MPD1    H6 2781   1.690   0.861   1.154  2.0269  0.6131 -0.5376
  182MPD1    H7 2782   1.592   0.977   1.193  1.2883  1.9408  1.1553
  183MPD1     C 2783   0.599   2.121   8.930 -0.9092  0.3461 -0.1779
  183MPD1    C1 2784   0.701   2.090   9.016  0.2257  0.3221 -0.8018
  183MPD1    C2 2785   0.754   2.194   9.089  0.4484  0.5451 -0.5132
  183MPD1    C3 2786   0.708   2.324   9.081 -0.1577  0.0542 -0.5787
  183MPD1    C4 2787   0.610   2.354   8.993  0.1940  0.1184  0.3942
  183MPD1    C5 2788   0.555   2.254   8.919  1.5510  0.3347  0.2151
  183MPD1     H 2789   0.842   2.176   9.150  1.2216  3.2348 -0.8400
  183MPD1    H1 2790   0.558   2.448   8.979  2.2699  1.6045  2.6495
  183MPD1    H2 2791   0.544   2.049   8.871  1.2948 -0.3952 -1.3310
  183MPD1    H3 2792   0.470   2.281   8.858  1.1406  0.6135  0.9086
  183MPD1     N 2793   0.777   2.424   9.150 -0.2757 -0.2736  0.4811
  183MPD1    H5 2794   0.848   2.402   9.219 -0.8324  0.0035  1.1413
  183MPD1    N1 2795   0.755   1.964   9.021  0.1466 -0.1511 -0.1814
  183MPD1    H6 2796   0.691   1.887   9.004  0.7860 -1.0780  1.5179
  183MPD1    H7 2797   0.803   1.953   9.111 -1.2604 -1.7693  0.3709
  184MPD1     C 2798   4.332   1.703  10.738 -0.3225  0.1998  0.0451
  184MPD1    C1 2799   4.420   1.610  10.780  0.5153  0.0379  0.0855
  184MPD1    C2 2800   4.492   1.547  10.677  0.0130  0.2283  0.6492
  184MPD1    C3 2801   4.469   1.571  10.545 -0.0530  0.3262 -0.4781
  184MPD1    C4 2802   4.359   1.643  10.513  0.4046 -0.6162 -0.0528
  184MPD1    C5 2803   4.301   1.719  10.606 -0.0723  0.2555 -0.0260
  184MPD1     H 2804   4.570   1.476  10.700  0.0651  0.5360  1.4455
  184MPD1    H1 2805   4.336   1.665  10.409 -1.7266 -0.9024  0.3583
  184MPD1    H2 2806   4.272   1.761  10.808  1.6675  1.5319  0.6324
  184MPD1    H3 2807   4.212   1.776  10.580  0.3342 -0.4065 -2.9406
  184MPD1     N 2808   4.533   1.496  10.445 -0.2295 -0.6701  0.5777
  184MPD1    H5 2809   4.482   1.490  10.358  1.0794 -1.4966 -0.1365
  184MPD1    N1 2810   4.455   1.598  10.918 -0.0169  0.5113  0.1577
  184MPD1    H6 2811   4.369   1.591  10.973  0.6562  0.7859  1.2340
  184MPD1    H7 2812   4.498   1.507  10.934  0.3709  1.0138  1.9783
  185MPD1     C 2813   3.993   0.965  10.152 -0.6269  0.4217 -0.0639
  185MPD1    C1 2814   4.070   0.971  10.033  0.3675 -0.5706 -0.0125
  185MPD1    C2 2815   4.204   1.016  10.049 -0.6068 -0.4538 -0.1598
  185MPD1    C3 2816   4.249   1.065  10.169  0.3509  0.3123 -0.0730
  185MPD1    C4 2817   4.168   1.066  10.284 -0.0896 -0.2251 -0.0237
  185MPD1    C5 2818   4.039   1.013  10.274 -0.5136  0.3572 -0.3101
  185MPD1     H 2819   4.273   1.030   9.966 -0.8387 -0.1243 -0.2918
  185MPD1    H1 2820   4.214   1.104  10.375 -0.4965  0.1360  0.0308
  185MPD1    H2 2821   3.888   0.939  10.143 -0.9122  1.0537  1.5688
  185MPD1    H3 2822   3.963   1.030  10.349 -0.2501 -2.3966  0.6038
  185MPD1     N 2823   4.376   1.128  10.193  0.1845  0.3561 -0.4017
  185MPD1    H5 2824   4.390   1.171  10.284  3.9297 -0.0142 -0.8142
  185MPD1    N1 2825   4.033   0.905   9.917  0.3393 -0.2503 -0.3394
  185MPD1    H6 2826   4.092   0.929   9.837 -0.0975 -1.3653 -0.9949
  185MPD1    H7 2827   3.940   0.937   9.892 -0.6536 -2.3206  0.7155
  186MPD1     C 2828   3.569   4.470  15.525  0.2022  0.5260 -0.5256
  186MPD1    C1 2829   3.607   4.369  15.610  0.2386  0.3366  0.0792
  186MPD1    C2 2830   3.643   4.410  15.740 -0.2264 -0.4079  0.4737
  186MPD1    C3 2831   3.632   4.544  15.771  0.3828  1.4546  0.5029
  186MPD1    C4 2832   3.588   4.639  15.684  0.2850  1.0315  0.0661
  186MPD1    C5 2833   3.553   4.598  15.558  0.9990  0.1210 -0.0502
  186MPD1     H 2834   3.663   4.341  15.822 -0.2044 -0.6922  0.2315
  186MPD1    H1 2835   3.592   0.021  15.704 -1.3529  1.4823 -2.0448
  186MPD1    H2 2836   3.531   4.442  15.428 -2.8659 -2.4860  1.5837
  186MPD1    H3 2837   3.517   4.674  15.490  1.5082 -0.7403 -1.2690
  186MPD1     N 2838   3.653   4.604  15.898  0.2177 -0.0955 -0.1102
  186MPD1    H5 2839   3.647   4.704  15.913 -2.1628 -0.3261  0.4495
  186MPD1    N1 2840   3.656   4.244  15.566  0.2179 -0.3807 -0.2088
  186MPD1    H6 2841   3.655   4.161  15.627 -1.3932 -0.1954  0.0048
  186MPD1    H7 2842   3.611   4.213  15.481 -0.6891 -1.1813  0.5583
  187MPD1     C 2843   3.331   1.592   0.051 -0.1731 -0.6487 -0.1871
  187MPD1    C1 2844   3.264   1.488  17.685  0.0164 -0.1177  0.3910
  187MPD1    C2 2845   3.140   1.514  17.626 -0.3286 -0.4060 -0.8127
  187MPD1    C3 2846   3.083   1.640  17.632 -0.4730 -1.0549  1.0090
  187MPD1    C4 2847   3.150   1.735  17.696 -0.6348 -0.7266 -0.3199
  187MPD1    C5 2848   3.275   1.714   0.050 -0.6485  0.3015 -0.1577
  187MPD1     H 2849   3.095   1.433  17.569 -1.3420 -0.1628 -0.3612
  187MPD1    H1 2850   3.098   1.829   0.007  0.8256  0.0321  0.0064
  187MPD1    H2 2851   3.429   1.574   0.094 -0.3584 -1.5468 -0.1476
  187MPD1    H3 2852   3.329   1.795   0.097 -0.3689  1.2495 -2.0813
  187MPD1     N 2853   2.957   1.666  17.577  0.5184 -0.5226 -0.2832
  187MPD1    H5 2854   2.925   1.762  17.578 -0.2489 -0.7796  0.0677
  187MPD1    N1 2855   3.332   1.367  17.664 -0.2117  0.4240 -0.2608
  187MPD1    H6 2856   3.409   1.356   0.028  0.0144 -2.0192 -0.9163
  187MPD1    H7 2857   3.272   1.285  17.659  0.6092 -0.3565  2.8059
  188MPD1     C 2858   2.706   1.995  10.498  0.8368 -0.0821  0.3371
  188MPD1    C1 2859   2.808   1.902  10.520 -0.1096 -0.1265  0.0679
  188MPD1    C2 2860   2.828   1.794  10.429 -0.4509  0.5359  0.4176
  188MPD1    C3 2861   2.758   1.794  10.308 -0.3258  0.1842  0.3501
  188MPD1    C4 2862   2.671   1.894  10.279 -0.3363  0.2135 -0.5036
  188MPD1    C5 2863   2.651   1.993  10.374  0.6245  0.0323 -0.6388
  188MPD1     H 2864   2.903   1.722  10.460 -1.6815 -0.9996 -0.1618
  188MPD1    H1 2865   2.607   1.897  10.192 -1.4632  0.2886  0.3334
  188MPD1    H2 2866   2.686   2.080  10.563  0.9841  1.0190 -1.0512
  188MPD1    H3 2867   2.578   2.069  10.349 -1.2609 -2.3957 -2.4665
  188MPD1     N 2868   2.772   1.686  10.209 -0.7968  0.0594 -0.5486
  188MPD1    H5 2869   2.719   1.688  10.123 -0.9054 -0.3296 -0.4906
  188MPD1    N1 2870   2.874   1.920  10.640 -0.2242  0.1238 -0.0115
  188MPD1    H6 2871   2.968   1.882  10.646  0.2928  1.2056 -1.2815
  188MPD1    H7 2872   2.879   2.019  10.664  0.9099 -0.0652  0.4940
  189MPD1     C 2873   0.414   2.048   0.332  0.0933  0.7080 -0.8106
  189MPD1    C1 2874   0.299   1.974   0.324 -0.2422 -0.0420 -0.3213
  189MPD1    C2 2875   0.189   2.032   0.269  0.7218 -0.4174  0.0219
  189MPD1    C3 2876   0.185   2.168   0.233 -0.1045 -0.7319  0.2152
  189MPD1    C4 2877   0.296   2.245   0.259 -0.7049 -0.1582 -0.0403
  189MPD1    C5 2878   0.407   2.186   0.310 -0.0847 -0.6895  0.1202
  189MPD1     H 2879   0.105   1.969   0.245 -0.5694  0.3002  2.7177
  189MPD1    H1 2880   0.290   2.350   0.235  0.3413 -0.1010 -0.0530
  189MPD1    H2 2881   0.507   2.000   0.361 -0.5164 -0.1733 -0.3316
  189MPD1    H3 2882   0.492   2.252   0.322 -1.2554  0.8287  0.0377
  189MPD1     N 2883   0.071   2.217   0.171  0.2571 -0.2870 -0.1939
  189MPD1    H5 2884   0.002   2.146   0.151  1.1376 -1.2984  0.3545
  189MPD1    N1 2885   0.307   1.837   0.328 -0.1907 -0.1186 -0.2845
  189MPD1    H6 2886   0.219   1.788   0.342 -0.9900  2.0634  2.3952
  189MPD1    H7 2887   0.377   1.804   0.395 -1.1936 -2.1743 -0.2464
  190MPD1     C 2888   2.847   1.026  15.417  0.3744 -0.5823 -0.5108
  190MPD1    C1 2889   2.961   0.994  15.343 -0.0472 -0.3174 -0.3825
  190MPD1    C2 2890   3.078   0.976  15.413  0.2201  0.5131 -0.4539
  190MPD1    C3 2891   3.082   0.999  15.547  0.0951  0.3300 -0.0179
  190MPD1    C4 2892   2.973   1.027  15.621  0.1055  1.0994 -0.1413
  190MPD1    C5 2893   2.850   1.040  15.553  0.0878 -0.0012 -0.2770
  190MPD1     H 2894   3.171   0.956  15.362 -0.0600  0.2261 -0.8520
  190MPD1    H1 2895   2.970   1.040  15.728  2.4516 -0.8945  0.1619
  190MPD1    H2 2896   2.755   1.044  15.363 -0.3853 -1.4113  0.4938
  190MPD1    H3 2897   2.771   1.080  15.616 -1.3757 -2.9485 -0.2215
  190MPD1     N 2898   3.215   0.992  15.608 -0.8183  0.0843 -0.4271
  190MPD1    H5 2899   3.290   0.994  15.539  0.4908  3.9462  1.0609
  190MPD1    N1 2900   2.950   0.957  15.204 -0.3584  0.5510 -0.0674
  190MPD1    H6 2901   3.025   0.987  15.143 -0.9659  1.7501 -0.2245
  190MPD1    H7 2902   2.862   0.989  15.165 -0.7119 -1.1412 -0.6551
  191MPD1     C 2903   3.196   2.778  13.075 -0.5701  0.4986  0.2709
  191MPD1    C1 2904   3.287   2.817  12.977  0.0909 -0.6866  0.3669
  191MPD1    C2 2905   3.249   2.917  12.889  0.3226 -0.2872 -0.0772
  191MPD1    C3 2906   3.113   2.954  12.888 -0.8040  0.5595 -0.2457
  191MPD1    C4 2907   3.024   2.903  12.980  0.1579  0.0764 -0.1485
  191MPD1    C5 2908   3.065   2.813  13.069 -0.1925  0.2952 -0.4453
  191MPD1     H 2909   3.323   2.956  12.821  0.3666 -1.0433 -0.4592
  191MPD1    H1 2910   2.916   2.917  12.988  0.3680  0.9533  1.1462
  191MPD1    H2 2911   3.214   2.713  13.161  0.1158 -0.9615 -0.9703
  191MPD1    H3 2912   2.984   2.771  13.128  0.2219  1.0377  0.6511
  191MPD1     N 2913   3.076   3.035  12.781 -0.0240  0.0029  0.3518
  191MPD1    H5 2914   3.152   3.054  12.716  1.0700 -0.0147  1.6274
  191MPD1    N1 2915   3.424   2.789  12.981  0.5349  0.1583  0.2344
  191MPD1    H6 2916   3.448   2.706  13.034 -2.0905 -1.1856 -0.6874
  191MPD1    H7 2917   3.467   2.781  12.889 -0.9013 -0.2818 -0.3943
  192MPD1     C 2918   2.585   3.868  12.377  0.0737 -0.2324 -0.2424
  192MPD1    C1 2919   2.549   3.781  12.473  0.8365 -0.6415  0.6273
  192MPD1    C2 2920   2.594   3.654  12.471 -0.8676  0.7997 -0.4208
  192MPD1    C3 2921   2.665   3.607  12.360 -0.2213  1.1480 -0.2257
  192MPD1    C4 2922   2.688   3.688  12.258 -0.4285  0.1642 -0.1850
  192MPD1    C5 2923   2.656   3.820  12.270  0.0752 -0.0694  0.3379
  192MPD1     H 2924   2.581   3.591  12.559  0.1792  0.4734 -0.5014
  192MPD1    H1 2925   2.758   3.661  12.180 -0.2356 -1.2004  0.4659
  192MPD1    H2 2926   2.562   3.973  12.386 -0.9126 -0.2667 -2.4205
  192MPD1    H3 2927   2.693   3.884  12.191 -2.2384 -0.8047 -1.3424
  192MPD1     N 2928   2.724   3.477  12.358  0.1946  0.4602 -0.6379
  192MPD1    H5 2929   2.788   3.455  12.283  0.3514  1.2117 -0.7247
  192MPD1    N1 2930   2.470   3.823  12.582  0.0478 -0.3926  0.1026
  192MPD1    H6 2931   2.391   3.766  12.612 -1.1432  1.2789  0.1344
  192MPD1    H7 2932   2.425   3.913  12.571  2.1808  0.7487  0.8484
  193MPD1     C 2933   2.531   2.745  16.035  0.3817  0.0293 -0.7334
  193MPD1    C1 2934   2.487   2.831  16.130  0.4119 -0.8845 -0.5816
  193MPD1    C2 2935   2.578   2.899  16.212  0.4855 -0.4185  0.1649
  193MPD1    C3 2936   2.714   2.888  16.186 -0.0929  0.5519  0.1395
  193MPD1    C4 2937   2.756   2.792  16.092 -0.0871 -0.4084  0.3236
  193MPD1    C5 2938   2.666   2.723  16.021 -0.3255 -0.5203  0.2257
  193MPD1     H 2939   2.546   2.974  16.284 -1.5280  0.2477 -1.4198
  193MPD1    H1 2940   2.861   2.772  16.071 -0.2644 -1.7825  0.7433
  193MPD1    H2 2941   2.465   2.692  15.967  1.6910 -0.3296 -1.7121
  193MPD1    H3 2942   2.690   2.654  15.940  2.4576  0.7387 -0.0222
  193MPD1     N 2943   2.820   2.949  16.258  0.1008 -0.0857  0.4662
  193MPD1    H5 2944   2.908   2.900  16.247  0.9224  1.0741  1.9122
  193MPD1    N1 2945   2.351   2.829  16.156 -0.3951 -0.0456 -0.4283
  193MPD1    H6 2946   2.304   2.835  16.066  1.9910  0.4914 -1.6477
  193MPD1    H7 2947   2.320   2.902  16.221 -0.1168  0.6088 -1.0271
  194MPD1     C 2948   0.846   1.206  17.152  0.1112  0.2652  0.3108
  194MPD1    C1 2949   0.945   1.111  17.111 -0.1328  0.3975 -0.2319
  194MPD1    C2 2950   0.921   0.974  17.126  0.1567  0.2839 -0.4773
  194MPD1    C3 2951   0.798   0.932  17.170 -0.0450 -0.3768  0.2661
  194MPD1    C4 2952   0.694   1.023  17.199  0.5996 -0.3939 -0.7734
  194MPD1    C5 2953   0.724   1.152  17.189 -0.2529  0.5583 -0.1003
  194MPD1     H 2954   1.001   0.904  17.103 -0.2161 -0.5400  0.7310
  194MPD1    H1 2955   0.591   0.999  17.224 -0.6005  0.8217 -4.5870
  194MPD1    H2 2956   0.849   1.314  17.152 -0.1579  0.2724  0.0894
  194MPD1    H3 2957   0.641   1.216  17.216  1.0559  2.2535 -0.1551
  194MPD1     N 2958   0.758   0.798  17.171 -0.4214 -0.2737  0.3758
  194MPD1    H5 2959   0.664   0.779  17.207 -0.1759  1.1124  1.7507
  194MPD1    N1 2960   1.076   1.158  17.090 -0.5802 -0.5132 -0.0412
  194MPD1    H6 2961   1.131   1.091  17.035  1.0027  0.2138  0.6613
  194MPD1    H7 2962   1.083   1.254  17.055 -0.3456 -1.0688 -1.5320
  195MPD1     C 2963   2.353   2.201   0.335 -0.4872 -0.5713 -0.9461
  195MPD1    C1 2964   2.482   2.168   0.289  0.8216  0.0386 -0.3412
  195MPD1    C2 2965   2.531   2.040   0.325 -0.1260 -0.6969  0.2056
  195MPD1    C3 2966   2.449   1.943   0.389  0.2966 -0.8497  0.3684
  195MPD1    C4 2967   2.321   1.974   0.422  0.1192 -0.1890 -0.5297
  195MPD1    C5 2968   2.279   2.103   0.395  0.5212 -0.4922  0.1679
  195MPD1     H 2969   2.629   2.009   0.292  0.4088 -0.3177  1.4135
  195MPD1    H1 2970   2.261   1.896   0.466  0.0742 -0.2727 -0.7414
  195MPD1    H2 2971   2.304   2.298   0.334  0.2967 -0.1641  0.7247
  195MPD1    H3 2972   2.184   2.134   0.439  1.0011 -0.9071  1.4798
  195MPD1     N 2973   2.486   1.812   0.419 -0.1414  0.5945 -0.6984
  195MPD1    H5 2974   2.411   1.759   0.461  0.2256  0.2142 -0.5134
  195MPD1    N1 2975   2.562   2.259   0.215  0.5108  0.3435 -0.7775
  195MPD1    H6 2976   2.639   2.289   0.275  0.6621  0.4966 -1.0440
  195MPD1    H7 2977   2.513   2.341   0.182 -1.3321 -0.3871  0.1709
  196MPD1     C 2978   1.734   0.533   0.483  0.5658 -0.2354 -0.0618
  196MPD1    C1 2979   1.741   0.640   0.395 -0.3330 -0.7495  0.3451
  196MPD1    C2 2980   1.828   0.744   0.415 -0.2333  0.4744  0.4632
  196MPD1    C3 2981   1.910   0.750   0.526  0.3253  0.3032 -0.2870
  196MPD1    C4 2982   1.897   0.649   0.618  0.2375 -0.3634 -0.0670
  196MPD1    C5 2983   1.810   0.541   0.589 -0.0898  0.5067  0.7388
  196MPD1     H 2984   1.836   0.821   0.339 -1.7460 -0.9957 -1.1712
  196MPD1    H1 2985   1.956   0.644   0.708  0.8365  0.3146 -0.4236
  196MPD1    H2 2986   1.700   0.433   0.458 -1.5049 -0.2352  2.7594
  196MPD1    H3 2987   1.806   0.459   0.660  3.4280  0.2016  0.6196
  196MPD1     N 2988   2.014   0.845   0.548  0.3904 -0.4195 -0.5396
  196MPD1    H5 2989   2.066   0.832   0.634 -0.7273  0.9979  0.3387
  196MPD1    N1 2990   1.663   0.623   0.277 -0.1574  0.3474  0.5448
  196MPD1    H6 2991   1.579   0.569   0.296  0.8412 -1.1216  0.7643
  196MPD1    H7 2992   1.636   0.708   0.227  0.0692  0.2969  0.3349
  197MPD1     C 2993   1.050   4.237  17.578 -0.1715 -0.6739  0.8343
  197MPD1    C1 2994   1.023   4.111  17.521  0.1654 -1.0375  0.3721
  197MPD1    C2 2995   1.041   4.095  17.384 -0.0078  0.0250 -0.0687
  197MPD1    C3 2996   1.069   4.209  17.304  0.6730  0.3932  0.4968
  197MPD1    C4 2997   1.088   4.336  17.360  0.0194  0.1673 -0.0468
  197MPD1    C5 2998   1.082   4.344  17.500  0.8591  0.1420 -0.0613
  197MPD1     H 2999   1.031   4.001  17.330  2.1846 -0.4865  0.4277
  197MPD1    H1 3000   1.115   4.424  17.303  2.0661  0.8212  1.9539
  197MPD1    H2 3001   1.033   4.258  17.683  1.6140  0.8162  0.8434
  197MPD1    H3 3002   1.094   4.446  17.535 -0.6720  0.4576 -0.4565
  197MPD1     N 3003   1.087   4.205  17.165  0.8326  0.2035  0.3720
  197MPD1    H5 3004   1.107   4.297  17.125  0.3626 -0.2466 -0.8857
  197MPD1    N1 3005   0.996   3.997  17.605  0.3375 -0.3563 -0.7352
  197MPD1    H6 3006   0.957   4.016  17.697  0.5212  3.6345 -1.4891
  197MPD1    H7 3007   0.941   3.929  17.553 -1.0535  0.3965 -0.2414
  198MPD1     C 3008   2.649   2.376  15.906  0.2804 -0.4154 -0.4213
  198MPD1    C1 3009   2.701   2.318  16.018  0.3938 -0.2233 -0.0676
  198MPD1    C2 3010   2.799   2.226  16.010 -0.2752  0.5333  0.1454
  198MPD1    C3 3011   2.879   2.214  15.896  0.3318 -0.0371  0.3542
  198MPD1    C4 3012   2.827   2.280  15.783 -0.5889  0.2068  0.6850
  198MPD1    C5 3013   2.708   2.348  15.785  0.0409  0.4956 -0.5809
  198MPD1     H 3014   2.825   2.165  16.096 -2.2434 -3.2408 -1.9772
  198MPD1    H1 3015   2.869   2.283  15.683  0.1333  1.1117  1.0233
  198MPD1    H2 3016   2.556   2.432  15.908 -0.2403 -1.2421 -1.4396
  198MPD1    H3 3017   2.676   2.393  15.692 -2.8665 -0.8596 -0.2517
  198MPD1     N 3018   3.005   2.146  15.909  0.1719  0.2049 -0.5296
  198MPD1    H5 3019   3.031   2.092  15.992  1.3589  0.2653 -0.8610
  198MPD1    N1 3020   2.636   2.331  16.138  0.6640  0.4788  0.3325
  198MPD1    H6 3021   2.596   2.423  16.155 -1.0374 -0.0234 -0.9256
  198MPD1    H7 3022   2.704   2.312  16.211  0.7888 -0.6386 -0.0722
  199MPD1     C 3023   1.019   0.206  10.410 -0.6084 -0.9012 -0.4585
  199MPD1    C1 3024   0.958   0.214  10.284  0.1441  0.2473  0.1808
  199MPD1    C2 3025   0.865   0.117  10.252 -0.6933 -0.0016 -0.3627
  199MPD1    C3 3026   0.814   0.027  10.346  0.0540  0.1193  1.5756
  199MPD1    C4 3027   0.867   0.025  10.472 -0.2429 -0.0015  0.2695
  199MPD1    C5 3028   0.978   0.104  10.495 -0.2257  0.3326  0.4785
  199MPD1     H 3029   0.838   0.110  10.147  0.5065  2.0156 -0.8089
  199MPD1    H1 3030   0.832   4.689  10.554  1.1986  0.6143  1.3514
  199MPD1    H2 3031   1.107   0.266  10.431 -0.8691 -1.1056  1.2783
  199MPD1    H3 3032   1.034   0.092  10.587  1.2671  4.7807  0.1375
  199MPD1     N 3033   0.714   4.662  10.298  0.3488 -0.8071  0.0203
  199MPD1    H5 3034   0.725   4.569  10.335 -1.7938 -0.5467  1.2549
  199MPD1    N1 3035   1.012   0.286  10.172  0.2956  0.4716 -0.4318
  199MPD1    H6 3036   1.051   0.376  10.199 -0.0638  0.3637  0.4556
  199MPD1    H7 3037   0.933   0.304  10.111  0.5381 -1.6854 -1.3793
  200MPD1     C 3038   4.397   3.169  15.298 -0.2960  0.4477  0.0167
  200MPD1    C1 3039   4.336   3.178  15.180 -0.3324  0.2097  0.1300
  200MPD1    C2 3040   4.391   3.265  15.083 -0.3290 -0.1805 -0.4418
  200MPD1    C3 3041   4.513   3.326  15.103 -0.4879 -0.2916 -0.5333
  200MPD1    C4 3042   4.573   3.318  15.226  0.8405 -0.9902  0.3604
  200MPD1    C5 3043   4.513   3.240  15.322  0.4090 -0.1844  0.0268
  200MPD1     H 3044   4.335   3.285  14.992  0.1934 -2.1893 -1.2062
  200MPD1    H1 3045   4.670   3.363  15.244  0.3711  0.0995  0.1419
  200MPD1    H2 3046   4.371   3.106  15.383 -1.8692  1.6370  0.4182
  200MPD1    H3 3047   4.569   3.241  15.415 -0.3906  1.5246  0.5004
  200MPD1     N 3048   4.560   3.401  14.992 -0.1643 -0.4790  0.0735
  200MPD1    H5 3049   4.504   3.387  14.909  0.6173 -2.8045 -0.0618
  200MPD1    N1 3050   4.209   3.119  15.153 -0.0173  0.3299 -0.0239
  200MPD1    H6 3051   4.198   3.026  15.193 -0.9537 -0.3142 -1.7967
  200MPD1    H7 3052   4.195   3.116  15.052 -0.1363  0.4758 -0.0113
  201MPD1     C 3053   3.151   2.510  14.051 -0.0649 -0.3603  0.0796
  201MPD1    C1 3054   3.017   2.484  14.027 -1.3618 -0.7916 -0.1887
  201MPD1    C2 3055   2.970   2.358  14.040  0.3336  0.0683 -0.7876
  201MPD1    C3 3056   3.056   2.254  14.066 -0.0804 -0.0320 -0.8067
  201MPD1    C4 3057   3.191   2.279  14.080  0.2906 -0.3971  0.2249
  201MPD1    C5 3058   3.239   2.404  14.072  0.3367 -0.1816  0.1973
  201MPD1     H 3059   2.866   2.332  14.028 -0.3842  2.2057  0.8085
  201MPD1    H1 3060   3.258   2.196  14.098  1.9494  0.5802 -1.3773
  201MPD1    H2 3061   3.188   2.612  14.055 -0.7641 -0.2230  3.2606
  201MPD1    H3 3062   3.342   2.427  14.096  0.3666  1.0860 -1.1643
  201MPD1     N 3063   3.005   2.129  14.053  0.6911 -0.4219 -0.3586
  201MPD1    H5 3064   2.909   2.126  14.019  0.4902 -3.5882  0.4921
  201MPD1    N1 3065   2.923   2.590  14.022  0.1401  0.6417 -0.0041
  201MPD1    H6 3066   2.829   2.559  13.999  0.3736  1.1209 -1.5984
  201MPD1    H7 3067   2.955   2.666  13.962  0.6234 -0.4192 -1.0993
  202MPD1     C 3068   1.086   1.717   9.020 -0.6120 -1.0303 -0.2462
  202MPD1    C1 3069   1.072   1.618   9.112  0.5677 -0.1231  0.9224
  202MPD1    C2 3070   1.166   1.630   9.214  0.2976  0.2999  0.4990
  202MPD1    C3 3071   1.238   1.744   9.232 -0.2396  0.1468 -0.6202
  202MPD1    C4 3072   1.227   1.847   9.145 -0.3617 -0.3436 -0.6682
  202MPD1    C5 3073   1.157   1.832   9.035 -0.0024 -0.1409 -0.9113
  202MPD1     H 3074   1.160   1.549   9.286 -0.0272  1.2337  1.5154
  202MPD1    H1 3075   1.279   1.941   9.160 -0.0032 -0.3389 -1.9138
  202MPD1    H2 3076   1.031   1.701   8.928 -0.6430  0.7134 -0.5313
  202MPD1    H3 3077   1.166   1.903   8.954  0.9870  1.3649  0.4963
  202MPD1     N 3078   1.311   1.767   9.351  0.0868  0.3002  0.3520
  202MPD1    H5 3079   1.356   1.857   9.364  0.9884 -0.1453  0.3137
  202MPD1    N1 3080   1.035   1.493   9.059 -0.3770  0.0793 -0.2984
  202MPD1    H6 3081   0.945   1.510   9.013 -1.6367 -1.3543  1.6420
  202MPD1    H7 3082   1.010   1.433   9.137  1.5150 -1.3617 -0.8119
  203MPD1     C 3083   0.636   3.540  12.310  0.3580  0.2023  0.0534
  203MPD1    C1 3084   0.587   3.464  12.412  0.5395  0.5846  0.1348
  203MPD1    C2 3085   0.633   3.335  12.417  0.1056 -0.0455 -0.0553
  203MPD1    C3 3086   0.735   3.287  12.334 -0.4055  0.3315 -0.4932
  203MPD1    C4 3087   0.765   3.365  12.225  0.2370 -0.4937  0.1852
  203MPD1    C5 3088   0.715   3.485  12.209  0.2507  0.6636 -0.4152
  203MPD1     H 3089   0.593   3.264  12.489 -1.8078  1.4422  0.3425
  203MPD1    H1 3090   0.832   3.341  12.144  1.4526 -0.5024  1.1936
  203MPD1    H2 3091   0.606   3.643  12.293  0.1523  0.1501  0.0933
  203MPD1    H3 3092   0.743   3.539  12.119  0.5830  0.0580 -0.6761
  203MPD1     N 3093   0.800   3.166  12.369  0.0020  0.1598 -0.4029
  203MPD1    H5 3094   0.774   3.123  12.457 -0.4943 -1.8277 -1.5237
  203MPD1    N1 3095   0.470   3.505  12.487 -0.6040  0.3635 -0.0612
  203MPD1    H6 3096   0.457   3.445  12.569  0.0593 -0.9882 -0.9558
  203MPD1    H7 3097   0.458   3.604  12.508 -0.9627  0.5977 -1.3852
  204MPD1     C 3098   3.861   3.604  17.562 -0.8257 -0.3446  0.3784
  204MPD1    C1 3099   3.971   3.671  17.535 -0.4911  0.9565  0.0602
  204MPD1    C2 3100   4.088   3.613  17.494 -0.6355 -0.0958  0.7306
  204MPD1    C3 3101   4.097   3.476  17.471 -0.0705  0.4251 -0.1843
  204MPD1    C4 3102   3.982   3.407  17.494 -0.2129 -0.0056  0.1767
  204MPD1    C5 3103   3.867   3.475  17.518  0.6949 -0.4216 -0.5193
  204MPD1     H 3104   4.181   3.668  17.481 -1.1084  0.9452  1.7242
  204MPD1    H1 3105   3.980   3.300  17.475  1.3208  0.0745 -0.4270
  204MPD1    H2 3106   3.765   3.643  17.593 -0.5451 -0.1871  1.0418
  204MPD1    H3 3107   3.783   3.409  17.535  0.5070  0.4402  1.9009
  204MPD1     N 3108   4.213   3.418  17.407  0.0980  0.4574  0.6993
  204MPD1    H5 3109   4.298   3.472  17.395  2.5193 -3.9333 -1.8388
  204MPD1    N1 3110   3.969   3.812  17.553  0.1584 -0.1830 -0.1295
  204MPD1    H6 3111   3.899   3.821  17.627 -1.0950  0.7564 -1.4263
  204MPD1    H7 3112   4.052   3.853  17.594 -0.6568 -0.2648  1.5994
  205MPD1     C 3113   0.978   2.869  16.784  0.7152  0.4152  0.1789
  205MPD1    C1 3114   1.036   2.793  16.882 -0.6446 -0.5653 -0.4443
  205MPD1    C2 3115   0.960   2.741  16.985 -0.2254  0.4087 -0.0110
  205MPD1    C3 3116   0.826   2.773  17.000  0.1738  0.4167  0.5271
  205MPD1    C4 3117   0.768   2.848  16.901  0.3845 -0.1684 -0.4153
  205MPD1    C5 3118   0.838   2.900  16.790 -0.3083 -0.4805  0.7239
  205MPD1     H 3119   1.010   2.679  17.058 -1.0103 -0.8558 -0.5486
  205MPD1    H1 3120   0.662   2.868  16.906  0.7410  1.8162 -0.4685
  205MPD1    H2 3121   1.036   2.899  16.697  1.8532  0.1268  0.8332
  205MPD1    H3 3122   0.794   2.967  16.718 -0.5075 -0.7841  0.5645
  205MPD1     N 3123   0.754   2.727  17.115 -0.0115  0.7956  0.2563
  205MPD1    H5 3124   0.656   2.754  17.120 -0.0649  0.8017 -0.7361
  205MPD1    N1 3125   1.166   2.745  16.858 -0.2607 -0.2513  0.2183
  205MPD1    H6 3126   1.202   2.716  16.949 -2.3599  0.2180  1.1847
  205MPD1    H7 3127   1.240   2.793  16.807  1.0750 -0.3977  2.0413
  206MPD1     C 3128   0.668   0.927  16.796  0.0415  0.5147  0.4244
  206MPD1    C1 3129   0.741   0.910  16.685 -0.2219  0.7637  0.2125
  206MPD1    C2 3130   0.669   0.891  16.569  0.0815  0.4587  0.5498
  206MPD1    C3 3131   0.534   0.866  16.561  0.1873 -0.6932 -0.3705
  206MPD1    C4 3132   0.474   0.852  16.682  0.2895  0.0663 -0.1392
  206MPD1    C5 3133   0.538   0.890  16.794 -0.0063 -0.4617  0.3728
  206MPD1     H 3134   0.726   0.891  16.477  0.7580 -2.1640  0.9839
  206MPD1    H1 3135   0.369   0.824  16.690  0.1234  0.9607  0.8630
  206MPD1    H2 3136   0.717   0.966  16.885  1.3151 -1.2769  0.4977
  206MPD1    H3 3137   0.484   0.895  16.888 -1.3228 -2.7653 -0.2748
  206MPD1     N 3138   0.459   0.853  16.441  0.2782  0.7578 -0.1873
  206MPD1    H5 3139   0.360   0.834  16.449  0.6122 -1.5973 -1.6386
  206MPD1    N1 3140   0.873   0.939  16.678 -0.0284  0.4781  0.2394
  206MPD1    H6 3141   0.907   0.905  16.768  1.1740 -2.0608 -1.1788
  206MPD1    H7 3142   0.927   0.892  16.606  1.7207  0.1036  1.7757
  207MPD1     C 3143   2.192   3.405   9.898  0.4086  0.2577  0.2594
  207MPD1    C1 3144   2.148   3.329  10.008  0.9953  0.8253 -0.1565
  207MPD1    C2 3145   2.243   3.302  10.106 -0.1911  0.0955 -1.1827
  207MPD1    C3 3146   2.372   3.366  10.103 -0.5971  0.2580  0.6685
  207MPD1    C4 3147   2.406   3.449  10.003 -0.0806  0.4808  0.1905
  207MPD1    C5 3148   2.318   3.467   9.893  0.7400  0.1154  0.6316
  207MPD1     H 3149   2.213   3.233  10.185 -1.6175  1.4512 -0.5391
  207MPD1    H1 3150   2.507   3.487   9.992  0.2058 -0.6824 -1.2437
  207MPD1    H2 3151   2.125   3.431   9.817  0.3393 -2.7957 -0.6520
  207MPD1    H3 3152   2.346   3.536   9.814  0.0762  0.6399  0.8596
  207MPD1     N 3153   2.469   3.348  10.208 -0.5375  0.9778 -0.0118
  207MPD1    H5 3154   2.554   3.400  10.190  0.1723 -0.5085 -0.9694
  207MPD1    N1 3155   2.030   3.259  10.002 -0.3020  0.4127  0.0407
  207MPD1    H6 3156   1.993   3.250  10.096 -0.6156 -1.1637 -0.2251
  207MPD1    H7 3157   1.963   3.293   9.933 -0.4443 -2.1575 -1.1035
  208MPD1     C 3158   1.451   2.207  16.991 -0.8603  0.2408  0.0382
  208MPD1    C1 3159   1.413   2.252  17.115  0.3979 -0.3398 -0.4327
  208MPD1    C2 3160   1.376   2.153  17.208  0.1738  0.6275 -0.1390
  208MPD1    C3 3161   1.373   2.010  17.182 -0.1482 -0.0251  0.0141
  208MPD1    C4 3162   1.426   1.972  17.062  0.2585  0.1658  0.4654
  208MPD1    C5 3163   1.459   2.065  16.975 -0.2763  0.4429 -0.3545
  208MPD1     H 3164   1.332   2.187  17.301 -1.6773  2.7476 -1.7833
  208MPD1    H1 3165   1.421   1.870  17.025 -0.6073  0.3990 -0.0566
  208MPD1    H2 3166   1.483   2.266  16.907  0.9752 -0.6730  0.1113
  208MPD1    H3 3167   1.487   2.034  16.875 -0.7539 -1.2898  0.0503
  208MPD1     N 3168   1.319   1.922  17.285  0.0747  0.5898  0.1194
  208MPD1    H5 3169   1.272   1.968  17.362  1.3296 -0.8386  1.7215
  208MPD1    N1 3170   1.389   2.390  17.135 -0.2926 -0.0354  0.4213
  208MPD1    H6 3171   1.421   2.416  17.228  0.6301 -1.6640  0.5672
  208MPD1    H7 3172   1.442   2.449  17.072 -0.2658 -2.6814 -2.0664
  209MPD1     C 3173   2.956   1.873  11.166  0.2488  0.6298  0.2009
  209MPD1    C1 3174   2.928   1.952  11.058 -0.2381 -0.0678  0.6693
  209MPD1    C2 3175   2.957   2.085  11.065  0.2494 -0.6608  0.6664
  209MPD1    C3 3176   3.023   2.129  11.182 -0.4776 -0.0305 -0.3900
  209MPD1    C4 3177   3.054   2.047  11.287  0.0975 -0.3526 -0.2433
  209MPD1    C5 3178   3.019   1.916  11.280  0.4673  0.2248 -0.2611
  209MPD1     H 3179   2.926   2.154  10.987 -0.2095 -2.7474 -0.9886
  209MPD1    H1 3180   3.098   2.092  11.376 -0.2193 -1.5745  0.5234
  209MPD1    H2 3181   2.919   1.771  11.158 -1.0270  1.0467  0.6938
  209MPD1    H3 3182   3.043   1.849  11.362 -1.4576  0.5164  0.5399
  209MPD1     N 3183   3.040   2.274  11.195 -0.1252  0.0907 -0.1485
  209MPD1    H5 3184   2.998   2.337  11.127  0.4649  1.8845  1.1481
  209MPD1    N1 3185   2.837   1.896  10.965 -0.5187  0.2515 -0.2167
  209MPD1    H6 3186   2.825   1.940  10.874 -4.0105  1.2286  0.6893
  209MPD1    H7 3187   2.851   1.795  10.960 -0.1541  0.2878  0.0872
  210MPD1     C 3188   3.570   3.144  11.563 -0.2541 -0.5022 -0.7312
  210MPD1    C1 3189   3.538   3.030  11.638 -0.0623 -0.4495 -0.4408
  210MPD1    C2 3190   3.456   2.936  11.578 -0.6220 -0.0111  0.0394
  210MPD1    C3 3191   3.395   2.971  11.455 -0.6728 -0.1790 -0.5252
  210MPD1    C4 3192   3.424   3.087  11.389  0.3633  0.1781 -0.2884
  210MPD1    C5 3193   3.512   3.177  11.444 -0.3084  0.2927  0.1493
  210MPD1     H 3194   3.420   2.854  11.640  0.7425  0.1521  1.0324
  210MPD1    H1 3195   3.395   3.116  11.288  1.3159  1.5281 -0.1802
  210MPD1    H2 3196   3.651   3.211  11.587 -0.1650 -0.9094  0.0855
  210MPD1    H3 3197   3.543   3.270  11.398 -3.5517  0.2702 -2.0848
  210MPD1     N 3198   3.305   2.898  11.381 -0.5959  0.3001  0.3637
  210MPD1    H5 3199   3.297   2.936  11.287  0.6050 -0.4655 -0.0553
  210MPD1    N1 3200   3.609   3.000  11.755 -0.0130 -0.2481 -0.8042
  210MPD1    H6 3201   3.663   3.076  11.796 -0.6400 -1.8964  3.1189
  210MPD1    H7 3202   3.568   2.942  11.829  0.5667 -0.6316 -0.7816
  211MPD1     C 3203   0.863   1.738  16.984  0.1161  0.0046  0.2789
  211MPD1    C1 3204   0.921   1.862  17.014  0.2198 -0.2541 -0.1362
  211MPD1    C2 3205   0.829   1.966  17.012 -0.0384 -0.4672  0.1693
  211MPD1    C3 3206   0.696   1.948  16.986 -0.3130 -0.4898  0.2309
  211MPD1    C4 3207   0.651   1.827  16.956  0.2291  0.0970 -0.3463
  211MPD1    C5 3208   0.730   1.722  16.961  0.4678  0.1404 -0.7925
  211MPD1     H 3209   0.851   2.066  17.047  0.2548 -1.0839  1.7504
  211MPD1    H1 3210   0.546   1.804  16.939 -0.1154  0.1503  1.7174
  211MPD1    H2 3211   0.925   1.650  16.969  0.5482  0.1830  1.0508
  211MPD1    H3 3212   0.689   1.623  16.943  2.0457 -0.5306 -0.7185
  211MPD1     N 3213   0.616   2.061  16.973  0.2656 -0.2940  0.3397
  211MPD1    H5 3214   0.664   2.150  16.966 -0.3095  0.2377  3.1591
  211MPD1    N1 3215   1.050   1.874  17.069 -0.5777  0.2919  0.4248
  211MPD1    H6 3216   1.071   1.973  17.083  0.1812  0.5618 -2.5762
  211MPD1    H7 3217   1.117   1.826  17.009 -1.2960  0.1349 -0.2456
  212MPD1     C 3218   4.446   0.950  16.498  0.0453  0.0913 -0.2069
  212MPD1    C1 3219   4.547   0.858  16.488 -0.5838  0.5878  1.1091
  212MPD1    C2 3220   4.542   0.736  16.550 -0.4739  0.0010  0.4495
  212MPD1    C3 3221   4.428   0.699  16.624 -0.2583  0.1077  0.6072
  212MPD1    C4 3222   4.332   0.797  16.641  0.0092 -0.0097 -0.0740
  212MPD1    C5 3223   4.337   0.918  16.573  0.5702  0.2760 -0.2394
  212MPD1     H 3224   4.618   0.665  16.522  2.2328  2.4118  1.6812
  212MPD1    H1 3225   4.239   0.773  16.692 -0.5288  1.0573 -0.5739
  212MPD1    H2 3226   4.455   1.053  16.466  2.4822  0.2134  0.9101
  212MPD1    H3 3227   4.262   0.992  16.598  0.2106  0.4946 -1.9119
  212MPD1     N 3228   4.396   0.577  16.679 -0.2082  0.3255 -0.1283
  212MPD1    H5 3229   4.307   0.565  16.727 -1.1655  0.5936 -1.8375
  212MPD1    N1 3230   4.653   0.888  16.403  0.4863  0.4647 -0.6931
  212MPD1    H6 3231   4.687   0.984  16.406  1.9865 -0.0083 -2.6967
  212MPD1    H7 3232   0.001   0.820  16.423  1.1953  1.5763  0.4358
  213MPD1     C 3233   2.510   1.445  16.007  0.4352  0.1596  0.0261
  213MPD1    C1 3234   2.468   1.348  15.920 -0.0390  0.5451  0.2273
  213MPD1    C2 3235   2.413   1.395  15.807 -0.0507  0.1177  0.1088
  213MPD1    C3 3236   2.445   1.520  15.750  0.1871  0.1449  0.8816
  213MPD1    C4 3237   2.521   1.605  15.830  1.0352 -0.1790  0.5034
  213MPD1    C5 3238   2.550   1.572  15.958  0.1050 -0.2583 -0.2114
  213MPD1     H 3239   2.368   1.321  15.740  2.6473 -1.1283 -0.3372
  213MPD1    H1 3240   2.537   1.706  15.795 -1.9627  0.2151  0.2051
  213MPD1    H2 3241   2.554   1.416  16.102 -0.4514  2.7047  1.2090
  213MPD1    H3 3242   2.610   1.643  16.014 -0.8780  0.0196  0.4924
  213MPD1     N 3243   2.397   1.533  15.616  0.0874 -0.3360  0.2837
  213MPD1    H5 3244   2.333   1.464  15.580 -0.7887 -0.2118  1.5859
  213MPD1    N1 3245   2.422   1.228  15.965 -0.0939  0.2382 -0.4829
  213MPD1    H6 3246   2.479   1.198  16.044 -2.5837  0.8982  1.5940
  213MPD1    H7 3247   2.443   1.163  15.889 -1.7486 -1.1234  0.2063
  214MPD1     C 3248   1.859   1.060  15.173  0.4001 -0.2140  0.0979
  214MPD1    C1 3249   1.864   1.159  15.084  0.2660  0.4376  0.1038
  214MPD1    C2 3250   1.937   1.270  15.109  0.7162 -0.3285 -0.3788
  214MPD1    C3 3251   2.012   1.272  15.224  0.3388  0.1310  0.4826
  214MPD1    C4 3252   2.006   1.169  15.319  0.6643  0.0126 -0.1785
  214MPD1    C5 3253   1.928   1.059  15.288  0.0268  0.4061  0.0827
  214MPD1     H 3254   1.954   1.345  15.033 -0.3680  2.3420  1.9971
  214MPD1    H1 3255   2.057   1.169  15.414  0.9953 -1.8483 -0.3583
  214MPD1    H2 3256   1.803   0.972  15.142  2.1804 -1.4269  0.3072
  214MPD1    H3 3257   1.918   0.967  15.345 -0.0244 -0.9123 -2.0897
  214MPD1     N 3258   2.099   1.385  15.245  0.2177  0.0770 -0.5797
  214MPD1    H5 3259   2.156   1.371  15.328 -1.8022 -1.0214  0.6239
  214MPD1    N1 3260   1.775   1.158  14.974 -0.2143  0.3825  0.1225
  214MPD1    H6 3261   1.721   1.074  14.996  2.0020 -1.7582 -2.5605
  214MPD1    H7 3262   1.707   1.234  14.983 -1.1259 -0.3551 -0.4515
  215MPD1     C 3263   1.861   2.659  11.111 -0.2933 -0.3600  0.3037
  215MPD1    C1 3264   1.911   2.666  11.235  0.0977  0.6455 -0.0686
  215MPD1    C2 3265   2.031   2.729  11.256 -0.4352  0.4657  0.4063
  215MPD1    C3 3266   2.110   2.767  11.149 -0.5796  0.9229 -0.0124
  215MPD1    C4 3267   2.057   2.768  11.022  0.7905  0.0612  0.1956
  215MPD1    C5 3268   1.932   2.711  11.005 -0.2918  0.4614 -0.0728
  215MPD1     H 3269   2.072   2.736  11.356 -1.3276 -0.6581  0.8402
  215MPD1    H1 3270   2.100   2.811  10.932  0.3995 -0.4074 -0.2096
  215MPD1    H2 3271   1.775   2.600  11.082 -1.0561  1.7337 -1.6816
  215MPD1    H3 3272   1.883   2.711  10.908  0.2780  0.0360 -0.3597
  215MPD1     N 3273   2.226   2.838  11.176  0.2357 -0.1792  0.2583
  215MPD1    H5 3274   2.261   2.837  11.271 -0.0139 -2.4533  0.3051
  215MPD1    N1 3275   1.839   2.614  11.346  0.0452  0.3109 -0.3459
  215MPD1    H6 3276   1.763   2.548  11.334  0.4094 -0.7393  2.9866
  215MPD1    H7 3277   1.890   2.606  11.434 -2.4474  1.0258  1.1495
  216MPD1     C 3278   0.639   0.330  16.812  0.2219 -0.3955  0.1822
  216MPD1    C1 3279   0.546   0.389  16.896  0.3694  0.2913 -1.2323
  216MPD1    C2 3280   0.455   0.303  16.962 -0.2446  0.3978 -0.2261
  216MPD1    C3 3281   0.447   0.163  16.934 -0.2386 -0.3319  1.4945
  216MPD1    C4 3282   0.541   0.115  16.846  0.0460  0.0570  0.8387
  216MPD1    C5 3283   0.633   0.197  16.780 -0.1234  0.1318 -0.1407
  216MPD1     H 3284   0.382   0.351  17.026 -1.2208  1.9005 -2.4581
  216MPD1    H1 3285   0.565   0.010  16.836  0.1164  0.2878 -1.4291
  216MPD1    H2 3286   0.712   0.391  16.760  0.6289 -0.0048  1.2147
  216MPD1    H3 3287   0.694   0.145  16.707 -1.0681 -0.5151 -0.4744
  216MPD1     N 3288   0.351   0.084  17.003 -0.5376 -0.4655  0.1290
  216MPD1    H5 3289   0.295   0.126  17.077 -0.0315  0.1271  0.1784
  216MPD1    N1 3290   0.546   0.530  16.914  0.2063 -0.1870  0.6874
  216MPD1    H6 3291   0.542   0.560  17.012  0.8701  0.7297  0.4358
  216MPD1    H7 3292   0.626   0.573  16.868 -0.0375 -0.9668 -0.4622
  217MPD1     C 3293   0.162   0.531   8.746  0.7807  0.3332  0.3584
  217MPD1    C1 3294   0.066   0.621   8.771  0.5583  0.4253  0.7021
  217MPD1    C2 3295   0.097   0.740   8.834  0.0829 -0.3092 -0.1196
  217MPD1    C3 3296   0.221   0.766   8.882 -0.8860 -0.2491  0.2472
  217MPD1    C4 3297   0.321   0.666   8.861 -0.0117  0.1493 -0.2070
  217MPD1    C5 3298   0.292   0.548   8.787  0.4050  0.2612 -0.1423
  217MPD1     H 3299   0.015   0.810   8.848 -0.0592 -0.1410 -1.7354
  217MPD1    H1 3300   0.424   0.695   8.875 -0.0448  0.6505 -0.9714
  217MPD1    H2 3301   0.126   0.450   8.684 -3.3291  2.5202 -0.0914
  217MPD1    H3 3302   0.373   0.480   8.767  1.1066  0.0133  3.4494
  217MPD1     N 3303   0.253   0.885   8.950 -0.6542 -0.3972 -0.4098
  217MPD1    H5 3304   0.344   0.896   8.995 -0.9727  1.2350 -0.1456
  217MPD1    N1 3305   4.673   0.614   8.697  0.0497 -0.1156 -0.3831
  217MPD1    H6 3306   4.590   0.660   8.734 -0.5761 -0.0927 -1.8080
  217MPD1    H7 3307   4.652   0.515   8.697 -0.3483 -0.0333  1.2079
  218MPD1     C 3308   2.103   3.504  12.752  0.2465  0.2945  0.4012
  218MPD1    C1 3309   2.203   3.526  12.661  0.8347  0.2076 -0.4079
  218MPD1    C2 3310   2.319   3.444  12.666 -0.4736  0.0903 -0.1740
  218MPD1    C3 3311   2.322   3.336  12.754  0.3644 -0.2985  0.4801
  218MPD1    C4 3312   2.217   3.319  12.843 -0.1602 -0.1929 -0.0338
  218MPD1    C5 3313   2.116   3.407  12.847 -0.1802 -0.3907 -0.0241
  218MPD1     H 3314   2.404   3.469  12.603 -0.0355  2.1362  1.2264
  218MPD1    H1 3315   2.209   3.240  12.918  0.1438 -1.5965 -1.4796
  218MPD1    H2 3316   2.019   3.569  12.774 -1.2102 -1.8771  1.2384
  218MPD1    H3 3317   2.036   3.398  12.919 -3.2971  2.9777 -3.0582
  218MPD1     N 3318   2.439   3.248  12.747  0.6152 -0.3525  0.9612
  218MPD1    H5 3319   2.513   3.269  12.681 -0.9259  1.5303 -0.1827
  218MPD1    N1 3320   2.207   3.639  12.587  0.2584 -0.5103  0.1920
  218MPD1    H6 3321   2.252   3.639  12.495  4.6843 -0.6918  2.3664
  218MPD1    H7 3322   2.112   3.675  12.578  0.4087 -0.5907 -1.8512
  219MPD1     C 3323   2.767   2.754  11.982  0.4498  0.0201 -0.7473
  219MPD1    C1 3324   2.786   2.882  12.023 -0.6245 -0.3062  0.2347
  219MPD1    C2 3325   2.762   2.913  12.155 -0.2926 -0.4268 -0.5712
  219MPD1    C3 3326   2.719   2.812  12.241  0.5078  0.9027 -1.1917
  219MPD1    C4 3327   2.717   2.683  12.202  0.5674 -0.0042  0.3185
  219MPD1    C5 3328   2.737   2.652  12.068  0.4286  0.4619 -0.4415
  219MPD1     H 3329   2.781   3.012  12.195  0.2291  0.0838 -2.0843
  219MPD1    H1 3330   2.692   2.604  12.271 -0.3310 -0.3265 -0.3786
  219MPD1    H2 3331   2.789   2.738  11.877 -0.2348 -1.8891 -0.5953
  219MPD1    H3 3332   2.724   2.548  12.040 -0.9832 -0.1543  2.5200
  219MPD1     N 3333   2.688   2.837  12.375 -0.0953 -0.6728  0.1915
  219MPD1    H5 3334   2.671   2.755  12.432 -0.1444 -0.4421  0.5082
  219MPD1    N1 3335   2.827   2.975  11.929  0.2401  0.2286 -0.0983
  219MPD1    H6 3336   2.848   3.071  11.955 -0.5195  1.2266 -3.1369
  219MPD1    H7 3337   2.869   2.937  11.844 -2.4844 -0.6530 -1.0508
  220MPD1     C 3338   1.834   3.914   9.717 -0.1323  0.0891  0.2569
  220MPD1    C1 3339   1.744   3.858   9.807 -0.0477 -0.0169 -0.3164
  220MPD1    C2 3340   1.795   3.800   9.920  0.5593 -0.3581  0.5281
  220MPD1    C3 3341   1.928   3.806   9.955  0.4572 -0.3310 -0.2296
  220MPD1    C4 3342   2.015   3.858   9.864  0.7108 -0.9532 -0.2781
  220MPD1    C5 3343   1.968   3.916   9.747 -0.3582 -0.6209  0.3247
  220MPD1     H 3344   1.729   3.760   9.996 -1.5661  2.7847  0.3397
  220MPD1    H1 3345   2.122   3.845   9.872  0.8199  0.5309  0.7394
  220MPD1    H2 3346   1.808   3.953   9.619  0.4426 -1.6631 -0.6001
  220MPD1    H3 3347   2.037   3.963   9.678  2.6823 -1.5592  2.7670
  220MPD1     N 3348   1.979   3.716  10.055 -0.3286  0.4372 -0.5480
  220MPD1    H5 3349   1.905   3.667  10.105  1.1675 -0.9647  0.2765
  220MPD1    N1 3350   1.608   3.836   9.770 -0.0952 -0.6292 -0.6835
  220MPD1    H6 3351   1.548   3.831   9.852 -0.1697 -0.7267 -0.7431
  220MPD1    H7 3352   1.567   3.904   9.706  1.4614 -0.6317 -1.6808
  221MPD1     C 3353   4.389   2.010  16.843 -0.0020 -0.3265  0.3240
  221MPD1    C1 3354   4.458   2.127  16.866 -0.2216  0.6587 -0.1181
  221MPD1    C2 3355   4.576   2.148  16.804 -0.1310  0.1194 -0.3514
  221MPD1    C3 3356   4.628   2.053  16.711 -0.0229  0.6745  0.9696
  221MPD1    C4 3357   4.563   1.931  16.705 -0.0527  0.2011 -0.2289
  221MPD1    C5 3358   4.443   1.903  16.773  0.2219 -0.0577 -0.3766
  221MPD1     H 3359   4.629   2.242  16.819  1.9064 -0.8603 -1.4434
  221MPD1    H1 3360   4.615   1.850  16.656  1.0001 -0.1512  1.4912
  221MPD1    H2 3361   4.299   2.001  16.902  1.0077 -0.0536  1.9003
  221MPD1    H3 3362   4.396   1.805  16.781  0.3927 -0.1601 -0.6285
  221MPD1     N 3363   0.030   2.070  16.648  0.0959 -0.2323  0.4162
  221MPD1    H5 3364   0.067   1.986  16.603 -0.8099  0.4714 -1.6480
  221MPD1    N1 3365   4.406   2.214  16.960 -0.4128  0.5033  0.4094
  221MPD1    H6 3366   4.424   2.311  16.937  1.1928  0.8260  3.0735
  221MPD1    H7 3367   4.306   2.211  16.978 -0.3371 -1.1750  0.5353
  222MPD1     C 3368   0.597   0.474  16.338  0.0531  0.2797 -0.4431
  222MPD1    C1 3369   0.497   0.387  16.333  0.2822  0.2866  0.0127
  222MPD1    C2 3370   0.406   0.374  16.438  0.4524 -0.2245 -0.7796
  222MPD1    C3 3371   0.418   0.445  16.557 -0.1650 -0.8545 -0.1058
  222MPD1    C4 3372   0.526   0.529  16.567  0.0574  0.3682  0.7663
  222MPD1    C5 3373   0.618   0.538  16.460 -0.1835 -0.1915 -0.0757
  222MPD1     H 3374   0.323   0.307  16.418  0.1282  0.1321 -0.6021
  222MPD1    H1 3375   0.543   0.582  16.660  0.3231  1.4480  0.1025
  222MPD1    H2 3376   0.667   0.483  16.256 -1.0132 -1.1594 -1.5208
  222MPD1    H3 3377   0.711   0.592  16.473 -0.2931 -0.2662  1.0197
  222MPD1     N 3378   0.321   0.448  16.657  0.8064  0.2625 -0.0816
  222MPD1    H5 3379   0.339   0.508  16.737 -0.6872  1.2236 -0.4631
  222MPD1    N1 3380   0.468   0.328  16.209 -0.2953  0.2161  0.0241
  222MPD1    H6 3381   0.542   0.332  16.139 -0.3617 -0.5379 -0.0940
  222MPD1    H7 3382   0.409   0.244  16.206  2.3531 -1.6599  0.1071
  223MPD1     C 3383   4.371   4.527  17.217 -0.3914 -0.4146 -0.4739
  223MPD1    C1 3384   4.449   4.600  17.301  0.0624  0.1218 -0.0413
  223MPD1    C2 3385   4.524   4.710  17.247  0.5809 -0.0758 -0.1922
  223MPD1    C3 3386   4.522   0.004  17.112 -0.2044 -0.2200  0.8634
  223MPD1    C4 3387   4.434   4.654  17.027 -0.3888 -0.6178 -0.0137
  223MPD1    C5 3388   4.367   4.550  17.082 -0.5699  0.7804 -0.6119
  223MPD1     H 3389   4.603   0.030  17.305 -0.4268 -0.0469  1.1669
  223MPD1    H1 3390   4.440   4.658  16.918 -0.2882  0.7290  0.0400
  223MPD1    H2 3391   4.319   4.438  17.252  0.7233 -0.1987  1.7326
  223MPD1    H3 3392   4.325   4.471  17.021 -1.8958  1.0224 -0.0023
  223MPD1     N 3393   4.605   0.108  17.068  0.0093 -0.0950 -0.0065
  223MPD1    H5 3394   4.650   0.162  17.141 -1.6687  1.5339 -0.1977
  223MPD1    N1 3395   4.457   4.564  17.440 -0.0601 -0.0845 -0.2086
  223MPD1    H6 3396   4.492   4.637  17.502 -0.5869  0.4221 -0.5120
  223MPD1    H7 3397   4.365   4.537  17.474  0.3662 -2.1587 -0.6511
  224MPD1     C 3398   0.018   2.083   8.901  0.0187 -1.0849 -0.7369
  224MPD1    C1 3399   0.031   1.972   8.985  0.0942  0.0202 -0.0704
  224MPD1    C2 3400   0.137   1.968   9.072  0.0467 -0.1864  0.5573
  224MPD1    C3 3401   0.215   2.081   9.101  0.6223  0.0377 -0.5049
  224MPD1    C4 3402   0.184   2.194   9.028 -0.1449 -0.0542 -0.3330
  224MPD1    C5 3403   0.085   2.200   8.930  0.0171  0.5670 -0.1413
  224MPD1     H 3404   0.166   1.873   9.115  0.1905 -1.3303 -2.1007
  224MPD1    H1 3405   0.234   2.285   9.059  0.5503 -0.6964  0.4376
  224MPD1    H2 3406   4.669   2.077   8.822  1.4608 -0.1947 -2.1579
  224MPD1    H3 3407   0.053   2.285   8.871 -1.0792 -0.8524 -1.5904
  224MPD1     N 3408   0.324   2.098   9.190 -0.5170 -0.4327 -0.1207
  224MPD1    H5 3409   0.373   2.186   9.181  1.1125 -1.4301 -0.9827
  224MPD1    N1 3410   4.680   1.859   8.958  0.4801  0.0973 -0.1699
  224MPD1    H6 3411   4.595   1.899   8.918  1.4527  1.3231 -1.0230
  224MPD1    H7 3412   4.652   1.806   9.040  0.5604  1.8290  0.9632
  225MPD1     C 3413   2.470   4.400  12.812 -0.2371  0.2801 -0.6685
  225MPD1    C1 3414   2.497   4.459  12.695  0.1949  0.5996 -0.0073
  225MPD1    C2 3415   2.431   4.412  12.585 -0.5735  0.0277 -0.4993
  225MPD1    C3 3416   2.353   4.295  12.592  0.0681 -0.2496 -0.6436
  225MPD1    C4 3417   2.342   4.228  12.710  0.8041  0.3321  0.4963
  225MPD1    C5 3418   2.393   4.286  12.823 -0.2644  0.0898  0.1198
  225MPD1     H 3419   2.431   4.477  12.499  1.6041 -0.9831 -1.2660
  225MPD1    H1 3420   2.282   4.140  12.727  0.9752 -0.1987 -1.6723
  225MPD1    H2 3421   2.499   4.451  12.903  0.4429 -2.0661  0.4280
  225MPD1    H3 3422   2.387   4.239  12.921 -2.5521  1.4630  0.6439
  225MPD1     N 3423   2.300   4.241  12.470  0.6745  0.1349 -0.0950
  225MPD1    H5 3424   2.301   4.291  12.382  3.0240 -1.5583 -1.0184
  225MPD1    N1 3425   2.556   4.588  12.694  0.0768 -0.2579 -0.0098
  225MPD1    H6 3426   2.618   4.604  12.773 -0.8417 -1.5262  0.9638
  225MPD1    H7 3427   2.605   4.617  12.609 -0.9987 -1.2303 -0.9598
  226MPD1     C 3428   1.002   3.443  10.027 -0.8363  0.4490  0.0067
  226MPD1    C1 3429   0.948   3.361   9.926 -0.4332  0.7138  1.1665
  226MPD1    C2 3430   0.852   3.422   9.839  0.5771 -0.1020 -0.5741
  226MPD1    C3 3431   0.798   3.546   9.863 -0.8088 -0.2933  0.6212
  226MPD1    C4 3432   0.832   3.614   9.978  0.5277 -0.0493 -0.6052
  226MPD1    C5 3433   0.936   3.563  10.052  1.2476 -0.0478 -0.6631
  226MPD1     H 3434   0.815   3.367   9.753  2.6351  0.2931 -1.7029
  226MPD1    H1 3435   0.788   3.708  10.009  3.6503  0.5022  2.0558
  226MPD1    H2 3436   1.082   3.411  10.092 -1.1309 -1.2866 -0.4782
  226MPD1    H3 3437   0.974   3.630  10.128 -1.3082  0.7277 -0.0763
  226MPD1     N 3438   0.730   3.607   9.757 -0.0446 -0.5332 -0.5503
  226MPD1    H5 3439   0.708   3.549   9.677 -1.4567  0.8735 -1.1827
  226MPD1    N1 3440   1.015   3.240   9.894  0.2897  0.4084  0.1651
  226MPD1    H6 3441   1.064   3.189   9.967 -1.7544  1.2504  2.1447
  226MPD1    H7 3442   0.947   3.178   9.851  0.5634 -0.9950  1.7214
  227MPD1     C 3443   0.689   4.533   9.317 -0.0128  0.2969 -0.0774
  227MPD1    C1 3444   0.712   4.503   9.452  0.7537 -1.1136  0.2342
  227MPD1    C2 3445   0.713   4.368   9.484  0.5617 -0.2819  0.3206
  227MPD1    C3 3446   0.670   4.270   9.401 -0.2085 -0.2037 -0.3182
  227MPD1    C4 3447   0.651   4.300   9.265  0.4988 -0.4256 -0.7711
  227MPD1    C5 3448   0.667   4.430   9.224 -0.5774 -0.8016  0.1868
  227MPD1     H 3449   0.731   4.350   9.590  0.3288 -1.8679  0.0924
  227MPD1    H1 3450   0.637   4.226   9.187  2.1263 -1.4715 -0.0909
  227MPD1    H2 3451   0.684   4.637   9.286 -0.7108  0.4129  0.4340
  227MPD1    H3 3452   0.655   4.466   9.122 -0.2462 -3.0374 -0.6475
  227MPD1     N 3453   0.650   4.141   9.448  0.2877  0.0243 -0.5001
  227MPD1    H5 3454   0.672   4.132   9.547  0.0074  0.8364 -0.3621
  227MPD1    N1 3455   0.781   4.601   9.528  0.0963  0.6227  0.3173
  227MPD1    H6 3456   0.749   4.697   9.515 -4.3945 -0.9767 -0.4725
  227MPD1    H7 3457   0.777   4.582   9.627 -0.4511 -1.9647 -0.2023
  228MPD1     C 3458   3.999   1.479  11.949  0.0713  0.1549  0.6325
  228MPD1    C1 3459   4.081   1.400  12.029 -0.1573 -1.1021  0.4536
  228MPD1    C2 3460   4.050   1.396  12.164 -0.9284 -0.2595 -0.1025
  228MPD1    C3 3461   3.937   1.461  12.217  0.1037  0.1039  1.1425
  228MPD1    C4 3462   3.848   1.520  12.130 -0.2511 -0.1642 -0.6500
  228MPD1    C5 3463   3.881   1.534  11.999  0.3422 -0.1113 -0.3256
  228MPD1     H 3464   4.119   1.356  12.237  1.3327  0.5232 -1.8251
  228MPD1    H1 3465   3.760   1.571  12.165  1.0519  1.1290  0.7289
  228MPD1    H2 3466   4.016   1.482  11.842 -1.7790 -1.7171  0.2837
  228MPD1    H3 3467   3.813   1.585  11.932 -1.2642 -0.8668  0.7169
  228MPD1     N 3468   3.915   1.446  12.357  0.4519  0.5553  0.2754
  228MPD1    H5 3469   3.959   1.365  12.401 -1.6521 -0.9016 -0.2843
  228MPD1    N1 3470   4.208   1.354  11.987 -0.0246 -0.3439  0.0314
  228MPD1    H6 3471   4.199   1.341  11.887 -1.6166  2.1405 -0.1581
  228MPD1    H7 3472   4.229   1.264  12.030 -0.1303 -0.6614 -0.5872
  229MPD1     C 3473   3.279   0.308  14.972 -1.0236  0.2766 -0.3572
  229MPD1    C1 3474   3.283   0.266  15.103 -0.3829 -0.3156  0.2945
  229MPD1    C2 3475   3.395   0.199  15.150 -0.4192  0.2977 -0.6812
  229MPD1    C3 3476   3.495   0.150  15.067 -0.1062  1.4220 -0.3062
  229MPD1    C4 3477   3.483   0.176  14.935  0.1528 -0.4429 -0.0962
  229MPD1    C5 3478   3.380   0.259  14.895  0.4150  0.3739  0.3472
  229MPD1     H 3479   3.399   0.173  15.255 -2.8822 -0.0903 -0.6932
  229MPD1    H1 3480   3.562   0.149  14.865  2.2644  0.4176  1.9357
  229MPD1    H2 3481   3.219   0.387  14.928 -0.7939  0.9536  0.5607
  229MPD1    H3 3482   3.373   0.286  14.791  0.6458 -0.3220  0.1529
  229MPD1     N 3483   3.608   0.081  15.111 -0.2784  0.6512  0.4744
  229MPD1    H5 3484   3.664   0.042  15.036 -0.9507 -2.0456  1.3758
  229MPD1    N1 3485   3.194   0.322  15.198  0.3113  0.0251  0.2328
  229MPD1    H6 3486   3.104   0.339  15.155  0.1027 -2.7270 -0.4153
  229MPD1    H7 3487   3.184   0.255  15.274  0.3691 -0.3657 -0.1030
  230MPD1     C 3488   4.234   4.510  15.977 -0.1597  0.3147 -0.0230
  230MPD1    C1 3489   4.257   4.419  15.879 -0.7307 -0.1650  0.4799
  230MPD1    C2 3490   4.190   4.437  15.761 -0.5480 -0.6052  0.1453
  230MPD1    C3 3491   4.101   4.539  15.736 -0.2150 -0.0374 -0.5819
  230MPD1    C4 3492   4.069   4.620  15.838  0.3459  0.8317  0.4497
  230MPD1    C5 3493   4.138   4.606  15.960 -0.3729  0.5469  0.6460
  230MPD1     H 3494   4.216   4.371  15.679  3.4706  1.4755 -0.2348
  230MPD1    H1 3495   3.990   4.694  15.841  0.2717  0.7513  0.4765
  230MPD1    H2 3496   4.282   4.511  16.074 -0.2182 -2.0160  0.0293
  230MPD1    H3 3497   4.124   4.678  16.039  1.6965  0.1654  1.3568
  230MPD1     N 3498   4.044   4.548  15.606 -0.4761 -0.2694 -0.2088
  230MPD1    H5 3499   4.071   4.472  15.545  1.4301  0.8829 -0.8208
  230MPD1    N1 3500   4.365   4.330  15.898 -0.1001  0.7734 -0.3921
  230MPD1    H6 3501   4.366   4.309  15.997  2.5889  0.0869 -0.5586
  230MPD1    H7 3502   4.342   4.242  15.853  0.6159  0.9785 -1.1606
  231MPD1     C 3503   1.687   1.635  15.291  0.8731  0.5301  0.2808
  231MPD1    C1 3504   1.692   1.680  15.154  0.1210 -0.5494  0.8643
  231MPD1    C2 3505   1.810   1.729  15.100  0.9025 -0.2371  0.9230
  231MPD1    C3 3506   1.910   1.768  15.183  0.0500 -0.4606 -0.2741
  231MPD1    C4 3507   1.909   1.736  15.315  0.0981 -0.7205  0.0917
  231MPD1    C5 3508   1.797   1.669  15.366 -0.7017 -0.6018  0.0232
  231MPD1     H 3509   1.811   1.767  14.998 -1.5761 -0.0000  0.9897
  231MPD1    H1 3510   1.989   1.767  15.380 -1.4920  1.7671  0.8539
  231MPD1    H2 3511   1.602   1.586  15.337  1.2800  1.1586  1.7012
  231MPD1    H3 3512   1.799   1.644  15.472 -1.2216 -1.1176 -0.0906
  231MPD1     N 3513   2.009   1.849  15.121 -0.4140  0.2672  0.5109
  231MPD1    H5 3514   1.986   1.884  15.029 -0.4370 -2.4808 -0.5077
  231MPD1    N1 3515   1.592   1.639  15.072 -0.6215  0.0738 -0.1683
  231MPD1    H6 3516   1.501   1.645  15.117 -0.3757 -1.5913  0.5311
  231MPD1    H7 3517   1.603   1.698  14.990 -1.2258 -1.4011 -1.3183
  232MPD1     C 3518   3.492   3.502  17.069 -0.3736 -0.2467  0.1494
  232MPD1    C1 3519   3.416   3.389  17.050 -0.2037  0.0964  0.2817
  232MPD1    C2 3520   3.431   3.283  17.129 -0.7292  0.2163  0.3967
  232MPD1    C3 3521   3.534   3.280  17.228 -0.1477 -0.0776 -0.0294
  232MPD1    C4 3522   3.609   3.391  17.246 -0.5139  0.0104  0.2700
  232MPD1    C5 3523   3.596   3.499  17.160 -0.5571  0.1854 -0.0701
  232MPD1     H 3524   3.361   3.202  17.114 -0.7669  0.7961 -2.5416
  232MPD1    H1 3525   3.671   3.419  17.330 -0.6273  0.3243  0.2462
  232MPD1    H2 3526   3.475   3.599  17.022  3.7570 -0.5746 -2.0291
  232MPD1    H3 3527   3.667   3.580  17.165  1.0205 -1.2114  0.0624
  232MPD1     N 3528   3.534   3.172  17.312  0.0753  0.1700 -0.3359
  232MPD1    H5 3529   3.452   3.111  17.314  0.6080 -0.4722  2.2254
  232MPD1    N1 3530   3.302   3.415  16.972  0.2937 -0.2043  0.3440
  232MPD1    H6 3531   3.259   3.325  16.953 -0.9547  0.2358  1.1106
  232MPD1    H7 3532   3.328   3.459  16.884  1.4760 -1.3425  0.1254
  233MPD1     C 3533   4.467   2.122   0.854 -0.0948 -0.6723 -0.3356
  233MPD1    C1 3534   4.570   2.196   0.907 -0.1939  0.1332  0.7505
  233MPD1    C2 3535   4.681   2.127   0.960  0.1873 -0.0738  0.6251
  233MPD1    C3 3536   4.686   1.985   0.950 -0.5153 -0.5028 -0.2214
  233MPD1    C4 3537   4.574   1.916   0.902  0.0818 -0.5594  0.1392
  233MPD1    C5 3538   4.472   1.987   0.850 -0.1802  0.1634 -0.5951
  233MPD1     H 3539   0.033   2.188   1.005 -0.4954 -0.8502  2.8461
  233MPD1    H1 3540   4.576   1.808   0.887 -0.7412 -0.5263 -0.2220
  233MPD1    H2 3541   4.382   2.178   0.817 -0.3440 -1.5399 -1.0529
  233MPD1    H3 3542   4.393   1.926   0.808  0.6182  1.3681 -3.8429
  233MPD1     N 3543   0.077   1.919   0.994  0.2537  0.2751 -0.0493
  233MPD1    H5 3544   0.092   1.820   0.975  1.4966  0.3599  0.5325
  233MPD1    N1 3545   4.558   2.334   0.906 -0.5105  0.4396 -0.2256
  233MPD1    H6 3546   4.465   2.374   0.918 -0.9830 -0.4877 -0.7712
  233MPD1    H7 3547   4.627   2.379   0.965  1.0894  0.8401 -2.4042
  234MPD1     C 3548   1.387   0.624  10.139 -0.2271 -0.4401 -0.5071
  234MPD1    C1 3549   1.334   0.589  10.015 -0.7049 -0.2776  0.7033
  234MPD1    C2 3550   1.324   0.690   9.919 -0.2924  0.1881 -0.1864
  234MPD1    C3 3551   1.359   0.817   9.944  0.6214  0.3527 -0.4573
  234MPD1    C4 3552   1.419   0.852  10.064  0.1418 -0.3620 -0.3585
  234MPD1    C5 3553   1.426   0.755  10.160  0.9317  0.3815 -0.2778
  234MPD1     H 3554   1.273   0.659   9.829 -0.0193  0.9795 -0.6156
  234MPD1    H1 3555   1.460   0.948  10.092 -0.5345 -0.4023  0.7669
  234MPD1    H2 3556   1.396   0.559  10.226 -0.1288 -2.8779 -2.3333
  234MPD1    H3 3557   1.460   0.791  10.256  1.0655 -1.3445  0.3358
  234MPD1     N 3558   1.321   0.916   9.847 -0.2024 -0.7809  0.0028
  234MPD1    H5 3559   1.275   0.879   9.765  3.2131  1.2408 -2.8017
  234MPD1    N1 3560   1.279   0.462   9.999 -0.7411  0.2099  0.4208
  234MPD1    H6 3561   1.287   0.430   9.903  2.6879 -1.3125  1.2223
  234MPD1    H7 3562   1.327   0.394  10.058 -0.9842  0.5090  0.9588
  235MPD1     C 3563   4.201   0.168  10.004  0.8366  0.3740 -0.5094
  235MPD1    C1 3564   4.092   0.251   9.995 -0.0222 -0.5373  0.0279
  235MPD1    C2 3565   3.996   0.223   9.895  0.0917 -0.6143 -0.1932
  235MPD1    C3 3566   4.022   0.128   9.799 -0.0861 -0.5128 -0.2706
  235MPD1    C4 3567   4.135   0.046   9.808 -0.1592 -0.1217 -0.3385
  235MPD1    C5 3568   4.223   0.068   9.910  0.2556  0.1660  0.2041
  235MPD1     H 3569   3.906   0.282   9.903  0.2743 -0.4537  0.6750
  235MPD1    H1 3570   4.157   4.687   9.743  1.8755 -0.9925  1.5100
  235MPD1    H2 3571   4.281   0.167  10.077  0.0315 -1.1981  0.3474
  235MPD1    H3 3572   4.317   0.015   9.911  0.4081  0.4416  0.3708
  235MPD1     N 3573   3.929   0.117   9.692  0.1396 -0.1314 -0.6319
  235MPD1    H5 3574   3.837   0.158   9.709  0.3894 -0.3006  1.2183
  235MPD1    N1 3575   4.062   0.325  10.109  0.0931  0.7223  0.2457
  235MPD1    H6 3576   4.006   0.407  10.086 -0.1001  0.6426  0.4217
  235MPD1    H7 3577   4.143   0.340  10.169  0.5597 -1.0362  0.0534
  236MPD1     C 3578   1.902   0.274   9.316  0.1640  0.3522 -0.5902
  236MPD1    C1 3579   1.905   0.349   9.433 -0.2560  0.1759  0.7501
  236MPD1    C2 3580   2.017   0.342   9.513  0.5136  0.5151  0.2460
  236MPD1    C3 3581   2.121   0.259   9.477 -0.0273  0.2686  0.3104
  236MPD1    C4 3582   2.113   0.191   9.360 -0.1597  0.8267  0.1803
  236MPD1    C5 3583   2.011   0.199   9.277  0.2224  0.3030 -0.1694
  236MPD1     H 3584   2.032   0.407   9.599  0.2963 -2.3723  2.4808
  236MPD1    H1 3585   2.194   0.123   9.336 -1.2652 -0.8875  1.2690
  236MPD1    H2 3586   1.820   0.277   9.245  0.0047  0.3426 -0.4065
  236MPD1    H3 3587   2.019   0.151   9.180 -1.0817 -0.1799 -0.0379
  236MPD1     N 3588   2.233   0.232   9.556 -0.2087 -0.2565  0.7826
  236MPD1    H5 3589   2.304   0.177   9.509  0.0805  1.0778 -0.3286
  236MPD1    N1 3590   1.806   0.442   9.468 -0.5220 -0.5444 -0.5606
  236MPD1    H6 3591   1.719   0.396   9.442 -2.3448  2.2539  0.5555
  236MPD1    H7 3592   1.809   0.462   9.568  0.3333  0.0301 -0.6997
  237MPD1     C 3593   2.445   3.087  15.390 -0.4737 -0.3143  0.5403
  237MPD1    C1 3594   2.366   3.193  15.359 -0.4177  0.5792 -0.5048
  237MPD1    C2 3595   2.235   3.163  15.330  0.2791 -0.2467  0.5895
  237MPD1    C3 3596   2.193   3.031  15.309 -0.3541 -0.4522 -0.7874
  237MPD1    C4 3597   2.273   2.927  15.343  0.0120  0.0822 -0.0488
  237MPD1    C5 3598   2.401   2.958  15.372  0.1421 -0.5287  0.1242
  237MPD1     H 3599   2.169   3.248  15.317 -1.5493 -1.7577 -0.1436
  237MPD1    H1 3600   2.237   2.825  15.347 -1.8736  0.7225 -0.7625
  237MPD1    H2 3601   2.544   3.111  15.427 -0.3882 -2.0285  1.4391
  237MPD1    H3 3602   2.451   2.869  15.409 -1.1742 -2.0003 -1.5874
  237MPD1     N 3603   2.058   3.008  15.280 -0.4703 -0.1185  0.1976
  237MPD1    H5 3604   2.036   2.912  15.302  0.8884 -1.1589 -2.8730
  237MPD1    N1 3605   2.417   3.319  15.373 -0.2550  0.2366 -0.3677
  237MPD1    H6 3606   2.347   3.388  15.400  0.7929  0.7441  1.0793
  237MPD1    H7 3607   2.492   3.321  15.441  1.0194 -0.4519 -1.7708
  238MPD1     C 3608   3.303   2.447  15.309 -0.4368  0.0322  0.2090
  238MPD1    C1 3609   3.232   2.364  15.393  0.2830  0.1766  0.2813
  238MPD1    C2 3610   3.183   2.240  15.336 -0.1680 -0.2316 -0.3392
  238MPD1    C3 3611   3.206   2.205  15.200  0.1259 -0.1854 -0.5944
  238MPD1    C4 3612   3.272   2.294  15.119  0.2615 -0.3846 -0.5691
  238MPD1    C5 3613   3.315   2.411  15.175 -0.0005 -0.8821  0.9183
  238MPD1     H 3614   3.147   2.172  15.412  0.2157  0.3664  0.3762
  238MPD1    H1 3615   3.291   2.272  15.015 -1.1829  2.3093 -1.4102
  238MPD1    H2 3616   3.348   2.542  15.334  1.3580 -1.3434  2.1905
  238MPD1    H3 3617   3.364   2.476  15.104  0.0144 -1.3946  0.4576
  238MPD1     N 3618   3.159   2.086  15.138 -0.1247 -0.1289  0.2678
  238MPD1    H5 3619   3.186   2.063  15.043  1.1956  1.1167  0.3414
  238MPD1    N1 3620   3.237   2.384  15.532  0.0783 -0.0908  0.8040
  238MPD1    H6 3621   3.155   2.347  15.579  0.0430 -0.6887  0.2717
  238MPD1    H7 3622   3.258   2.481  15.557  0.1106 -0.3481  1.7698
  239MPD1     C 3623   4.442   2.404  14.865 -0.1122 -0.0875  0.6521
  239MPD1    C1 3624   4.319   2.358  14.850  0.2650  0.7004 -0.2540
  239MPD1    C2 3625   4.234   2.435  14.776 -0.6202  0.2764  0.8749
  239MPD1    C3 3626   4.282   2.540  14.693  0.4396  0.6814 -0.1324
  239MPD1    C4 3627   4.412   2.570  14.693  0.0180 -0.0938  0.0346
  239MPD1    C5 3628   4.488   2.503  14.786 -0.2923  0.1757  0.3083
  239MPD1     H 3629   4.131   2.404  14.760  0.0860 -2.0566  0.8551
  239MPD1    H1 3630   4.450   2.651  14.630  0.0790 -1.2045 -1.3609
  239MPD1    H2 3631   4.515   2.351  14.926 -1.4259 -3.1947 -0.4867
  239MPD1    H3 3632   4.592   2.524  14.812 -0.2960  2.6525 -1.6622
  239MPD1     N 3633   4.205   2.628  14.612 -0.1639  0.2374 -0.2974
  239MPD1    H5 3634   4.254   2.703  14.566 -0.2238 -0.6035 -1.7346
  239MPD1    N1 3635   4.280   2.253  14.933 -0.6182 -0.7594 -0.0652
  239MPD1    H6 3636   4.192   2.214  14.899 -2.0100  1.7467  0.6473
  239MPD1    H7 3637   4.352   2.183  14.951  0.7873  1.5714  3.3993
  240MPD1     C 3638   3.293   2.897  14.208 -0.5381  0.0134 -0.5258
  240MPD1    C1 3639   3.169   2.846  14.168  0.4589 -0.0698  0.8946
  240MPD1    C2 3640   3.122   2.748  14.257  0.2974 -0.1696  0.1454
  240MPD1    C3 3641   3.211   2.680  14.340 -0.2740 -0.2021  0.0517
  240MPD1    C4 3642   3.341   2.723  14.356  0.2135 -0.2199  0.0249
  240MPD1    C5 3643   3.376   2.835  14.287  0.9142 -0.2505  0.2319
  240MPD1     H 3644   3.020   2.712  14.245  0.1170  0.3781  0.0348
  240MPD1    H1 3645   3.417   2.671  14.415 -0.2221 -0.3087  0.5056
  240MPD1    H2 3646   3.334   2.988  14.165  1.7670 -0.1687  1.2976
  240MPD1    H3 3647   3.471   2.881  14.315  1.5941 -1.7693  0.4328
  240MPD1     N 3648   3.160   2.568  14.423  0.2194  0.5428  0.4250
  240MPD1    H5 3649   3.060   2.554  14.422  0.3503 -0.3034 -0.5621
  240MPD1    N1 3650   3.083   2.910  14.083  0.3559  0.2167 -0.3882
  240MPD1    H6 3651   3.141   2.972  14.027  0.2751 -1.9064 -2.7818
  240MPD1    H7 3652   3.022   2.853  14.025 -0.1127  1.3163 -0.9693
  241MPD1     C 3653   3.828   1.879  14.729 -0.3341 -0.0932  0.3881
  241MPD1    C1 3654   3.793   1.999  14.788 -0.1397 -0.1119  0.2267
  241MPD1    C2 3655   3.666   2.052  14.764 -0.2370  0.0489  0.5489
  241MPD1    C3 3656   3.576   1.982  14.692  0.4909 -0.7134 -0.1397
  241MPD1    C4 3657   3.610   1.858  14.638  0.7664  0.0176 -0.9297
  241MPD1    C5 3658   3.734   1.804  14.658  0.4470 -0.3278  0.4323
  241MPD1     H 3659   3.638   2.145  14.813 -0.2543  0.6776 -0.6365
  241MPD1    H1 3660   3.531   1.798  14.595 -0.9297  1.7962 -0.3023
  241MPD1    H2 3661   3.919   1.825  14.749 -0.0159 -0.3695 -1.7783
  241MPD1    H3 3662   3.765   1.704  14.628  2.3723  0.7092 -1.0476
  241MPD1     N 3663   3.448   2.027  14.647 -0.1449 -0.0339 -0.2963
  241MPD1    H5 3664   3.407   1.977  14.568 -1.9370 -0.3515  0.8273
  241MPD1    N1 3665   3.870   2.063  14.887 -0.8754  0.3954  0.3540
  241MPD1    H6 3666   3.972   2.061  14.883 -0.8603  3.4648 -0.8402
  241MPD1    H7 3667   3.853   2.162  14.900  1.1560  0.3446  3.5768
  242MPD1     C 3668   2.793   0.718  16.119 -0.0893  0.1804  0.1194
  242MPD1    C1 3669   2.719   0.697  16.002 -0.1356 -0.2793  0.2321
  242MPD1    C2 3670   2.776   0.701  15.879 -0.0183  0.0260  0.4716
  242MPD1    C3 3671   2.913   0.689  15.873  0.8502 -0.4279 -0.0278
  242MPD1    C4 3672   2.994   0.698  15.985 -0.7607 -0.4415  0.1856
  242MPD1    C5 3673   2.935   0.723  16.110  0.2515 -0.2430 -0.1472
  242MPD1     H 3674   2.712   0.709  15.791  2.0449 -1.6582 -1.1827
  242MPD1    H1 3675   3.102   0.704  15.984 -0.8188  0.9440  2.1608
  242MPD1    H2 3676   2.744   0.731  16.215 -1.8170 -2.7262 -0.3938
  242MPD1    H3 3677   2.992   0.734  16.201 -0.5483 -0.6018  0.4043
  242MPD1     N 3678   2.989   0.686  15.754 -0.6255  0.0546  0.9598
  242MPD1    H5 3679   3.090   0.682  15.759 -0.4302  0.1624 -2.7441
  242MPD1    N1 3680   2.581   0.711  16.002 -0.6330  0.3787 -0.4762
  242MPD1    H6 3681   2.551   0.650  15.927  1.1718 -2.5370  1.1299
  242MPD1    H7 3682   2.531   0.671  16.081  1.8938 -1.5813  0.1492
  243MPD1     C 3683   0.853   4.577  17.656 -0.2927  0.6094 -1.0554
  243MPD1    C1 3684   0.830   4.603  17.524  0.7889 -0.1580 -0.6322
  243MPD1    C2 3685   0.718   4.540  17.466  0.4052  0.5245 -0.1753
  243MPD1    C3 3686   0.647   4.443  17.537 -0.1506 -0.8792  0.2028
  243MPD1    C4 3687   0.686   4.405  17.666 -0.2386  0.1467 -1.0557
  243MPD1    C5 3688   0.787   4.470   0.023 -0.0590  0.5645 -0.5743
  243MPD1     H 3689   0.693   4.573  17.366  1.8330  0.1367 -0.6600
  243MPD1    H1 3690   0.634   4.328   0.020  0.0390  1.7137  1.3216
  243MPD1    H2 3691   0.926   4.628   0.015 -1.1079  1.0530 -0.4439
  243MPD1    H3 3692   0.816   4.442   0.123 -5.6023 -2.2143  0.2389
  243MPD1     N 3693   0.536   4.381  17.464  0.7854 -0.4833 -0.2503
  243MPD1    H5 3694   0.525   4.403  17.366  0.1553  1.8071  0.3525
  243MPD1    N1 3695   0.901   4.715  17.471 -0.1837  0.2579  0.5539
  243MPD1    H6 3696   0.999   4.720  17.500  0.1341 -0.1601 -0.4411
  243MPD1    H7 3697   0.892   4.722  17.370 -0.7379  0.4302  0.6148
  244MPD1     C 3698   4.336   4.169  17.656  0.4247  0.6400  0.1638
  244MPD1    C1 3699   4.420   4.088   0.025 -0.4229  0.4684  1.3710
  244MPD1    C2 3700   4.542   4.049  17.664  0.4124  0.3392  0.1369
  244MPD1    C3 3701   4.577   4.109  17.547  0.3713 -0.6500  0.0605
  244MPD1    C4 3702   4.492   4.195  17.483  0.2237 -0.2429 -0.4579
  244MPD1    C5 3703   4.369   4.230  17.534 -0.5962 -0.8788  0.1095
  244MPD1     H 3704   4.619   3.992   0.013 -0.4246 -0.5788  0.3673
  244MPD1    H1 3705   4.516   4.249  17.392  0.2177  1.9986  0.8796
  244MPD1    H2 3706   4.243   4.207  17.696  0.2213  0.0734  0.2285
  244MPD1    H3 3707   4.311   4.307  17.484 -1.3043 -1.4684  0.0136
  244MPD1     N 3708   4.708   4.084  17.496 -0.0176  0.1238 -0.1190
  244MPD1    H5 3709   0.052   4.026  17.543 -2.3200 -0.7134  2.1866
  244MPD1    N1 3710   4.383   4.026   0.146 -0.0747 -0.6788  0.1379
  244MPD1    H6 3711   4.313   4.079   0.198  0.0917 -1.4876  1.1790
  244MPD1    H7 3712   4.458   4.007   0.211 -0.8727 -1.9162  0.6773
  245MPD1     C 3713   2.100   4.147  13.059  0.1407  0.0099  0.1111
  245MPD1    C1 3714   2.010   4.246  13.016 -1.0139 -0.0434  0.2404
  245MPD1    C2 3715   2.013   4.369  13.073 -0.6409  1.0135 -0.0466
  245MPD1    C3 3716   2.125   4.411  13.153  0.3367  0.4211  0.1399
  245MPD1    C4 3717   2.220   4.312  13.186  0.7319  0.6220 -0.2594
  245MPD1    C5 3718   2.197   4.181  13.144 -0.3415  0.7791  0.2026
  245MPD1     H 3719   1.933   4.441  13.058 -1.7218 -0.1048  0.3105
  245MPD1    H1 3720   2.308   4.335  13.246  3.2075 -1.9454 -2.9495
  245MPD1    H2 3721   2.076   4.043  13.047  1.8339 -0.4891  1.0245
  245MPD1    H3 3722   2.275   4.110  13.171  0.1495  1.6017  0.9388
  245MPD1     N 3723   2.124   4.543  13.204  0.1944  0.2497  0.2445
  245MPD1    H5 3724   2.038   4.597  13.204 -0.2041 -0.3802  1.3835
  245MPD1    N1 3725   1.899   4.207  12.943  0.3150 -0.1084 -0.3671
  245MPD1    H6 3726   1.871   4.280  12.878  2.9618 -0.5211 -1.9752
  245MPD1    H7 3727   1.924   4.128  12.883  0.7014  0.8423 -1.4591
  246MPD1     C 3728   3.591   1.961  10.005 -0.1219 -0.0445 -0.4850
  246MPD1    C1 3729   3.487   1.966  10.095  0.0412 -0.8368 -0.8260
  246MPD1    C2 3730   3.371   1.893  10.056 -0.6768 -0.5063  0.3431
  246MPD1    C3 3731   3.375   1.800   9.951 -0.4430  0.2077  0.1208
  246MPD1    C4 3732   3.494   1.795   9.877  0.7840 -0.0916  0.2250
  246MPD1    C5 3733   3.601   1.880   9.896 -0.0631  0.0325  0.6110
  246MPD1     H 3734   3.283   1.912  10.117 -1.1590  0.1379 -0.5601
  246MPD1    H1 3735   3.491   1.737   9.785  3.3142  0.6225 -0.3308
  246MPD1    H2 3736   3.673   2.032  10.008  0.2299 -0.4712  0.1326
  246MPD1    H3 3737   3.672   1.894   9.815 -1.4192 -0.1265 -0.6107
  246MPD1     N 3738   3.259   1.729   9.914 -0.3195 -0.4341 -0.3123
  246MPD1    H5 3739   3.172   1.739   9.966 -0.6500 -0.5760 -0.8362
  246MPD1    N1 3740   3.484   2.055  10.206  0.3116  0.8624  0.0766
  246MPD1    H6 3741   3.431   2.004  10.277  3.6042 -1.7727  0.6108
  246MPD1    H7 3742   3.577   2.078  10.241  0.5763  0.5788 -0.4502
  247MPD1     C 3743   0.382   4.112  16.050  0.3912  0.6279 -0.1405
  247MPD1    C1 3744   0.470   4.113  15.945 -0.2497  0.3105  0.5914
  247MPD1    C2 3745   0.604   4.099  15.955  0.6457 -0.7113  0.0248
  247MPD1    C3 3746   0.662   4.099  16.078 -0.3461  0.2192 -0.3028
  247MPD1    C4 3747   0.578   4.092  16.186  0.0691  0.2261 -0.1643
  247MPD1    C5 3748   0.439   4.106  16.174 -0.1386  0.3786  0.0013
  247MPD1     H 3749   0.666   4.091  15.866 -1.2485 -0.0941 -1.3507
  247MPD1    H1 3750   0.612   4.083  16.289 -1.1426 -0.3226  0.1889
  247MPD1    H2 3751   0.275   4.127  16.036  0.0100 -3.7323 -1.9619
  247MPD1    H3 3752   0.374   4.125  16.259  0.3016 -0.6879  0.5745
  247MPD1     N 3753   0.802   4.102  16.094  0.3407  0.8657  0.1960
  247MPD1    H5 3754   0.841   4.131  16.183  0.2042 -0.6466  0.7535
  247MPD1    N1 3755   0.411   4.110  15.817 -0.6894 -0.3022 -0.0629
  247MPD1    H6 3756   0.321   4.154  15.803 -1.0378 -1.3709 -1.1619
  247MPD1    H7 3757   0.475   4.134  15.741 -0.5692 -0.2261  0.0625
  248MPD1     C 3758   1.434   3.919  16.826  0.5990 -0.1327  0.4412
  248MPD1    C1 3759   1.383   3.852  16.932  0.1242 -0.2903 -0.0086
  248MPD1    C2 3760   1.394   3.912  17.059  0.1160 -0.1153 -0.0404
  248MPD1    C3 3761   1.428   4.044  17.069 -0.6564  0.5751 -0.5110
  248MPD1    C4 3762   1.465   4.112  16.956  0.1746  0.1449  0.0183
  248MPD1    C5 3763   1.466   4.049  16.838 -0.5021 -0.4752  0.1603
  248MPD1     H 3764   1.371   3.860  17.152 -0.9222 -1.4444 -1.0485
  248MPD1    H1 3765   1.494   4.217  16.963  0.8074  0.0318 -1.0560
  248MPD1    H2 3766   1.455   3.887  16.725  1.5658 -1.0281  0.9249
  248MPD1    H3 3767   1.505   4.107  16.755  0.2481  1.4870  1.8984
  248MPD1     N 3768   1.425   4.108  17.193  0.1058  0.3347  0.4032
  248MPD1    H5 3769   1.427   4.047  17.275 -1.4177  0.8178  0.7956
  248MPD1    N1 3770   1.371   3.711  16.921  0.0504  0.4579 -0.4100
  248MPD1    H6 3771   1.305   3.664  16.982 -1.2016  1.7078 -0.8090
  248MPD1    H7 3772   1.341   3.684  16.827 -1.3018 -1.8797  0.7026
  249MPD1     C 3773   1.978   2.606  10.588 -0.2533 -0.2651  0.5523
  249MPD1    C1 3774   2.070   2.559  10.680  0.1118 -0.0271  0.3790
  249MPD1    C2 3775   2.202   2.578  10.662 -0.8983 -0.5033  0.2802
  249MPD1    C3 3776   2.254   2.652  10.559 -0.2024 -0.5824  0.3185
  249MPD1    C4 3777   2.162   2.703  10.471  0.4906  0.3139  0.2128
  249MPD1    C5 3778   2.028   2.688  10.494  0.3712  0.8392 -0.4019
  249MPD1     H 3779   2.270   2.541  10.738 -0.7660 -1.3767 -0.2538
  249MPD1    H1 3780   2.185   2.765  10.385 -0.7092  0.6404  0.1293
  249MPD1    H2 3781   1.870   2.596  10.601 -0.4004  0.5332 -0.0772
  249MPD1    H3 3782   1.963   2.757  10.442  0.1625  0.2347 -0.9421
  249MPD1     N 3783   2.393   2.673  10.546  0.1250  0.4029 -0.3039
  249MPD1    H5 3784   2.449   2.620  10.612 -1.2347 -3.2427 -2.0703
  249MPD1    N1 3785   2.032   2.463  10.769  0.4233 -0.5983  0.0224
  249MPD1    H6 3786   1.941   2.466  10.814  1.4331  2.5562  1.8291
  249MPD1    H7 3787   2.092   2.459  10.851 -0.4194 -0.6303  0.6235
  250MPD2     C 3788   4.614   3.220  13.316  0.4839 -0.3381 -0.3665
  250MPD2    C1 3789   4.651   3.288  13.200  0.4537  0.0243 -0.0501
  250MPD2    C2 3790   4.571   3.275  13.086 -0.3658  0.2766  0.1731
  250MPD2    C3 3791   4.452   3.195  13.096 -0.1105  0.0320 -0.3903
  250MPD2    C4 3792   4.419   3.123  13.205 -0.3307 -1.1417 -0.1074
  250MPD2    C5 3793   4.503   3.137  13.310  0.7777 -0.9264 -0.3760
  250MPD2     H 3794   4.603   3.319  12.993 -3.3009  2.7660  0.3512
  250MPD2    H1 3795   4.330   3.063  13.221 -1.3908  0.4525 -0.0102
  250MPD2    H2 3796   4.665   3.227  13.411 -2.2510 -0.9039  1.1530
  250MPD2    H3 3797   4.471   3.090  13.402 -2.4620  0.8998 -0.5814
  250MPD2     N 3798   4.373   3.170  12.981  0.0418  0.5558 -0.3393
  250MPD2    H5 3799   4.329   3.078  12.973 -1.7559  1.3040  0.9086
  250MPD2    N1 3800   0.056   3.337  13.199 -0.7030 -0.6105  0.4551
  250MPD2    H7 3801   0.100   3.347  13.290  0.7800  0.6843 -0.4109
  251TMC3    C1 3802   0.232   3.477  13.124  0.0939  0.3452  0.1210
  251TMC3    C2 3803   0.208   3.593  13.194 -0.0099  0.7228  0.5616
  251TMC3    C3 3804   0.249   3.718  13.150  0.3296 -0.3398  0.2390
  251TMC3    C4 3805   0.311   3.491  13.012  0.0190 -0.1871 -0.2890
  251TMC3    C5 3806   0.359   3.616  12.974  0.3363  0.3020 -0.3176
  251TMC3    C6 3807   0.327   3.727  13.045 -0.2345 -0.1611 -0.2888
  251TMC3     C 3808   0.121   3.391  13.089 -0.2024 -0.3584  0.6752
  251TMC3     O 3809   0.103   3.372  12.972 -0.2836 -0.2457 -0.4406
  251TMC3     H 3810   0.128   3.591  13.268 -0.4977 -0.2924  0.0017
  251TMC3    H1 3811   0.331   3.405  12.950  0.4515  0.7217 -1.4046
  251TMC3    H2 3812   0.374   3.824  13.030  1.4086 -0.9536 -0.3022
  251TMC3    C7 3813   0.442   3.619  12.856 -0.2471  0.2504  0.4663
  251TMC3    C8 3814   0.180   3.824  13.206  0.2295  0.3242  0.0225
  251TMC3    O1 3815   0.507   3.523  12.825  0.2984 -0.0597  0.4286
  251TMC3    O2 3816   0.157   3.831  13.330 -0.5927  0.7829  0.2376
  252TMC3    C1 3817   0.129   4.524   8.930 -0.4672  0.4486 -0.1995
  252TMC3    C2 3818   0.200   4.642   8.953 -0.0556  0.7026  0.0916
  252TMC3    C3 3819   0.283   4.645   9.061 -0.4967  0.4174  0.7181
  252TMC3    C4 3820   0.142   4.424   9.020 -0.1063 -0.0261 -0.1520
  252TMC3    C5 3821   0.210   4.439   9.139 -1.0374 -0.1951  0.7170
  252TMC3    C6 3822   0.288   4.553   9.154 -0.4440  0.3593  0.2619
  252TMC3     C 3823   0.049   4.512   8.812 -0.6435  0.0864 -0.1424
  252TMC3     O 3824   0.011   4.610   8.753 -0.1944 -0.1147 -0.0461
  252TMC3     H 3825   0.196   4.723   8.882 -0.9750  0.8770  0.3470
  252TMC3    H1 3826   0.075   4.340   9.006 -1.0230  0.3083  2.1964
  252TMC3    H2 3827   0.363   4.554   9.232 -0.0208  1.4168 -0.1576
  252TMC3    C7 3828   0.219   4.334   9.233 -0.6483  0.4132  0.2153
  252TMC3    C8 3829   0.367   0.037   9.074 -0.4191  0.2529  0.6597
  252TMC3    O1 3830   0.186   4.224   9.189 -0.9386  0.0693 -0.9870
  252TMC3    O2 3831   0.340   0.119   8.986 -0.0236  0.4700 -0.3987
  253MPD2     C 3832   1.796   3.211  15.692 -0.6882 -0.0052  0.3363
  253MPD2    C1 3833   1.663   3.178  15.700  0.3187  0.5714 -0.8570
  253MPD2    C2 3834   1.617   3.135  15.822 -0.0550 -0.0312  1.0364
  253MPD2    C3 3835   1.708   3.107  15.924  0.6073  0.1296  0.0453
  253MPD2    C4 3836   1.846   3.113  15.908  0.7187 -0.3432  0.3413
  253MPD2    C5 3837   1.892   3.173  15.791 -0.4998  0.1378  0.3867
  253MPD2     H 3838   1.510   3.126  15.839  0.1316 -2.8727  0.7483
  253MPD2    H1 3839   1.906   3.094  15.996  0.0248  2.3410  1.3966
  253MPD2    H2 3840   1.851   3.247  15.606 -1.5745  2.8333  0.9473
  253MPD2    H3 3841   1.998   3.195  15.781 -0.2483 -1.5862 -0.8182
  253MPD2     N 3842   1.661   3.058  16.050 -0.5796 -0.2350  0.0427
  253MPD2    H5 3843   1.736   3.041  16.117  1.9003  1.6342 -2.2653
  253MPD2    N1 3844   1.570   3.184  15.592 -0.4487 -0.1656 -0.6372
  253MPD2    H7 3845   1.475   3.155  15.613 -1.0211 -0.5920 -3.7925
  254TMC3    C1 3846   1.516   2.947  16.205 -0.5388  0.2208  0.3552
  254TMC3    C2 3847   1.390   2.913  16.244 -0.3167  1.0728 -0.5101
  254TMC3    C3 3848   1.360   2.841  16.356  0.3298  0.1788  0.9486
  254TMC3    C4 3849   1.620   2.905  16.289  0.2311  0.4475  0.5649
  254TMC3    C5 3850   1.592   2.854  16.412  0.2163 -0.1858  0.1019
  254TMC3    C6 3851   1.460   2.817  16.445 -0.3923  0.3071 -0.6579
  254TMC3     C 3852   1.528   3.031  16.087 -0.3266 -0.6275  0.0684
  254TMC3     O 3853   1.424   3.037  16.021  0.3398 -0.0322 -0.4392
  254TMC3     H 3854   1.308   2.936  16.177  0.1244  0.8682 -1.1282
  254TMC3    H1 3855   1.722   2.921  16.253  0.4563 -1.7703  0.2125
  254TMC3    H2 3856   1.436   2.761  16.534  0.5337 -0.2236 -0.7378
  254TMC3    C7 3857   1.693   2.825  16.514 -0.0656  0.2527  1.0925
  254TMC3    C8 3858   1.239   2.891  16.427  0.3177 -0.5854 -0.4291
  254TMC3    O1 3859   1.657   2.744  16.599  0.5374  0.0045  0.4980
  254TMC3    O2 3860   1.238   2.905  16.549  0.4968 -0.1658 -0.8715
  255MPD2     C 3861   4.695   1.451   9.972 -0.2858 -0.0567  0.2885
  255MPD2    C1 3862   0.100   1.453   9.999 -0.0796  0.2396  0.0695
  255MPD2    C2 3863   0.181   1.365   9.933  0.5217  0.2139 -0.7639
  255MPD2    C3 3864   0.132   1.272   9.847  0.7519  0.2406 -0.3775
  255MPD2    C4 3865   4.723   1.270   9.822  0.3918 -0.0297 -0.1471
  255MPD2    C5 3866   4.640   1.362   9.885  0.4413 -0.1499  0.2390
  255MPD2     H 3867   0.287   1.376   9.952  0.6642  0.8538 -1.8692
  255MPD2    H1 3868   4.686   1.192   9.756  0.4041 -0.6620  0.6040
  255MPD2    H2 3869   4.627   1.525  10.012  1.0005  1.7049 -0.7983
  255MPD2    H3 3870   4.534   1.366   9.860  0.5700  0.5784 -0.2022
  255MPD2     N 3871   0.213   1.174   9.788  0.0945 -0.2340 -0.1752
  255MPD2    H5 3872   0.303   1.155   9.830  1.2400  1.3606 -1.8886
  255MPD2    N1 3873   0.156   1.542  10.089  0.4410  0.5867  0.1668
  255MPD2    H7 3874   0.089   1.611  10.123 -0.4224 -0.2387  0.1608
  256TMC3    C1 3875   0.284   1.685  10.202  0.5005  0.5597 -0.4144
  256TMC3    C2 3876   0.356   1.789  10.139  0.1478  0.3668  0.4818
  256TMC3    C3 3877   0.288   1.904  10.124  0.2156 -0.3826 -0.7313
  256TMC3    C4 3878   0.166   1.715  10.267  0.5996 -0.0992 -0.0529
  256TMC3    C5 3879   0.102   1.833  10.242  0.4747 -0.3044  0.0334
  256TMC3    C6 3880   0.165   1.932  10.174  0.0796 -0.3497  0.0921
  256TMC3     C 3881   0.281   1.564  10.123  0.2569  0.1186  0.0070
  256TMC3     O 3882   0.390   1.521  10.095  0.5750  0.5484  0.5995
  256TMC3     H 3883   0.459   1.785  10.103 -0.0507 -0.4547  0.0078
  256TMC3    H1 3884   0.112   1.649  10.334  0.3976  1.4559  1.3361
  256TMC3    H2 3885   0.126   2.031  10.156 -1.4828 -1.4852 -2.8612
  256TMC3    C7 3886   4.687   1.811  10.220  0.0308  0.6764 -0.6228
  256TMC3    C8 3887   0.342   2.005  10.033 -0.6815 -0.3354  0.0261
  256TMC3    O1 3888   4.659   1.693  10.199 -0.4559 -0.1327 -0.2850
  256TMC3    O2 3889   0.443   2.061  10.064 -0.4068 -0.3000  0.2177
  257MPD2     C 3890   3.680   3.673  13.440  0.6917  0.4897  0.4015
  257MPD2    C1 3891   3.655   3.599  13.330 -0.2167 -0.4616 -0.0767
  257MPD2    C2 3892   3.649   3.460  13.348  0.3506 -0.2350  0.6560
  257MPD2    C3 3893   3.677   3.406  13.471 -0.4433 -0.1982 -0.7616
  257MPD2    C4 3894   3.699   3.484  13.582 -0.7972  0.6533 -0.1573
  257MPD2    C5 3895   3.710   3.617  13.564  0.2314 -0.6297  0.1386
  257MPD2     H 3896   3.619   3.399  13.264 -0.2298 -1.5324  1.8171
  257MPD2    H1 3897   3.733   3.442  13.676  1.1130 -0.0011 -1.1566
  257MPD2    H2 3898   3.675   3.781  13.430 -1.3693  0.5848  2.4855
  257MPD2    H3 3899   3.739   3.678  13.649 -2.4522 -3.3142  2.9671
  257MPD2     N 3900   3.672   3.264  13.475 -0.4977 -0.2133 -0.6782
  257MPD2    H5 3901   3.650   3.219  13.387  3.4008 -0.0577 -1.7138
  257MPD2    N1 3902   3.642   3.668  13.204  0.6603 -0.2866  0.3019
  257MPD2    H7 3903   3.664   3.767  13.206 -0.2287 -0.0543 -1.1257
  258TMC3    C1 3904   3.678   3.047  13.582 -0.0210  0.1144  0.8658
  258TMC3    C2 3905   3.554   3.023  13.546  0.5532  0.9642 -1.0454
  258TMC3    C3 3906   3.492   2.916  13.601 -0.7756 -0.0408  0.3228
  258TMC3    C4 3907   3.751   2.978  13.678 -0.2798 -0.3215  0.4368
  258TMC3    C5 3908   3.680   2.880  13.739 -0.0135  0.2753  0.1838
  258TMC3    C6 3909   3.551   2.840  13.701 -0.2969  0.7696 -0.3552
  258TMC3     C 3910   3.726   3.182  13.572  0.0539 -0.2313  0.0187
  258TMC3     O 3911   3.810   3.221  13.657 -0.0380  0.6950  0.2000
  258TMC3     H 3912   3.502   3.078  13.468 -1.4840 -0.4238 -0.6684
  258TMC3    H1 3913   3.852   3.001  13.709  0.3192 -0.3842 -1.4677
  258TMC3    H2 3914   3.513   2.746  13.739  1.4552  0.1620 -0.1150
  258TMC3    C7 3915   3.753   2.807  13.834 -0.7170 -0.2739 -0.3062
  258TMC3    C8 3916   3.373   2.865  13.527 -0.9272  0.0567 -0.4050
  258TMC3    O1 3917   3.868   2.765  13.813 -0.1813 -0.2603  0.7066
  258TMC3    O2 3918   3.349   2.930  13.425 -0.1242  0.2902  0.2867
  259MPD2     C 3919   2.938   3.511   0.970  0.0918  1.2434 -0.3247
  259MPD2    C1 3920   2.979   3.477   1.097  1.1270 -0.1422 -0.0643
  259MPD2    C2 3921   3.101   3.410   1.107  0.5150 -1.0170  0.1361
  259MPD2    C3 3922   3.170   3.373   0.997 -0.5948 -1.0173 -0.7746
  259MPD2    C4 3923   3.131   3.407   0.872 -0.6159 -0.1754  0.2924
  259MPD2    C5 3924   3.017   3.491   0.860  0.5279  0.0429 -0.1657
  259MPD2     H 3925   3.148   3.407   1.204  2.9671  0.9787 -0.9668
  259MPD2    H1 3926   3.179   3.379   0.779  1.1893  1.1055  0.8245
  259MPD2    H2 3927   2.848   3.566   0.946 -0.1527  0.3713 -1.4174
  259MPD2    H3 3928   2.986   3.516   0.759 -0.2889  3.1291  0.8636
  259MPD2     N 3929   3.295   3.304   1.017 -0.3280  0.5232  0.7566
  259MPD2    H5 3930   3.303   3.259   1.107  0.2757  1.4103  1.1498
  259MPD2    N1 3931   2.898   3.512   1.206 -0.2959 -0.3096  0.4968
  259MPD2    H7 3932   2.821   3.576   1.188 -0.0074  0.2158  1.1036
  260TMC3    C1 3933   3.510   3.226   0.966 -0.3723 -0.0050  0.3396
  260TMC3    C2 3934   3.603   3.220   0.863  0.0123 -0.2511  0.5251
  260TMC3    C3 3935   3.713   3.140   0.881  0.3155  0.7711 -0.7081
  260TMC3    C4 3936   3.517   3.144   1.078  0.0976 -0.8966  0.5792
  260TMC3    C5 3937   3.619   3.053   1.075  0.1477 -0.0651  0.6431
  260TMC3    C6 3938   3.727   3.054   0.984  0.5803  0.2784 -0.4638
  260TMC3     C 3939   3.397   3.302   0.921  0.3919 -0.9081  0.1636
  260TMC3     O 3940   3.406   3.361   0.815  0.1114 -0.3983 -0.8279
  260TMC3     H 3941   3.594   3.274   0.770 -1.0127 -0.3071  0.5868
  260TMC3    H1 3942   3.436   3.138   1.151 -1.9569  0.3865 -1.5990
  260TMC3    H2 3943   3.814   2.988   0.986  0.6270  0.4233  2.0820
  260TMC3    C7 3944   3.602   2.933   1.153  0.4672  0.1981  0.4338
  260TMC3    C8 3945   3.819   3.124   0.782  0.0520  0.3698 -0.2529
  260TMC3    O1 3946   3.707   2.898   1.204 -0.1761  0.0802 -0.3219
  260TMC3    O2 3947   3.934   3.158   0.812  0.4282  0.3118  0.8175
  261MPD2     C 3948   4.009   3.400  12.268  0.2918 -0.5663 -0.2081
  261MPD2    C1 3949   4.086   3.457  12.368 -0.5312  0.8071  0.5121
  261MPD2    C2 3950   4.050   3.585  12.411 -0.3214 -0.1835 -0.1616
  261MPD2    C3 3951   3.953   3.661  12.353  0.0160  0.7331 -0.4941
  261MPD2    C4 3952   3.892   3.610  12.236  0.5913 -0.3302 -0.4097
  261MPD2    C5 3953   3.918   3.482  12.205 -0.5018  0.1178 -0.8565
  261MPD2     H 3954   4.101   3.636  12.492 -0.5164  1.3427 -0.9969
  261MPD2    H1 3955   3.824   3.675  12.183  1.3566 -2.0752 -3.5378
  261MPD2    H2 3956   4.021   3.298  12.233 -0.8830 -1.1184  0.9862
  261MPD2    H3 3957   3.863   3.441  12.121 -0.5589 -0.4061 -0.5615
  261MPD2     N 3958   3.927   3.784  12.409  0.4541  0.3629  0.1857
  261MPD2    H5 3959   3.972   3.796  12.500  2.3306 -0.6111 -0.6275
  261MPD2    N1 3960   4.189   3.396  12.439  0.1544  0.3876 -0.1303
  261MPD2    H7 3961   4.223   3.439  12.525  1.9727 -1.7239  0.2182
  262TMC3    C1 3962   3.900   4.010  12.419  0.0086 -0.0862 -0.2132
  262TMC3    C2 3963   3.883   4.116  12.338  0.3790  0.0234  1.0069
  262TMC3    C3 3964   3.993   4.193  12.298 -0.9022 -0.2078  0.7586
  262TMC3    C4 3965   4.020   3.996  12.483 -0.1315  0.6518  0.4069
  262TMC3    C5 3966   4.128   4.073  12.451 -0.0902  0.2713 -0.4003
  262TMC3    C6 3967   4.115   4.165  12.354 -0.5417 -0.4963  0.4689
  262TMC3     C 3968   3.855   3.887  12.357 -0.4267 -0.7383 -0.3271
  262TMC3     O 3969   3.804   3.896  12.247 -0.1458  0.0176  0.4423
  262TMC3     H 3970   3.793   4.119  12.277 -0.5996 -1.3397  2.4135
  262TMC3    H1 3971   4.029   3.946  12.579  1.0231 -0.4564 -0.2865
  262TMC3    H2 3972   4.194   4.237  12.336 -1.6951  1.0246  1.5145
  262TMC3    C7 3973   4.258   4.042  12.507 -0.1213 -0.5024 -0.1876
  262TMC3    C8 3974   3.995   4.265  12.172 -0.1839 -0.6775 -0.5397
  262TMC3    O1 3975   4.265   3.975  12.608  0.2037  0.1269  0.3696
  262TMC3    O2 3976   4.102   4.292  12.119 -0.9556 -0.1962 -0.0056
  263MPD2     C 3977   0.538   2.635  11.598 -0.8044  0.2300 -0.5787
  263MPD2    C1 3978   0.618   2.621  11.485  0.3068  0.1629  0.1547
  263MPD2    C2 3979   0.600   2.689  11.369 -0.0932 -0.3872  0.4336
  263MPD2    C3 3980   0.490   2.781  11.359  0.1940 -1.1347  0.3893
  263MPD2    C4 3981   0.409   2.795  11.466  0.1677  1.5168 -0.0422
  263MPD2    C5 3982   0.435   2.720  11.571 -0.1319 -0.1135 -0.7243
  263MPD2     H 3983   0.672   2.672  11.290  0.6739 -3.2281  1.7311
  263MPD2    H1 3984   0.326   2.864  11.476  0.1634  1.7285 -1.6440
  263MPD2    H2 3985   0.545   2.585  11.693  0.5315 -1.0354 -1.3390
  263MPD2    H3 3986   0.370   2.729  11.657 -0.2019 -1.8087 -0.5894
  263MPD2     N 3987   0.477   2.864  11.242  0.0908 -0.3142  0.6012
  263MPD2    H5 3988   0.396   2.924  11.247  0.0214 -0.3445 -0.1039
  263MPD2    N1 3989   0.725   2.526  11.495  0.1629  0.2692 -0.1150
  263MPD2    H7 3990   0.739   2.479  11.583 -1.6912  1.1951  0.6596
  264TMC3    C1 3991   0.506   2.940  11.042 -0.0638  0.5156  0.3346
  264TMC3    C2 3992   0.455   3.062  11.079  0.9525 -0.4822  0.5267
  264TMC3    C3 3993   0.480   3.170  10.988 -0.4149 -0.3964 -0.4357
  264TMC3    C4 3994   0.564   2.916  10.923 -0.4254  0.1888  0.4017
  264TMC3    C5 3995   0.588   3.018  10.843 -0.5536 -0.7857  0.2766
  264TMC3    C6 3996   0.550   3.151  10.873 -0.1543  0.0344  0.1881
  264TMC3     C 3997   0.530   2.833  11.127 -0.0186 -0.4250  0.1152
  264TMC3     O 3998   0.603   2.739  11.089  0.0629 -0.0391 -0.4608
  264TMC3     H 3999   0.418   3.081  11.179 -2.3488  0.8188 -0.9456
  264TMC3    H1 4000   0.630   2.831  10.906 -0.5320  0.3922 -1.0634
  264TMC3    H2 4001   0.563   3.244  10.817  0.4553 -1.8308 -2.7791
  264TMC3    C7 4002   0.671   2.991  10.724  0.0382 -0.9318  0.6279
  264TMC3    C8 4003   0.538   3.282  11.063 -0.4775  0.1433  0.7653
  264TMC3    O1 4004   0.746   2.895  10.720  0.2574  0.1794 -0.2583
  264TMC3    O2 4005   0.655   3.302  11.045  0.2068 -0.3298  0.2919
  265MPD2     C 4006   2.516   2.615  15.615  0.7378 -0.1888  0.2038
  265MPD2    C1 4007   2.615   2.713  15.601 -0.0683  0.5138  0.4361
  265MPD2    C2 4008   2.709   2.699  15.501 -0.0319  0.5430  0.3940
  265MPD2    C3 4009   2.719   2.588  15.420  0.3740 -0.3973 -0.0481
  265MPD2    C4 4010   2.636   2.482  15.441  0.0572 -0.0506  0.1429
  265MPD2    C5 4011   2.528   2.504  15.532 -0.1505  0.3521  0.5929
  265MPD2     H 4012   2.767   2.789  15.483  0.2954  0.1243 -0.6554
  265MPD2    H1 4013   2.646   2.387  15.391  2.1378  1.3707 -2.1255
  265MPD2    H2 4014   2.429   2.624  15.680  0.3324 -0.1024 -0.3578
  265MPD2    H3 4015   2.459   2.423  15.557 -1.3507  1.3508  0.5251
  265MPD2     N 4016   2.818   2.554  15.323  0.1896 -0.1495  0.2614
  265MPD2    H5 4017   2.822   2.460  15.286  3.4882  0.1077 -0.0210
  265MPD2    N1 4018   2.611   2.839  15.676  0.0432  0.7454 -0.2058
  265MPD2    H7 4019   2.698   2.889  15.660  1.4803 -1.6903  0.0898
  266TMC3    C1 4020   2.533   3.023  15.807  0.4890 -1.0033  0.1339
  266TMC3    C2 4021   2.656   3.048  15.863 -0.4576 -0.2977  0.1398
  266TMC3    C3 4022   2.667   3.166  15.927  0.0068  0.5406  0.0276
  266TMC3    C4 4023   2.422   3.104  15.818 -0.2141  0.6278  0.2567
  266TMC3    C5 4024   2.446   3.231  15.863  0.4672 -0.0272  0.0675
  266TMC3    C6 4025   2.565   3.267  15.930  0.1873 -0.2513  0.0726
  266TMC3     C 4026   2.506   2.892  15.750  0.6044 -0.3151  0.0266
  266TMC3     O 4027   2.392   2.851  15.759  0.1148 -0.2074 -0.1175
  266TMC3     H 4028   2.744   2.984  15.853 -0.0183  0.5705 -1.5047
  266TMC3    H1 4029   2.340   3.089  15.749 -0.1657  0.3698  0.2529
  266TMC3    H2 4030   2.564   3.361  15.984 -0.0018 -0.7729  0.9782
  266TMC3    C7 4031   2.358   3.341  15.823  0.5740 -0.7293  0.6242
  266TMC3    C8 4032   2.792   3.187  15.998  0.3683  0.3422 -0.2291
  266TMC3    O1 4033   2.243   3.311  15.808 -0.5421  0.8418  0.0373
  266TMC3    O2 4034   2.877   3.099  15.999  0.2513 -0.7005  0.0541
  267MPD2     C 4035   0.101   4.399   0.173 -0.2998  0.5460 -0.7813
  267MPD2    C1 4036   0.205   4.456   0.109 -0.0922 -0.0692 -0.0364
  267MPD2    C2 4037   0.193   4.490  17.676 -0.4062 -0.3682 -0.4238
  267MPD2    C3 4038   0.070   4.472  17.607  0.3417 -0.0594  0.4758
  267MPD2    C4 4039   4.686   4.425  17.678  0.5836 -0.0002 -0.3387
  267MPD2    C5 4040   4.706   4.372   0.102 -0.3095  0.4095 -0.2987
  267MPD2     H 4041   0.277   4.519  17.614  2.2299  0.4282  3.5821
  267MPD2    H1 4042   4.587   4.411  17.637 -0.0606 -0.0099  1.2198
  267MPD2    H2 4043   0.101   4.362   0.276 -0.5676 -0.1435 -1.0269
  267MPD2    H3 4044   4.630   4.318   0.158 -1.4392  2.6855  0.3693
  267MPD2     N 4045   0.054   4.500  17.468 -0.1089 -0.4259 -0.2534
  267MPD2    H5 4046   4.685   4.495  17.431 -0.4413 -1.7860  0.7422
  267MPD2    N1 4047   0.325   4.488   0.184  0.4690  0.6488 -0.5306
  267MPD2    H7 4048   0.395   4.537   0.130  1.1789 -1.0199 -1.1078
  268TMC3    C1 4049   0.488   4.445   0.348 -0.1505  1.1613 -0.5877
  268TMC3    C2 4050   0.548   4.562   0.324  0.0798 -0.1153 -0.7311
  268TMC3    C3 4051   0.668   4.589   0.392  0.1123 -0.5429  0.0521
  268TMC3    C4 4052   0.540   4.349   0.434 -0.4687  0.7404 -0.6449
  268TMC3    C5 4053   0.650   4.381   0.508 -0.1871  0.5279  0.1348
  268TMC3    C6 4054   0.717   4.497   0.477  0.3968  0.3768  0.4363
  268TMC3     C 4055   0.355   4.428   0.300  0.5377  0.1381  0.6065
  268TMC3     O 4056   0.294   4.344   0.371 -0.1538  0.0193 -0.1203
  268TMC3     H 4057   0.491   4.642   0.279  2.5015  1.5465 -0.8903
  268TMC3    H1 4058   0.489   4.256   0.459  0.5376  0.1725 -0.7066
  268TMC3    H2 4059   0.812   4.515   0.526  0.7223 -3.5869  1.2728
  268TMC3    C7 4060   0.696   4.282   0.607 -0.3770 -0.2738  0.0561
  268TMC3    C8 4061   0.738   4.722   0.375 -0.5982 -0.3351  0.1946
  268TMC3    O1 4062   0.612   4.204   0.651 -0.5754  0.2469 -0.4731
  268TMC3    O2 4063   0.800   0.044   0.467 -0.0534 -0.0320 -0.3403
  269MPD2     C 4064   0.667   3.200  15.740  0.8141  0.7620 -0.2901
  269MPD2    C1 4065   0.541   3.250  15.711  0.5142  0.8747  0.9193
  269MPD2    C2 4066   0.536   3.381  15.672  0.2713  0.9478  0.2431
  269MPD2    C3 4067   0.647   3.457  15.657  0.5535 -0.0144  0.0774
  269MPD2    C4 4068   0.771   3.414  15.698  0.3946  0.0032 -0.0652
  269MPD2    C5 4069   0.776   3.286  15.734 -0.4737  0.3932  0.1500
  269MPD2     H 4070   0.438   3.428  15.664 -0.5712 -1.3961 -3.1001
  269MPD2    H1 4071   0.853   3.484  15.707 -0.0754  0.4006  1.1686
  269MPD2    H2 4072   0.696   3.097  15.753 -0.0203  0.5790  0.1006
  269MPD2    H3 4073   0.877   3.255  15.757 -0.1494  0.9041 -0.5945
  269MPD2     N 4074   0.623   3.587  15.619 -0.3521 -0.1357 -0.5062
  269MPD2    H5 4075   0.526   3.615  15.607 -0.5352 -1.4901 -2.1443
  269MPD2    N1 4076   0.423   3.176  15.723 -0.1269  0.4517 -0.3747
  269MPD2    H7 4077   0.436   3.077  15.745  1.5972  1.0085  1.1292
  270TMC3    C1 4078   0.205   3.094  15.701 -0.0975 -0.1750  0.2706
  270TMC3    C2 4079   0.117   3.067  15.600  0.0794  0.1601 -0.0476
  270TMC3    C3 4080   0.065   2.936  15.592  0.1110 -0.2740 -0.4627
  270TMC3    C4 4081   0.241   3.000  15.797 -0.4340  0.5372  0.3971
  270TMC3    C5 4082   0.185   2.872  15.786  0.5236  0.1810  0.6432
  270TMC3    C6 4083   0.101   2.841  15.685  0.3095  0.1436  0.0115
  270TMC3     C 4084   0.293   3.207  15.682  1.3460 -0.1444  0.1381
  270TMC3     O 4085   0.251   3.310  15.634 -0.5010 -0.0374  0.0724
  270TMC3     H 4086   0.104   3.147  15.529  1.5391  1.3804  1.0846
  270TMC3    H1 4087   0.316   3.013  15.875 -1.2336  2.2952  0.8817
  270TMC3    H2 4088   0.076   2.737  15.667  0.4855  0.4812 -2.1761
  270TMC3    C7 4089   0.284   2.776  15.821  0.8865  0.1442  0.0566
  270TMC3    C8 4090   0.027   2.887  15.455  0.1319 -0.0392  0.1568
  270TMC3    O1 4091   0.402   2.804  15.804  0.1748 -0.0982  0.1938
  270TMC3    O2 4092   0.043   2.969  15.371 -0.5521 -0.1780  0.6774
  271MPD2     C 4093   4.388   3.449  14.048 -0.3155  0.0057 -0.2298
  271MPD2    C1 4094   4.298   3.346  14.084 -0.7465  0.2252  0.3100
  271MPD2    C2 4095   4.171   3.353  14.058  0.6698 -0.2359 -0.7717
  271MPD2    C3 4096   4.113   3.471  13.995 -0.0344  0.4096 -0.3295
  271MPD2    C4 4097   4.198   3.582  13.972 -0.3623  0.3367 -0.0636
  271MPD2    C5 4098   4.331   3.566  14.000  0.3982  0.3782 -0.2908
  271MPD2     H 4099   4.109   3.273  14.096 -1.9794  2.0363 -0.2346
  271MPD2    H1 4100   4.174   3.684  13.947 -0.8890  0.1822 -0.1895
  271MPD2    H2 4101   4.495   3.437  14.059 -0.6071 -1.5635  0.9257
  271MPD2    H3 4102   4.404   3.643  13.978  1.8420 -0.9545 -0.1415
  271MPD2     N 4103   3.979   3.484  13.966  0.0052  0.5950 -0.1646
  271MPD2    H5 4104   3.949   3.575  13.932 -0.6453  0.4289 -0.0330
  271MPD2    N1 4105   4.342   3.230  14.154 -0.3591 -0.6969  0.2346
  271MPD2    H7 4106   4.269   3.161  14.166  0.9713 -1.7664  2.3579
  272TMC3    C1 4107   4.493   3.058  14.241 -0.2864  0.0588  0.2784
  272TMC3    C2 4108   4.603   2.985  14.208  0.1293 -0.1404 -0.7027
  272TMC3    C3 4109   4.646   2.895  14.303  0.3582  0.1631 -0.5726
  272TMC3    C4 4110   4.421   3.040  14.349 -0.2083  0.4455 -0.4799
  272TMC3    C5 4111   4.469   2.950  14.442  0.0869 -0.6217  0.5669
  272TMC3    C6 4112   4.573   2.867  14.416 -0.0315  0.2736  0.1127
  272TMC3     C 4113   4.476   3.184  14.165 -0.1956 -0.3556 -0.4562
  272TMC3     O 4114   4.578   3.235  14.124 -0.1189 -0.8261  0.0643
  272TMC3     H 4115   4.657   3.012  14.118 -0.3495 -1.4951 -1.4061
  272TMC3    H1 4116   4.349   3.117  14.376  0.4314  0.7615  0.3399
  272TMC3    H2 4117   4.607   2.793  14.487  1.0799  0.4346 -0.2474
  272TMC3    C7 4118   4.422   2.961  14.580  0.7984 -0.2994 -0.3899
  272TMC3    C8 4119   0.063   2.868  14.287  0.8968  0.2288  1.1781
  272TMC3    O1 4120   4.344   2.873  14.606 -0.2197 -0.0967  0.5819
  272TMC3    O2 4121   0.122   2.930  14.202 -0.0030  0.6151  0.2529
  273MPD2     C 4122   1.066   2.104  11.896  0.4133  0.0589  0.7747
  273MPD2    C1 4123   1.169   2.016  11.876  0.4836  0.3541  0.2282
  273MPD2    C2 4124   1.172   1.923  11.772 -0.8085 -0.9392  0.5094
  273MPD2    C3 4125   1.059   1.912  11.686  0.9007 -0.7519 -0.7395
  273MPD2    C4 4126   0.961   1.998  11.710  0.5062  0.4297  0.0069
  273MPD2    C5 4127   0.960   2.089  11.813  0.2307  0.0841  0.1417
  273MPD2     H 4128   1.246   1.844  11.764  1.0091  0.7750  0.3832
  273MPD2    H1 4129   0.870   1.988  11.652 -1.0998  0.9439  2.4408
  273MPD2    H2 4130   1.061   2.177  11.976 -2.8391  1.2056 -0.4948
  273MPD2    H3 4131   0.879   2.158  11.830  0.6285  0.8482 -1.0891
  273MPD2     N 4132   1.046   1.825  11.576  1.2691  0.4245  0.4723
  273MPD2    H5 4133   0.957   1.829  11.528  2.2821 -1.3537 -1.5238
  273MPD2    N1 4134   1.276   2.023  11.968 -0.3943  1.3115 -1.4419
  273MPD2    H7 4135   1.266   2.075  12.054 -2.6595 -1.7652  0.1566
  274TMC3    C1 4136   1.104   1.702  11.386  1.1699 -0.3652 -0.1141
  274TMC3    C2 4137   0.971   1.698  11.346  0.4563 -0.5668  0.2349
  274TMC3    C3 4138   0.951   1.665  11.211  0.6382 -0.0782 -0.2207
  274TMC3    C4 4139   1.212   1.683  11.306  0.2559 -0.3913 -0.5408
  274TMC3    C5 4140   1.180   1.675  11.173  0.2333  0.3574 -0.0683
  274TMC3    C6 4141   1.054   1.662  11.118 -0.8185 -1.0456  1.1026
  274TMC3     C 4142   1.144   1.746  11.521  0.8499 -0.0673 -0.0472
  274TMC3     O 4143   1.262   1.739  11.550 -0.4961  0.1014 -0.0281
  274TMC3     H 4144   0.885   1.711  11.411 -0.7494 -0.7265 -1.3465
  274TMC3    H1 4145   1.316   1.681  11.338  0.2277  0.8486 -0.3814
  274TMC3    H2 4146   1.041   1.625  11.017  0.3429  1.4985  0.0207
  274TMC3    C7 4147   1.284   1.664  11.075  0.5217  0.9165 -0.4069
  274TMC3    C8 4148   0.821   1.699  11.148 -1.0002  0.0078  0.4013
  274TMC3    O1 4149   1.273   1.569  10.997  0.7764  0.1310  0.1562
  274TMC3    O2 4150   0.721   1.679  11.215 -0.6522  0.3181 -0.4731
  275MPD2     C 4151   1.200   4.118  14.056 -0.1023  0.1127 -0.1316
  275MPD2    C1 4152   1.196   4.027  14.159  0.5368  0.0581  0.2192
  275MPD2    C2 4153   1.072   3.983  14.209  1.0148  0.6052 -0.1881
  275MPD2    C3 4154   0.960   4.044  14.161  0.5986 -0.3321 -0.4163
  275MPD2    C4 4155   0.967   4.125  14.056  0.8015 -0.2861 -0.6409
  275MPD2    C5 4156   1.086   4.162  14.007 -0.0369  0.6026  0.5687
  275MPD2     H 4157   1.080   3.917  14.295  0.2849  1.7882  0.7908
  275MPD2    H1 4158   0.874   4.151  14.007  1.0022  2.8481  0.6210
  275MPD2    H2 4159   1.290   4.159  14.013 -0.4311 -0.4358 -1.3511
  275MPD2    H3 4160   1.088   4.226  13.919 -0.4967  0.0614  0.1724
  275MPD2     N 4161   0.836   4.003  14.215 -0.7126  0.0681  0.1864
  275MPD2    H5 4162   0.763   4.033  14.152  0.2354  0.3367 -0.7895
  275MPD2    N1 4163   1.307   3.964  14.214  0.8611 -0.1237  0.1449
  275MPD2    H7 4164   1.290   3.905  14.295 -1.6676  0.1901 -0.1579
  276TMC3    C1 4165   1.511   3.888  14.262 -0.2091  0.4421 -0.6159
  276TMC3    C2 4166   1.452   3.770  14.295 -0.4005  0.0665 -0.4953
  276TMC3    C3 4167   1.475   3.704  14.414 -0.4791 -0.2201  0.1375
  276TMC3    C4 4168   1.603   3.949  14.344  0.0353 -0.8534 -0.0501
  276TMC3    C5 4169   1.618   3.887  14.469 -0.3645  0.6884  0.3201
  276TMC3    C6 4170   1.558   3.766  14.503  0.1835 -0.1672 -0.7087
  276TMC3     C 4171   1.436   3.980  14.181 -0.6267 -1.0445  0.0836
  276TMC3     O 4172   1.492   4.063  14.115  0.0952  0.6330  0.2192
  276TMC3     H 4173   1.370   3.740  14.231 -1.1487  0.3553  0.3290
  276TMC3    H1 4174   1.638   4.049  14.324  0.1166 -0.8048  0.3376
  276TMC3    H2 4175   1.558   3.728  14.605  0.0890 -0.0822 -0.6768
  276TMC3    C7 4176   1.686   3.944  14.574  0.1194  0.6429  0.0860
  276TMC3    C8 4177   1.351   3.645  14.465  0.1114 -0.2502  0.0678
  276TMC3    O1 4178   1.644   3.911  14.682 -0.0103 -0.2898  0.6091
  276TMC3    O2 4179   1.243   3.670  14.411  0.2755 -0.4396  0.0889
  277MPD2     C 4180   2.752   3.007  13.276  0.1105 -0.4521  0.3753
  277MPD2    C1 4181   2.626   3.058  13.280  1.3378  0.0390  0.1631
  277MPD2    C2 4182   2.541   2.981  13.349  0.2071  0.3551  0.5746
  277MPD2    C3 4183   2.578   2.858  13.408 -0.3322 -0.4221 -0.4088
  277MPD2    C4 4184   2.705   2.812  13.412  0.5266  0.0928 -0.7537
  277MPD2    C5 4185   2.790   2.893  13.341 -0.2642 -0.1399  0.1112
  277MPD2     H 4186   2.436   3.009  13.343  0.1427  0.1181  0.6097
  277MPD2    H1 4187   2.742   2.721  13.457 -2.6515 -0.1257  1.4262
  277MPD2    H2 4188   2.819   3.073  13.221 -0.4454 -2.1544 -2.3650
  277MPD2    H3 4189   2.897   2.874  13.344  0.3502  3.0171 -1.7612
  277MPD2     N 4190   2.473   2.793  13.478 -0.0260  0.3032  0.0817
  277MPD2    H5 4191   2.375   2.818  13.467 -0.2851 -0.4924  0.5572
  277MPD2    N1 4192   2.603   3.183  13.219 -0.2646  0.2943 -0.5360
  277MPD2    H7 4193   2.691   3.224  13.189  0.3239 -0.0849  0.6489
  278TMC3    C1 4194   2.370   2.654  13.636  0.2877 -0.6578 -0.1138
  278TMC3    C2 4195   2.357   2.518  13.677 -0.2691 -0.5996  0.1353
  278TMC3    C3 4196   2.242   2.485  13.749  0.3423 -0.1597  0.4527
  278TMC3    C4 4197   2.276   2.748  13.659  0.5506  0.1450 -0.7404
  278TMC3    C5 4198   2.159   2.707  13.720  0.5032  0.7263  0.2785
  278TMC3    C6 4199   2.136   2.575  13.767  0.1145 -0.0635  0.7680
  278TMC3     C 4200   2.493   2.686  13.562  0.5187 -0.5616  0.0476
  278TMC3     O 4201   2.590   2.618  13.580 -0.0212  0.3541 -0.2614
  278TMC3     H 4202   2.435   2.445  13.659 -1.1198 -1.3974 -0.3160
  278TMC3    H1 4203   2.299   2.853  13.648  0.5228  0.2362  0.1341
  278TMC3    H2 4204   2.043   2.556  13.819 -0.1284  1.4489  0.8903
  278TMC3    C7 4205   2.068   2.813  13.756  0.3070  0.7018 -0.0705
  278TMC3    C8 4206   2.218   2.350  13.772 -0.6881  0.7623 -0.3809
  278TMC3    O1 4207   2.115   2.927  13.748  0.2573 -0.1907  0.1903
  278TMC3    O2 4208   2.117   2.294  13.734  0.2387  0.1860 -0.3178
  279MPD2     C 4209   1.979   3.886   0.740 -0.3414 -0.1426  0.6429
  279MPD2    C1 4210   1.949   3.753   0.721  0.0722  0.7157  0.5964
  279MPD2    C2 4211   2.035   3.664   0.658 -0.1873  0.5052 -0.3582
  279MPD2    C3 4212   2.157   3.706   0.626 -0.0662 -0.3064  0.2282
  279MPD2    C4 4213   2.195   3.839   0.664  0.2848 -0.0737  0.5256
  279MPD2    C5 4214   2.103   3.925   0.716  0.6205  0.3884  0.3866
  279MPD2     H 4215   2.003   3.563   0.634  1.8896 -0.2575  0.0752
  279MPD2    H1 4216   2.298   3.870   0.650  0.0635 -0.0168 -1.0149
  279MPD2    H2 4217   1.911   3.954   0.790  0.1148  1.2591 -0.6415
  279MPD2    H3 4218   2.132   4.028   0.733 -0.5230  0.7978 -0.1313
  279MPD2     N 4219   2.251   3.630   0.548 -0.0829 -0.3218 -0.3843
  279MPD2    H5 4220   2.334   3.682   0.520 -1.1081 -0.0375 -2.8176
  279MPD2    N1 4221   1.819   3.713   0.764  0.8663 -0.0797 -0.6645
  279MPD2    H7 4222   1.750   3.786   0.781 -1.1671 -2.5436  1.7236
  280TMC3    C1 4223   1.637   3.567   0.784 -0.3299 -0.1512  0.1996
  280TMC3    C2 4224   1.593   3.449   0.824  0.0334 -0.7099  0.4064
  280TMC3    C3 4225   1.460   3.415   0.784  1.0820 -0.3903  0.1910
  280TMC3    C4 4226   1.570   3.648   0.698  0.2401  0.2350 -0.2376
  280TMC3    C5 4227   1.439   3.616   0.670  0.2917 -0.4223 -0.2877
  280TMC3    C6 4228   1.384   3.501   0.711  1.1546  0.2495  0.2875
  280TMC3     C 4229   1.784   3.580   0.788  0.9223 -0.3045 -0.1444
  280TMC3     O 4230   1.852   3.480   0.805 -0.1757 -0.0700 -0.4357
  280TMC3     H 4231   1.649   3.393   0.898  0.9072  0.7010  0.7988
  280TMC3    H1 4232   1.613   3.733   0.647 -0.3723  0.0460 -1.0674
  280TMC3    H2 4233   1.289   3.467   0.672  1.4820 -1.3422  0.8844
  280TMC3    C7 4234   1.379   3.686   0.557  0.0774 -1.3195 -0.9415
  280TMC3    C8 4235   1.404   3.292   0.839 -0.6730  0.1202  0.0418
  280TMC3    O1 4236   1.445   3.775   0.504 -0.0260 -0.5843 -0.1417
  280TMC3    O2 4237   1.285   3.286   0.844 -0.1924  0.3007  0.4294
  281TMC3    C1 4238   0.826   3.502  12.932 -0.2057 -0.4654 -0.3008
  281TMC3    C2 4239   0.847   3.577  12.823  0.1561 -0.3895  0.3481
  281TMC3    C3 4240   0.855   3.520  12.699  0.6512  0.6825 -0.3647
  281TMC3    C4 4241   0.798   3.366  12.917 -0.7164  0.1936 -0.0324
  281TMC3    C5 4242   0.812   3.308  12.796  0.1792  0.0583  0.4942
  281TMC3    C6 4243   0.848   3.384  12.684 -0.1726  0.9591  0.1627
  281TMC3     C 4244   0.772   3.560  13.053 -0.0109  0.0682  0.0977
  281TMC3     O 4245   0.735   3.485  13.141 -0.3246  0.0974 -0.6732
  281TMC3     H 4246   0.848   3.686  12.824 -1.6497 -0.3813  1.1879
  281TMC3    H1 4247   0.772   3.308  13.005  0.0186 -1.6614 -1.0184
  281TMC3    H2 4248   0.850   3.339  12.586 -0.7093  1.9409 -0.2887
  281TMC3    C7 4249   0.702   3.217  12.760 -0.2778 -0.0349 -0.0733
  281TMC3    C8 4250   0.924   3.588  12.586 -0.0611 -0.2984 -0.4500
  281TMC3    O1 4251   0.720   3.141  12.663  0.3442  0.2826  0.5661
  281TMC3    O2 4252   1.008   3.519  12.532  0.3295  0.1303 -0.0720
  282MPD2     C 4253   2.666   4.268  14.881 -1.3698 -0.6578 -0.0715
  282MPD2    C1 4254   2.571   4.369  14.895  0.4554 -0.4420  0.3582
  282MPD2    C2 4255   2.533   4.437  14.779  0.2191 -0.5653 -0.4310
  282MPD2    C3 4256   2.583   4.409  14.658 -0.0307  0.0247 -0.0189
  282MPD2    C4 4257   2.678   4.306  14.648  0.0862  0.5690  0.0049
  282MPD2    C5 4258   2.720   4.245  14.761 -0.0988  0.3187 -0.4838
  282MPD2     H 4259   2.469   4.524  14.783 -1.5374 -2.0041  3.6826
  282MPD2    H1 4260   2.715   4.270  14.553  0.3839  0.1805  0.2708
  282MPD2    H2 4261   2.707   4.213  14.964 -1.4690 -1.1353 -0.3402
  282MPD2    H3 4262   2.802   4.174  14.752 -0.5191  0.2177 -3.5572
  282MPD2     N 4263   2.552   4.488  14.540 -0.1315 -0.1866  0.1720
  282MPD2    H5 4264   2.490   4.569  14.547  0.7587  0.4946  0.0654
  282MPD2    N1 4265   2.506   4.392  15.024  0.1861 -0.2348 -0.2716
  282MPD2    H7 4266   2.533   4.322  15.093  0.0877 -0.0781 -0.0759
  283TMC3    C1 4267   2.368   4.481  15.187 -0.2072  0.1691 -0.0365
  283TMC3    C2 4268   2.365   4.587  15.270  0.2066 -0.3498 -0.1897
  283TMC3    C3 4269   2.310   4.566  15.394 -0.3316 -0.9037 -0.0655
  283TMC3    C4 4270   2.322   4.356  15.223  0.0853 -0.2658 -0.7881
  283TMC3    C5 4271   2.273   4.340  15.349  0.1905 -0.4644 -0.2375
  283TMC3    C6 4272   2.273   4.439  15.441 -0.2706 -0.2536 -0.4936
  283TMC3     C 4273   2.423   4.495  15.049  0.3889 -0.0771  0.8625
  283TMC3     O 4274   2.410   4.601  14.983 -0.4962 -0.3966  0.2206
  283TMC3     H 4275   2.435   4.666  15.245 -0.5468 -0.3244 -2.1879
  283TMC3    H1 4276   2.335   4.269  15.159  0.1199  0.5700 -1.8974
  283TMC3    H2 4277   2.211   4.427  15.529  1.1000 -1.5305  0.3055
  283TMC3    C7 4278   2.202   4.215  15.394 -0.1057  0.1916  0.3977
  283TMC3    C8 4279   2.286   4.682  15.477  0.8628  0.1948 -0.0159
  283TMC3    O1 4280   2.157   4.207  15.504 -0.0186 -0.1320  0.1311
  283TMC3    O2 4281   2.277   4.656  15.595  0.0997 -0.1936 -1.0615
  284MPD2     C 4282   0.622   4.321  11.399 -0.3506 -0.3428 -0.0703
  284MPD2    C1 4283   0.742   4.264  11.417  0.6150  0.3742 -0.3450
  284MPD2    C2 4284   0.749   4.146  11.490 -0.8499 -0.5027  0.3439
  284MPD2    C3 4285   0.642   4.090  11.555 -0.7850  0.1995  0.5745
  284MPD2    C4 4286   0.522   4.155  11.539  0.0599 -0.1288  0.8288
  284MPD2    C5 4287   0.509   4.263  11.458 -0.0540  0.5381  0.7187
  284MPD2     H 4288   0.846   4.104  11.514 -0.8387 -0.5690  0.1811
  284MPD2    H1 4289   0.438   4.134  11.603 -1.7826 -0.1238 -1.5806
  284MPD2    H2 4290   0.605   4.412  11.342 -0.2057 -0.4231 -0.2444
  284MPD2    H3 4291   0.411   4.309  11.460 -0.4596 -0.3198  0.8998
  284MPD2     N 4292   0.669   3.999  11.657 -0.6133 -0.0105 -0.2971
  284MPD2    H5 4293   0.758   3.949  11.662 -0.5699  0.2514  1.3503
  284MPD2    N1 4294   0.861   4.313  11.364  0.1972  0.3481  0.0404
  284MPD2    H7 4295   0.947   4.265  11.387  0.0968  0.4314  0.5971
  285TMC3    C1 4296   1.031   4.460  11.269 -0.2610 -0.9909 -0.4742
  285TMC3    C2 4297   1.117   4.350  11.265 -0.1493  0.3175  0.3340
  285TMC3    C3 4298   1.251   4.381  11.246 -0.3198  0.2742  0.0485
  285TMC3    C4 4299   1.070   4.592  11.257  0.3907  0.0569  0.1738
  285TMC3    C5 4300   1.209   4.612  11.227 -0.2334 -0.1908  0.9741
  285TMC3    C6 4301   1.300   4.505  11.225  0.0156 -0.6997 -0.2895
  285TMC3     C 4302   0.888   4.439  11.305  0.6005 -0.2504 -0.0087
  285TMC3     O 4303   0.814   4.538  11.304 -0.1359  1.1260  0.1866
  285TMC3     H 4304   1.073   4.251  11.256  0.3920 -0.0450  1.6981
  285TMC3    H1 4305   1.006   4.675  11.287  0.9360  0.3606  0.5010
  285TMC3    H2 4306   1.402   4.519  11.190  0.3564  0.8154  1.3282
  285TMC3    C7 4307   1.250   0.021  11.265 -0.3549  0.0860 -0.3094
  285TMC3    C8 4308   1.337   4.269  11.223  0.2072 -1.1041 -1.2269
  285TMC3    O1 4309   1.167   0.109  11.253 -0.0600 -0.1816  0.4569
  285TMC3    O2 4310   1.449   4.295  11.175 -0.4783 -0.5572  0.0762
  286MPD2     C 4311   1.394   1.956   1.716  0.4443 -0.1053 -0.0278
  286MPD2    C1 4312   1.345   1.943   1.586  0.0049 -0.3250  0.5441
  286MPD2    C2 4313   1.395   1.840   1.508  0.0745  0.1690  0.4568
  286MPD2    C3 4314   1.496   1.758   1.554  0.3365 -0.4212 -0.0697
  286MPD2    C4 4315   1.545   1.779   1.680  0.7069 -0.4570  0.2130
  286MPD2    C5 4316   1.493   1.873   1.764  0.1678  0.1339 -0.5292
  286MPD2     H 4317   1.355   1.823   1.409  0.8230 -2.1365  0.5548
  286MPD2    H1 4318   1.628   1.720   1.716  1.8036  1.3080  0.5565
  286MPD2    H2 4319   1.360   2.036   1.781  0.7209 -0.1636  0.1907
  286MPD2    H3 4320   1.523   1.888   1.867  0.9258 -1.6694 -0.4907
  286MPD2     N 4321   1.553   1.649   1.475 -0.3088  0.1219  0.6167
  286MPD2    H5 4322   1.624   1.589   1.517  0.9530 -0.0870 -1.8048
  286MPD2    N1 4323   1.248   2.028   1.529  0.7207 -0.1417  0.3582
  286MPD2    H7 4324   1.209   1.989   1.444  0.9658  0.7612 -0.1678
  287TMC3    C1 4325   1.597   1.514   1.288 -0.1129 -0.8790 -0.0860
  287TMC3    C2 4326   1.591   1.518   1.152  0.6088  0.1731  0.3789
  287TMC3    C3 4327   1.695   1.464   1.086  0.1787  0.8308  0.2258
  287TMC3    C4 4328   1.707   1.459   1.349 -0.6051 -0.2803  0.0672
  287TMC3    C5 4329   1.807   1.400   1.279 -0.0554  0.2733 -0.8075
  287TMC3    C6 4330   1.801   1.406   1.142  0.4864  0.2611  0.0178
  287TMC3     C 4331   1.515   1.615   1.351  0.2381  0.3835 -0.5578
  287TMC3     O 4332   1.423   1.658   1.285 -0.1925  0.2335 -0.2969
  287TMC3     H 4333   1.501   1.555   1.103  0.1936 -0.6765  0.5101
  287TMC3    H1 4334   1.709   1.456   1.458  0.2685  0.5248  0.0649
  287TMC3    H2 4335   1.886   1.380   1.080 -1.2683  0.2695 -2.3871
  287TMC3    C7 4336   1.932   1.378   1.351 -0.7325 -0.2373 -0.3553
  287TMC3    C8 4337   1.696   1.462   0.943  0.5054 -0.1258  0.1165
  287TMC3    O1 4338   1.932   1.409   1.469 -0.3808  0.5547  0.1349
  287TMC3    O2 4339   1.747   1.370   0.882 -0.3925  0.1575  0.9043
  288TMC3    C1 4340   2.985   2.955  14.492 -0.0800  0.1200 -0.0560
  288TMC3    C2 4341   2.949   2.903  14.618 -0.0338 -0.5450  0.0095
  288TMC3    C3 4342   2.849   2.812  14.622  0.2509  0.2846  0.4953
  288TMC3    C4 4343   2.915   2.927  14.381  0.5024 -0.7181  0.1723
  288TMC3    C5 4344   2.812   2.832  14.390  0.6652  0.4940 -0.8904
  288TMC3    C6 4345   2.771   2.778  14.509  0.5411 -0.1032 -0.1549
  288TMC3     C 4346   3.038   3.092  14.497  0.5332 -0.5292  0.5533
  288TMC3     O 4347   3.139   3.117  14.434  0.1231 -0.0980 -0.3238
  288TMC3     H 4348   2.995   2.940  14.710 -1.1992 -1.1348  0.8335
  288TMC3    H1 4349   2.944   2.988  14.297 -2.8315 -2.5561 -2.2950
  288TMC3    H2 4350   2.682   2.717  14.516 -0.3915  1.2148 -0.5291
  288TMC3    C7 4351   2.729   2.813  14.270 -1.0471 -0.0528  0.0249
  288TMC3    C8 4352   2.788   2.803  14.756 -0.0325 -0.1600  0.5475
  288TMC3    O1 4353   2.625   2.750  14.278  1.1954  0.1197  0.2354
  288TMC3    O2 4354   2.802   2.902  14.830  0.9478  0.3549 -0.0406
  289MPD2     C 4355   2.973   1.733  14.344 -0.2837 -0.5046 -0.7152
  289MPD2    C1 4356   2.921   1.857  14.370  0.7752 -0.0790  0.3003
  289MPD2    C2 4357   2.788   1.887  14.349  0.3540  1.3048 -0.1374
  289MPD2    C3 4358   2.705   1.797  14.289  0.8096 -0.3355 -0.7933
  289MPD2    C4 4359   2.754   1.665  14.265 -0.0653 -0.7365  0.5445
  289MPD2    C5 4360   2.889   1.636  14.292 -0.0589  0.0784 -0.4403
  289MPD2     H 4361   2.747   1.983  14.378 -2.3053  0.1768 -0.2447
  289MPD2    H1 4362   2.707   1.592  14.200 -1.2203  2.0636 -1.7673
  289MPD2    H2 4363   3.076   1.698  14.352 -0.1607  0.0513  0.1324
  289MPD2    H3 4364   2.933   1.538  14.281  0.8610  0.2099  1.9966
  289MPD2     N 4365   2.573   1.831  14.238 -0.9046 -0.8634  0.2704
  289MPD2    H5 4366   2.525   1.760  14.185  1.9083 -1.7570 -1.0391
  289MPD2    N1 4367   3.011   1.959  14.411 -0.6137 -0.4770 -0.1389
  289MPD2    H7 4368   3.101   1.923  14.442  0.5963  0.2072 -2.9148
  290TMC3    C1 4369   2.388   1.975  14.182 -0.8407 -0.0056 -0.1559
  290TMC3    C2 4370   2.335   2.106  14.165  0.3776  0.8872 -0.1938
  290TMC3    C3 4371   2.203   2.123  14.120 -0.1940 -0.4329 -0.6599
  290TMC3    C4 4372   2.302   1.874  14.172 -0.2350 -0.2086  0.2926
  290TMC3    C5 4373   2.177   1.892  14.122 -0.1056  0.9597 -0.2168
  290TMC3    C6 4374   2.125   2.014  14.094  0.0776  0.2952 -0.4686
  290TMC3     C 4375   2.519   1.958  14.241  0.0782  0.6679  0.3630
  290TMC3     O 4376   2.559   2.063  14.295 -0.0248 -0.4253 -0.2801
  290TMC3     H 4377   2.405   2.189  14.168  2.3674 -0.7629 -1.2884
  290TMC3    H1 4378   2.335   1.776  14.204  2.7043  0.7921  0.2806
  290TMC3    H2 4379   2.023   2.027  14.058 -0.3217  1.0414  0.9443
  290TMC3    C7 4380   2.099   1.778  14.095 -0.4114 -0.6797  0.3725
  290TMC3    C8 4381   2.135   2.254  14.122 -0.2988  0.2508  0.1213
  290TMC3    O1 4382   1.986   1.800  14.064 -0.0156  0.6316 -0.1154
  290TMC3    O2 4383   2.032   2.250  14.057 -0.3918 -1.0696 -0.1538
  291MPD2     C 4384   1.919   1.257   0.158 -0.1116 -0.3469 -0.7314
  291MPD2    C1 4385   2.027   1.177   0.138  0.8806  0.2997 -0.1848
  291MPD2    C2 4386   2.151   1.231   0.167  0.5401 -0.6645  0.6439
  291MPD2    C3 4387   2.170   1.363   0.215 -0.4649 -0.7654  0.0811
  291MPD2    C4 4388   2.059   1.440   0.232  0.1800 -0.3574  0.3209
  291MPD2    C5 4389   1.938   1.385   0.211 -0.3136 -0.5802  0.1194
  291MPD2     H 4390   2.238   1.170   0.145  1.6772  1.9092 -1.9216
  291MPD2    H1 4391   2.061   1.547   0.252 -0.5560 -0.5494  1.4234
  291MPD2    H2 4392   1.819   1.218   0.140  0.2691 -1.3685 -0.6614
  291MPD2    H3 4393   1.851   1.448   0.225  0.7820  0.9520  0.0198
  291MPD2     N 4394   2.297   1.420   0.239 -0.3790 -0.1481 -0.2294
  291MPD2    H5 4395   2.302   1.521   0.250 -2.3895 -0.0381 -0.3131
  291MPD2    N1 4396   2.021   1.046   0.083  0.2099  0.7780 -0.1147
  291MPD2    H7 4397   2.103   0.993   0.056  0.8690  1.5755  0.3528
  292TMC3    C1 4398   1.937   0.825   0.066 -0.0509 -0.3522 -0.4426
  292TMC3    C2 4399   2.050   0.784   0.137  0.1829  0.1492 -0.1804
  292TMC3    C3 4400   2.092   0.655   0.111 -0.3266 -0.3732  0.2295
  292TMC3    C4 4401   1.859   0.731  17.701  0.5894 -0.1671 -0.0199
  292TMC3    C5 4402   1.907   0.602  17.681 -0.0887 -0.0750 -0.0904
  292TMC3    C6 4403   2.030   0.563   0.028 -0.4176  0.4458  0.0251
  292TMC3     C 4404   1.901   0.971   0.072  0.0244 -0.5937  0.5900
  292TMC3     O 4405   1.781   1.007   0.063  0.0820  0.5148  0.1465
  292TMC3     H 4406   2.103   0.853   0.202  0.8053 -0.8618  0.3859
  292TMC3    H1 4407   1.777   0.767  17.640 -1.1752  0.4194  2.7302
  292TMC3    H2 4408   2.068   0.466  17.701  3.1699  2.2734 -1.3553
  292TMC3    C7 4409   1.840   0.506  17.607  0.7140 -0.8415  0.4551
  292TMC3    C8 4410   2.213   0.600   0.186  0.4247  0.2311 -0.0761
  292TMC3    O1 4411   1.905   0.408  17.570 -0.8881  0.2234 -0.4882
  292TMC3    O2 4412   2.290   0.520   0.137  0.2335  0.1230 -0.1481
  293MPD2     C 4413   3.942   3.234  12.652 -0.4157 -0.1049 -0.3536
  293MPD2    C1 4414   3.978   3.123  12.729  0.3784  0.6247  0.4601
  293MPD2    C2 4415   4.006   3.141  12.869  0.3294  0.6354  0.9768
  293MPD2    C3 4416   4.012   3.267  12.921  0.3169  1.1652 -0.2081
  293MPD2    C4 4417   3.997   3.379  12.835  0.5970  0.2231  0.4782
  293MPD2    C5 4418   3.950   3.357  12.707 -0.1842 -0.4402  0.9375
  293MPD2     H 4419   4.035   3.063  12.937  1.5227  2.2474  2.3284
  293MPD2    H1 4420   4.008   3.485  12.852 -0.9826  0.1100  2.1796
  293MPD2    H2 4421   3.910   3.223  12.549 -1.1760  1.2014 -0.2473
  293MPD2    H3 4422   3.933   3.437  12.636  0.6563  0.8301  2.1795
  293MPD2     N 4423   4.041   3.286  13.061  0.4890  0.4413  0.3541
  293MPD2    H5 4424   4.033   3.200  13.114 -0.4328  0.5881  0.4598
  293MPD2    N1 4425   3.957   2.989  12.674  0.2098 -0.2092 -0.1761
  293MPD2    H7 4426   3.931   2.987  12.576 -0.1707  0.4492 -0.0898
  294TMC3    C1 4427   3.931   2.757  12.677 -0.0103 -0.0886  0.2604
  294TMC3    C2 4428   3.888   2.660  12.760 -0.4861  0.1597 -0.5227
  294TMC3    C3 4429   3.848   2.541  12.699  1.1294  0.1599 -0.2387
  294TMC3    C4 4430   3.936   2.744  12.539  0.8443  0.8532 -0.1902
  294TMC3    C5 4431   3.905   2.615  12.488  0.5362 -0.2532  0.0139
  294TMC3    C6 4432   3.872   2.513  12.569 -0.1493 -0.4731  0.7763
  294TMC3     C 4433   3.969   2.874  12.751  0.2116 -0.2290  0.3593
  294TMC3     O 4434   3.960   2.869  12.872 -0.2350 -0.1064 -0.5310
  294TMC3     H 4435   3.874   2.670  12.867 -2.1033  1.3714 -0.8560
  294TMC3    H1 4436   3.952   2.825  12.469 -0.1758 -0.3844 -1.8640
  294TMC3    H2 4437   3.867   2.411  12.531  1.6202 -0.5086  0.6136
  294TMC3    C7 4438   3.857   2.598  12.356 -0.9217 -0.5183 -0.5680
  294TMC3    C8 4439   3.711   2.508  12.719 -0.0375  0.3709 -0.0675
  294TMC3    O1 4440   3.766   2.525  12.342 -0.2907 -0.1482  0.0650
  294TMC3    O2 4441   3.659   2.545  12.821  0.1460 -0.2923  0.2099
  295MPD2     C 4442   0.695   0.736   0.391 -0.2735  0.1002  0.4291
  295MPD2    C1 4443   0.607   0.690   0.292 -0.1063  0.4424 -0.8309
  295MPD2    C2 4444   0.551   0.564   0.315 -0.5643  1.1132 -0.7252
  295MPD2    C3 4445   0.577   0.493   0.434 -0.9108 -0.4489 -0.3101
  295MPD2    C4 4446   0.661   0.552   0.525 -0.2699  0.3539 -0.5304
  295MPD2    C5 4447   0.712   0.671   0.504  0.1569  0.2900 -0.5609
  295MPD2     H 4448   0.492   0.519   0.236 -0.3042 -3.1407  1.5302
  295MPD2    H1 4449   0.700   0.497   0.610 -0.6595 -0.1892 -0.7051
  295MPD2    H2 4450   0.728   0.839   0.389 -1.9632  0.5929 -1.6283
  295MPD2    H3 4451   0.773   0.714   0.583 -1.5510 -0.3031  1.0860
  295MPD2     N 4452   0.532   0.370   0.464  0.1967 -0.1206  0.0392
  295MPD2    H5 4453   0.570   0.328   0.549  1.0530  2.7868  1.0879
  295MPD2    N1 4454   0.571   0.765   0.179 -0.4799  0.4932  0.3041
  295MPD2    H7 4455   0.515   0.714   0.111  0.8029 -1.1659  0.4595
  296TMC3    C1 4456   0.398   0.174   0.471 -0.0902  0.1476 -0.2202
  296TMC3    C2 4457   0.484   0.123   0.563 -0.3610  0.2254  0.1876
  296TMC3    C3 4458   0.433   0.006   0.624 -0.7177 -0.6246 -0.1498
  296TMC3    C4 4459   0.275   0.125   0.439  0.3559 -0.1855 -0.5613
  296TMC3    C5 4460   0.233   0.009   0.505  0.2903  0.1186  0.3933
  296TMC3    C6 4461   0.308   4.668   0.601  0.1954 -0.0370 -0.9438
  296TMC3     C 4462   0.446   0.284   0.394  0.8134 -0.5675 -0.3597
  296TMC3     O 4463   0.392   0.297   0.285  0.2070 -0.3184  0.3131
  296TMC3     H 4464   0.586   0.155   0.578 -0.8995  1.2857  1.6611
  296TMC3    H1 4465   0.207   0.183   0.378  0.3206 -1.1945 -1.4836
  296TMC3    H2 4466   0.295   4.561   0.609  0.5322  0.1124  1.5175
  296TMC3    C7 4467   0.101   4.675   0.480 -0.0048 -0.3345 -0.3422
  296TMC3    C8 4468   0.525   4.651   0.712  0.6070  0.7348 -0.2013
  296TMC3    O1 4469   0.039   4.724   0.388 -0.2184  0.1362  0.5431
  296TMC3    O2 4470   0.500   4.532   0.730  0.2652 -0.0851  0.8528
  297MPD2     C 4471   1.672   3.214  16.456  0.4376  0.2547 -0.3758
  297MPD2    C1 4472   1.633   3.292  16.348  0.5959 -0.5468 -0.1580
  297MPD2    C2 4473   1.734   3.371  16.289 -0.2179  0.0232 -0.3545
  297MPD2    C3 4474   1.873   3.357  16.322  0.3238 -0.5210  0.8629
  297MPD2    C4 4475   1.907   3.270  16.422 -0.6000  0.0209 -0.0419
  297MPD2    C5 4476   1.806   3.206  16.487 -0.1742  0.4441 -0.2058
  297MPD2     H 4477   1.706   3.450  16.221 -0.4666  1.8162  1.8397
  297MPD2    H1 4478   2.007   3.255  16.461 -1.2703 -0.9539  1.2689
  297MPD2    H2 4479   1.604   3.161  16.522  2.0447 -1.2452  0.0864
  297MPD2    H3 4480   1.828   3.156  16.581  0.1428 -0.5378 -0.7951
  297MPD2     N 4481   1.965   3.453  16.280 -0.0735 -0.2868  0.8439
  297MPD2    H5 4482   1.927   3.534  16.232  0.5486 -1.5441 -1.7968
  297MPD2    N1 4483   1.495   3.312  16.310 -0.6861 -0.4978  0.0323
  297MPD2    H7 4484   1.482   3.373  16.229  0.3753  0.0593  0.2779
  298TMC3    C1 4485   1.263   3.306  16.305  0.0290  0.2460  0.0038
  298TMC3    C2 4486   1.258   3.307  16.171  0.2404 -0.1740 -0.2708
  298TMC3    C3 4487   1.136   3.358  16.125  0.5620  0.1083 -0.4411
  298TMC3    C4 4488   1.163   3.344  16.390 -0.2752  0.0481 -0.0289
  298TMC3    C5 4489   1.055   3.406  16.336  0.2625  0.6840  0.0312
  298TMC3    C6 4490   1.043   3.426  16.203  0.0727 -0.4156 -0.1527
  298TMC3     C 4491   1.383   3.267  16.375  0.1696 -0.0931  0.3440
  298TMC3     O 4492   1.370   3.190  16.471  0.2414  0.5954  0.1594
  298TMC3     H 4493   1.331   3.253  16.112  0.1759  0.1173 -0.6158
  298TMC3    H1 4494   1.178   3.349  16.497 -1.0150 -2.9928  0.1898
  298TMC3    H2 4495   0.963   3.477  16.152 -0.5094 -0.8992  0.2800
  298TMC3    C7 4496   0.966   3.479  16.425  0.5868 -0.1555  0.5549
  298TMC3    C8 4497   1.124   3.358  15.978 -0.1379  0.2452 -0.2596
  298TMC3    O1 4498   0.994   3.495  16.543  0.5633 -0.2381  0.2464
  298TMC3    O2 4499   1.018   3.404  15.938 -0.1032  0.0337  0.0035
  299MPD2     C 4500   2.086   3.279  11.112 -0.4042  0.8504  0.4051
  299MPD2    C1 4501   2.087   3.376  11.018 -0.0950 -0.1225 -0.3875
  299MPD2    C2 4502   1.979   3.391  10.933  0.3724 -0.3394  0.1159
  299MPD2    C3 4503   1.884   3.288  10.928  0.1478  0.3493 -0.0002
  299MPD2    C4 4504   1.891   3.174  11.010  0.0836 -0.0351  0.4052
  299MPD2    C5 4505   1.986   3.175  11.107  0.2554 -0.0322 -0.6597
  299MPD2     H 4506   1.957   3.480  10.876  0.7908  0.0654  0.5890
  299MPD2    H1 4507   1.825   3.091  10.987 -1.2250  1.2722 -0.6131
  299MPD2    H2 4508   2.166   3.269  11.184  0.7764  1.4136 -0.8163
  299MPD2    H3 4509   1.989   3.098  11.183  1.4302 -0.7675 -1.4570
  299MPD2     N 4510   1.769   3.287  10.844  0.4719 -0.5792 -0.1966
  299MPD2    H5 4511   1.699   3.218  10.869  0.9411 -0.9323  0.1606
  299MPD2    N1 4512   2.186   3.478  11.018  0.4667 -0.3459  0.1955
  299MPD2    H7 4513   2.248   3.481  11.098 -0.8893 -1.6189  1.3017
  300TMC3    C1 4514   1.652   3.309  10.640 -0.0410  0.7645  0.0184
  300TMC3    C2 4515   1.634   3.397  10.534  0.0788  0.0916  0.2495
  300TMC3    C3 4516   1.513   3.413  10.480  0.1391  0.0495  0.5601
  300TMC3    C4 4517   1.542   3.261  10.710  0.6235  0.2863  0.0136
  300TMC3    C5 4518   1.421   3.276  10.649 -0.4995  0.0529 -0.6953
  300TMC3    C6 4519   1.403   3.354  10.539  0.0099 -0.1285  0.1385
  300TMC3     C 4520   1.760   3.350  10.725 -0.0305 -0.5336 -0.4059
  300TMC3     O 4521   1.844   3.428  10.675 -0.4773  0.1165  0.2582
  300TMC3     H 4522   1.726   3.428  10.484  1.2038 -0.6282  1.8778
  300TMC3    H1 4523   1.561   3.176  10.774 -2.4466 -0.1680  0.3365
  300TMC3    H2 4524   1.301   3.358  10.502  0.2194  1.6042 -0.2494
  300TMC3    C7 4525   1.305   3.214  10.707 -0.4058 -1.1853 -0.2759
  300TMC3    C8 4526   1.501   3.542  10.419  1.0064 -0.0789  0.2501
  300TMC3    O1 4527   1.201   3.205  10.636 -0.3272  0.1653  0.2908
  300TMC3    O2 4528   1.603   3.607  10.412  0.0053 -0.5686 -0.0748
  301MPD2     C 4529   4.101   4.385   0.664  0.0530  0.6932  0.7363
  301MPD2    C1 4530   4.055   4.340   0.788 -0.5857  0.0778 -0.2560
  301MPD2    C2 4531   4.046   4.209   0.814  0.0855  0.4455 -0.2679
  301MPD2    C3 4532   4.060   4.123   0.712  0.1987 -0.7243 -0.3880
  301MPD2    C4 4533   4.099   4.170   0.584 -0.2607  0.3360  0.0086
  301MPD2    C5 4534   4.127   4.301   0.564 -0.0669  0.4179 -0.0155
  301MPD2     H 4535   4.024   4.177   0.915  2.8388 -0.6500  0.0026
  301MPD2    H1 4536   4.108   4.099   0.503 -0.7125 -0.9359  1.0853
  301MPD2    H2 4537   4.114   4.492   0.649  2.4392  0.2143 -0.4309
  301MPD2    H3 4538   4.164   4.335   0.467 -1.4011 -0.2916 -0.7694
  301MPD2     N 4539   4.053   3.983   0.731  0.6958 -0.1619  0.3599
  301MPD2    H5 4540   4.071   3.923   0.651  0.6442 -0.7474  0.7953
  301MPD2    N1 4541   4.031   4.424   0.900  0.4322 -0.1618  0.4700
  301MPD2    H7 4542   3.966   4.388   0.969  0.0201 -1.1242 -0.4259
  302TMC3    C1 4543   4.048   3.772   0.829 -0.2319  0.1386  0.4371
  302TMC3    C2 4544   4.086   3.707   0.711 -0.7019  0.0005  0.3101
  302TMC3    C3 4545   4.066   3.575   0.701  0.0241  0.1800 -1.1087
  302TMC3    C4 4546   4.012   3.694   0.938  0.0494 -0.0133  0.0534
  302TMC3    C5 4547   3.994   3.560   0.917  0.0169 -0.6239  0.6405
  302TMC3    C6 4548   4.004   3.502   0.796 -0.0577  0.6014  1.1830
  302TMC3     C 4549   4.029   3.913   0.844  0.5890 -0.3917  0.7033
  302TMC3     O 4550   3.995   3.952   0.956  0.4073  0.8637  0.0734
  302TMC3     H 4551   4.105   3.770   0.625 -0.7021 -1.6809 -0.9191
  302TMC3    H1 4552   3.989   3.732   1.037  1.8382  0.6605  0.2130
  302TMC3    H2 4553   3.984   3.397   0.782  0.3731  0.7457 -0.5797
  302TMC3    C7 4554   3.909   3.495   1.013  0.1165  0.4351  0.2004
  302TMC3    C8 4555   4.044   3.531   0.571  0.1948 -0.2764 -0.4774
  302TMC3    O1 4556   3.948   3.386   1.056  0.3152  0.0390 -0.2715
  302TMC3    O2 4557   3.936   3.491   0.533  0.5717  0.0744  0.0608
  303MPD2     C 4558   4.143   3.091  10.638 -0.0385  0.3759  0.1108
  303MPD2    C1 4559   4.130   3.102  10.504 -0.5626  0.7153 -0.8276
  303MPD2    C2 4560   4.221   3.193  10.444 -0.7231  0.4656 -0.3610
  303MPD2    C3 4561   4.331   3.253  10.517 -0.2579 -0.1969  0.2046
  303MPD2    C4 4562   4.339   3.232  10.651 -0.8484  0.1047 -0.4285
  303MPD2    C5 4563   4.239   3.162  10.712  0.5759 -0.2385  0.6809
  303MPD2     H 4564   4.216   3.221  10.340 -1.6647  0.3368 -0.3557
  303MPD2    H1 4565   4.411   3.282  10.714 -0.7181 -0.3481 -0.2186
  303MPD2    H2 4566   4.062   3.042  10.692 -0.8248 -0.5005 -1.8611
  303MPD2    H3 4567   4.229   3.163  10.820 -1.1756 -0.1712  0.5105
  303MPD2     N 4568   4.430   3.327  10.457  0.4305 -0.3146  0.1931
  303MPD2    H5 4569   4.504   3.369  10.513 -1.0767  2.2055  0.2965
  303MPD2    N1 4570   4.020   3.034  10.442 -0.7966  0.3502 -0.1725
  303MPD2    H7 4571   3.959   2.978  10.502  3.4220 -1.3903  2.5203
  304TMC3    C1 4572   3.904   2.937  10.256  0.7279  0.4358  0.7351
  304TMC3    C2 4573   3.835   2.969  10.139  0.6573  0.3292 -0.2032
  304TMC3    C3 4574   3.805   2.861  10.062  0.5762  0.1285 -0.1739
  304TMC3    C4 4575   3.934   2.815  10.298 -0.7396  0.2021 -0.1594
  304TMC3    C5 4576   3.900   2.714  10.211  0.4752  0.4515 -0.3832
  304TMC3    C6 4577   3.818   2.730  10.101  0.5872  0.0529  0.1540
  304TMC3     C 4578   3.997   3.039  10.305  0.4656 -0.3442  0.7377
  304TMC3     O 4579   4.048   3.108  10.219 -0.3267  0.1862 -0.2998
  304TMC3     H 4580   3.832   3.072  10.105 -0.5513 -0.1414 -1.4899
  304TMC3    H1 4581   3.989   2.804  10.391 -1.1071 -1.0637 -0.0893
  304TMC3    H2 4582   3.788   2.654  10.030  1.3993  2.8425 -3.1536
  304TMC3    C7 4583   4.003   2.618  10.188 -0.0954 -0.0251  0.1879
  304TMC3    C8 4584   3.846   2.877   9.921  0.8659  0.1085 -0.2392
  304TMC3    O1 4585   4.087   2.602  10.277  0.4176 -0.2886  0.5447
  304TMC3    O2 4586   3.883   2.776   9.860  0.1455 -0.4823  0.7847
  305MPD2     C 4587   3.206   0.405  13.943 -0.4499  0.4282  0.3210
  305MPD2    C1 4588   3.090   0.331  13.945 -0.1791  0.2646 -0.1758
  305MPD2    C2 4589   3.027   0.291  13.829 -0.5363  0.7259  0.6393
  305MPD2    C3 4590   3.074   0.345  13.714  0.3034  0.4470  0.1492
  305MPD2    C4 4591   3.185   0.425  13.711 -0.7069 -0.0978  0.1352
  305MPD2    C5 4592   3.253   0.458  13.826 -0.2935  0.0161  0.8131
  305MPD2     H 4593   2.939   0.228  13.830 -1.2066  1.6598  0.7117
  305MPD2    H1 4594   3.220   0.464  13.616  0.0106 -0.3046  0.3137
  305MPD2    H2 4595   3.258   0.434  14.034  1.0327 -0.6271 -0.1758
  305MPD2    H3 4596   3.337   0.526  13.813 -1.1425  1.0607  0.7247
  305MPD2     N 4597   3.027   0.318  13.577  0.3231  0.0686 -0.5633
  305MPD2    H5 4598   3.085   0.361  13.505 -0.4848  2.7831  0.4196
  305MPD2    N1 4599   3.038   0.302  14.070 -0.5629  1.0178  0.1973
  305MPD2    H7 4600   3.092   0.336  14.149  1.4909  0.0603 -0.7941
  306TMC3    C1 4601   2.924   0.222  14.240  0.5280 -0.3836  0.5500
  306TMC3    C2 4602   2.894   0.106  14.301 -0.6865 -0.7015 -0.3934
  306TMC3    C3 4603   2.890   0.110  14.436 -0.4968  0.9555  0.3049
  306TMC3    C4 4604   2.924   0.341  14.306 -0.0368 -0.0105 -0.2778
  306TMC3    C5 4605   2.922   0.337  14.441 -0.2653  0.9652  0.0558
  306TMC3    C6 4606   2.915   0.222  14.512 -0.1792  0.0125  0.1442
  306TMC3     C 4607   2.933   0.221  14.097  0.2891 -0.8119  0.2932
  306TMC3     O 4608   2.859   0.146  14.031  0.1573 -0.6881  0.5736
  306TMC3     H 4609   2.888   0.013  14.246 -0.1322 -0.5488 -0.7154
  306TMC3    H1 4610   2.917   0.433  14.249  1.8356  0.1570 -0.2377
  306TMC3    H2 4611   2.911   0.218  14.620 -0.3579 -2.3897  0.0321
  306TMC3    C7 4612   2.983   0.454  14.500  0.1066  0.5675  0.4911
  306TMC3    C8 4613   2.927   4.703  14.494 -0.0151  0.6843 -0.4770
  306TMC3    O1 4614   3.038   0.534  14.424  0.2034 -0.3597  0.0887
  306TMC3    O2 4615   3.019   4.648  14.434  0.1234 -0.1356 -0.5732
  307MPD2     C 4616   0.931   2.064   0.414 -0.1733  0.0975 -0.0499
  307MPD2    C1 4617   0.861   2.180   0.416  0.4651 -0.1421  0.3563
  307MPD2    C2 4618   0.750   2.182   0.495  0.4585 -0.0837  0.0905
  307MPD2    C3 4619   0.694   2.069   0.559  0.2496  0.4351 -0.1265
  307MPD2    C4 4620   0.754   1.947   0.539 -0.1226  0.1961  0.5913
  307MPD2    C5 4621   0.881   1.949   0.472  0.0946 -0.2169  0.0731
  307MPD2     H 4622   0.684   2.268   0.507  0.9594  0.4681 -1.1143
  307MPD2    H1 4623   0.705   1.856   0.573  2.1180 -2.4217 -3.1363
  307MPD2    H2 4624   1.017   2.042   0.353  1.1711 -1.9466  2.5700
  307MPD2    H3 4625   0.928   1.852   0.457 -1.6766 -0.8588 -1.3580
  307MPD2     N 4626   0.580   2.088   0.638 -0.8007 -0.0932  0.0833
  307MPD2    H5 4627   0.537   2.180   0.631 -0.6564  0.0087  0.5364
  307MPD2    N1 4628   0.904   2.298   0.351 -0.0159 -0.2734  0.2493
  307MPD2    H7 4629   0.834   2.369   0.369  1.0906  1.3181 -1.6121
  308TMC3    C1 4630   0.155   2.112   0.655 -0.2057  0.2115  0.7943
  308TMC3    C2 4631   0.163   2.236   0.700 -0.3057 -0.3477 -0.2957
  308TMC3    C3 4632   0.277   2.272   0.766  0.4670 -0.0617 -0.6604
  308TMC3    C4 4633   0.259   2.020   0.677  0.5317  0.9757  0.5756
  308TMC3    C5 4634   0.376   2.064   0.736  0.2963 -0.0037  0.7019
  308TMC3    C6 4635   0.384   2.189   0.776 -0.0051 -0.1176 -0.0914
  308TMC3     C 4636   0.038   2.068   0.581 -0.0833 -0.2330 -0.1308
  308TMC3     O 4637   0.022   1.948   0.566 -0.3492  0.1327  0.3258
  308TMC3     H 4638   0.083   2.307   0.682 -1.1523 -1.1055  0.4866
  308TMC3    H1 4639   0.251   1.928   0.621  1.1965  1.7026 -0.7094
  308TMC3    H2 4640   0.469   2.249   0.803 -0.9390  2.0023 -1.8907
  308TMC3    C7 4641   0.496   1.996   0.696  0.6022  0.0532 -0.2417
  308TMC3    C8 4642   0.289   2.392   0.842 -0.2176  0.9245  0.1228
  308TMC3    O1 4643   0.489   1.872   0.694 -0.3335  0.3239 -0.5381
  308TMC3    O2 4644   0.352   2.390   0.949 -0.0768 -0.0584  0.3979
  309MPD2     C 4645   4.577   2.957  16.983 -0.4296  0.1017  0.3185
  309MPD2    C1 4646   4.532   3.067  16.914 -0.2217  0.7993 -0.4694
  309MPD2    C2 4647   4.395   3.094  16.922  0.1829  0.2283 -0.6206
  309MPD2    C3 4648   4.305   3.015  16.990  0.3728 -0.2968  0.1801
  309MPD2    C4 4649   4.355   2.898  17.048  0.7196 -0.3341  0.3450
  309MPD2    C5 4650   4.496   2.876  17.059  0.3808 -0.5879  0.2924
  309MPD2     H 4651   4.358   3.181  16.870  1.6879 -0.1924 -2.4018
  309MPD2    H1 4652   4.286   2.827  17.091 -0.1909  0.8215  0.8165
  309MPD2    H2 4653   4.683   2.934  16.986 -0.6884 -1.2526 -1.3596
  309MPD2    H3 4654   4.538   2.788  17.105  1.4239 -0.2838 -0.0733
  309MPD2     N 4655   4.167   3.026  16.994 -0.5505  0.0259  0.5868
  309MPD2    H5 4656   4.116   2.948  17.032  1.1063 -0.4842  1.7569
  309MPD2    N1 4657   4.615   3.161  16.842  0.6514 -0.1686 -0.4543
  309MPD2    H7 4658   4.571   3.233  16.785  1.8914  1.3500  0.5306
  310TMC3    C1 4659   0.081   3.238  16.742 -0.3260 -0.2855  0.4402
  310TMC3    C2 4660   0.006   3.291  16.639 -0.4701 -0.4556  0.3256
  310TMC3    C3 4661   0.076   3.337  16.530 -0.2392  0.0957  0.5065
  310TMC3    C4 4662   0.216   3.232  16.736 -0.9208 -0.7212 -0.1761
  310TMC3    C5 4663   0.282   3.276  16.625 -0.3918  0.5315  0.1775
  310TMC3    C6 4664   0.215   3.327  16.520  0.0752  1.1716  1.0832
  310TMC3     C 4665   0.025   3.161  16.851  1.2762  0.1222  0.1627
  310TMC3     O 4666   0.103   3.093  16.914  0.1684  0.2902  0.0741
  310TMC3     H 4667   4.623   3.287  16.637 -0.5451  2.2171 -0.7735
  310TMC3    H1 4668   0.268   3.198  16.825 -1.0039  0.2436  0.2437
  310TMC3    H2 4669   0.269   3.367  16.435  0.3018 -0.2832  0.5367
  310TMC3    C7 4670   0.407   3.199  16.590 -0.2011  0.1362 -0.1550
  310TMC3    C8 4671   0.011   3.389  16.408 -0.3311  0.2437  0.3462
  310TMC3    O1 4672   0.436   3.224  16.470  0.5515  0.1447 -0.3997
  310TMC3    O2 4673   4.622   3.357  16.389  0.2633 -0.4828 -1.0442
  311MPD2     C 4674   1.914   0.114  12.484  0.2367 -0.2901  0.9613
  311MPD2    C1 4675   1.899   0.157  12.614  0.0388 -0.3947  0.1437
  311MPD2    C2 4676   1.777   0.126  12.673 -0.6117  0.8002 -0.0842
  311MPD2    C3 4677   1.677   0.061  12.601 -0.1496 -0.9640  0.0013
  311MPD2    C4 4678   1.695   0.026  12.468  0.0093 -0.6120 -0.5491
  311MPD2    C5 4679   1.816   0.042  12.418  0.9458  0.0181  0.7593
  311MPD2     H 4680   1.760   0.149  12.777  1.5386 -0.2409  0.4986
  311MPD2    H1 4681   1.624   4.696  12.408 -0.6669 -0.8418  0.4562
  311MPD2    H2 4682   1.992   0.149  12.417 -0.1926  2.1463  1.7510
  311MPD2    H3 4683   1.830   0.012  12.315  0.2228 -1.9856  1.2217
  311MPD2     N 4684   1.550   0.034  12.663  0.3202 -0.3728  0.2865
  311MPD2    H5 4685   1.545   0.028  12.764 -0.2680 -2.8178  0.1268
  311MPD2    N1 4686   2.000   0.223  12.690 -0.5063 -0.2757 -0.4485
  311MPD2    H7 4687   1.964   0.263  12.777 -1.9254 -1.5809 -0.4435
  312TMC3    C1 4688   1.314   4.716  12.677  0.5133 -0.7990  0.3317
  312TMC3    C2 4689   1.199   4.714  12.602  0.1961  0.7384  0.0405
  312TMC3    C3 4690   1.080   4.667  12.659 -0.2757 -0.4309 -0.3762
  312TMC3    C4 4691   1.330   4.646  12.794  0.2388  0.6292 -0.9484
  312TMC3    C5 4692   1.214   4.602  12.851 -0.6819  0.3732 -0.3026
  312TMC3    C6 4693   1.092   4.614  12.787 -0.0738 -0.0062 -0.1122
  312TMC3     C 4694   1.431   0.025  12.596 -0.3438  0.0314 -0.4012
  312TMC3     O 4695   1.416   0.049  12.477  0.4687 -1.1426 -1.0080
  312TMC3     H 4696   1.187   0.020  12.499 -1.8039 -0.0333  0.0438
  312TMC3    H1 4697   1.428   4.634  12.839 -0.4106 -0.2002  0.2540
  312TMC3    H2 4698   1.003   4.574  12.835 -0.8070  2.3616  0.5164
  312TMC3    C7 4699   1.209   4.514  12.969 -0.2344  0.4109  0.4854
  312TMC3    C8 4700   0.957   4.647  12.589  0.5464  0.3158 -0.5570
  312TMC3    O1 4701   1.121   4.430  12.964 -0.0489  0.8023  0.6835
  312TMC3    O2 4702   0.869   4.580  12.641 -0.0907  0.4482  0.6856
  313MPD2     C 4703   1.319   3.759  10.770  0.2793 -0.0514 -0.1429
  313MPD2    C1 4704   1.232   3.844  10.699  0.5799  0.6744 -0.1904
  313MPD2    C2 4705   1.126   3.799  10.625 -0.6226 -0.4343 -0.5298
  313MPD2    C3 4706   1.105   3.661  10.624  0.3998 -0.1907 -0.8217
  313MPD2    C4 4707   1.189   3.578  10.691 -0.3260 -0.3809  0.5170
  313MPD2    C5 4708   1.293   3.619  10.766 -0.4140  0.2998  0.1261
  313MPD2     H 4709   1.057   3.869  10.578 -1.4946  0.2597  1.8022
  313MPD2    H1 4710   1.174   3.471  10.691 -1.1443 -0.2853 -3.0419
  313MPD2    H2 4711   1.411   3.795  10.814  0.7386 -1.3761 -0.0235
  313MPD2    H3 4712   1.351   3.549  10.825 -0.8049  1.8863  2.4197
  313MPD2     N 4713   0.990   3.604  10.569  0.2410 -0.2200  0.0105
  313MPD2    H5 4714   0.976   3.503  10.565  0.7297 -0.2121 -1.9118
  313MPD2    N1 4715   1.255   3.984  10.684 -0.5461 -0.0384 -0.2276
  313MPD2    H7 4716   1.183   4.031  10.629 -0.6390 -2.8986 -2.5277
  314TMC3    C1 4717   1.342   4.197  10.687  0.4357 -0.3356  1.3569
  314TMC3    C2 4718   1.378   4.298  10.772 -0.6103  1.0140  0.4734
  314TMC3    C3 4719   1.326   4.420  10.744  0.0882  0.3452  0.2293
  314TMC3    C4 4720   1.279   4.218  10.568  0.4327 -0.0048  0.1463
  314TMC3    C5 4721   1.225   4.338  10.551 -0.6602 -0.0575  0.1519
  314TMC3    C6 4722   1.239   4.447  10.636  0.6558  0.0886 -0.1726
  314TMC3     C 4723   1.364   4.058  10.729  0.3140 -0.1181 -0.0436
  314TMC3     O 4724   1.451   4.030  10.814 -0.2655 -0.3926 -0.1266
  314TMC3     H 4725   1.419   4.268  10.869  0.7970 -0.7971 -0.6692
  314TMC3    H1 4726   1.258   4.139  10.497  1.6745 -0.8585  0.7314
  314TMC3    H2 4727   1.185   4.538  10.616  2.3009  1.9281  3.7769
  314TMC3    C7 4728   1.121   4.336  10.448 -0.3769 -0.0247 -0.0827
  314TMC3    C8 4729   1.386   4.534  10.805 -0.3084  0.3541  0.3881
  314TMC3    O1 4730   1.057   4.230  10.443 -0.1803  0.6237  0.2961
  314TMC3    O2 4731   1.333   4.643  10.786 -0.0349  0.1747  0.0876
  315MPD2     C 4732   0.473   3.107   0.751  0.2488 -0.1144 -0.0415
  315MPD2    C1 4733   0.588   3.105   0.682  0.3336  0.2020 -0.2366
  315MPD2    C2 4734   0.599   3.186   0.573 -0.4976  0.4359 -0.0477
  315MPD2    C3 4735   0.503   3.274   0.527 -0.1943  0.4029 -0.3910
  315MPD2    C4 4736   0.392   3.286   0.607 -0.3888  0.1599  0.3410
  315MPD2    C5 4737   0.372   3.193   0.716 -0.2704  0.4857 -0.5007
  315MPD2     H 4738   0.693   3.181   0.520 -0.7912  1.2785 -0.6341
  315MPD2    H1 4739   0.308   3.354   0.597 -0.5770 -0.1663 -0.2835
  315MPD2    H2 4740   0.469   3.048   0.842 -0.2979 -1.5796 -1.0028
  315MPD2    H3 4741   0.292   3.191   0.789  1.1981 -0.7377  1.0372
  315MPD2     N 4742   0.531   3.363   0.423  0.0535 -0.1562 -0.2700
  315MPD2    H5 4743   0.627   3.362   0.393  0.4392  1.1694  0.9414
  315MPD2    N1 4744   0.698   3.024   0.719 -0.2100  0.3101  0.7246
  315MPD2    H7 4745   0.769   3.014   0.647  1.0242 -1.1004  2.1126
  316TMC3    C1 4746   0.483   3.528   0.252 -0.4229  0.2900 -1.1351
  316TMC3    C2 4747   0.605   3.579   0.261 -0.5803  0.0939 -0.0880
  316TMC3    C3 4748   0.646   3.680   0.175  0.6172 -0.0886 -0.4339
  316TMC3    C4 4749   0.394   3.561   0.160  0.3954  0.4625 -0.0856
  316TMC3    C5 4750   0.443   3.652   0.066  0.7296 -0.1363 -0.3763
  316TMC3    C6 4751   0.562   3.711   0.068  0.1144  0.4886  0.4121
  316TMC3     C 4752   0.441   3.457   0.369  0.1439  0.8874 -0.0169
  316TMC3     O 4753   0.330   3.484   0.409  0.1966  0.3936 -0.2197
  316TMC3     H 4754   0.670   3.540   0.338 -2.5137 -0.6116  1.1907
  316TMC3    H1 4755   0.307   3.498   0.148 -0.2536  0.9380  2.1366
  316TMC3    H2 4756   0.601   3.795   0.010  0.7520 -0.6225 -0.7622
  316TMC3    C7 4757   0.371   3.661  17.636 -0.7627 -0.2735  0.2802
  316TMC3    C8 4758   0.792   3.688   0.149 -0.0846  0.3387  0.7895
  316TMC3    O1 4759   0.274   3.589  17.619 -0.0833 -0.1153 -0.2812
  316TMC3    O2 4760   0.819   3.723   0.034  0.4262  0.0983  0.1074
  317MPD2     C 4761   3.042   1.892  13.485 -0.5450 -0.4611  0.0392
  317MPD2    C1 4762   3.057   1.840  13.360 -0.5400 -0.6695  0.0473
  317MPD2    C2 4763   3.153   1.746  13.340 -0.1766  0.1711  0.3989
  317MPD2    C3 4764   3.228   1.699  13.445 -0.2878 -0.0773 -0.6171
  317MPD2    C4 4765   3.202   1.744  13.573 -0.1694 -0.0838 -0.3730
  317MPD2    C5 4766   3.101   1.830  13.590 -0.9397 -0.5690 -0.1034
  317MPD2     H 4767   3.167   1.703  13.242  1.1722  1.5622 -0.0224
  317MPD2    H1 4768   3.262   1.715  13.658  0.5401 -0.4900 -1.0171
  317MPD2    H2 4769   2.958   1.956  13.507 -0.8527 -0.6737 -0.5352
  317MPD2    H3 4770   3.077   1.857  13.693 -0.8667  2.0667 -0.7855
  317MPD2     N 4771   3.325   1.608  13.412 -0.4973  0.1246 -0.0629
  317MPD2    H5 4772   3.341   1.595  13.313  1.3311 -0.2543  0.2845
  317MPD2    N1 4773   2.984   1.889  13.252 -0.2573 -0.0062  0.0179
  317MPD2    H7 4774   3.009   1.839  13.167  1.1740  0.3900  0.2020
  318TMC3    C1 4775   3.516   1.469  13.440 -0.0599  0.0062  0.6075
  318TMC3    C2 4776   3.514   1.332  13.451  0.7649  0.3308 -0.4475
  318TMC3    C3 4777   3.582   1.255  13.356  0.7639 -0.2289 -0.2481
  318TMC3    C4 4778   3.575   1.536  13.341  0.3164  0.2195  0.5820
  318TMC3    C5 4779   3.638   1.463  13.247 -0.2725 -0.3692  0.7051
  318TMC3    C6 4780   3.653   1.319  13.256 -0.3372 -0.7138 -0.0054
  318TMC3     C 4781   3.398   1.527  13.494  0.3123  0.2824  0.1771
  318TMC3     O 4782   3.384   1.522  13.618  0.2604  0.0807 -0.1541
  318TMC3     H 4783   3.455   1.289  13.531  1.8613 -1.0960 -0.4053
  318TMC3    H1 4784   3.581   1.644  13.333 -2.1847  0.3748  0.6722
  318TMC3    H2 4785   3.708   1.263  13.181  0.4501 -0.0681  0.0910
  318TMC3    C7 4786   3.717   1.535  13.147 -0.6348 -0.9766  0.0411
  318TMC3    C8 4787   3.573   1.111  13.356 -0.1172  0.2396  0.7160
  318TMC3    O1 4788   3.674   1.648  13.112  0.1456  0.1115 -0.0304
  318TMC3    O2 4789   3.651   1.057  13.275 -0.0545  0.0603 -0.0822
  319MPD2     C 4790   3.939   2.717  16.758 -0.2591  0.4952  1.0353
  319MPD2    C1 4791   3.849   2.630  16.809 -0.2707  0.3239 -0.0846
  319MPD2    C2 4792   3.741   2.582  16.731  0.0529 -0.8290  0.3127
  319MPD2    C3 4793   3.731   2.614  16.597 -1.0952 -0.2820  0.0200
  319MPD2    C4 4794   3.826   2.700  16.540  0.2952 -0.3909 -0.8282
  319MPD2    C5 4795   3.926   2.749  16.627  0.0173 -0.6109 -0.3936
  319MPD2     H 4796   3.666   2.516  16.773 -3.1123  2.0061 -0.8894
  319MPD2    H1 4797   3.826   2.724  16.434 -1.8183  1.8785 -0.3157
  319MPD2    H2 4798   4.028   2.753  16.808  0.8395 -0.6450 -0.0887
  319MPD2    H3 4799   3.998   2.816  16.581 -1.7829  0.1105 -2.1664
  319MPD2     N 4800   3.631   2.578  16.509  0.3729 -0.0625 -0.8024
  319MPD2    H5 4801   3.627   2.619  16.416 -0.5779  0.3146 -0.5943
  319MPD2    N1 4802   3.857   2.587  16.936  0.5636  0.5646 -0.3557
  319MPD2    H7 4803   3.797   2.508  16.957 -1.7997  2.9289  1.7427
  320TMC3    C1 4804   3.454   2.453  16.426  0.3539 -0.0011  0.0935
  320TMC3    C2 4805   3.435   2.538  16.322  0.2378 -0.2522  0.0557
  320TMC3    C3 4806   3.345   2.500  16.228 -0.8800 -0.1555  0.1228
  320TMC3    C4 4807   3.393   2.337  16.431  1.0244  0.2365  0.0861
  320TMC3    C5 4808   3.297   2.304  16.339 -0.1424  0.0250 -0.6403
  320TMC3    C6 4809   3.280   2.381  16.226  0.9649  0.1538 -0.2984
  320TMC3     C 4810   3.532   2.488  16.543  0.0527  0.6957 -0.2009
  320TMC3     O 4811   3.497   2.435  16.647 -0.3466 -0.0970 -0.0827
  320TMC3     H 4812   3.476   2.639  16.320 -0.6604  0.1253  0.9203
  320TMC3    H1 4813   3.405   2.276  16.521  2.1421  0.8570  0.3520
  320TMC3    H2 4814   3.213   2.350  16.147  1.3488  0.0769 -0.5892
  320TMC3    C7 4815   3.223   2.180  16.343 -0.1963  0.2192 -0.2571
  320TMC3    C8 4816   3.293   2.598  16.138  0.5752 -0.1892 -0.8981
  320TMC3    O1 4817   3.182   2.137  16.233 -0.8523  0.3566  0.3977
  320TMC3    O2 4818   3.304   2.714  16.173 -0.1203  0.1538  0.0249
  321TMC3    C1 4819   3.985   2.521  17.118 -0.1880  0.0401  0.1441
  321TMC3    C2 4820   3.959   2.392  17.094  0.1755 -0.7256 -0.2309
  321TMC3    C3 4821   3.971   2.301  17.196  0.8475 -0.1005 -0.3575
  321TMC3    C4 4822   4.050   2.564  17.232 -0.6040  0.1931 -1.0707
  321TMC3    C5 4823   4.081   2.469  17.327 -0.2492 -0.0361  0.5629
  321TMC3    C6 4824   4.028   2.339  17.312  0.5168  0.4353 -0.3118
  321TMC3     C 4825   3.963   2.620  17.022 -0.4334 -0.0192  0.2368
  321TMC3     O 4826   4.016   2.729  17.042  0.5127 -0.5068  0.7775
  321TMC3     H 4827   3.932   2.370  16.992  0.8177 -0.0533 -0.5493
  321TMC3    H1 4828   4.092   2.663  17.247  1.5212 -0.7704 -0.5891
  321TMC3    H2 4829   4.028   2.270  17.395  0.8284 -0.2605 -0.8921
  321TMC3    C7 4830   4.220   2.440  17.344 -0.1024 -0.2775  0.4870
  321TMC3    C8 4831   3.992   2.162  17.155  0.0150  0.8472 -0.0970
  321TMC3    O1 4832   4.259   2.331  17.307  0.0127 -0.7115  0.1877
  321TMC3    O2 4833   3.925   2.108  17.067 -0.4121  0.0191 -0.2940
  322MPD2     C 4834   2.578   4.306  13.537  0.5315  0.9309  0.0052
  322MPD2    C1 4835   2.610   4.227  13.646 -0.4750  0.2515  0.9562
  322MPD2    C2 4836   2.604   4.082  13.633  0.3325  0.7039  0.1853
  322MPD2    C3 4837   2.554   4.022  13.516 -0.0032 -0.2390  0.1069
  322MPD2    C4 4838   2.510   4.106  13.411  0.1447  0.4803  0.2901
  322MPD2    C5 4839   2.528   4.244  13.422 -0.5162  0.0214 -0.0948
  322MPD2     H 4840   2.625   4.018  13.718 -0.2758  1.8640  1.2082
  322MPD2    H1 4841   2.476   4.068  13.316  1.5412  0.8995 -0.3810
  322MPD2    H2 4842   2.581   4.414  13.548  2.8788  0.5905  2.6177
  322MPD2    H3 4843   2.513   4.305  13.333  0.1409 -0.3767 -0.4775
  322MPD2     N 4844   2.541   3.879  13.512  0.3529  0.5729 -0.3800
  322MPD2    H5 4845   2.548   3.835  13.603  1.3768  1.8166  0.1428
  322MPD2    N1 4846   2.665   4.288  13.761  0.4976  0.4400 -0.1770
  322MPD2    H7 4847   2.668   4.389  13.765  1.1858  0.4126  0.0329
  323TMC3    C1 4848   2.769   4.325  13.965  0.1265 -0.3521  0.5658
  323TMC3    C2 4849   2.812   4.450  13.932 -0.5114  0.1985  0.3193
  323TMC3    C3 4850   2.891   4.524  14.014 -0.3862 -0.5671 -0.0343
  323TMC3    C4 4851   2.802   4.278  14.091  0.3604 -0.4304 -0.6272
  323TMC3    C5 4852   2.869   4.354  14.177 -0.3661 -0.7786 -0.9337
  323TMC3    C6 4853   2.908   4.483  14.142  0.3742 -0.1443  0.2760
  323TMC3     C 4854   2.723   4.224  13.864 -0.1944  0.5256  0.8397
  323TMC3     O 4855   2.719   4.105  13.899 -0.4055 -0.0458 -1.4085
  323TMC3     H 4856   2.785   4.494  13.836  0.3862 -0.6842 -0.3345
  323TMC3    H1 4857   2.764   4.178  14.107  0.7911 -0.3992  0.5848
  323TMC3    H2 4858   2.944   4.557  14.213 -0.6509 -0.8477  1.5202
  323TMC3    C7 4859   2.939   4.279  14.279  0.4062 -0.0281  0.2651
  323TMC3    C8 4860   3.010   4.597  13.971  0.4108 -0.1628  0.3153
  323TMC3    O1 4861   2.919   4.159  14.273  0.1207 -0.3007 -0.7925
  323TMC3    O2 4862   3.106   4.584  14.046  0.0682 -0.3016 -0.1310
  324MPD2     C 4863   0.373   1.231  14.034  0.1078  0.4203 -0.1205
  324MPD2    C1 4864   0.318   1.203  14.159 -0.4406 -0.0481 -0.8037
  324MPD2    C2 4865   0.193   1.245  14.179  0.1595 -0.2759  0.2756
  324MPD2    C3 4866   0.113   1.301  14.080  0.5036  0.0505 -0.3394
  324MPD2    C4 4867   0.167   1.326  13.956 -0.5166 -0.7947 -1.1900
  324MPD2    C5 4868   0.299   1.295  13.930 -0.5732 -0.5148  0.3209
  324MPD2     H 4869   0.149   1.213  14.273 -1.6263  0.8928 -0.1462
  324MPD2    H1 4870   0.118   1.388  13.882  0.5541  0.0778 -1.1681
  324MPD2    H2 4871   0.472   1.193  14.012  0.7908  1.9630  0.2748
  324MPD2    H3 4872   0.352   1.323  13.839  0.7578 -2.4300  0.4944
  324MPD2     N 4873   4.707   1.338  14.094 -0.5536 -0.1273  0.3611
  324MPD2    H5 4874   4.660   1.354  14.005 -1.0759 -1.4826  0.3908
  324MPD2    N1 4875   0.384   1.151  14.271 -0.3611  0.7648 -0.5402
  324MPD2    H7 4876   0.334   1.168  14.357 -1.2688 -2.0241 -0.5129
  325TMC3    C1 4877   4.512   1.409  14.207  0.0502  0.3140 -0.2151
  325TMC3    C2 4878   4.435   1.382  14.096  0.0989 -0.0167 -0.3730
  325TMC3    C3 4879   4.305   1.404  14.094 -0.4953 -0.5626 -0.8945
  325TMC3    C4 4880   4.455   1.457  14.321  0.2509 -0.3128 -0.1112
  325TMC3    C5 4881   4.321   1.488  14.315 -0.6850 -0.4782  0.7709
  325TMC3    C6 4882   4.239   1.456  14.203 -0.0041 -0.8294  0.3547
  325TMC3     C 4883   4.649   1.366  14.219  0.2664 -0.3574  0.3717
  325TMC3     O 4884   4.700   1.355  14.329  0.0489  0.6145  0.0400
  325TMC3     H 4885   4.479   1.337  14.007  1.9942  1.8044 -0.3851
  325TMC3    H1 4886   4.515   1.473  14.410  3.1015 -1.8119 -1.7621
  325TMC3    H2 4887   4.142   1.500  14.182  0.7212  1.6230  2.1506
  325TMC3    C7 4888   4.258   1.523  14.441  0.0951 -0.9018 -0.2851
  325TMC3    C8 4889   4.236   1.286  14.036  0.5155 -0.2284  0.1048
  325TMC3    O1 4890   4.325   1.532  14.543 -0.0696  0.1418 -0.2591
  325TMC3    O2 4891   4.302   1.221  13.957 -0.3275 -0.2895  0.0906
  326MPD2     C 4892   0.279   2.322  11.101 -0.3288 -0.8975 -0.0270
  326MPD2    C1 4893   0.338   2.212  11.038 -0.6938 -0.7120 -0.2814
  326MPD2    C2 4894   0.478   2.204  11.024  0.4464 -0.4565  0.0264
  326MPD2    C3 4895   0.553   2.307  11.070  0.3943  0.2768  1.1677
  326MPD2    C4 4896   0.493   2.416  11.128 -0.4894 -0.0741  0.3525
  326MPD2    C5 4897   0.361   2.421  11.146  0.0578 -0.3700 -0.3512
  326MPD2     H 4898   0.502   2.111  10.975 -0.3255 -1.6842  1.9797
  326MPD2    H1 4899   0.546   2.505  11.160 -0.4731 -0.0009  0.1270
  326MPD2    H2 4900   0.171   2.325  11.112 -0.1481 -0.3521  1.6645
  326MPD2    H3 4901   0.314   2.504  11.198 -2.5151 -1.9339 -0.2126
  326MPD2     N 4902   0.696   2.314  11.050  0.7083  0.1484 -0.1114
  326MPD2    H5 4903   0.741   2.403  11.067 -1.4874  1.3119 -0.3700
  326MPD2    N1 4904   0.258   2.105  10.992  0.2960  0.1100 -0.2780
  326MPD2    H7 4905   0.310   2.028  10.951  3.8467  1.7201  1.2207
  327TMC3    C1 4906   0.071   1.963  10.940 -0.2013  0.5568  0.9346
  327TMC3    C2 4907   4.699   1.964  10.850 -0.2252  0.2794  0.7330
  327TMC3    C3 4908   4.690   1.864  10.761 -0.4707  0.7853 -0.2875
  327TMC3    C4 4909   0.155   1.863  10.948 -0.2380 -0.1336  0.3880
  327TMC3    C5 4910   0.150   1.768  10.854  0.0394  0.3623  0.0658
  327TMC3    C6 4911   0.051   1.765  10.759  0.0765 -0.6480  0.2335
  327TMC3     C 4912   0.117   2.095  10.988 -0.3444 -0.1127  0.5763
  327TMC3     O 4913   0.027   2.173  11.006  0.4109 -0.2259  0.2941
  327TMC3     H 4914   4.643   2.055  10.830 -1.8917 -0.0563  4.0054
  327TMC3    H1 4915   0.233   1.865  11.023  1.9716  0.1964 -1.9142
  327TMC3    H2 4916   0.062   1.702  10.672  0.8181  0.4154 -0.4553
  327TMC3    C7 4917   0.278   1.740  10.792 -0.2600 -0.0089 -0.3768
  327TMC3    C8 4918   4.676   1.924  10.627 -0.5287 -0.0062 -0.0806
  327TMC3    O1 4919   0.283   1.702  10.678  0.2267 -0.8544 -0.1064
  327TMC3    O2 4920   0.040   1.904  10.547 -0.1723 -0.6475  0.6269
  328MPD2     C 4921   3.001   1.527  17.144 -0.0434 -0.2879  0.0904
  328MPD2    C1 4922   2.953   1.402  17.111  0.1691 -0.6852 -0.1311
  328MPD2    C2 4923   2.835   1.392  17.039  0.2695  0.8412 -0.3272
  328MPD2    C3 4924   2.773   1.508  16.999  0.0550  0.1996 -0.2046
  328MPD2    C4 4925   2.827   1.631  17.026 -0.2440  0.5431 -0.5223
  328MPD2    C5 4926   2.934   1.639  17.106  0.1913  0.5066 -0.8727
  328MPD2     H 4927   2.786   1.297  17.024  0.4780  0.5671  0.6901
  328MPD2    H1 4928   2.773   1.723  17.006  1.1275  0.8667 -2.7485
  328MPD2    H2 4929   3.082   1.539  17.214  0.1906 -0.3086 -0.1749
  328MPD2    H3 4930   2.978   1.732  17.140  0.0625 -0.2385  1.3832
  328MPD2     N 4931   2.647   1.513  16.929 -0.3011 -0.2222  0.1762
  328MPD2    H5 4932   2.623   1.600  16.883 -3.4957 -2.1529 -1.7942
  328MPD2    N1 4933   3.016   1.288  17.165  0.2446 -0.1389 -0.3615
  328MPD2    H7 4934   3.085   1.299  17.238  2.3669  0.3079 -2.4317
  329TMC3    C1 4935   3.026   1.057  17.221  0.1529  0.5338  0.4760
  329TMC3    C2 4936   3.083   1.088  17.345 -0.2655  0.4383 -0.2642
  329TMC3    C3 4937   3.133   0.983  17.416 -0.4066  0.1657 -1.0555
  329TMC3    C4 4938   3.015   0.931  17.169  0.2300  0.3553  0.3098
  329TMC3    C5 4939   3.071   0.827  17.246 -0.4178  0.7271  0.3628
  329TMC3    C6 4940   3.127   0.852  17.372 -0.2511 -0.0274 -0.1732
  329TMC3     C 4941   2.977   1.158  17.129 -0.8040 -0.6905  0.2772
  329TMC3     O 4942   2.922   1.121  17.025  0.5192 -0.0343 -0.3054
  329TMC3     H 4943   3.074   1.188  17.387  0.5234  0.2330  0.4055
  329TMC3    H1 4944   2.975   0.921  17.068 -0.0444 -3.2141  0.7745
  329TMC3    H2 4945   3.150   0.769  17.438  0.8660  1.7630  1.6615
  329TMC3    C7 4946   3.050   0.687  17.213  0.6253 -0.0277  0.4735
  329TMC3    C8 4947   3.179   1.002  17.549  0.4647  0.9691  0.6610
  329TMC3    O1 4948   3.041   0.603  17.304  0.2230  0.1942 -0.2427
  329TMC3    O2 4949   3.262   0.929  17.598  0.4891  0.1571  0.1229
  330TMC3    C1 4950   4.452   1.509   9.564 -0.1956  0.2027  0.3511
  330TMC3    C2 4951   4.443   1.371   9.558  0.0563 -0.1042  0.5664
  330TMC3    C3 4952   4.557   1.310   9.511 -0.8419 -0.3097 -0.2751
  330TMC3    C4 4953   4.568   1.578   9.579 -0.4174  0.4886  0.3480
  330TMC3    C5 4954   4.679   1.510   9.549  0.0358 -0.3793  0.0240
  330TMC3    C6 4955   4.677   1.378   9.512  0.0870 -0.3598 -0.1561
  330TMC3     C 4956   4.334   1.590   9.605 -0.3846  0.4699 -0.0235
  330TMC3     O 4957   4.361   1.675   9.694  0.2105 -0.2166 -0.2919
  330TMC3     H 4958   4.352   1.314   9.547 -0.1737  0.6628 -1.5325
  330TMC3    H1 4959   4.574   1.683   9.607 -1.8205  0.8273 -0.6755
  330TMC3    H2 4960   0.045   1.331   9.482 -0.0224 -0.1725 -0.7838
  330TMC3    C7 4961   0.074   1.583   9.588  0.9766  0.0196 -0.2258
  330TMC3    C8 4962   4.532   1.226   9.392  1.0717  0.8171 -1.0904
  330TMC3    O1 4963   0.072   1.704   9.609  0.0806  0.2719  0.4630
  330TMC3    O2 4964   4.422   1.227   9.339 -0.2027 -0.0963  0.1828
  331MPD2     C 4965   3.678   0.483  12.702 -0.2071  0.0963  0.2002
  331MPD2    C1 4966   3.771   0.509  12.603 -0.4285 -0.4695  0.0721
  331MPD2    C2 4967   3.797   0.410  12.510 -0.3738  0.1201 -0.3785
  331MPD2    C3 4968   3.720   0.293  12.522 -0.2036 -0.2864 -0.6624
  331MPD2    C4 4969   3.629   0.271  12.631 -0.2202  0.3520 -0.1559
  331MPD2    C5 4970   3.608   0.367  12.717 -0.2879  0.3435 -1.0914
  331MPD2     H 4971   3.871   0.423  12.432  1.1065  2.2574  1.3808
  331MPD2    H1 4972   3.578   0.176  12.644 -1.8219  1.4290  1.3123
  331MPD2    H2 4973   3.637   0.560  12.767 -0.1544  0.3142 -0.0220
  331MPD2    H3 4974   3.534   0.350  12.795  2.1443 -1.2822  0.8601
  331MPD2     N 4975   3.737   0.190  12.428 -0.0868 -0.3766 -0.0549
  331MPD2    H5 4976   3.694   0.102  12.453  1.6515 -2.0289 -2.9226
  331MPD2    N1 4977   3.822   0.636  12.587 -0.3185  0.4050 -0.1446
  331MPD2    H7 4978   3.785   0.717  12.635 -2.8995  0.8964 -2.9427
  332TMC3    C1 4979   3.819   0.057  12.252 -0.8594 -1.3631  0.0455
  332TMC3    C2 4980   3.856   0.064  12.121 -0.6383  0.4099  0.2683
  332TMC3    C3 4981   3.976   0.005  12.088 -0.1430  0.7392 -0.2565
  332TMC3    C4 4982   3.873   4.687  12.338  0.0216  0.4085 -0.4410
  332TMC3    C5 4983   3.977   4.613  12.303 -0.8417 -0.0150  0.0099
  332TMC3    C6 4984   4.032   4.639  12.178 -0.4197  0.1988  0.7243
  332TMC3     C 4985   3.799   0.188  12.306 -0.4924  0.8793  0.7775
  332TMC3     O 4986   3.844   0.284  12.248 -0.4855  0.6865 -0.1229
  332TMC3     H 4987   3.806   0.145  12.070 -1.9220 -0.6006 -0.0477
  332TMC3    H1 4988   3.829   4.683  12.437 -2.3199 -0.6767 -1.5105
  332TMC3    H2 4989   4.119   4.581  12.149 -1.0841 -1.5598  2.2122
  332TMC3    C7 4990   4.064   4.582  12.413  0.0476 -0.0946  0.2811
  332TMC3    C8 4991   4.051   0.057  11.969 -0.1740 -0.4665 -0.9537
  332TMC3    O1 4992   4.025   4.614  12.522  0.3721  0.2063  0.2256
  332TMC3    O2 4993   4.175   0.040  11.961  0.4974 -0.2361 -0.5457
  333MPD2     C 4994   3.822   4.705  10.963  0.3871 -0.1846 -0.1802
  333MPD2    C1 4995   3.927   4.622  10.955 -0.1882  0.1712  0.0309
  333MPD2    C2 4996   3.938   4.519  11.050  0.0547  0.4331 -0.5809
  333MPD2    C3 4997   3.837   4.499  11.144 -0.1276  0.4172  0.2864
  333MPD2    C4 4998   3.725   4.581  11.143  0.1903  0.3997 -0.4941
  333MPD2    C5 4999   3.727   4.691  11.058 -0.0978 -0.7235  0.1898
  333MPD2     H 5000   4.027   4.457  11.047  0.5039  1.1059 -1.1800
  333MPD2    H1 5001   3.634   4.582  11.202  0.1162 -0.8402 -0.5978
  333MPD2    H2 5002   3.812   0.069  10.902 -1.5152 -0.0764  0.2961
  333MPD2    H3 5003   3.643   0.033  11.076  0.4400  0.2823 -1.0226
  333MPD2     N 5004   3.854   4.399  11.239  0.2746 -0.8637 -0.2174
  333MPD2    H5 5005   3.943   4.350  11.238 -1.5682 -4.2311 -0.4887
  333MPD2    N1 5006   4.025   4.648  10.857 -0.1334 -0.5393 -0.6123
  333MPD2    H7 5007   4.016   0.009  10.805  0.5047 -0.6055 -0.8358
  334TMC3    C1 5008   4.231   4.639  10.751  0.2494 -0.7230 -0.1491
  334TMC3    C2 5009   4.329   4.564  10.690  0.4129  0.2652 -0.7699
  334TMC3    C3 5010   4.433   4.632  10.623 -0.4352  0.0473 -0.3220
  334TMC3    C4 5011   4.235   0.049  10.754  0.2981  0.6400 -0.3264
  334TMC3    C5 5012   4.335   0.109  10.687 -0.1591 -0.8110 -0.4742
  334TMC3    C6 5013   4.430   0.041  10.615  0.1174 -0.5163 -0.3660
  334TMC3     C 5014   4.132   4.573  10.826 -0.2235 -1.1529 -0.2680
  334TMC3     O 5015   4.131   4.451  10.834 -0.4715  0.3167 -0.6821
  334TMC3     H 5016   4.330   4.456  10.699 -1.6769  0.4633  1.8090
  334TMC3    H1 5017   4.169   0.109  10.816 -0.2072 -1.9460  1.6167
  334TMC3    H2 5018   4.505   0.098  10.561  0.2499 -1.4460 -1.1568
  334TMC3    C7 5019   4.315   0.249  10.646 -0.5663  0.1885  0.2270
  334TMC3    C8 5020   4.569   4.571  10.626 -0.1767 -0.1715 -0.0080
  334TMC3    O1 5021   4.396   0.321  10.690 -0.3690  0.0768 -0.0734
  334TMC3    O2 5022   4.573   4.452  10.605  0.0450 -0.3275 -0.0506
  335TMC3    C1 5023   3.737   1.518  17.594  0.1857 -0.6605  0.2161
  335TMC3    C2 5024   3.643   1.460  17.512  0.5469  0.5277 -0.7170
  335TMC3    C3 5025   3.657   1.326  17.483 -0.0305 -0.6688 -0.4854
  335TMC3    C4 5026   3.850   1.454  17.630  0.3587 -0.2218  0.4810
  335TMC3    C5 5027   3.851   1.317  17.599 -0.1994  0.2870 -0.0401
  335TMC3    C6 5028   3.759   1.246  17.530  0.3190 -0.0913 -0.3820
  335TMC3     C 5029   3.703   1.637  17.675 -0.0073  0.8676 -0.0603
  335TMC3     O 5030   3.735   1.628   0.090 -0.0807 -0.0135 -0.1681
  335TMC3     H 5031   3.551   1.512  17.491 -0.8547 -1.7732 -0.2308
  335TMC3    H1 5032   3.920   1.511  17.691 -0.5357  0.0350  1.2547
  335TMC3    H2 5033   3.778   1.150  17.482 -1.3935 -0.2938 -0.6723
  335TMC3    C7 5034   3.979   1.247  17.625 -0.4898 -0.4987 -0.7329
  335TMC3    C8 5035   3.581   1.278  17.372 -0.3104 -1.0302  0.3937
  335TMC3    O1 5036   3.983   1.139  17.568 -0.5758  0.5343 -0.8406
  335TMC3    O2 5037   3.524   1.363  17.304  0.2106 -0.4994  0.0841
  336MPD2     C 5038   3.568   3.881  15.928  0.2328  0.0483 -0.0328
  336MPD2    C1 5039   3.558   3.783  15.833 -0.6096  0.3106  0.8236
  336MPD2    C2 5040   3.637   3.669  15.836 -0.0095  0.0651  0.0362
  336MPD2    C3 5041   3.731   3.648  15.938 -0.2806  0.7507 -0.2582
  336MPD2    C4 5042   3.730   3.747  16.034 -0.3668  0.6334  0.6310
  336MPD2    C5 5043   3.648   3.854  16.038  0.5040  0.5172  1.0308
  336MPD2     H 5044   3.629   3.596  15.757  1.4343  1.2166 -1.1630
  336MPD2    H1 5045   3.804   3.737  16.112 -0.3149  0.8077  0.6049
  336MPD2    H2 5046   3.512   3.973  15.924 -0.1047 -0.2367 -2.0362
  336MPD2    H3 5047   3.633   3.916  16.125  2.0007  2.3677 -0.0295
  336MPD2     N 5048   3.819   3.538  15.959  0.7241 -0.3492 -0.0058
  336MPD2    H5 5049   3.845   3.531  16.056 -0.6774  0.2025  0.4175
  336MPD2    N1 5050   3.484   3.804  15.721  0.1232  0.4097 -0.3319
  336MPD2    H7 5051   3.465   3.723  15.663  1.3014 -0.7829  0.9222
  337TMC3    C1 5052   3.362   3.933  15.560  0.0702 -0.1341 -0.0534
  337TMC3    C2 5053   3.263   3.840  15.552  0.1966  0.0786  0.3465
  337TMC3    C3 5054   3.144   3.863  15.488  0.4403 -0.5989 -0.3292
  337TMC3    C4 5055   3.347   4.053  15.492  0.0866 -0.0362  0.1410
  337TMC3    C5 5056   3.225   4.082  15.435  0.0106 -0.1487  0.4860
  337TMC3    C6 5057   3.123   3.988  15.432  0.8480  0.6257 -1.0562
  337TMC3     C 5058   3.467   3.931  15.666  0.2160 -0.1429 -0.3741
  337TMC3     O 5059   3.509   4.044  15.695  0.1317 -0.0201 -0.1584
  337TMC3     H 5060   3.269   3.749  15.610  0.6754  0.1158  0.3527
  337TMC3    H1 5061   3.423   4.129  15.501  0.1710 -0.2150  0.9078
  337TMC3    H2 5062   3.029   4.021  15.390 -1.3173 -3.8757  0.2501
  337TMC3    C7 5063   3.185   4.216  15.398 -0.0697 -0.6186  0.4884
  337TMC3    C8 5064   3.038   3.760  15.478 -0.5576  1.1580 -0.4496
  337TMC3    O1 5065   3.074   4.254  15.424 -0.9193  0.1848  0.0608
  337TMC3    O2 5066   3.044   3.662  15.549 -0.2076 -0.0877 -0.4960
  338MPD2     C 5067   3.920   2.743   0.774 -0.3907  0.4066 -0.2366
  338MPD2    C1 5068   3.850   2.762   0.654  0.4778 -0.2551  0.2844
  338MPD2    C2 5069   3.718   2.755   0.664 -0.3134 -0.4903 -0.1055
  338MPD2    C3 5070   3.648   2.713   0.768 -0.2576  0.6186 -0.7763
  338MPD2    C4 5071   3.717   2.695   0.887 -0.9999  0.3194  0.3853
  338MPD2    C5 5072   3.849   2.708   0.889  0.2009 -0.1088  0.0144
  338MPD2     H 5073   3.660   2.771   0.574 -2.4860 -1.9745  1.0255
  338MPD2    H1 5074   3.664   2.663   0.976 -0.4519 -0.0453  0.5780
  338MPD2    H2 5075   4.027   2.756   0.789 -0.5199 -1.9547  2.5350
  338MPD2    H3 5076   3.922   2.689   0.967  1.0051 -0.1681 -0.7464
  338MPD2     N 5077   3.516   2.671   0.749  0.5212 -0.6830  0.0799
  338MPD2    H5 5078   3.467   2.701   0.665 -2.0477 -0.0030  1.8355
  338MPD2    N1 5079   3.919   2.780   0.527  0.3574 -0.1490  0.2708
  338MPD2    H7 5080   3.857   2.776   0.446 -0.1220 -0.8640  0.6725
  339TMC3    C1 5081   3.313   2.557   0.770 -0.5258  0.2601  0.0462
  339TMC3    C2 5082   3.248   2.445   0.814 -0.7398  0.1943 -0.1433
  339TMC3    C3 5083   3.133   2.407   0.751 -0.4343  0.5538 -0.2535
  339TMC3    C4 5084   3.258   2.641   0.677  0.4665 -0.0454 -0.1999
  339TMC3    C5 5085   3.136   2.614   0.621 -0.8316 -1.0613 -0.0717
  339TMC3    C6 5086   3.077   2.493   0.653  0.6987 -0.4237  0.3036
  339TMC3     C 5087   3.444   2.585   0.824 -0.0946  0.4282  0.0509
  339TMC3     O 5088   3.480   2.527   0.922  0.0293  1.0819 -0.3021
  339TMC3     H 5089   3.308   2.383   0.880 -2.5849 -1.7469 -0.2737
  339TMC3    H1 5090   3.301   2.737   0.649 -0.9019  0.2461 -1.3126
  339TMC3    H2 5091   2.985   2.457   0.608  0.5734  1.0173 -0.6015
  339TMC3    C7 5092   3.144   2.656   0.482  0.1425  0.2458  0.6153
  339TMC3    C8 5093   3.042   2.313   0.814 -0.3224 -0.6884 -0.0506
  339TMC3    O1 5094   3.146   2.778   0.464  0.2470 -0.5859 -0.3574
  339TMC3    O2 5095   2.923   2.341   0.799 -0.3903 -0.4824  0.3660
  340MPD2     C 5096   4.212   1.936  10.088  0.5835  0.0317 -0.4314
  340MPD2    C1 5097   4.277   1.812  10.097  0.6817  0.1020  0.4561
  340MPD2    C2 5098   4.398   1.810  10.163  0.1427 -0.3748 -0.1690
  340MPD2    C3 5099   4.473   1.928  10.183  0.6176 -0.0784 -0.6945
  340MPD2    C4 5100   4.416   2.051  10.169 -0.1683  0.3531 -0.4675
  340MPD2    C5 5101   4.289   2.050  10.118 -0.1670  0.1550  0.7223
  340MPD2     H 5102   4.436   1.711  10.184  1.0718 -0.0348 -0.2740
  340MPD2    H1 5103   4.459   2.148  10.188 -0.3111  0.1409  0.9042
  340MPD2    H2 5104   4.110   1.937  10.051 -0.4725 -0.5015  2.5045
  340MPD2    H3 5105   4.244   2.145  10.093 -0.7063 -0.7064 -1.6071
  340MPD2     N 5106   4.602   1.926  10.228  0.2325 -0.0245 -0.9298
  340MPD2    H5 5107   4.637   2.018  10.250 -0.1055 -0.2703  0.6093
  340MPD2    N1 5108   4.210   1.693  10.066  0.0339 -0.5345 -0.3942
  340MPD2    H7 5109   4.108   1.694  10.063  0.0193 -1.5392 -0.2079
  341TMC3    C1 5110   4.197   1.467  10.020  0.8908  0.2108 -0.2089
  341TMC3    C2 5111   4.085   1.471  10.098 -0.0935 -0.9631 -0.8805
  341TMC3    C3 5112   3.983   1.387  10.078 -0.0961  0.2770 -0.0096
  341TMC3    C4 5113   4.214   1.378   9.914  0.4229  0.3199 -0.2746
  341TMC3    C5 5114   4.105   1.299   9.899 -0.4106  0.2952 -0.2973
  341TMC3    C6 5115   3.993   1.298   9.973 -0.7774 -0.2408 -0.0513
  341TMC3     C 5116   4.278   1.579  10.039  0.2210  0.0267 -0.3114
  341TMC3     O 5117   4.396   1.567  10.005  0.5483  0.1410 -0.4343
  341TMC3     H 5118   4.080   1.532  10.188 -0.5212  0.4543 -1.8520
  341TMC3    H1 5119   4.303   1.382   9.853  0.4353  1.8319 -0.1446
  341TMC3    H2 5120   3.912   1.230   9.948 -0.9393  0.5917 -1.8304
  341TMC3    C7 5121   4.108   1.227   9.772  0.3756 -0.3394 -0.2952
  341TMC3    C8 5122   3.923   1.339  10.202 -0.3708 -0.3131 -0.8362
  341TMC3    O1 5123   4.221   1.190   9.740  0.2368  0.1936 -0.0198
  341TMC3    O2 5124   3.974   1.375  10.308 -0.2183 -0.4118 -0.4271
  342MPD2     C 5125   2.050   4.087  16.754  0.7111  0.6566 -0.0835
  342MPD2    C1 5126   2.046   4.096  16.891  0.5198  0.0667  0.0571
  342MPD2    C2 5127   1.971   4.190  16.947  0.1318 -0.8488 -0.2099
  342MPD2    C3 5128   1.900   4.283  16.870 -0.3276  0.5918  0.0246
  342MPD2    C4 5129   1.931   4.290  16.733 -0.6796 -0.2295  0.0214
  342MPD2    C5 5130   2.002   4.190  16.675 -0.7753  0.1125  0.1949
  342MPD2     H 5131   1.973   4.199  17.055  1.5999 -0.0703 -0.3117
  342MPD2    H1 5132   1.882   4.362  16.670  0.0283  0.8776  0.7374
  342MPD2    H2 5133   2.083   3.994  16.709 -1.5258 -0.5617  0.7572
  342MPD2    H3 5134   2.004   4.190  16.567 -2.1956 -0.7056  0.1671
  342MPD2     N 5135   1.812   4.381  16.920  0.3111  0.2308 -0.1491
  342MPD2    H5 5136   1.796   4.461  16.859  0.1431  1.3123  1.2862
  342MPD2    N1 5137   2.091   3.986  16.976  0.1681  0.6022  0.7704
  342MPD2    H7 5138   2.059   3.990  17.072 -3.0980 -3.9222 -0.1229
  343TMC3    C1 5139   2.197   3.795  17.034  0.1247 -0.5854  0.1733
  343TMC3    C2 5140   2.318   3.729  17.032  0.2637 -0.0337  0.0543
  343TMC3    C3 5141   2.342   3.640  17.135  0.8115 -0.1435 -0.1739
  343TMC3    C4 5142   2.101   3.763  17.124  0.1839 -0.1746 -0.4775
  343TMC3    C5 5143   2.129   3.679  17.231  0.2239  0.1509  0.0691
  343TMC3    C6 5144   2.252   3.618  17.240  0.5259  0.0596 -0.0122
  343TMC3     C 5145   2.184   3.899  16.936 -0.4460  0.4548  0.0447
  343TMC3     O 5146   2.259   3.892  16.843 -0.1324  0.9205 -0.3997
  343TMC3     H 5147   2.383   3.729  16.945  0.0862  1.0431 -0.0746
  343TMC3    H1 5148   2.002   3.803  17.108 -0.7559 -1.8318  1.1825
  343TMC3    H2 5149   2.288   3.551  17.317 -2.5513 -1.0266  0.4885
  343TMC3    C7 5150   2.040   3.682  17.342 -0.1995  1.0314  0.0763
  343TMC3    C8 5151   2.476   3.590  17.150  0.2413  0.1760 -0.7957
  343TMC3    O1 5152   1.925   3.715  17.321 -0.3175  0.0486  0.0780
  343TMC3    O2 5153   2.517   3.572  17.263  0.0412  0.3874 -0.4188
  344MPD2     C 5154   2.828   3.878  10.734 -0.2868 -0.4348 -0.3706
  344MPD2    C1 5155   2.703   3.932  10.699 -0.3877  0.1441 -0.1274
  344MPD2    C2 5156   2.694   4.003  10.580  0.0074  0.8098  0.2732
  344MPD2    C3 5157   2.803   4.029  10.504  0.4670 -0.0774 -0.0647
  344MPD2    C4 5158   2.923   3.981  10.541  0.0598  0.0029  0.6296
  344MPD2    C5 5159   2.935   3.907  10.656  0.1149  0.2944  0.4118
  344MPD2     H 5160   2.596   4.049  10.571  0.3645  1.6926  0.8841
  344MPD2    H1 5161   3.015   4.008  10.491 -1.1843 -1.0328 -2.2122
  344MPD2    H2 5162   2.847   3.809  10.815 -0.0616  1.3618  1.1254
  344MPD2    H3 5163   3.030   3.865  10.687  0.9030 -0.3855 -2.9843
  344MPD2     N 5164   2.805   4.120  10.395 -0.4548 -0.5098 -0.2373
  344MPD2    H5 5165   2.898   4.145  10.363 -0.1742 -1.4599 -0.1643
  344MPD2    N1 5166   2.591   3.906  10.776 -0.3204 -0.6235  0.1327
  344MPD2    H7 5167   2.506   3.920  10.721 -0.3159  0.2778  0.3457
  345TMC3    C1 5168   2.740   4.292  10.262 -0.0944  0.1036  0.3969
  345TMC3    C2 5169   2.831   4.375  10.317 -0.1450  0.9226 -0.2471
  345TMC3    C3 5170   2.898   4.456  10.229 -0.5065  0.5929 -0.0047
  345TMC3    C4 5171   2.694   4.288  10.135  0.0137  0.4002  0.1716
  345TMC3    C5 5172   2.767   4.374  10.052  0.4334  0.0197  0.2136
  345TMC3    C6 5173   2.871   4.452  10.099  0.7366  0.1707 -0.3828
  345TMC3     C 5174   2.694   4.179  10.343  0.8368 -0.1784 -0.2080
  345TMC3     O 5175   2.577   4.150  10.363  0.3830  0.2195  0.4602
  345TMC3     H 5176   2.837   4.384  10.425  1.1087 -1.6958 -0.1032
  345TMC3    H1 5177   2.612   4.222  10.110  1.1537 -0.7813 -0.4509
  345TMC3    H2 5178   2.912   4.523  10.028 -0.3943 -0.7805 -1.9819
  345TMC3    C7 5179   2.711   4.390   9.917  0.1918  0.2619 -0.5863
  345TMC3    C8 5180   3.004   4.540  10.283 -0.4224  0.2951  0.3876
  345TMC3    O1 5181   2.662   4.290   9.868  0.1440 -0.1043 -0.1239
  345TMC3    O2 5182   2.997   4.559  10.401  0.1467  0.0540  0.0593
  346MPD2     C 5183   3.449   0.815  13.801 -0.6808 -0.5327  0.3062
  346MPD2    C1 5184   3.562   0.888  13.842  0.2660 -0.1215  0.8856
  346MPD2    C2 5185   3.556   0.943  13.967 -1.0684 -0.3512  0.3944
  346MPD2    C3 5186   3.453   0.921  14.050  0.2721 -0.2787  0.1209
  346MPD2    C4 5187   3.349   0.844  14.010 -0.2024  0.1740 -0.4671
  346MPD2    C5 5188   3.347   0.790  13.884  0.1010 -0.0763 -0.4397
  346MPD2     H 5189   3.638   1.000  14.009 -1.0310  0.0495 -0.2300
  346MPD2    H1 5190   3.256   0.846  14.066  2.1862 -1.8212  3.5948
  346MPD2    H2 5191   3.426   0.770  13.705  0.6737  1.0446 -0.7539
  346MPD2    H3 5192   3.258   0.747  13.838 -1.3760 -0.0056  2.3458
  346MPD2     N 5193   3.451   0.988  14.174 -0.3707  0.3159  0.4390
  346MPD2    H5 5194   3.512   1.069  14.173 -0.2284  0.2096  0.4949
  346MPD2    N1 5195   3.675   0.913  13.764 -0.0638 -0.1663  0.6767
  346MPD2    H7 5196   3.738   0.983  13.802 -0.9639  0.3951  1.1111
  347TMC3    C1 5197   3.407   1.053  14.389  0.9865 -0.2620  0.3103
  347TMC3    C2 5198   3.531   1.110  14.383  0.3552 -0.4897  0.3004
  347TMC3    C3 5199   3.568   1.172  14.501 -0.2837  1.0592  0.2870
  347TMC3    C4 5200   3.331   1.055  14.504 -0.5908  0.5930 -0.1973
  347TMC3    C5 5201   3.370   1.124  14.616  0.2871  0.0761 -0.2325
  347TMC3    C6 5202   3.486   1.189  14.609  0.3372  0.2582  0.3145
  347TMC3     C 5203   3.374   0.963  14.285 -0.2888 -0.5788  0.0562
  347TMC3     O 5204   3.287   0.877  14.294 -0.2794  0.0661 -0.0840
  347TMC3     H 5205   3.605   1.097  14.305 -2.2914 -1.4552 -2.0246
  347TMC3    H1 5206   3.243   0.991  14.501  0.4867 -0.9338  0.4589
  347TMC3    H2 5207   3.500   1.261  14.689 -2.8783 -1.6529  2.6018
  347TMC3    C7 5208   3.292   1.132  14.735  0.6211  1.2018  0.0018
  347TMC3    C8 5209   3.675   1.275  14.483 -0.5263 -0.1506  0.6576
  347TMC3    O1 5210   3.352   1.177  14.832  0.4459  0.3352 -0.2100
  347TMC3    O2 5211   3.712   1.300  14.366 -0.0030  0.0697 -0.3128
  348MPD2     C 5212   1.683   1.048  12.337 -0.1463 -0.5304 -0.2696
  348MPD2    C1 5213   1.751   1.094  12.226 -0.1785  0.5184 -0.3313
  348MPD2    C2 5214   1.696   1.182  12.139 -0.1151  0.4604  0.0018
  348MPD2    C3 5215   1.568   1.231  12.151  0.3330 -0.7697  0.1450
  348MPD2    C4 5216   1.495   1.188  12.261  0.1135  0.3394  1.0843
  348MPD2    C5 5217   1.552   1.096  12.352  0.1357 -0.3986  0.7685
  348MPD2     H 5218   1.754   1.204  12.050  0.3505  0.0962  0.2122
  348MPD2    H1 5219   1.391   1.210  12.281 -0.3525 -0.3627 -0.5401
  348MPD2    H2 5220   1.728   0.981  12.409  1.9017 -0.1852 -1.2238
  348MPD2    H3 5221   1.497   1.055  12.436  2.7037 -1.2159  2.0156
  348MPD2     N 5222   1.529   1.320  12.045 -0.3140 -0.0952 -0.0391
  348MPD2    H5 5223   1.596   1.333  11.969  0.4191 -0.6487  0.5088
  348MPD2    N1 5224   1.876   1.041  12.191 -0.2683  0.8336 -0.7572
  348MPD2    H7 5225   1.904   1.075  12.100 -0.6683  1.3142 -0.6983
  349TMC3    C1 5226   2.055   0.878  12.179 -0.7966 -0.0118 -0.0674
  349TMC3    C2 5227   2.069   0.745  12.211 -0.2717 -0.3516 -0.3614
  349TMC3    C3 5228   2.095   0.653  12.113  0.9260  0.2278  1.1124
  349TMC3    C4 5229   2.065   0.910  12.049 -0.3077  0.1075  0.1815
  349TMC3    C5 5230   2.088   0.812  11.953  0.0968 -0.2902 -0.0829
  349TMC3    C6 5231   2.112   0.680  11.985  0.8572 -0.8483  0.7653
  349TMC3     C 5232   1.955   0.944  12.262 -1.1028 -0.8552 -0.0833
  349TMC3     O 5233   1.937   0.885  12.370  0.4621  0.7335 -0.1577
  349TMC3     H 5234   2.063   0.710  12.314  1.9330  0.7091  0.1260
  349TMC3    H1 5235   2.076   1.016  12.029  0.3605 -0.0759 -0.4312
  349TMC3    H2 5236   2.133   0.615  11.901  2.0891  0.3414  0.1463
  349TMC3    C7 5237   2.033   0.834  11.819  0.2919  0.1774 -0.2666
  349TMC3    C8 5238   2.102   0.516  12.160  0.2243 -0.5393  0.5249
  349TMC3    O1 5239   2.005   0.738  11.744 -0.4293 -0.3398  0.1687
  349TMC3    O2 5240   2.076   0.490  12.276 -0.1605 -0.1950 -0.1630
  350MPD2     C 5241   0.256   3.676   9.742  0.1483  0.5995 -0.3160
  350MPD2    C1 5242   0.293   3.543   9.770 -0.2081 -0.5679 -0.3971
  350MPD2    C2 5243   0.374   3.524   9.880  0.7003 -0.2272 -0.3108
  350MPD2    C3 5244   0.410   3.630   9.968  0.9115  0.2567  0.3183
  350MPD2    C4 5245   0.371   3.756   9.941 -0.5403  0.0528 -0.1092
  350MPD2    C5 5246   0.296   3.773   9.821  0.0709  0.0976 -0.1647
  350MPD2     H 5247   0.407   3.424   9.906  0.2497 -0.5343 -0.9299
  350MPD2    H1 5248   0.400   3.844   9.997  2.1235 -0.4110 -0.7696
  350MPD2    H2 5249   0.191   3.712   9.662 -0.1989 -1.6507 -1.0587
  350MPD2    H3 5250   0.273   3.877   9.800  0.0480 -0.1864 -1.5224
  350MPD2     N 5251   0.485   3.599  10.082 -0.3004 -0.1018  0.4119
  350MPD2    H5 5252   0.493   3.500  10.105  1.5727  0.0839  0.5352
  350MPD2    N1 5253   0.273   3.443   9.666  0.3749  0.1580  0.5804
  350MPD2    H7 5254   0.195   3.460   9.604  1.6119  2.2509 -0.4003
  351TMC3    C1 5255   0.291   3.221   9.565 -0.3215  0.2709  0.0353
  351TMC3    C2 5256   0.370   3.108   9.553 -0.3132 -0.1092 -0.2963
  351TMC3    C3 5257   0.335   3.010   9.463 -0.0509 -0.5023  0.4338
  351TMC3    C4 5258   0.180   3.244   9.479  0.0276  0.1653  0.4605
  351TMC3    C5 5259   0.142   3.134   9.400  0.2957  0.5404 -0.1119
  351TMC3    C6 5260   0.216   3.021   9.384  0.0102  0.4483 -0.3406
  351TMC3     C 5261   0.339   3.320   9.666 -0.4721  0.6275 -0.2083
  351TMC3     O 5262   0.440   3.282   9.727  0.1073 -0.4770 -0.4220
  351TMC3     H 5263   0.464   3.102   9.608 -0.0200  2.2973 -0.5365
  351TMC3    H1 5264   0.122   3.335   9.488 -1.3730 -0.8566  1.8624
  351TMC3    H2 5265   0.190   2.936   9.322 -1.9417  2.1032 -1.7396
  351TMC3    C7 5266   0.030   3.148   9.308  0.7488  0.1766 -0.2585
  351TMC3    C8 5267   0.375   2.875   9.486 -0.0827 -0.0716  0.0008
  351TMC3    O1 5268   0.019   3.066   9.218  0.2210 -0.9215  1.0396
  351TMC3    O2 5269   0.337   2.786   9.412 -0.3329  0.5363 -0.5606
  352MPD2     C 5270   3.752   0.508   0.705 -0.6569 -0.3171 -0.2255
  352MPD2    C1 5271   3.681   0.475   0.815 -0.1782  0.0273  0.4953
  352MPD2    C2 5272   3.734   0.396   0.920 -0.3495  0.2321  0.3308
  352MPD2    C3 5273   3.861   0.354   0.909 -0.4640  0.4113 -1.0112
  352MPD2    C4 5274   3.934   0.384   0.796 -0.6089 -0.0375 -0.1131
  352MPD2    C5 5275   3.880   0.461   0.697  0.9173 -0.5138  0.4927
  352MPD2     H 5276   3.667   0.366   1.000 -0.4808  0.1796  0.2015
  352MPD2    H1 5277   4.033   0.344   0.777 -0.4842  0.9385 -1.5213
  352MPD2    H2 5278   3.719   0.571   0.623  1.3472 -0.7607 -1.3627
  352MPD2    H3 5279   3.948   0.477   0.614 -1.2414  2.0502 -0.7479
  352MPD2     N 5280   3.932   0.271   1.001 -0.4230 -0.4375 -0.6064
  352MPD2    H5 5281   4.014   0.223   0.965 -0.7721 -1.6886  0.2581
  352MPD2    N1 5282   3.547   0.534   0.821 -0.6097 -0.0186  0.1702
  352MPD2    H7 5283   3.512   0.587   0.742 -0.9193 -0.9109 -0.2791
  353TMC3    C1 5284   3.910   0.089   1.141 -0.5968  0.3427  0.4962
  353TMC3    C2 5285   4.002   0.028   1.056 -0.0341 -0.7664  0.3629
  353TMC3    C3 5286   3.999   4.613   1.044  0.3539  0.2378  0.1953
  353TMC3    C4 5287   3.811   0.018   1.200  0.0858 -0.2789  0.2535
  353TMC3    C5 5288   3.803   4.607   1.179  0.1366  0.2738 -0.2410
  353TMC3    C6 5289   3.901   4.539   1.104 -0.4746  0.1143 -0.6741
  353TMC3     C 5290   3.872   0.224   1.112 -0.6331  0.2441  0.3049
  353TMC3     O 5291   3.789   0.271   1.187  0.4144  0.0648 -0.0608
  353TMC3     H 5292   4.081   0.088   1.012 -0.9709 -0.5020 -0.9710
  353TMC3    H1 5293   3.743   0.072   1.265  0.8806  1.5219 -0.4282
  353TMC3    H2 5294   3.901   4.431   1.095  1.0757  0.1302 -0.8436
  353TMC3    C7 5295   3.682   4.540   1.191 -0.2842 -0.5749 -0.6179
  353TMC3    C8 5296   4.065   4.556   0.924  0.1304  0.3082 -0.2391
  353TMC3    O1 5297   3.689   4.422   1.163  0.3465 -0.1417  0.3456
  353TMC3    O2 5298   4.143   4.628   0.863  0.4430 -0.3745  0.4081
  354TMC3    C1 5299   0.842   2.215  13.279 -0.2636 -0.0798  0.5593
  354TMC3    C2 5300   0.918   2.324  13.265 -0.4115 -0.1081  0.2783
  354TMC3    C3 5301   0.985   2.339  13.144  0.7644  0.0792 -0.4921
  354TMC3    C4 5302   0.823   2.124  13.178 -0.4738 -0.1878 -0.1195
  354TMC3    C5 5303   0.881   2.145  13.060  0.7359 -0.5537  0.1423
  354TMC3    C6 5304   0.963   2.252  13.040 -0.2494 -0.5214  0.2702
  354TMC3     C 5305   0.767   2.190  13.400 -0.1544  0.4389 -0.3676
  354TMC3     O 5306   0.683   2.101  13.395  0.1111 -0.6102 -0.0042
  354TMC3     H 5307   0.939   2.402  13.337  0.4039 -2.0334  2.1376
  354TMC3    H1 5308   0.777   2.029  13.206 -0.9711 -0.6035 -2.3703
  354TMC3    H2 5309   1.004   2.282  12.944  0.5346 -2.5598 -0.0179
  354TMC3    C7 5310   0.857   2.058  12.946 -0.4366  0.6352  0.8848
  354TMC3    C8 5311   1.022   2.472  13.094 -0.0481 -0.4667  0.2707
  354TMC3    O1 5312   0.781   1.966  12.978 -0.4968 -0.5070 -0.1758
  354TMC3    O2 5313   1.113   2.475  13.012  0.0760 -0.1812 -0.0162
  355MPD2     C 5314   1.508   2.757  11.696  0.7794  0.3028 -0.0554
  355MPD2    C1 5315   1.626   2.802  11.654  0.0490  0.3183 -0.2442
  355MPD2    C2 5316   1.733   2.795  11.743 -0.1752  0.0757 -0.3728
  355MPD2    C3 5317   1.713   2.759  11.875  0.1946 -0.6724  0.0520
  355MPD2    C4 5318   1.585   2.712  11.916  0.1970  0.1997 -0.7069
  355MPD2    C5 5319   1.486   2.716  11.825 -0.1449  0.5267 -0.7283
  355MPD2     H 5320   1.834   2.830  11.724 -0.0186 -1.3860 -2.2298
  355MPD2    H1 5321   1.554   2.701  12.019  0.2931 -1.7705 -0.8820
  355MPD2    H2 5322   1.419   2.767  11.635  0.1217  1.1077  1.0367
  355MPD2    H3 5323   1.385   2.688  11.854 -1.0231  2.8974 -1.5328
  355MPD2     N 5324   1.819   2.787  11.969  0.1321  0.1107  0.4596
  355MPD2    H5 5325   1.895   2.838  11.924  1.1111 -2.0040 -0.3080
  355MPD2    N1 5326   1.647   2.855  11.524  0.1317 -0.3228 -0.2664
  355MPD2    H7 5327   1.570   2.849  11.458 -0.9738 -1.3254  1.1178
  356TMC3    C1 5328   1.910   2.866  12.166 -0.7210 -0.0093 -0.3142
  356TMC3    C2 5329   2.003   2.902  12.079  0.2292  0.1516 -1.0482
  356TMC3    C3 5330   2.057   3.020  12.082  0.2944 -0.7583 -0.8795
  356TMC3    C4 5331   1.864   2.951  12.259  0.0002  0.2327  0.5190
  356TMC3    C5 5332   1.915   3.077  12.259  0.1608  0.2375  0.2640
  356TMC3    C6 5333   2.003   3.118  12.165 -0.0075  0.4627 -0.4529
  356TMC3     C 5334   1.807   2.780  12.106  0.5102  0.2937  0.6724
  356TMC3     O 5335   1.720   2.738  12.180  0.2378 -0.1389 -0.7970
  356TMC3     H 5336   2.049   2.819  12.029 -0.1248  0.0312 -1.1693
  356TMC3    H1 5337   1.784   2.930  12.330  1.6580 -0.1174  2.2961
  356TMC3    H2 5338   2.035   3.221  12.160 -2.3185  1.2795  1.3547
  356TMC3    C7 5339   1.854   3.171  12.351  0.0591  0.0821  0.0158
  356TMC3    C8 5340   2.099   3.051  11.947 -0.3378 -0.2619 -0.5118
  356TMC3    O1 5341   1.815   3.130  12.460  0.2854 -0.0007 -0.1246
  356TMC3    O2 5342   2.070   2.970  11.861  0.6151  0.2930  0.0785
  357MPD2     C 5343   1.007   2.057   0.768 -0.1004 -0.8637  0.4421
  357MPD2    C1 5344   1.005   1.930   0.826 -0.0921 -0.4591 -0.0831
  357MPD2    C2 5345   0.907   1.909   0.918  0.0203 -0.0620 -0.0389
  357MPD2    C3 5346   0.812   2.008   0.952  0.1824 -0.0758 -0.0653
  357MPD2    C4 5347   0.818   2.137   0.891  0.0740  0.2085 -0.0225
  357MPD2    C5 5348   0.922   2.153   0.800  0.1738  0.6790 -0.7845
  357MPD2     H 5349   0.913   1.815   0.972 -2.0561  0.7430  1.5820
  357MPD2    H1 5350   0.740   2.212   0.895  0.5819  0.8134 -1.1609
  357MPD2    H2 5351   1.079   2.079   0.689  1.2120 -3.8476  0.8057
  357MPD2    H3 5352   0.915   2.236   0.730 -3.2405  1.0903  0.0674
  357MPD2     N 5353   0.700   1.977   1.032  0.4507  0.6469 -0.0547
  357MPD2    H5 5354   0.634   2.054   1.042 -1.2911 -0.5883 -2.1039
  357MPD2    N1 5355   1.091   1.829   0.780  0.4953  0.2991  0.3185
  357MPD2    H7 5356   1.144   1.841   0.694 -2.2642 -0.7836 -1.5386
  358TMC3    C1 5357   1.211   1.630   0.775 -0.2900 -0.4868 -0.1948
  358TMC3    C2 5358   1.183   1.610   0.641  0.0801  0.5860  0.0129
  358TMC3    C3 5359   1.239   1.508   0.579 -0.0552 -0.4495 -1.2965
  358TMC3    C4 5360   1.276   1.534   0.846 -0.1009 -0.2113  0.2857
  358TMC3    C5 5361   1.326   1.424   0.779  0.3095 -0.6178 -0.5367
  358TMC3    C6 5362   1.306   1.403   0.643  0.1065 -0.4624  0.1286
  358TMC3     C 5363   1.133   1.725   0.855  0.2122 -0.5228 -0.2818
  358TMC3     O 5364   1.123   1.708   0.975 -0.1380 -0.3235  0.2912
  358TMC3     H 5365   1.121   1.671   0.577  0.3384 -1.2325 -1.9785
  358TMC3    H1 5366   1.293   1.546   0.952 -1.2194  1.2142  0.3145
  358TMC3    H2 5367   1.362   1.328   0.590 -1.2681  1.0920 -3.5112
  358TMC3    C7 5368   1.379   1.314   0.848  0.3227  0.2902  0.5067
  358TMC3    C8 5369   1.216   1.498   0.437  0.0839  0.5194 -0.0362
  358TMC3    O1 5370   1.396   1.344   0.965  0.0833 -0.5975 -0.3869
  358TMC3    O2 5371   1.208   1.599   0.367  0.0030  0.1765 -0.0319
  359MPD2     C 5372   1.469   1.828  12.642 -0.0966 -0.4643  0.3206
  359MPD2    C1 5373   1.400   1.812  12.529 -0.2004  0.0549 -0.3362
  359MPD2    C2 5374   1.303   1.715  12.522 -0.4351 -0.0699 -0.0904
  359MPD2    C3 5375   1.256   1.639  12.625  0.0385 -0.3112 -0.7904
  359MPD2    C4 5376   1.334   1.649  12.738 -0.5758 -0.1840 -0.3618
  359MPD2    C5 5377   1.437   1.734  12.745  0.9819 -0.0190 -0.6306
  359MPD2     H 5378   1.249   1.704  12.428  0.6452  1.2828 -0.8614
  359MPD2    H1 5379   1.305   1.588  12.823  1.1535  0.8016  0.9293
  359MPD2    H2 5380   1.557   1.888  12.660  0.7467 -1.8771  0.8973
  359MPD2    H3 5381   1.480   1.747  12.843  1.0862 -1.5492 -0.4838
  359MPD2     N 5382   1.146   1.557  12.619 -0.1419  0.1883  0.3291
  359MPD2    H5 5383   1.131   1.512  12.709 -3.4440  2.0067  0.6686
  359MPD2    N1 5384   1.431   1.890  12.416  0.7654  0.6325 -0.0748
  359MPD2    H7 5385   1.398   1.854  12.327  2.5353 -1.5800  0.1839
  360TMC3    C1 5386   1.548   2.031  12.278 -0.0691  0.0576 -0.2834
  360TMC3    C2 5387   1.683   2.048  12.256 -0.1038  0.2495 -0.0359
  360TMC3    C3 5388   1.714   2.033  12.126 -0.2872  0.3457 -0.3124
  360TMC3    C4 5389   1.451   2.004  12.184  0.1715 -0.8615  0.4132
  360TMC3    C5 5390   1.494   1.988  12.052 -0.1978  0.2933  0.4724
  360TMC3    C6 5391   1.627   2.011  12.019  0.1903 -0.5380  0.2799
  360TMC3     C 5392   1.511   2.003  12.413  0.0973  0.2482 -0.4275
  360TMC3     O 5393   1.563   2.063  12.507  0.7599 -0.0808 -0.5930
  360TMC3     H 5394   1.767   2.057  12.323  1.6754  1.6403 -2.4377
  360TMC3    H1 5395   1.345   2.003  12.203 -0.4353  0.0508 -2.8563
  360TMC3    H2 5396   1.661   2.022  11.917  2.0617  0.4287  1.0157
  360TMC3    C7 5397   1.401   1.977  11.939 -0.3435 -0.1923 -0.0076
  360TMC3    C8 5398   1.851   2.074  12.095 -0.0979 -0.3247 -0.0086
  360TMC3    O1 5399   1.440   1.955  11.826  0.6433 -1.0997  0.7852
  360TMC3    O2 5400   1.903   2.158  12.160  0.0431 -0.3563 -0.2813
  361MPD2     C 5401   3.230   4.469  16.125 -0.0175 -0.9991 -0.4793
  361MPD2    C1 5402   3.167   4.497  16.243 -0.3773 -0.0485  0.0491
  361MPD2    C2 5403   3.221   4.447  16.367  0.1882 -0.9672 -0.4380
  361MPD2    C3 5404   3.343   4.379  16.363  0.4421  0.0963 -0.1490
  361MPD2    C4 5405   3.402   4.346  16.237  0.5582  0.5476 -1.1468
  361MPD2    C5 5406   3.348   4.388  16.122  0.1614 -0.1639 -0.0797
  361MPD2     H 5407   3.170   4.479  16.457  0.4918 -0.1560 -0.5526
  361MPD2    H1 5408   3.485   4.278  16.222 -0.6859 -0.3668 -3.8298
  361MPD2    H2 5409   3.199   4.521  16.035 -0.3799 -1.5775 -0.6939
  361MPD2    H3 5410   3.395   4.368  16.027 -0.1035 -1.0865 -0.0177
  361MPD2     N 5411   3.402   4.324  16.476 -0.3553 -0.6021  0.0301
  361MPD2    H5 5412   3.477   4.257  16.457 -0.3130 -0.6147  0.2410
  361MPD2    N1 5413   3.050   4.578  16.252  0.9761 -0.3175  0.2088
  361MPD2    H7 5414   3.023   4.601  16.347 -1.2747  1.3890 -0.8310
  362TMC3    C1 5415   2.853   4.698  16.219 -1.0428  0.3573  0.9314
  362TMC3    C2 5416   2.862   0.026  16.346  0.0487 -0.3181 -0.2375
  362TMC3    C3 5417   2.758   0.102  16.398 -0.2125  0.2076  0.8005
  362TMC3    C4 5418   2.752   0.003  16.133  0.1336 -0.4673  0.6036
  362TMC3    C5 5419   2.646   0.070  16.191 -0.8576 -0.2318  0.0743
  362TMC3    C6 5420   2.646   0.116  16.324 -0.9916 -0.3567 -0.0919
  362TMC3     C 5421   2.962   4.621  16.155  0.3917 -0.1235 -0.7598
  362TMC3     O 5422   2.966   4.602  16.034 -0.3707  0.1269 -0.2619
  362TMC3     H 5423   2.953   0.017  16.404 -1.2026 -0.0180  1.7705
  362TMC3    H1 5424   2.736   4.677  16.038 -0.9594  1.6527 -0.3486
  362TMC3    H2 5425   2.569   0.187  16.353  1.0315  1.3889  1.0647
  362TMC3    C7 5426   2.564   0.141  16.090 -0.1255 -0.3384 -0.2334
  362TMC3    C8 5427   2.767   0.150  16.538  0.5862 -0.1595 -0.3044
  362TMC3    O1 5428   2.458   0.193  16.128  0.2354  0.0368 -0.4064
  362TMC3    O2 5429   2.878   0.160  16.584  0.4640 -0.4842  0.4300
  363TMC3    C1 5430   0.799   2.639   9.247 -0.4848  0.3647 -0.6290
  363TMC3    C2 5431   0.856   2.586   9.363 -0.0288  0.1876 -0.4039
  363TMC3    C3 5432   0.892   2.668   9.468 -0.1281 -1.2030 -0.3679
  363TMC3    C4 5433   0.770   2.779   9.242 -0.0727  0.3403 -0.1592
  363TMC3    C5 5434   0.794   2.855   9.355  0.4081 -0.2369  0.2845
  363TMC3    C6 5435   0.855   2.804   9.464  0.0857  0.3501 -0.2910
  363TMC3     C 5436   0.736   2.558   9.144  0.4821 -0.3388 -0.4963
  363TMC3     O 5437   0.665   2.626   9.069  0.3765 -0.0415 -0.0409
  363TMC3     H 5438   0.859   2.478   9.375 -0.3512  0.0065 -1.9388
  363TMC3    H1 5439   0.738   2.821   9.148 -0.9478  0.1718  0.0684
  363TMC3    H2 5440   0.874   2.864   9.552  2.5176 -1.2975  0.2940
  363TMC3    C7 5441   0.724   2.981   9.386  0.2667 -0.2504  0.0719
  363TMC3    C8 5442   0.928   2.607   9.590  0.1156 -0.3401 -0.3927
  363TMC3    O1 5443   0.738   3.041   9.490 -0.2766  0.2467 -0.0993
  363TMC3    O2 5444   0.931   2.683   9.686 -0.3615  0.5340  0.2463
  364MPD2     C 5445   4.505   2.355  10.404 -0.1938 -0.6343 -0.3552
  364MPD2    C1 5446   4.620   2.286  10.379 -0.7279 -0.2610 -1.0662
  364MPD2    C2 5447   4.638   2.165  10.446  0.0613  0.8647  0.5927
  364MPD2    C3 5448   4.539   2.111  10.528  0.2701 -0.0021  0.5018
  364MPD2    C4 5449   4.417   2.170  10.526  0.5110 -0.0991  0.3524
  364MPD2    C5 5450   4.399   2.286  10.457  0.2615  0.0972  0.6347
  364MPD2     H 5451   0.010   2.117  10.452  0.8109  2.1014 -1.4723
  364MPD2    H1 5452   4.334   2.131  10.583  1.9979 -1.4540  1.6142
  364MPD2    H2 5453   4.487   2.456  10.368  2.4554  0.8606  2.5216
  364MPD2    H3 5454   4.302   2.335  10.455 -0.6286 -1.6162  2.0524
  364MPD2     N 5455   4.556   1.997  10.613  1.0641  0.3292  0.3251
  364MPD2    H5 5456   4.486   2.000  10.687  1.3902 -1.8152  0.7126
  364MPD2    N1 5457   0.009   2.357  10.336  0.0957  0.3099  0.1856
  364MPD2    H7 5458   0.003   2.452  10.299 -1.4638  0.0731 -0.2004
  365TMC3    C1 5459   0.234   2.402  10.270 -0.5743  0.1939 -0.5674
  365TMC3    C2 5460   0.358   2.361  10.240 -0.3164 -0.2191 -0.2300
  365TMC3    C3 5461   0.446   2.445  10.177  0.2162 -0.6704  0.0694
  365TMC3    C4 5462   0.201   2.534  10.257  0.1099 -0.5711 -0.0695
  365TMC3    C5 5463   0.296   2.618  10.198  0.5412  0.4010  0.3224
  365TMC3    C6 5464   0.415   2.578  10.149 -0.3745  0.0322 -0.1735
  365TMC3     C 5465   0.135   2.310  10.316 -0.4188 -0.2118  0.6978
  365TMC3     O 5466   0.173   2.195  10.324  0.0162  0.3702 -0.0976
  365TMC3     H 5467   0.388   2.259  10.261  0.7133  0.1109 -0.1018
  365TMC3    H1 5468   0.097   2.564  10.251  0.0996 -0.9249 -1.5658
  365TMC3    H2 5469   0.489   2.643  10.105  0.6073 -2.2856 -1.9235
  365TMC3    C7 5470   0.287   2.766  10.224  0.0184 -0.1597 -0.4561
  365TMC3    C8 5471   0.590   2.418  10.169  0.5596 -0.5292 -0.0070
  365TMC3    O1 5472   0.365   2.837  10.165  0.2414  0.0168 -0.3027
  365TMC3    O2 5473   0.662   2.514  10.167  0.1477  0.7734 -0.2982
  366MPD2     C 5474   3.232   3.003  15.353 -0.0211  0.1884  0.7253
  366MPD2    C1 5475   3.314   3.105  15.305  0.5086  0.0895 -0.5287
  366MPD2    C2 5476   3.426   3.063  15.231 -0.2111 -0.0994  0.7083
  366MPD2    C3 5477   3.452   2.924  15.210 -0.1318 -0.3440 -0.0187
  366MPD2    C4 5478   3.377   2.831  15.271  0.2114  0.4835 -0.1351
  366MPD2    C5 5479   3.267   2.871  15.338 -0.2205 -0.4671 -0.9777
  366MPD2     H 5480   3.501   3.136  15.203 -0.8400 -0.0938 -1.0241
  366MPD2    H1 5481   3.410   2.728  15.265 -0.6194  0.2285 -0.3455
  366MPD2    H2 5482   3.138   3.029  15.401  0.5236 -1.7886  2.8554
  366MPD2    H3 5483   3.198   2.800  15.383  0.7736 -0.2566  0.9144
  366MPD2     N 5484   3.563   2.877  15.134  0.2625  0.6036  0.1129
  366MPD2    H5 5485   3.612   2.789  15.144 -1.8843 -0.5147  0.8152
  366MPD2    N1 5486   3.300   3.241  15.319  0.0685  0.6571 -0.0421
  366MPD2    H7 5487   3.378   3.301  15.293  2.1627 -2.0285  0.0051
  367TMC3    C1 5488   3.202   3.450  15.376 -0.0416 -0.5934  0.7764
  367TMC3    C2 5489   3.316   3.498  15.430  0.0566 -0.1049 -0.4818
  367TMC3    C3 5490   3.378   3.600  15.368  0.9821 -0.0579  0.3599
  367TMC3    C4 5491   3.155   3.504  15.268 -0.1833 -0.2134 -0.7385
  367TMC3    C5 5492   3.212   3.613  15.219  0.4134  0.1725 -0.1898
  367TMC3    C6 5493   3.339   3.661  15.252 -1.1898  0.9380  0.9301
  367TMC3     C 5494   3.188   3.306  15.369 -0.1746  0.7141 -0.2644
  367TMC3     O 5495   3.073   3.256  15.378  0.2984 -0.5446 -0.2956
  367TMC3     H 5496   3.357   3.439  15.511  1.1943  1.5384  0.1407
  367TMC3    H1 5497   3.065   3.467  15.220  0.4810 -1.7589 -0.7951
  367TMC3    H2 5498   3.364   3.759  15.212  1.2707  0.3157  0.9498
  367TMC3    C7 5499   3.140   3.689  15.120  0.2098  0.3234 -0.1013
  367TMC3    C8 5500   3.504   3.633  15.431  0.8093 -0.0934  0.1051
  367TMC3    O1 5501   3.017   3.695  15.133 -0.3169  0.4450 -0.2908
  367TMC3    O2 5502   3.526   3.565  15.530 -0.1689 -0.7787  0.0453
  368MPD2     C 5503   0.179   0.327  12.990 -0.7576  0.4169 -0.1007
  368MPD2    C1 5504   0.147   0.335  12.859 -0.4719  0.2665 -0.0104
  368MPD2    C2 5505   0.252   0.325  12.766  0.1834  0.2589  0.5904
  368MPD2    C3 5506   0.380   0.296  12.810 -0.5279  0.0215 -0.0147
  368MPD2    C4 5507   0.402   0.272  12.947  0.8960  0.1496 -0.1469
  368MPD2    C5 5508   0.304   0.289  13.033  0.3073  0.4407 -0.6108
  368MPD2     H 5509   0.233   0.345  12.661  0.0107  3.3055  1.2010
  368MPD2    H1 5510   0.506   0.253  12.970  0.9860  1.2831  0.3826
  368MPD2    H2 5511   0.098   0.337  13.062  0.7853  2.3983  1.3441
  368MPD2    H3 5512   0.321   0.281  13.139  2.6026 -4.1251 -1.3206
  368MPD2     N 5513   0.490   0.313  12.730  0.2800 -0.1740 -0.2273
  368MPD2    H5 5514   0.575   0.318  12.786 -0.1184 -2.2477  0.5722
  368MPD2    N1 5515   0.016   0.363  12.818  0.2044 -0.1587 -0.0689
  368MPD2    H7 5516   4.671   0.367  12.891 -0.4463 -1.3374 -0.6288
  369TMC3    C1 5517   4.572   0.460  12.678 -0.0543 -0.7693  0.0152
  369TMC3    C2 5518   4.575   0.583  12.632  0.2980  0.8027  0.1965
  369TMC3    C3 5519   4.456   0.657  12.630 -0.1053  0.8041  0.6437
  369TMC3    C4 5520   4.465   0.393  12.733 -0.6679 -0.5740  0.1692
  369TMC3    C5 5521   4.352   0.475  12.741  0.1155  0.1076 -0.5616
  369TMC3    C6 5522   4.340   0.599  12.679 -0.2720 -0.2286 -0.2543
  369TMC3     C 5523   4.701   0.392  12.694 -0.0647  0.2209 -0.0506
  369TMC3     O 5524   0.039   0.403  12.589  0.4600  0.0593  0.6712
  369TMC3     H 5525   4.655   0.628  12.574  2.5078  0.6037  3.0849
  369TMC3    H1 5526   4.477   0.297  12.781 -0.0721  0.0102  1.1862
  369TMC3    H2 5527   4.251   0.661  12.680  0.3229  0.6170  0.0687
  369TMC3    C7 5528   4.255   0.441  12.844 -0.7007  0.5007  0.0854
  369TMC3    C8 5529   4.464   0.801  12.617 -0.6049  0.3929  0.4173
  369TMC3    O1 5530   4.283   0.344  12.914 -0.6507  0.2395  0.0526
  369TMC3    O2 5531   4.364   0.854  12.568  0.3446  0.2688  0.0647
  370TMC3    C1 5532   3.865   0.838  16.276 -0.5181 -0.7783 -0.5066
  370TMC3    C2 5533   3.802   0.751  16.360 -0.6227 -0.6176  0.3549
  370TMC3    C3 5534   3.754   0.629  16.308  0.0557 -0.2406 -0.1733
  370TMC3    C4 5535   3.894   0.800  16.146  0.3219  0.1092  0.0875
  370TMC3    C5 5536   3.841   0.678  16.095 -0.2607  0.3868 -0.3435
  370TMC3    C6 5537   3.779   0.589  16.181  0.0612 -0.6176  0.1425
  370TMC3     C 5538   3.947   0.938  16.338  0.3213 -0.0480 -1.1324
  370TMC3     O 5539   3.987   0.907  16.447  0.9006  0.2608  0.3693
  370TMC3     H 5540   3.786   0.782  16.463  0.0001 -2.8154  1.1163
  370TMC3    H1 5541   3.957   0.858  16.079  3.8879 -1.8763  1.7489
  370TMC3    H2 5542   3.743   0.491  16.149 -0.0860 -0.3091 -0.6286
  370TMC3    C7 5543   3.861   0.641  15.954  0.1848 -0.0263 -0.2438
  370TMC3    C8 5544   3.703   0.528  16.397  0.7840 -0.6696  0.0511
  370TMC3    O1 5545   3.815   0.724  15.878 -0.9248  0.3516  0.3945
  370TMC3    O2 5546   3.695   0.412  16.354  0.0808 -0.2657  1.0448
  371TMC3    C1 5547   0.645   3.812  15.563 -0.1798  0.5248  0.4899
  371TMC3    C2 5548   0.513   3.825  15.546  1.4766  0.1600 -0.3469
  371TMC3    C3 5549   0.456   3.937  15.493 -1.2500 -0.3102  0.0678
  371TMC3    C4 5550   0.732   3.919  15.535 -0.0172  0.2887 -0.4822
  371TMC3    C5 5551   0.677   4.030  15.477  0.0275  0.8047 -0.3162
  371TMC3    C6 5552   0.539   4.041  15.469 -0.1268 -0.6127  0.0282
  371TMC3     C 5553   0.712   3.693  15.599 -0.2929 -0.1084  0.2628
  371TMC3     O 5554   0.836   3.691  15.606 -0.8947 -0.2127  0.2364
  371TMC3     H 5555   0.442   3.745  15.565  1.2208  0.2845 -0.7845
  371TMC3    H1 5556   0.838   3.899  15.545 -0.4693 -1.6467  0.2998
  371TMC3    H2 5557   0.496   4.126  15.417 -1.9416 -1.7151 -0.2716
  371TMC3    C7 5558   0.758   4.125  15.408 -0.6460 -0.9358 -0.3224
  371TMC3    C8 5559   0.308   3.947  15.480  0.3986  0.0632  0.7541
  371TMC3    O1 5560   0.705   4.222  15.350  0.2358 -0.6010 -0.0707
  371TMC3    O2 5561   0.249   3.840  15.487 -0.1853  0.0366 -0.4503
  372MPD2     C 5562   4.589   0.664  13.010 -0.3023 -0.2197  0.0060
  372MPD2    C1 5563   4.704   0.631  13.078  0.1145  0.3527 -0.0899
  372MPD2    C2 5564   4.694   0.575  13.202 -0.4914 -0.0564  0.3583
  372MPD2    C3 5565   4.574   0.538  13.260  0.9694  0.2245 -0.1720
  372MPD2    C4 5566   4.454   0.557  13.183  0.1652  0.1377 -0.8747
  372MPD2    C5 5567   4.471   0.631  13.068 -0.5100 -0.0808  0.7778
  372MPD2     H 5568   0.057   0.557  13.263 -0.4239 -2.2206 -0.3789
  372MPD2    H1 5569   4.355   0.543  13.223  1.4432 -1.0307  1.8802
  372MPD2    H2 5570   4.588   0.722  12.918  2.4001 -2.9721 -1.7640
  372MPD2    H3 5571   4.379   0.657  13.017 -0.9963  0.5968  1.9768
  372MPD2     N 5572   4.575   0.478  13.393 -0.3345  0.6298  0.1626
  372MPD2    H5 5573   4.665   0.474  13.441 -0.1468  0.6297 -0.1897
  372MPD2    N1 5574   0.111   0.667  13.033  0.0233  0.4976  0.1943
  372MPD2    H7 5575   0.181   0.656  13.106  1.4119 -1.2939 -1.4171
  373TMC3    C1 5576   4.505   0.357  13.578  0.6950 -0.8885  0.9130
  373TMC3    C2 5577   4.596   0.426  13.650 -0.3317 -0.1107 -0.1586
  373TMC3    C3 5578   4.657   0.363  13.760 -0.3942 -0.6785  0.3599
  373TMC3    C4 5579   4.503   0.219  13.593 -0.7169  0.0171  0.6219
  373TMC3    C5 5580   4.579   0.159  13.695  0.2143  0.2146 -0.1777
  373TMC3    C6 5581   4.650   0.233  13.782 -0.6284 -0.2941  0.2905
  373TMC3     C 5582   4.468   0.407  13.445 -0.9306 -0.9990 -0.0246
  373TMC3     O 5583   4.356   0.384  13.402  0.2503 -0.4890 -0.5133
  373TMC3     H 5584   4.622   0.529  13.625 -0.2533 -0.0794  0.0543
  373TMC3    H1 5585   4.456   0.174  13.506  1.1941 -0.2807 -0.2661
  373TMC3    H2 5586   4.705   0.188  13.864 -0.2706 -1.3127 -0.5048
  373TMC3    C7 5587   4.644   0.038  13.646  0.0596  0.6952 -0.0453
  373TMC3    C8 5588   0.014   0.438  13.842  0.2620  0.3551  0.2628
  373TMC3    O1 5589   4.601   4.721  13.538  0.9565 -0.1800  0.1655
  373TMC3    O2 5590   0.098   0.375  13.903 -0.3300 -0.4310 -0.4771
  374TMC3    C1 5591   4.680   1.358  10.324 -0.2564  0.5311  0.0845
  374TMC3    C2 5592   0.078   1.304  10.305  0.5795  0.1026  0.0017
  374TMC3    C3 5593   0.100   1.195  10.223 -0.8335 -0.4161  0.6693
  374TMC3    C4 5594   4.572   1.300  10.257 -0.4011  0.5231  0.4162
  374TMC3    C5 5595   4.594   1.197  10.174 -0.6514 -0.0117  0.1869
  374TMC3    C6 5596   4.720   1.142  10.154  0.0041 -0.2369  0.2379
  374TMC3     C 5597   4.659   1.449  10.438 -0.1059  0.3504 -0.1005
  374TMC3     O 5598   0.025   1.458  10.516 -0.2623 -0.5588  1.2891
  374TMC3     H 5599   0.159   1.363  10.345  1.2190 -1.0153  0.3427
  374TMC3    H1 5600   4.470   1.334  10.276 -0.0926  1.2009  0.8668
  374TMC3    H2 5601   0.023   1.084  10.067 -2.2782 -0.1258 -0.5863
  374TMC3    C7 5602   4.480   1.124  10.114  0.4043  0.3266  0.1205
  374TMC3    C8 5603   0.233   1.151  10.188  0.0293  0.1826 -0.4222
  374TMC3    O1 5604   4.496   1.048  10.021 -0.1207  0.3834  0.5709
  374TMC3    O2 5605   0.247   1.085  10.081  0.0781  0.1513  0.8345
  375MPD2     C 5606   0.398   1.314  17.109 -0.1933  0.9017 -0.1156
  375MPD2    C1 5607   0.342   1.212  17.039 -0.0636  0.1246  0.2356
  375MPD2    C2 5608   0.378   1.187  16.914 -0.3989  0.4757  0.1570
  375MPD2    C3 5609   0.482   1.263  16.862  0.3755 -0.1497 -0.1885
  375MPD2    C4 5610   0.538   1.368  16.933  0.3343 -0.3736  0.1557
  375MPD2    C5 5611   0.496   1.397  17.057  0.4384  0.2749  0.0128
  375MPD2     H 5612   0.329   1.115  16.849  3.2966 -0.7931 -1.2297
  375MPD2    H1 5613   0.608   1.436  16.886  1.3107 -0.5195  1.4163
  375MPD2    H2 5614   0.355   1.343  17.205 -0.4560  1.5386 -0.4214
  375MPD2    H3 5615   0.529   1.490  17.102 -0.1425  1.0655 -1.2076
  375MPD2     N 5616   0.526   1.256  16.729 -0.3526 -0.3850  0.4803
  375MPD2    H5 5617   0.600   1.318  16.699 -0.0037 -0.1914  1.7692
  375MPD2    N1 5618   0.241   1.123  17.096 -0.8759  0.4083  0.3659
  375MPD2    H7 5619   0.221   1.036  17.048  0.0927 -0.8938  2.3292
  376TMC3    C1 5620   0.539   1.222  16.506 -0.4202  0.2970  0.1876
  376TMC3    C2 5621   0.678   1.207  16.515  0.3387  0.0336  0.0850
  376TMC3    C3 5622   0.745   1.206  16.398 -0.2801 -0.3680  0.0876
  376TMC3    C4 5623   0.476   1.210  16.388  1.1926  0.8079  0.7020
  376TMC3    C5 5624   0.543   1.213  16.271  0.0350 -0.2618  0.3363
  376TMC3    C6 5625   0.676   1.212  16.272  0.4167  0.6337  0.0177
  376TMC3     C 5626   0.458   1.199  16.622 -0.4459  0.3607  0.4103
  376TMC3     O 5627   0.340   1.169  16.614  0.7825 -0.1136  0.0237
  376TMC3     H 5628   0.734   1.195  16.607 -1.6062  2.9743  1.6640
  376TMC3    H1 5629   0.368   1.203  16.391  1.2170 -0.0663 -0.1437
  376TMC3    H2 5630   0.732   1.223  16.180  2.0309  0.5777  0.9818
  376TMC3    C7 5631   0.474   1.222  16.142  0.0185  0.1917  0.3606
  376TMC3    C8 5632   0.888   1.235  16.396  0.3918 -0.4700 -0.1719
  376TMC3    O1 5633   0.550   1.198  16.048  0.0509  0.8437  0.0414
  376TMC3    O2 5634   0.927   1.292  16.296  0.2480 -0.0416 -0.0672
  377MPD2     C 5635   3.273   1.393  12.282  0.2841  0.2176 -0.9711
  377MPD2    C1 5636   3.389   1.327  12.332 -0.0072 -0.6799 -0.2150
  377MPD2    C2 5637   3.385   1.282  12.466  0.1280 -0.7564  0.0518
  377MPD2    C3 5638   3.272   1.298  12.539  0.1301 -0.2054 -0.1822
  377MPD2    C4 5639   3.159   1.351  12.483 -0.8467 -0.6134  0.2065
  377MPD2    C5 5640   3.162   1.403  12.355 -0.0574  0.6274 -0.7148
  377MPD2     H 5641   3.468   1.228  12.510  0.1352 -1.1380 -0.4323
  377MPD2    H1 5642   3.071   1.373  12.543  0.8322  1.5503  1.8387
  377MPD2    H2 5643   3.261   1.426  12.179  0.5583  0.8265 -0.8084
  377MPD2    H3 5644   3.069   1.442  12.316 -1.2210 -0.5932  0.7761
  377MPD2     N 5645   3.259   1.253  12.672  0.0689  0.3896  0.3496
  377MPD2    H5 5646   3.177   1.283  12.723 -0.1943  0.8073 -0.3249
  377MPD2    N1 5647   3.495   1.289  12.247 -0.0638 -0.3249  0.3380
  377MPD2    H7 5648   3.495   1.323  12.152  0.2511 -0.6405  0.2247
  378TMC3    C1 5649   3.701   1.121  11.940 -0.0749  0.0022  0.3125
  378TMC3    C2 5650   3.617   1.161  12.044  0.6739 -0.1571 -0.8544
  378TMC3    C3 5651   3.684   1.173  12.168 -0.1023  0.1509 -0.2454
  378TMC3    C4 5652   3.834   1.086  11.961 -0.1096 -0.4767  0.1477
  378TMC3    C5 5653   3.881   1.082  12.090  0.0228  0.0816 -0.1248
  378TMC3    C6 5654   3.805   1.121  12.203  0.4862  0.3006  0.2053
  378TMC3     C 5655   3.657   1.136  11.801 -0.1517  0.1578  0.4338
  378TMC3     O 5656   3.742   1.170  11.716 -0.0437  0.4878  0.1728
  378TMC3     H 5657   3.525   1.209  12.014 -0.8467 -0.5589  3.0727
  378TMC3    H1 5658   3.893   1.060  11.874  0.4234 -0.9973  0.6667
  378TMC3    H2 5659   3.839   1.114  12.306  0.7112  2.3865  0.2737
  378TMC3    C7 5660   4.022   1.062  12.122  0.0406 -0.2421  0.0555
  378TMC3    C8 5661   3.611   1.224  12.285  1.0088 -0.5780 -0.1852
  378TMC3    O1 5662   4.056   1.082  12.237  0.2128  0.5266 -0.1413
  378TMC3    O2 5663   3.657   1.193  12.391  0.4149 -0.3955  0.3686
  379MPD2     C 5664   4.714   3.734  16.021 -0.3502 -0.5491 -0.3767
  379MPD2    C1 5665   4.625   3.640  16.062  0.1902  0.8283 -0.3059
  379MPD2    C2 5666   4.655   3.558  16.174 -0.1728 -0.0105  0.7157
  379MPD2    C3 5667   0.048   3.573  16.243 -0.5532  0.7674 -0.5542
  379MPD2    C4 5668   0.137   3.670  16.202 -0.5025  0.2099 -0.2272
  379MPD2    C5 5669   0.106   3.746  16.095 -0.5463 -0.4570 -0.1140
  379MPD2     H 5670   4.591   3.473  16.195 -0.8517  0.4695  0.5913
  379MPD2    H1 5671   0.224   3.696  16.261 -1.0014 -1.7610  1.3783
  379MPD2    H2 5672   4.700   3.797  15.934  0.1830 -0.3205 -0.2963
  379MPD2    H3 5673   0.186   3.817  16.081 -1.7121  0.6656 -1.0106
  379MPD2     N 5674   0.089   3.491  16.353  0.4164  0.5414 -0.1091
  379MPD2    H5 5675   0.177   3.518  16.397 -0.9095  0.8348  2.3277
  379MPD2    N1 5676   4.505   3.626  15.986  0.2971  0.6273  0.2034
  379MPD2    H7 5677   4.513   3.664  15.892 -1.3839 -0.0831 -0.2344
  380TMC3    C1 5678   4.301   3.556  15.921  0.7998 -0.1109  0.7772
  380TMC3    C2 5679   4.357   3.487  15.808 -0.4890  0.3228 -0.0793
  380TMC3    C3 5680   4.298   3.500  15.690 -0.3154 -0.4074 -0.0507
  380TMC3    C4 5681   4.192   3.634  15.906 -0.8861 -1.0659 -0.7807
  380TMC3    C5 5682   4.129   3.634  15.790  0.6704  0.4500  0.1496
  380TMC3    C6 5683   4.179   3.558  15.683 -0.4976 -0.3530 -0.3958
  380TMC3     C 5684   4.389   3.568  16.032  0.0886 -0.0869  0.3783
  380TMC3     O 5685   4.356   3.538  16.146  0.0767  0.0449 -0.0756
  380TMC3     H 5686   4.449   3.430  15.820 -0.6682 -0.1487 -0.9688
  380TMC3    H1 5687   4.173   3.707  15.984  1.5028 -2.4398  1.0926
  380TMC3    H2 5688   4.130   3.560  15.587  0.4735 -1.6751 -0.9095
  380TMC3    C7 5689   4.055   3.754  15.741  0.2707  0.0422 -0.0911
  380TMC3    C8 5690   4.380   3.498  15.566  0.1460  0.5810  0.0747
  380TMC3    O1 5691   4.092   3.870  15.768  0.4420  0.0426  0.1705
  380TMC3    O2 5692   4.326   3.541  15.467  0.2881 -0.5352 -0.2776
  381TMC3    C1 5693   3.732   4.621  16.122 -0.3142 -0.0889  0.0986
  381TMC3    C2 5694   3.801   0.016  16.100  1.0151 -0.9506 -0.2588
  381TMC3    C3 5695   3.828   0.093  16.209 -0.5782 -0.3346 -0.8793
  381TMC3    C4 5696   3.714   4.572  16.245 -1.0814 -0.1373  0.4775
  381TMC3    C5 5697   3.727   4.663  16.343  0.3207 -0.5801  0.3685
  381TMC3    C6 5698   3.782   0.052  16.330  0.6261 -0.5359  0.1637
  381TMC3     C 5699   3.696   4.539  16.005 -0.0467 -0.0132 -0.0640
  381TMC3     O 5700   3.697   4.418  16.029  0.4134 -0.1794 -0.5146
  381TMC3     H 5701   3.835   0.040  16.000 -1.0409 -1.8555 -1.1929
  381TMC3    H1 5702   3.689   4.467  16.261 -1.9641 -0.1265 -0.8120
  381TMC3    H2 5703   3.786   0.124  16.411 -0.9725  1.3871 -1.4758
  381TMC3    C7 5704   3.707   4.602  16.469  0.0020 -0.2029  0.2712
  381TMC3    C8 5705   3.901   0.217  16.198 -0.1868 -0.0619  0.2937
  381TMC3    O1 5706   3.740   4.486  16.481 -0.0368  0.3944 -0.1353
  381TMC3    O2 5707   3.907   0.272  16.090 -0.1819  0.0472  0.5221
  382MPD2     C 5708   2.531   2.436  17.093  0.2477 -0.0280  0.5752
  382MPD2    C1 5709   2.601   2.411  17.210 -1.1241 -0.0677  0.4837
  382MPD2    C2 5710   2.624   2.280  17.254  0.5332 -0.5160 -0.7990
  382MPD2    C3 5711   2.594   2.168  17.173  0.9007 -0.9118  0.1666
  382MPD2    C4 5712   2.530   2.193  17.056 -0.6657  0.1755  0.9386
  382MPD2    C5 5713   2.499   2.323  17.019  0.0005 -0.0902  0.2012
  382MPD2     H 5714   2.673   2.263  17.349 -2.6202 -1.8608  0.5542
  382MPD2    H1 5715   2.486   2.119  16.991 -0.3111 -0.3276  1.2775
  382MPD2    H2 5716   2.504   2.536  17.060 -2.2322 -0.6920  0.5796
  382MPD2    H3 5717   2.431   2.342  16.937  0.5934  0.9747 -0.0493
  382MPD2     N 5718   2.607   2.032  17.204 -0.4616 -0.5398  0.2658
  382MPD2    H5 5719   2.567   1.961  17.142 -1.1353 -1.3504  1.6315
  382MPD2    N1 5720   2.661   2.511  17.291 -0.1475 -0.0964 -0.3621
  382MPD2    H7 5721   2.726   2.478  17.362 -1.6035 -0.8666  0.6156
  383TMC3    C1 5722   2.678   1.842  17.331  0.7911  0.7215 -0.0565
  383TMC3    C2 5723   2.581   1.766  17.270  0.8634 -0.0325  0.2160
  383TMC3    C3 5724   2.586   1.632  17.292  0.3281  0.0338  0.4706
  383TMC3    C4 5725   2.778   1.786  17.409  0.1367  0.3829 -0.0607
  383TMC3    C5 5726   2.776   1.650  17.422  0.5956  0.5339 -0.9762
  383TMC3    C6 5727   2.679   1.569  17.374  0.1957  0.0545  0.0670
  383TMC3     C 5728   2.665   1.989  17.323 -0.1274 -0.8770  0.4288
  383TMC3     O 5729   2.720   2.053  17.413  0.1502 -0.6891 -0.2851
  383TMC3     H 5730   2.518   1.810  17.194 -1.2632  0.6968  2.4129
  383TMC3    H1 5731   2.849   1.850  17.461 -0.1143  0.9440 -0.4117
  383TMC3    H2 5732   2.686   1.461  17.385 -0.9984  0.2807  3.0962
  383TMC3    C7 5733   2.881   1.584  17.498 -0.5931 -0.6290 -0.2519
  383TMC3    C8 5734   2.464   1.566  17.251 -0.4578 -0.4941  0.9131
  383TMC3    O1 5735   2.898   1.468  17.458  0.9440  0.0368 -0.3824
  383TMC3    O2 5736   2.378   1.631  17.201 -0.5662  0.4191 -0.4445
  384MPD2     C 5737   0.351   3.838  12.357  0.3705  0.0468  0.4102
  384MPD2    C1 5738   0.260   3.743  12.307  0.0583  0.2597  0.5638
  384MPD2    C2 5739   0.242   3.738  12.165 -0.2907 -0.3621 -0.2355
  384MPD2    C3 5740   0.318   3.821  12.076  0.2062  0.1594 -0.4039
  384MPD2    C4 5741   0.403   3.911  12.131 -0.4017 -0.0433 -1.2903
  384MPD2    C5 5742   0.415   3.923  12.269  0.6688 -0.1380 -0.2355
  384MPD2     H 5743   0.161   3.678  12.124  0.5485 -1.7877  0.2056
  384MPD2    H1 5744   0.471   3.970  12.072 -2.2142 -0.1659 -3.4715
  384MPD2    H2 5745   0.377   3.866  12.458  3.0969  0.1077 -0.3295
  384MPD2    H3 5746   0.490   3.989  12.309  0.5309  1.6704 -2.9343
  384MPD2     N 5747   0.297   3.828  11.942  0.6173  0.3570  0.0813
  384MPD2    H5 5748   0.368   3.878  11.888  0.9443  0.0721  0.2493
  384MPD2    N1 5749   0.182   3.664  12.391 -0.5134 -0.4918  0.4221
  384MPD2    H7 5750   0.102   3.618  12.349 -2.0470  0.6075  2.1081
  385TMC3    C1 5751   0.212   3.767  11.738  0.0794 -0.0525 -0.3361
  385TMC3    C2 5752   0.094   3.774  11.675 -0.3574 -0.1478  0.1368
  385TMC3    C3 5753   0.063   3.669  11.590 -0.2062 -0.0206 -0.5155
  385TMC3    C4 5754   0.302   3.667  11.723  0.6740 -0.1825 -0.3437
  385TMC3    C5 5755   0.257   3.552  11.658  0.3812  0.2261  0.2680
  385TMC3    C6 5756   0.141   3.551  11.591  0.4180 -0.9685 -0.2899
  385TMC3     C 5757   0.187   3.793  11.876  0.1518  0.8832  0.1126
  385TMC3     O 5758   0.079   3.757  11.919  0.5176  0.6146  0.1322
  385TMC3     H 5759   0.035   3.864  11.686  0.1064  0.3407 -1.3369
  385TMC3    H1 5760   0.387   3.653  11.788  1.3847  0.0872 -1.2038
  385TMC3    H2 5761   0.103   3.463  11.540 -1.0063  0.1145 -1.1119
  385TMC3    C7 5762   0.303   3.434  11.728  0.1188  0.3184  0.2013
  385TMC3    C8 5763   4.651   3.659  11.544  0.2260  0.0608 -1.2229
  385TMC3    O1 5764   0.428   3.439  11.734 -1.0956 -0.2249  0.2625
  385TMC3    O2 5765   4.568   3.744  11.585 -0.2172  0.4857 -0.4556
  386TMC3    C1 5766   0.510   1.160  11.553  0.3077  0.6181 -0.6612
  386TMC3    C2 5767   0.462   1.137  11.430 -0.2194  0.1843  0.6510
  386TMC3    C3 5768   0.385   1.239  11.377  0.2590 -0.0266 -0.4455
  386TMC3    C4 5769   0.476   1.268  11.634  0.0236 -0.2240  0.3738
  386TMC3    C5 5770   0.380   1.348  11.583 -0.3569  0.6155 -0.3182
  386TMC3    C6 5771   0.343   1.343  11.454 -0.8354  0.1420 -0.5465
  386TMC3     C 5772   0.632   1.079  11.584  0.5562 -0.2054 -0.0811
  386TMC3     O 5773   0.658   0.981  11.516 -0.2708  0.0233  0.3450
  386TMC3     H 5774   0.512   1.065  11.366 -1.2157 -1.0709  1.2889
  386TMC3    H1 5775   0.507   1.287  11.736 -2.1254  2.6370  0.5108
  386TMC3    H2 5776   0.267   1.411  11.418 -0.7302  0.2955 -0.4769
  386TMC3    C7 5777   0.271   1.363  11.668  0.1636  0.3190 -0.5465
  386TMC3    C8 5778   0.279   1.179  11.301  0.6963  0.5453 -0.2828
  386TMC3    O1 5779   0.284   1.361  11.794 -0.4670 -0.0911 -0.9504
  386TMC3    O2 5780   0.164   1.213  11.325  0.3316  0.5041 -0.2785
  387MPD2     C 5781   2.487   0.981  10.016 -0.8512  0.3976  0.0920
  387MPD2    C1 5782   2.540   1.039   9.901 -0.2615  0.0395 -0.2500
  387MPD2    C2 5783   2.562   0.950   9.794  0.4803 -0.7108 -0.3725
  387MPD2    C3 5784   2.535   0.814   9.798  0.2745 -0.2960  0.4442
  387MPD2    C4 5785   2.481   0.762   9.906  0.2674  0.0581  0.0298
  387MPD2    C5 5786   2.453   0.846  10.017 -0.6567 -0.7108  0.6759
  387MPD2     H 5787   2.602   0.996   9.704  0.3162  0.3345  0.0966
  387MPD2    H1 5788   2.456   0.657   9.914  0.3194 -0.0408 -1.0353
  387MPD2    H2 5789   2.477   1.043  10.105  0.4819 -2.8321  2.5176
  387MPD2    H3 5790   2.424   0.805  10.113  1.8408 -2.6132  0.6119
  387MPD2     N 5791   2.571   0.738   9.685 -0.1952 -0.0597 -0.0116
  387MPD2    H5 5792   2.604   0.791   9.606 -0.3591  1.1982  0.7579
  387MPD2    N1 5793   2.587   1.173   9.895 -0.0624 -0.1003  0.1048
  387MPD2    H7 5794   2.641   1.199   9.813 -0.3586  0.3875  0.0631
  388TMC3    C1 5795   2.699   1.352   9.976  0.1171  0.6176 -0.2579
  388TMC3    C2 5796   2.715   1.450  10.073 -0.6624  0.0544  0.6962
  388TMC3    C3 5797   2.843   1.490  10.109 -0.4951 -0.9011  0.8189
  388TMC3    C4 5798   2.810   1.285   9.928 -0.2288 -0.2606  0.1071
  388TMC3    C5 5799   2.932   1.335   9.962  0.0080 -0.6115 -0.3124
  388TMC3    C6 5800   2.951   1.433  10.059 -0.2433  0.1833  0.1641
  388TMC3     C 5801   2.581   1.270   9.988  0.0953 -0.0690  0.0954
  388TMC3     O 5802   2.501   1.282  10.079  0.2353  0.0547  0.3876
  388TMC3     H 5803   2.632   1.496  10.125 -0.4841  1.5909 -0.3893
  388TMC3    H1 5804   2.799   1.218   9.844 -0.7919 -0.6297  0.4767
  388TMC3    H2 5805   3.051   1.465  10.083  0.0877 -0.7843  0.0638
  388TMC3    C7 5806   3.045   1.255   9.921  0.9002 -0.0823  0.3175
  388TMC3    C8 5807   2.862   1.583  10.216 -0.1640  0.3589 -0.2267
  388TMC3    O1 5808   3.155   1.305   9.925 -0.4789 -0.1531 -0.2451
  388TMC3    O2 5809   2.962   1.568  10.286  0.4641 -0.3157  0.1519
  389MPD2     C 5810   2.059   4.449  10.805  0.3245 -0.9399  0.0539
  389MPD2    C1 5811   1.958   4.357  10.791  0.2922 -0.2388  0.3718
  389MPD2    C2 5812   1.914   4.293  10.903 -0.1037  0.3772 -0.5100
  389MPD2    C3 5813   1.977   4.312  11.022  1.3586 -0.1211  0.4966
  389MPD2    C4 5814   2.083   4.397  11.032  0.4362  0.4439  0.1924
  389MPD2    C5 5815   2.131   4.460  10.921 -0.1982  0.0732 -0.7368
  389MPD2     H 5816   1.826   4.229  10.901 -1.0015  1.5854  0.6964
  389MPD2    H1 5817   2.133   4.413  11.127  2.1314  0.2641 -0.6668
  389MPD2    H2 5818   2.094   4.517  10.728  1.4205 -0.2374  1.1742
  389MPD2    H3 5819   2.210   4.534  10.926  1.0691 -1.3507  0.3205
  389MPD2     N 5820   1.908   4.274  11.138 -0.5031 -0.1529 -0.3018
  389MPD2    H5 5821   1.828   4.215  11.119  1.7380 -2.3835 -2.9114
  389MPD2    N1 5822   1.896   4.352  10.664 -0.1876  0.1118 -0.8144
  389MPD2    H7 5823   1.943   4.393  10.585  2.8765 -0.7206  0.5921
  390TMC3    C1 5824   1.823   4.253  11.360 -0.6031 -0.0065  0.2088
  390TMC3    C2 5825   1.803   4.110  11.359  0.3888  0.1204 -0.1945
  390TMC3    C3 5826   1.709   4.054  11.441 -0.2696 -0.2054 -0.1179
  390TMC3    C4 5827   1.743   4.340  11.426 -0.7665 -0.1901  0.3829
  390TMC3    C5 5828   1.638   4.280  11.490  0.1673  0.3061 -0.1405
  390TMC3    C6 5829   1.614   4.137  11.496  0.3440  0.2954 -0.6555
  390TMC3     C 5830   1.922   4.319  11.267  0.2892 -0.4267 -0.0636
  390TMC3     O 5831   1.974   4.416  11.311  0.1710 -0.5943 -0.3717
  390TMC3     H 5832   1.889   4.060  11.316  0.6323  1.3630 -1.1735
  390TMC3    H1 5833   1.776   4.442  11.440 -1.6985  0.8178 -4.7050
  390TMC3    H2 5834   1.521   4.104  11.541  1.2661 -1.5973 -0.1411
  390TMC3    C7 5835   1.534   4.375  11.536 -0.5269  0.1022 -0.0922
  390TMC3    C8 5836   1.691   3.910  11.446 -0.0055  0.1045  0.5383
  390TMC3    O1 5837   1.532   4.489  11.494  0.4021 -0.5075 -0.3084
  390TMC3    O2 5838   1.762   3.850  11.371  0.0955 -0.0084 -0.2879
  391MPD2     C 5839   0.857   1.444  11.567  0.5380  0.1206 -1.0223
  391MPD2    C1 5840   0.974   1.380  11.532  0.2784  0.0631 -0.1952
  391MPD2    C2 5841   0.966   1.292  11.424  0.1701 -0.2403  0.1756
  391MPD2    C3 5842   0.852   1.273  11.346 -0.0472  0.2402  0.6772
  391MPD2    C4 5843   0.740   1.343  11.384 -0.0734 -0.4263  0.2105
  391MPD2    C5 5844   0.743   1.428  11.493  0.3316  0.8528 -0.0868
  391MPD2     H 5845   1.061   1.246  11.398  0.7026 -0.3734  2.4438
  391MPD2    H1 5846   0.651   1.352  11.322  0.1576  1.2332  0.1182
  391MPD2    H2 5847   0.843   1.507  11.654  0.7702 -1.5072  0.1992
  391MPD2    H3 5848   0.654   1.478  11.529 -1.6243 -2.2383 -0.5792
  391MPD2     N 5849   0.860   1.183  11.230  0.5013 -0.3751 -0.5607
  391MPD2    H5 5850   0.946   1.131  11.220  0.2983 -0.4292 -1.9749
  391MPD2    N1 5851   1.086   1.402  11.613 -0.5056 -0.0126  0.2459
  391MPD2    H7 5852   1.068   1.458  11.695 -0.4345  1.3193 -0.6378
  392TMC3    C1 5853   0.790   1.099  11.026 -0.7975 -0.1246  0.1264
  392TMC3    C2 5854   0.687   1.091  10.936 -0.5609 -0.3793  0.0630
  392TMC3    C3 5855   0.718   1.108  10.806 -0.1701  0.0803 -0.4776
  392TMC3    C4 5856   0.916   1.121  10.982 -0.1263  0.3096 -0.1824
  392TMC3    C5 5857   0.942   1.145  10.852  0.0225 -0.5999 -0.3294
  392TMC3    C6 5858   0.838   1.144  10.763 -0.0364 -0.0894 -0.2065
  392TMC3     C 5859   0.747   1.147  11.158  0.3576 -0.3369  0.8380
  392TMC3     O 5860   0.627   1.162  11.177  0.3668  0.9937 -0.2912
  392TMC3     H 5861   0.583   1.072  10.958 -0.9444  0.5474 -0.9351
  392TMC3    H1 5862   1.008   1.139  11.038  0.3724 -2.0412 -0.2416
  392TMC3    H2 5863   0.865   1.189  10.668 -0.8678 -0.2574 -0.5210
  392TMC3    C7 5864   1.074   1.184  10.801  0.1335  0.1589 -0.3667
  392TMC3    C8 5865   0.613   1.098  10.701  0.0301  0.0465 -0.5560
  392TMC3    O1 5866   1.142   1.260  10.862 -0.1543 -0.4810 -0.5830
  392TMC3    O2 5867   0.496   1.095  10.729  0.3924  0.1344  0.7848
  393TMC3    C1 5868   4.610   3.851  10.536  0.0856  0.3779 -0.8033
  393TMC3    C2 5869   4.500   3.770  10.546  0.3649  0.1841 -0.4423
  393TMC3    C3 5870   4.478   3.718  10.672  0.6174 -0.0879 -0.4567
  393TMC3    C4 5871   4.688   3.892  10.644 -0.3376 -0.2297  0.5505
  393TMC3    C5 5872   4.651   3.843  10.763 -0.2901 -0.4311  0.7816
  393TMC3    C6 5873   4.544   3.764  10.785 -0.1882 -0.4583  0.5576
  393TMC3     C 5874   4.631   3.919  10.405  0.2907  0.5239  0.3364
  393TMC3     O 5875   4.568   3.881  10.308  0.4518  0.2650  0.4898
  393TMC3     H 5876   4.445   3.737  10.459 -2.5016  2.6435  0.4519
  393TMC3    H1 5877   0.062   3.926  10.617 -1.1408  0.1858 -1.8952
  393TMC3    H2 5878   4.527   3.719  10.882  1.8569 -2.0115  0.2108
  393TMC3    C7 5879   0.033   3.811  10.850 -0.0172  0.0654 -0.1948
  393TMC3    C8 5880   4.369   3.621  10.682 -0.1445 -0.6395  0.2783
  393TMC3    O1 5881   0.015   3.825  10.971  0.0966  0.8503 -0.8175
  393TMC3    O2 5882   4.315   3.590  10.580 -0.5924 -0.0128  0.1210
  394TMC3    C1 5883   1.726   4.327  10.499  0.6199 -0.8663 -0.2405
  394TMC3    C2 5884   1.622   4.250  10.451 -0.0957  0.3861  0.6151
  394TMC3    C3 5885   1.582   4.258  10.323  0.9289 -0.7878  0.3261
  394TMC3    C4 5886   1.790   4.418  10.419  0.5236 -0.1331  0.5563
  394TMC3    C5 5887   1.751   4.417  10.286 -0.7703  0.5365 -0.6438
  394TMC3    C6 5888   1.654   4.335  10.237 -0.4852 -0.3292  0.2718
  394TMC3     C 5889   1.773   4.296  10.634  0.5080 -0.0858 -0.2596
  394TMC3     O 5890   1.706   4.214  10.701  0.0703 -0.0663  0.1808
  394TMC3     H 5891   1.576   4.173  10.513  0.1640 -1.3568 -1.3353
  394TMC3    H1 5892   1.855   4.494  10.462  0.5190  0.5079 -0.5762
  394TMC3    H2 5893   1.621   4.341  10.134  2.3494  3.1858 -0.4256
  394TMC3    C7 5894   1.862   4.448  10.204 -0.2553 -0.7296 -0.5199
  394TMC3    C8 5895   1.482   4.168  10.275 -0.3801  0.1286 -0.4563
  394TMC3    O1 5896   1.926   4.549  10.228 -0.0545 -0.1664  0.0996
  394TMC3    O2 5897   1.409   4.212  10.188 -0.1177  0.1976 -0.4821
  395TMC3    C1 5898   1.837   1.186  14.327 -0.0818  0.2522 -0.3240
  395TMC3    C2 5899   1.708   1.223  14.307  0.3375  0.2639 -0.2711
  395TMC3    C3 5900   1.668   1.354  14.311 -0.3891  0.2567  0.0469
  395TMC3    C4 5901   1.934   1.282  14.353 -0.5236  0.2307 -0.2322
  395TMC3    C5 5902   1.890   1.405  14.376  0.0520  0.5407 -0.2650
  395TMC3    C6 5903   1.762   1.445  14.349  0.2447  0.2021  0.5152
  395TMC3     C 5904   1.853   1.075  14.420  0.3865 -0.1342 -0.0707
  395TMC3     O 5905   1.956   1.016  14.438  0.0748 -0.6961 -0.3583
  395TMC3     H 5906   1.637   1.144  14.286  0.5178  0.3426 -1.1559
  395TMC3    H1 5907   2.034   1.249  14.381 -0.2336 -1.1405 -2.8414
  395TMC3    H2 5908   1.736   1.548  14.371 -0.6531  0.1783 -0.4539
  395TMC3    C7 5909   1.983   1.511  14.427 -0.0091  0.0603  0.6684
  395TMC3    C8 5910   1.561   1.369  14.406  0.1123 -0.6783  0.6059
  395TMC3    O1 5911   1.940   1.627  14.430  0.3234  0.2397 -0.3900
  395TMC3    O2 5912   1.587   1.440  14.501 -0.5818  0.4869  0.0418
  396MPD2     C 5913   1.724   2.042  17.449 -0.2131  0.4965 -0.2415
  396MPD2    C1 5914   1.774   2.069  17.322  0.2703  0.1626  0.3133
  396MPD2    C2 5915   1.791   2.205  17.288 -0.1087 -0.4171 -0.2540
  396MPD2    C3 5916   1.770   2.308  17.376  0.0003  1.0144 -0.9905
  396MPD2    C4 5917   1.724   2.275  17.504  0.2418 -0.2605  0.1464
  396MPD2    C5 5918   1.701   2.144  17.538 -0.2738 -0.0521  0.0405
  396MPD2     H 5919   1.832   2.234  17.192  1.5289 -0.0312  0.5506
  396MPD2    H1 5920   1.708   2.346  17.585 -0.2425  2.3302 -2.2088
  396MPD2    H2 5921   1.702   1.945  17.492 -1.1207  0.2398 -1.2818
  396MPD2    H3 5922   1.672   2.125  17.641 -3.8842 -0.1264 -1.0153
  396MPD2     N 5923   1.790   2.442  17.339  0.3375  0.0168  0.3897
  396MPD2    H5 5924   1.831   2.450  17.246  0.0392  1.1540  0.3534
  396MPD2    N1 5925   1.796   1.965  17.232 -0.1498  0.1124 -0.4087
  396MPD2    H7 5926   1.785   1.870  17.267  3.7520  0.0723  0.6874
  397TMC3    C1 5927   1.837   1.851  17.029 -0.1014  0.3666  0.5593
  397TMC3    C2 5928   1.826   1.890  16.902 -0.3748  0.3983 -0.7969
  397TMC3    C3 5929   1.737   1.832  16.813 -0.9945 -0.0360 -0.3259
  397TMC3    C4 5930   1.765   1.747  17.070 -0.5134 -0.6970 -0.9423
  397TMC3    C5 5931   1.675   1.681  16.978  0.4634 -0.4643 -1.0715
  397TMC3    C6 5932   1.653   1.734  16.856  0.6472  0.3156 -0.3879
  397TMC3     C 5933   1.825   1.979  17.096  0.5859  0.0240 -0.0689
  397TMC3     O 5934   1.800   2.076  17.026  0.2199 -0.3523 -0.0503
  397TMC3     H 5935   1.887   1.965  16.854 -0.5853  0.2989 -1.2198
  397TMC3    H1 5936   1.790   1.699  17.164 -0.6658  0.4480 -0.3123
  397TMC3    H2 5937   1.591   1.685  16.782  1.8126 -0.2718 -0.9745
  397TMC3    C7 5938   1.623   1.544  17.007 -0.4892  0.1258 -0.1323
  397TMC3    C8 5939   1.669   1.914  16.714  0.4246 -0.2909 -0.0907
  397TMC3    O1 5940   1.576   1.491  16.905  0.5906  0.0940 -0.1147
  397TMC3    O2 5941   1.573   1.876  16.656  0.5920  0.3362  0.1280
  398MPD2     C 5942   4.318   2.897   0.075 -0.3903  0.0412 -0.1000
  398MPD2    C1 5943   4.394   2.836   0.172 -0.5434 -0.0500  0.2709
  398MPD2    C2 5944   4.461   2.910   0.269  0.2377 -0.3828 -0.4809
  398MPD2    C3 5945   4.478   3.043   0.253 -0.0961 -0.2048 -0.2321
  398MPD2    C4 5946   4.406   3.102   0.151  0.6444  0.1072 -0.5701
  398MPD2    C5 5947   4.321   3.033   0.065 -0.5631 -0.3456 -0.4912
  398MPD2     H 5948   4.520   2.859   0.343 -1.5191  0.2125  1.3289
  398MPD2    H1 5949   4.417   3.209   0.136 -3.2491  0.3665 -1.3730
  398MPD2    H2 5950   4.254   2.846   0.004  0.6545  1.0819 -1.7884
  398MPD2    H3 5951   4.268   3.081  17.687 -1.4089 -0.4826 -0.0102
  398MPD2     N 5952   4.581   3.110   0.323  0.2465 -0.6738 -0.4470
  398MPD2    H5 5953   4.635   3.048   0.382 -0.3254 -0.3328  0.4321
  398MPD2    N1 5954   4.421   2.701   0.161 -1.0468  0.0756 -0.2792
  398MPD2    H7 5955   4.477   2.652   0.230  0.5352 -1.3732 -2.5884
  399TMC3    C1 5956   4.423   2.483   0.101 -0.0595  0.6524 -0.1482
  399TMC3    C2 5957   4.554   2.480   0.140 -0.6875 -0.0281  0.5605
  399TMC3    C3 5958   4.618   2.358   0.116  0.3581  0.4510  0.0560
  399TMC3    C4 5959   4.352   2.384   0.033  0.6559  0.4768  0.5208
  399TMC3    C5 5960   4.423   2.270   0.021 -0.2913  0.1757 -0.4273
  399TMC3    C6 5961   4.555   2.255   0.054  0.3610  0.8639 -0.1039
  399TMC3     C 5962   4.364   2.614   0.074 -0.2430 -0.0788 -0.1108
  399TMC3     O 5963   4.274   2.631  17.699 -0.1926  0.2118 -1.0485
  399TMC3     H 5964   4.607   2.562   0.187  0.9593 -0.2332 -0.9558
  399TMC3    H1 5965   4.254   2.388  17.690  0.6316 -0.3528  0.5076
  399TMC3    H2 5966   4.615   2.169   0.025 -0.0940  0.7591 -0.7363
  399TMC3    C7 5967   4.360   2.158  17.671 -0.5811 -0.2235  0.5284
  399TMC3    C8 5968   0.028   2.347   0.152 -0.4410  0.3363 -0.1012
  399TMC3    O1 5969   4.421   2.086  17.593  0.1918 -0.2859  0.1759
  399TMC3    O2 5970   0.081   2.448   0.199  0.4224 -0.1042 -0.4046
  400TMC3    C1 5971   2.455   1.445  16.836  0.4213  0.8894 -0.0351
  400TMC3    C2 5972   2.395   1.361  16.743 -0.4782 -0.3060  0.4230
  400TMC3    C3 5973   2.284   1.404  16.673  0.0309  0.8050  0.1985
  400TMC3    C4 5974   2.386   1.561  16.872  0.5689  0.0496  0.0716
  400TMC3    C5 5975   2.275   1.602  16.796  0.0221  0.2140 -0.5999
  400TMC3    C6 5976   2.227   1.527  16.697 -0.4756 -0.2747  0.5106
  400TMC3     C 5977   2.571   1.405  16.904  0.8577 -0.1731 -0.1864
  400TMC3     O 5978   2.570   1.287  16.936  0.0332  0.0158 -0.1310
  400TMC3     H 5979   2.452   1.274  16.713 -0.8233 -0.2570 -0.3858
  400TMC3    H1 5980   2.424   1.625  16.951 -2.8590  0.0963  1.6623
  400TMC3    H2 5981   2.139   1.561  16.643  1.4215  1.8313 -1.2555
  400TMC3    C7 5982   2.202   1.715  16.841  0.0267  0.3637 -0.6863
  400TMC3    C8 5983   2.200   1.312  16.601 -0.3070 -0.0284 -0.6349
  400TMC3    O1 5984   2.109   1.744  16.767 -0.3474 -0.1335  0.5500
  400TMC3    O2 5985   2.113   1.364  16.537 -0.0799  0.4384  0.1846
  401MPD2     C 5986   1.569   0.626   1.116  0.1663 -0.0929 -0.0981
  401MPD2    C1 5987   1.649   0.536   1.062  0.7032 -0.1584  0.4817
  401MPD2    C2 5988   1.600   0.422   0.998  0.5510 -0.5765  0.7817
  401MPD2    C3 5989   1.458   0.410   0.977  0.5867  0.7376  0.1655
  401MPD2    C4 5990   1.384   0.503   1.045  0.0809 -0.1862 -0.1286
  401MPD2    C5 5991   1.435   0.610   1.110 -0.2385  0.1983  0.7626
  401MPD2     H 5992   1.662   0.348   0.947  0.7603  0.4541 -0.4691
  401MPD2    H1 5993   1.276   0.490   1.038  0.1464 -0.5687 -0.4441
  401MPD2    H2 5994   1.603   0.719   1.161  0.4820  1.0134 -2.6001
  401MPD2    H3 5995   1.374   0.674   1.173 -0.6218  1.3149 -0.7510
  401MPD2     N 5996   1.409   0.308   0.889 -0.2225 -0.1262 -0.0323
  401MPD2    H5 5997   1.480   0.254   0.841  0.5958  1.5943 -0.7859
  401MPD2    N1 5998   1.789   0.553   1.064 -0.1326 -0.2043  0.1151
  401MPD2    H7 5999   1.844   0.498   0.999 -0.4883  0.2666 -0.5939
  402TMC3    C1 6000   1.268   0.176   0.756 -0.3784  1.0629  0.6689
  402TMC3    C2 6001   1.324   0.063   0.800 -0.1176 -0.6622  1.1949
  402TMC3    C3 6002   1.311   4.682   0.724 -0.6946 -0.2576 -0.2751
  402TMC3    C4 6003   1.179   0.180   0.655  0.4598 -0.0020 -0.4779
  402TMC3    C5 6004   1.169   0.071   0.570  0.5832  0.0342  0.2913
  402TMC3    C6 6005   1.235   4.681   0.605 -0.4922 -0.5453  0.1284
  402TMC3     C 6006   1.284   0.289   0.840 -0.4619 -0.0471  0.0336
  402TMC3     O 6007   1.198   0.381   0.835 -0.1816  0.0039  0.0166
  402TMC3     H 6008   1.382   0.056   0.892  2.4003 -0.0055 -0.3483
  402TMC3    H1 6009   1.134   0.274   0.626  1.2661  0.8970  1.1671
  402TMC3    H2 6010   1.214   4.588   0.553 -1.1473  0.5455 -1.5824
  402TMC3    C7 6011   1.160   0.110   0.435 -0.4459 -0.1641  0.0402
  402TMC3    C8 6012   1.371   4.562   0.775 -0.5607 -0.2575 -0.0093
  402TMC3    O1 6013   1.085   0.206   0.416  0.1839  0.4856  0.3507
  402TMC3    O2 6014   1.448   4.577   0.868 -0.3454 -0.4942  0.4047
  403MPD2     C 6015   4.140   3.981  13.446  0.5282  0.5931  0.6590
  403MPD2    C1 6016   4.139   3.861  13.508  0.2191  0.0280  0.1611
  403MPD2    C2 6017   4.212   3.845  13.628 -0.0497  0.4578 -0.0559
  403MPD2    C3 6018   4.265   3.949  13.692 -0.1041 -0.8961  0.8514
  403MPD2    C4 6019   4.248   4.077  13.635 -0.2195 -0.4372 -0.4227
  403MPD2    C5 6020   4.203   4.086  13.509  0.3063 -0.5124 -0.5125
  403MPD2     H 6021   4.244   3.748  13.665 -1.5848 -0.0489 -0.0458
  403MPD2    H1 6022   4.286   4.165  13.685  0.9396 -1.1752 -0.0179
  403MPD2    H2 6023   4.112   3.986  13.342 -0.0646 -1.4039  0.7204
  403MPD2    H3 6024   4.208   4.179  13.455 -1.3121 -1.4492 -2.2784
  403MPD2     N 6025   4.353   3.917  13.797 -0.8962  0.6329 -0.0997
  403MPD2    H5 6026   4.368   3.817  13.811 -2.6553  0.3949  0.0965
  403MPD2    N1 6027   4.075   3.750  13.460  0.4578 -0.5371 -0.5308
  403MPD2    H7 6028   4.050   3.735  13.363 -0.3492  2.2117 -0.7400
  404TMC3    C1 6029   4.022   3.524  13.471 -0.2742 -0.3258  0.4658
  404TMC3    C2 6030   4.033   3.413  13.544 -0.4071  0.9688 -0.4118
  404TMC3    C3 6031   4.062   3.294  13.481  0.6095  0.5142 -0.0086
  404TMC3    C4 6032   4.000   3.521  13.339  0.2441 -0.1928 -0.2797
  404TMC3    C5 6033   4.033   3.403  13.277 -0.5274  0.9002  0.8855
  404TMC3    C6 6034   4.067   3.288  13.345  0.2925  0.5829 -0.3257
  404TMC3     C 6035   4.036   3.646  13.543 -0.6642  0.1048 -0.6908
  404TMC3     O 6036   4.038   3.641  13.666  0.3026  0.0203 -0.3567
  404TMC3     H 6037   4.040   3.419  13.652 -0.0694 -1.7605 -0.2688
  404TMC3    H1 6038   3.955   3.607  13.291 -0.0329  0.1820  0.6572
  404TMC3    H2 6039   4.082   3.189  13.306 -1.2657  0.2774 -0.1355
  404TMC3    C7 6040   4.033   3.409  13.129  0.1244  0.5199 -0.5863
  404TMC3    C8 6041   4.142   3.208  13.560 -0.4541 -0.0893 -0.2412
  404TMC3    O1 6042   4.021   3.517  13.082 -0.0863 -0.2833  0.2168
  404TMC3    O2 6043   4.250   3.183  13.511 -0.2111  0.3103 -0.0175
  405MPD2     C 6044   0.182   4.107  14.813 -0.5145 -0.0645  0.1564
  405MPD2    C1 6045   0.105   4.017  14.740 -0.3558 -1.2056 -0.0172
  405MPD2    C2 6046   0.007   4.073  14.651  0.4797  0.4099  0.0416
  405MPD2    C3 6047   4.714   4.214  14.630  0.7563 -0.4893  0.3498
  405MPD2    C4 6048   0.065   4.298  14.706 -0.2895  0.2590 -0.4297
  405MPD2    C5 6049   0.159   4.238  14.795  0.6875  0.4953  0.2203
  405MPD2     H 6050   4.674   4.010  14.584  0.0950 -0.2858  1.0228
  405MPD2    H1 6051   0.058   4.406  14.708 -3.4572  0.0424  1.2774
  405MPD2    H2 6052   0.266   4.077  14.875 -2.1073  1.2063  2.9158
  405MPD2    H3 6053   0.237   4.299  14.837 -0.7641  1.6991  1.1761
  405MPD2     N 6054   4.618   4.249  14.530  0.0916  0.7368  0.8523
  405MPD2    H5 6055   4.569   4.174  14.482 -0.6932  1.1836  0.9587
  405MPD2    N1 6056   0.120   3.878  14.759 -0.7426  0.2961 -0.0988
  405MPD2    H7 6057   0.163   3.837  14.841  0.6045  1.6537 -0.1276
  406TMC3    C1 6058   4.278   4.444  14.342 -0.3330  0.7184 -0.6047
  406TMC3    C2 6059   4.246   4.322  14.290 -0.2010 -0.0137 -0.5551
  406TMC3    C3 6060   4.350   4.237  14.276 -0.7586 -0.2612  1.0495
  406TMC3    C4 6061   4.394   4.475  14.406  0.7240  0.0209  0.7881
  406TMC3    C5 6062   4.491   4.378  14.398 -0.1267 -0.9264 -0.1370
  406TMC3    C6 6063   4.469   4.260  14.333 -1.0389  0.1054 -0.6172
  406TMC3     C 6064   4.167   4.531  14.374  0.2291 -0.3277  0.4899
  406TMC3     O 6065   4.183   4.653  14.360 -0.1643  0.2662 -0.6714
  406TMC3     H 6066   4.152   4.299  14.242  1.0950 -1.5327 -2.3959
  406TMC3    H1 6067   4.405   4.567  14.461  1.6794  2.0933 -2.9007
  406TMC3    H2 6068   4.556   4.199  14.312 -1.7225 -0.2044 -2.5497
  406TMC3    C7 6069   4.600   4.380  14.491  0.2546  0.5784  0.4133
  406TMC3    C8 6070   4.309   4.095  14.261 -0.4252  0.2373  0.6672
  406TMC3    O1 6071   4.630   4.490  14.543 -0.2864 -0.1823  0.0002
  406TMC3    O2 6072   4.190   4.076  14.256 -0.2603 -0.7331  0.0918
  407MPD2     C 6073   2.374   0.558   9.247 -0.1993  0.4406 -0.1135
  407MPD2    C1 6074   2.445   0.676   9.281 -0.0523 -0.5471  0.3849
  407MPD2    C2 6075   2.385   0.765   9.370 -0.5582  0.7160 -0.3083
  407MPD2    C3 6076   2.270   0.729   9.445 -0.9860 -0.2192  0.0303
  407MPD2    C4 6077   2.211   0.611   9.410  0.3956 -0.2405 -0.3291
  407MPD2    C5 6078   2.259   0.530   9.311 -0.2865 -0.0081  0.7161
  407MPD2     H 6079   2.443   0.847   9.411  0.9406 -0.3481 -0.2994
  407MPD2    H1 6080   2.115   0.582   9.451  1.0280 -1.1080  0.5320
  407MPD2    H2 6081   2.405   0.493   9.167 -0.4924 -1.4129  1.2769
  407MPD2    H3 6082   2.208   0.436   9.291 -0.5554 -0.0727  1.7153
  407MPD2     N 6083   2.208   0.801   9.552 -0.0056  0.4720  0.0947
  407MPD2    H5 6084   2.125   0.762   9.594  0.3844  1.1090  1.4489
  407MPD2    N1 6085   2.567   0.714   9.223  0.4395 -0.1798 -0.3424
  407MPD2    H7 6086   2.613   0.793   9.267  2.0510 -1.0379 -0.4935
  408TMC3    C1 6087   2.778   0.676   9.125 -0.3236  0.5744 -0.4279
  408TMC3    C2 6088   2.864   0.566   9.107  0.5360  0.0104 -0.1387
  408TMC3    C3 6089   2.995   0.585   9.139  0.0815  0.3887  0.0515
  408TMC3    C4 6090   2.824   0.797   9.170 -0.2043 -0.4239  0.3893
  408TMC3    C5 6091   2.955   0.811   9.192  0.5863  0.0453  0.0633
  408TMC3    C6 6092   3.041   0.705   9.180  0.3339 -0.0471  0.1915
  408TMC3     C 6093   2.639   0.636   9.137 -0.2137 -0.0633 -0.5479
  408TMC3     O 6094   2.600   0.528   9.081 -0.4699 -0.4128 -0.1746
  408TMC3     H 6095   2.831   0.467   9.077  0.9768 -0.4609  0.9198
  408TMC3    H1 6096   2.755   0.879   9.183  0.5476  0.2744 -0.0479
  408TMC3    H2 6097   3.144   0.736   9.192 -0.7022  2.6819  2.1181
  408TMC3    C7 6098   3.008   0.949   9.217 -0.3470  0.6358 -0.1351
  408TMC3    C8 6099   3.092   0.476   9.150  0.5581 -1.1238 -0.2783
  408TMC3    O1 6100   3.059   0.970   9.325 -0.0721  0.3997 -0.1672
  408TMC3    O2 6101   3.089   0.382   9.070  0.5861 -0.2549 -0.0595
  409MPD2     C 6102   1.697   0.639  16.527 -0.7862  0.0266 -0.4708
  409MPD2    C1 6103   1.750   0.667  16.648 -0.0349  0.6218 -0.5429
  409MPD2    C2 6104   1.764   0.800  16.684  0.4536 -0.3472  0.0553
  409MPD2    C3 6105   1.731   0.902  16.594 -0.2217  0.5230  0.2869
  409MPD2    C4 6106   1.689   0.864  16.463  0.5203  0.7051  0.9855
  409MPD2    C5 6107   1.672   0.733  16.439  0.8005 -0.1895  0.0507
  409MPD2     H 6108   1.809   0.814  16.781  2.4389 -1.1038 -0.7436
  409MPD2    H1 6109   1.660   0.932  16.384 -2.2290  0.1143  1.5003
  409MPD2    H2 6110   1.687   0.533  16.507  2.3562 -0.5611  0.9416
  409MPD2    H3 6111   1.640   0.704  16.339  1.2205  0.3019 -0.2290
  409MPD2     N 6112   1.737   1.041  16.628 -0.9336 -0.3663 -0.3576
  409MPD2    H5 6113   1.718   1.107  16.553  0.8988  0.3593 -0.1898
  409MPD2    N1 6114   1.797   0.565  16.735 -0.1944 -0.8100 -0.1650
  409MPD2    H7 6115   1.853   0.593  16.815  0.8757  1.0125 -1.5538
  410TMC3    C1 6116   1.785   1.227  16.776 -0.1703 -0.4822 -1.2699
  410TMC3    C2 6117   1.835   1.267  16.902  0.0111  0.0909 -0.3199
  410TMC3    C3 6118   1.894   1.388  16.918  0.0858  0.3347  0.0891
  410TMC3    C4 6119   1.800   1.312  16.671 -0.0506  0.5793  0.1810
  410TMC3    C5 6120   1.847   1.441  16.685  0.4474 -0.3461 -0.7668
  410TMC3    C6 6121   1.893   1.479  16.811  0.6982  0.4082 -0.8942
  410TMC3     C 6122   1.761   1.087  16.757  0.5546 -0.3830  0.5258
  410TMC3     O 6123   1.729   1.020  16.856 -0.3104  0.1491 -0.0655
  410TMC3     H 6124   1.807   1.193  16.975  0.9947  0.2524  0.2103
  410TMC3    H1 6125   1.768   1.285  16.571  0.7218  2.4284 -0.5493
  410TMC3    H2 6126   1.919   1.582  16.831  0.6675  0.1285  0.5610
  410TMC3    C7 6127   1.816   1.536  16.583  0.4882 -0.5147  0.1875
  410TMC3    C8 6128   1.994   1.398  17.027 -0.0948  0.2478  0.5549
  410TMC3    O1 6129   1.719   1.516  16.511  0.5672  0.3625 -0.1632
  410TMC3    O2 6130   2.037   1.510  17.032  0.3600  0.2856  0.3796
  411MPD2     C 6131   2.166   2.164  14.511 -0.3386  0.0339  0.2755
  411MPD2    C1 6132   2.035   2.206  14.495  0.3638 -1.1080  0.1192
  411MPD2    C2 6133   1.934   2.118  14.468  0.7553 -0.5814  0.2559
  411MPD2    C3 6134   1.960   1.984  14.445  0.3996 -0.1245  0.2808
  411MPD2    C4 6135   2.093   1.946  14.448  0.0405  0.4433  0.0557
  411MPD2    C5 6136   2.196   2.032  14.479 -0.4542  0.9304 -0.6297
  411MPD2     H 6137   1.832   2.156  14.465  1.0658  0.3749  1.4730
  411MPD2    H1 6138   2.118   1.841  14.436 -4.0052 -0.5320  0.1610
  411MPD2    H2 6139   2.246   2.235  14.528  1.6646 -2.5154  1.5907
  411MPD2    H3 6140   2.297   1.993  14.480 -0.9435 -0.3285  0.0552
  411MPD2     N 6141   1.859   1.889  14.420 -0.5197  0.2005  0.0478
  411MPD2    H5 6142   1.893   1.796  14.396  1.2618  0.6288  0.9463
  411MPD2    N1 6143   2.003   2.348  14.510 -0.3357 -1.2219  0.0559
  411MPD2    H7 6144   1.905   2.375  14.512  0.1197  0.6475 -3.3107
  412TMC3    C1 6145   1.666   1.795  14.359 -0.8407 -0.3852  0.0459
  412TMC3    C2 6146   1.550   1.751  14.407  0.5632  0.4138 -0.2894
  412TMC3    C3 6147   1.472   1.681  14.321 -1.0598 -0.5096  0.2936
  412TMC3    C4 6148   1.709   1.781  14.235 -1.2958  0.3441  0.6262
  412TMC3    C5 6149   1.634   1.701  14.155 -0.0389  0.1697 -0.0839
  412TMC3    C6 6150   1.515   1.655  14.195 -0.2017 -0.3674 -0.2631
  412TMC3     C 6151   1.724   1.901  14.436 -0.1053  0.4354 -0.0522
  412TMC3     O 6152   1.654   1.981  14.493 -0.2546  0.0323 -0.8156
  412TMC3     H 6153   1.510   1.793  14.499  1.0552  0.8258 -0.2654
  412TMC3    H1 6154   1.796   1.836  14.200 -0.2097 -0.5322  1.9280
  412TMC3    H2 6155   1.461   1.584  14.134  0.7180 -0.3915 -1.0461
  412TMC3    C7 6156   1.615   1.756  14.026  0.0664 -0.2136  0.6924
  412TMC3    C8 6157   1.337   1.727  14.325 -0.0695  0.1345 -0.0528
  412TMC3    O1 6158   1.500   1.773  13.992  0.3230  0.3931 -0.0600
  412TMC3    O2 6159   1.278   1.758  14.428  0.3293  0.0093  0.0069
  413MPD2     C 6160   3.658   0.666  15.398 -0.1011  0.5951  0.1189
  413MPD2    C1 6161   3.580   0.577  15.322  0.2058 -0.3192 -0.7404
  413MPD2    C2 6162   3.644   0.490  15.235  0.3060 -0.2773 -0.3509
  413MPD2    C3 6163   3.785   0.492  15.215 -0.3706  0.3824 -0.2179
  413MPD2    C4 6164   3.856   0.585  15.292  0.2916 -0.3962  0.2395
  413MPD2    C5 6165   3.790   0.666  15.378 -0.6942  0.2551 -0.3027
  413MPD2     H 6166   3.578   0.431  15.172 -0.4136  1.0884 -0.8968
  413MPD2    H1 6167   3.962   0.602  15.285  0.2174 -1.4404 -3.7079
  413MPD2    H2 6168   3.615   0.735  15.470 -1.0214  0.6927 -0.5320
  413MPD2    H3 6169   3.853   0.739  15.428 -0.6449  1.0375 -1.4917
  413MPD2     N 6170   3.853   0.392  15.135 -0.7189  0.0088 -0.4775
  413MPD2    H5 6171   3.792   0.341  15.072 -1.3260  0.0880  0.0490
  413MPD2    N1 6172   3.444   0.562  15.345  0.4663 -0.5178 -0.2562
  413MPD2    H7 6173   3.389   0.501  15.285 -0.2069 -0.5751  0.4237
  414TMC3    C1 6174   4.017   0.244  15.059 -0.3209 -0.3767  0.1214
  414TMC3    C2 6175   4.105   0.170  15.134  0.3878  0.1158 -0.3085
  414TMC3    C3 6176   4.119   0.032  15.117 -0.1810 -0.4003 -0.2411
  414TMC3    C4 6177   3.937   0.182  14.964  0.5439 -0.3184 -0.1485
  414TMC3    C5 6178   3.957   0.046  14.945  0.7045 -0.4702  0.1180
  414TMC3    C6 6179   4.037   4.698  15.027 -0.2001 -0.7819  0.2365
  414TMC3     C 6180   3.982   0.370  15.123 -0.0215  0.5777  1.2290
  414TMC3     O 6181   4.074   0.428  15.177 -0.1812  0.1689  0.1972
  414TMC3     H 6182   4.172   0.219  15.203  1.4152 -0.3920 -0.9554
  414TMC3    H1 6183   3.873   0.235  14.895  0.5828  1.6298  1.3000
  414TMC3    H2 6184   4.034   4.590  15.021  0.2399 -0.8381  1.0076
  414TMC3    C7 6185   3.860   4.697  14.865 -0.1063  0.2822 -0.9435
  414TMC3    C8 6186   4.227   4.675  15.173 -0.2177  0.6184 -0.6624
  414TMC3    O1 6187   3.744   0.018  14.879 -0.0848  0.1357 -0.0266
  414TMC3    O2 6188   4.197   4.553  15.180 -0.3957  0.0505  0.0164
  415TMC3    C1 6189   4.585   3.377  10.272 -0.1196 -0.2410 -0.3243
  415TMC3    C2 6190   4.656   3.472  10.351 -0.5920 -0.7472  0.7790
  415TMC3    C3 6191   0.052   3.504  10.301 -0.0756  0.1984  0.6106
  415TMC3    C4 6192   4.641   3.330  10.155  0.9354  0.1791 -0.1556
  415TMC3    C5 6193   0.038   3.362  10.116 -0.4882  0.2309  0.0967
  415TMC3    C6 6194   0.112   3.455  10.191  0.2360  0.0539  0.2511
  415TMC3     C 6195   4.459   3.315  10.317 -0.0720 -0.4799  0.9503
  415TMC3     O 6196   4.409   3.230  10.244  0.0114 -0.2010 -0.7353
  415TMC3     H 6197   4.602   3.539  10.417  0.5949  2.4103 -1.4331
  415TMC3    H1 6198   4.591   3.245  10.111  0.0016 -0.0308  1.2976
  415TMC3    H2 6199   0.203   3.496  10.149  0.3115 -1.5728 -1.1632
  415TMC3    C7 6200   0.112   3.279  10.026  0.5175 -0.0150  0.3816
  415TMC3    C8 6201   0.127   3.605  10.379  0.2924 -0.0629 -0.1585
  415TMC3    O1 6202   0.229   3.265  10.054 -0.2913 -0.2724 -0.4540
  415TMC3    O2 6203   0.088   3.622  10.495 -0.0220 -0.0400  0.0176
  416MPD2     C 6204   1.500   2.066  11.335 -0.6394 -0.3931 -0.0000
  416MPD2    C1 6205   1.362   2.053  11.307 -0.2342 -0.9050  0.0240
  416MPD2    C2 6206   1.323   1.945  11.218 -0.6959  0.3890  0.0059
  416MPD2    C3 6207   1.422   1.869  11.153  0.2709  0.0545 -0.0220
  416MPD2    C4 6208   1.557   1.908  11.157 -0.4283 -0.3733 -0.3967
  416MPD2    C5 6209   1.591   1.990  11.264 -0.4477  0.5019  0.1077
  416MPD2     H 6210   1.221   1.922  11.189 -0.7885  1.0223 -0.1695
  416MPD2    H1 6211   1.633   1.848  11.108 -0.1614  0.5978 -1.1803
  416MPD2    H2 6212   1.535   2.131  11.415  0.6083  1.3426 -1.9819
  416MPD2    H3 6213   1.696   2.014  11.278 -0.9477  1.9077  1.4698
  416MPD2     N 6214   1.395   1.749  11.078 -0.4999  0.0897  0.2106
  416MPD2    H5 6215   1.464   1.716  11.011  0.7034 -2.8669  2.8653
  416MPD2    N1 6216   1.272   2.136  11.373  0.6605 -0.1511  0.3615
  416MPD2    H7 6217   1.311   2.202  11.440  2.8739  0.2060 -1.2845
  417TMC3    C1 6218   1.079   2.253  11.421 -0.3051  0.7087 -0.6366
  417TMC3    C2 6219   1.139   2.296  11.533 -0.0650  0.3953  0.0366
  417TMC3    C3 6220   1.083   2.403  11.603 -0.0648  0.0268 -0.4615
  417TMC3    C4 6221   0.960   2.302  11.376 -0.9515  1.1925  0.4855
  417TMC3    C5 6222   0.913   2.416  11.442 -0.6836 -0.0338 -0.9528
  417TMC3    C6 6223   0.981   2.473  11.549  0.4907 -0.5825 -0.1300
  417TMC3     C 6224   1.138   2.135  11.348  0.1374 -0.1176  0.4894
  417TMC3     O 6225   1.065   2.075  11.269 -0.4093  0.5026 -0.0457
  417TMC3     H 6226   1.204   2.225  11.583 -0.5689  0.1710  0.3606
  417TMC3    H1 6227   0.924   2.266  11.281 -0.4265 -0.7775  1.0395
  417TMC3    H2 6228   0.937   2.564  11.589 -0.8365  0.1422 -3.2216
  417TMC3    C7 6229   0.806   2.492  11.390 -0.2634 -0.6118  0.2223
  417TMC3    C8 6230   1.137   2.469  11.722  0.2301 -0.3188 -0.5086
  417TMC3    O1 6231   0.795   2.488  11.270 -0.3943  0.0816 -0.0393
  417TMC3    O2 6232   1.102   2.587  11.736 -0.2312 -0.3809 -0.4708
  418TMC3    C1 6233   0.243   3.171   0.256 -0.4202  0.2752 -0.4247
  418TMC3    C2 6234   0.130   3.254   0.256  0.5663 -0.1833 -0.0264
  418TMC3    C3 6235   0.031   3.234   0.349  0.1992 -1.4446  0.6144
  418TMC3    C4 6236   0.263   3.083   0.358 -0.2439  0.1985 -0.2031
  418TMC3    C5 6237   0.167   3.070   0.450 -0.2746 -0.4531  0.3727
  418TMC3    C6 6238   0.044   3.138   0.447 -0.1698  0.0804 -0.6402
  418TMC3     C 6239   0.343   3.190   0.160  0.8319 -0.5115 -0.4272
  418TMC3     O 6240   0.323   3.270   0.070  0.3186  0.5492  0.0801
  418TMC3     H 6241   0.099   3.319   0.175  2.1726 -0.2358 -0.6828
  418TMC3    H1 6242   0.358   3.035   0.381 -1.2818 -2.1057 -0.7129
  418TMC3    H2 6243   4.700   3.111   0.526 -0.0958 -0.4169 -0.7471
  418TMC3    C7 6244   0.182   2.948   0.523  0.7061  0.2180 -0.3326
  418TMC3    C8 6245   4.624   3.238   0.296 -0.6094  0.2621 -0.3003
  418TMC3    O1 6246   0.228   2.853   0.464  0.7149 -0.0270 -0.4791
  418TMC3    O2 6247   4.600   3.321   0.205 -0.4610 -0.1633 -0.4126
  419MPD2     C 6248   3.549   1.936  12.442  0.1679 -0.1988  0.0655
  419MPD2    C1 6249   3.444   2.019  12.438 -0.1833  0.1713  0.5101
  419MPD2    C2 6250   3.404   2.088  12.549  0.5045  0.8487 -0.4012
  419MPD2    C3 6251   3.460   2.063  12.673 -0.4574 -0.5970 -0.0975
  419MPD2    C4 6252   3.564   1.970  12.685 -0.2752  0.4678 -0.0524
  419MPD2    C5 6253   3.610   1.913  12.569  0.1197  0.0743  0.5900
  419MPD2     H 6254   3.329   2.165  12.546 -1.8362 -1.3892  0.5993
  419MPD2    H1 6255   3.598   1.931  12.781  2.6532  0.8206 -0.9403
  419MPD2    H2 6256   3.592   1.878  12.361  0.9249 -0.8012  0.8993
  419MPD2    H3 6257   3.689   1.840  12.582  1.9161  1.9706  0.3402
  419MPD2     N 6258   3.402   2.122  12.788  0.1942 -0.1031  0.2139
  419MPD2    H5 6259   3.322   2.179  12.765  0.6415  0.1046 -0.8597
  419MPD2    N1 6260   3.384   2.052  12.316 -0.4192  0.2854  0.0988
  419MPD2    H7 6261   3.309   2.120  12.321  0.2947  1.1378 -1.1246
  420TMC3    C1 6262   3.393   2.198  13.009  0.2339  0.2253 -0.2451
  420TMC3    C2 6263   3.271   2.262  12.980 -0.2821  0.6058  0.6890
  420TMC3    C3 6264   3.202   2.314  13.087 -0.4238 -0.5480 -0.1785
  420TMC3    C4 6265   3.442   2.184  13.132  0.2735  0.0252 -0.7762
  420TMC3    C5 6266   3.378   2.246  13.234  0.6689  0.5827 -0.3066
  420TMC3    C6 6267   3.258   2.308  13.212 -0.3768  0.1749  0.6037
  420TMC3     C 6268   3.468   2.126  12.907  0.0338  0.2891 -0.2485
  420TMC3     O 6269   3.574   2.082  12.941  0.0674 -0.2461 -0.1608
  420TMC3     H 6270   3.222   2.261  12.884 -0.3427  0.4168  0.7236
  420TMC3    H1 6271   3.536   2.137  13.156  0.4436  0.8746  0.2146
  420TMC3    H2 6272   3.215   2.368  13.291  4.1803  2.3678  1.4233
  420TMC3    C7 6273   3.423   2.216  13.370 -0.1378 -0.4999  0.4540
  420TMC3    C8 6274   3.081   2.399  13.064 -0.3404 -0.8940 -0.6240
  420TMC3    O1 6275   3.469   2.107  13.398  0.3587  0.3139  0.2617
  420TMC3    O2 6276   3.075   2.432  12.948 -0.2672  0.5281 -0.5811
  421TMC3    C1 6277   4.541   3.934  13.919 -0.4719 -0.6161 -0.7408
  421TMC3    C2 6278   4.594   3.988  14.026 -0.4915  0.3536 -0.7778
  421TMC3    C3 6279   4.715   3.944  14.064  0.4073 -0.0285 -0.0326
  421TMC3    C4 6280   4.597   3.833  13.852 -0.2255 -0.1395 -0.1463
  421TMC3    C5 6281   4.709   3.769  13.901  1.2441 -0.4174 -0.2025
  421TMC3    C6 6282   0.052   3.836  14.001 -0.1720 -0.2906 -0.0812
  421TMC3     C 6283   4.429   4.003  13.861 -0.2030 -0.2200  0.3381
  421TMC3     O 6284   4.413   4.122  13.883 -0.3228 -0.2835  0.7721
  421TMC3     H 6285   4.544   4.067  14.082  1.9769  0.8718  0.7400
  421TMC3    H1 6286   4.559   3.797  13.757 -0.8086 -2.1690  0.8530
  421TMC3    H2 6287   0.146   3.805  14.046 -0.4192  0.4743  0.9511
  421TMC3    C7 6288   0.031   3.641  13.865  0.2555 -0.0240  0.3404
  421TMC3    C8 6289   0.049   4.008  14.181 -0.0963 -0.6813  0.2078
  421TMC3    O1 6290   0.143   3.606  13.897 -0.5298  0.3417  0.8295
  421TMC3    O2 6291   4.699   4.031  14.275 -0.1517 -0.1778 -0.3128
  422TMC3    C1 6292   2.277   0.594  12.588 -0.4426 -0.6146  0.2698
  422TMC3    C2 6293   2.273   0.646  12.720  0.1282  0.1641  0.2465
  422TMC3    C3 6294   2.230   0.561  12.818  0.0209 -0.6279 -0.1613
  422TMC3    C4 6295   2.227   0.471  12.565  0.2363  0.1066  0.2706
  422TMC3    C5 6296   2.162   0.400  12.667 -0.4555  0.8188 -0.1088
  422TMC3    C6 6297   2.167   0.443  12.796  0.1409  0.0406  0.1297
  422TMC3     C 6298   2.361   0.663  12.494  0.8573  0.5664  0.0564
  422TMC3     O 6299   2.383   0.781  12.521 -0.5603 -0.5226  0.2452
  422TMC3     H 6300   2.320   0.739  12.750  0.4862 -0.8757  2.9312
  422TMC3    H1 6301   2.219   0.441  12.462  3.8566 -1.4518  0.4127
  422TMC3    H2 6302   2.138   0.378  12.878  0.6478 -0.1230  0.1777
  422TMC3    C7 6303   2.113   0.273  12.626 -0.6688 -0.1234  1.1742
  422TMC3    C8 6304   2.281   0.592  12.949  0.4962 -0.4653 -0.3953
  422TMC3    O1 6305   2.161   0.227  12.523  0.6360  0.1518 -0.5470
  422TMC3    O2 6306   2.385   0.656  12.945  0.1570  0.1504 -0.5191
  423MPD2     C 6307   3.147   0.710   0.309 -0.3878 -0.0008 -0.6970
  423MPD2    C1 6308   3.205   0.602   0.364  0.3720 -0.1288  0.1429
  423MPD2    C2 6309   3.267   0.515   0.280 -0.7642  0.3547 -0.5174
  423MPD2    C3 6310   3.277   0.530   0.144  0.0781  0.3055 -0.1344
  423MPD2    C4 6311   3.216   0.644   0.091  0.1375  0.1142 -0.5799
  423MPD2    C5 6312   3.162   0.734   0.176  0.2348  0.6092  0.2202
  423MPD2     H 6313   3.285   0.416   0.320  1.7466 -0.1006 -2.7941
  423MPD2    H1 6314   3.227   0.677  17.691  0.1218  2.6288  0.2251
  423MPD2    H2 6315   3.088   0.780   0.368  1.6416  0.4425  0.8001
  423MPD2    H3 6316   3.107   0.816   0.131 -0.8310 -0.1758  0.0940
  423MPD2     N 6317   3.346   0.446   0.059  0.0489  0.3421  0.1905
  423MPD2    H5 6318   3.368   0.469  17.664 -0.5343  2.0737  0.4663
  423MPD2    N1 6319   3.199   0.573   0.503 -0.2711  0.0211  0.8563
  423MPD2    H7 6320   3.249   0.491   0.535  0.4410 -0.1972 -0.7933
  424TMC3    C1 6321   3.163   0.605   0.733  0.5848  0.6149  0.2284
  424TMC3    C2 6322   3.291   0.598   0.765 -0.2115 -0.4618 -0.4532
  424TMC3    C3 6323   3.334   0.598   0.898  0.3174  0.0730 -0.4339
  424TMC3    C4 6324   3.076   0.634   0.840 -0.9899  0.2405  0.1928
  424TMC3    C5 6325   3.119   0.640   0.967  1.0532 -0.0990  0.7063
  424TMC3    C6 6326   3.248   0.618   0.999  0.0121  0.6150 -0.3198
  424TMC3     C 6327   3.122   0.636   0.596  0.0614 -0.4238 -0.5142
  424TMC3     O 6328   3.030   0.720   0.585 -0.2753 -0.0942  0.1085
  424TMC3     H 6329   3.355   0.585   0.678 -1.0526 -1.0422 -0.9892
  424TMC3    H1 6330   2.972   0.652   0.815 -1.1208  0.5600  0.9820
  424TMC3    H2 6331   3.288   0.608   1.099  0.2831  1.0174 -0.3877
  424TMC3    C7 6332   3.027   0.685   1.063  0.1972  0.4518  0.2615
  424TMC3    C8 6333   3.462   0.536   0.930  0.2108 -0.1237  0.2929
  424TMC3    O1 6334   2.932   0.748   1.026  0.0782  0.3818 -0.0112
  424TMC3    O2 6335   3.498   0.517   1.047 -0.3504  0.1297 -0.0674
  425MPD2     C 6336   2.380   0.197  17.327 -0.6159  1.1027 -0.1092
  425MPD2    C1 6337   2.391   0.121  17.212 -0.1535 -0.0583 -0.2069
  425MPD2    C2 6338   2.279   0.074  17.145 -0.6604  0.4804  0.3039
  425MPD2    C3 6339   2.150   0.102  17.192  0.2154  0.5982 -0.1408
  425MPD2    C4 6340   2.139   0.185  17.307 -0.1846 -0.2583  0.5239
  425MPD2    C5 6341   2.250   0.231  17.369  0.7674 -0.3673 -0.0603
  425MPD2     H 6342   2.294   0.009  17.060  0.0731  2.0429 -0.7782
  425MPD2    H1 6343   2.041   0.223  17.334  0.2518  1.8063 -0.8158
  425MPD2    H2 6344   2.461   0.236  17.387 -1.0559  1.7398  0.0703
  425MPD2    H3 6345   2.230   0.289  17.459  0.3786  0.1392 -0.4730
  425MPD2     N 6346   2.036   0.061  17.117 -0.4334  0.0844  0.5936
  425MPD2    H5 6347   2.058   0.008  17.033  0.6799  0.0963  0.8778
  425MPD2    N1 6348   2.523   0.092  17.174 -0.4011  0.3653 -0.2658
  425MPD2    H7 6349   2.602   0.145  17.208 -0.6628  1.4386 -1.3439
  426TMC3    C1 6350   2.701   4.719  17.045 -0.3571  0.5455 -0.2987
  426TMC3    C2 6351   2.728   4.684  16.917  0.4226  0.7576  0.8112
  426TMC3    C3 6352   2.843   4.612  16.891  0.4428  0.5809  0.5246
  426TMC3    C4 6353   2.784   4.690  17.150 -0.1878  0.0631 -0.2767
  426TMC3    C5 6354   2.898   4.620  17.116  0.1282 -0.8631  0.6974
  426TMC3    C6 6355   2.918   4.572  16.992  0.1579  0.0070  0.4151
  426TMC3     C 6356   2.557   4.720  17.080  0.8056 -0.3057 -0.6300
  426TMC3     O 6357   2.486   4.643  17.012 -0.1453  0.2977 -0.9222
  426TMC3     H 6358   2.649   4.703  16.846  0.8915  0.9609  0.3396
  426TMC3    H1 6359   2.768   0.006  17.249 -1.4393 -0.2028 -0.3758
  426TMC3    H2 6360   3.000   4.502  16.975 -0.3031 -0.0032 -1.7263
  426TMC3    C7 6361   2.989   4.555  17.218  0.0561 -0.4384 -0.3391
  426TMC3    C8 6362   2.867   4.542  16.763 -0.5042  0.2783  0.5319
  426TMC3    O1 6363   3.100   4.518  17.186 -0.4480  0.0541 -0.1111
  426TMC3    O2 6364   2.966   4.472  16.755 -0.3257  0.1456  0.1132
  427MPD2     C 6365   1.062   2.510  15.224  0.3184  0.6957  1.0698
  427MPD2    C1 6366   1.069   2.383  15.166  0.1125  0.6072 -0.0865
  427MPD2    C2 6367   0.981   2.355  15.070  0.2227 -0.6646 -0.0489
  427MPD2    C3 6368   0.881   2.442  15.018  0.2293 -0.0925  0.2050
  427MPD2    C4 6369   0.886   2.567  15.072 -0.7541  0.2382 -0.1131
  427MPD2    C5 6370   0.972   2.603  15.170  0.1743 -0.4697  0.8460
  427MPD2     H 6371   0.966   2.252  15.040 -1.2856 -1.0105  1.8699
  427MPD2    H1 6372   0.827   2.647  15.028 -0.3812  0.9083  0.6107
  427MPD2    H2 6373   1.111   2.545  15.314 -0.3524  1.1757  1.2426
  427MPD2    H3 6374   0.973   2.700  15.219  2.9955  1.4925 -3.0709
  427MPD2     N 6375   0.796   2.410  14.912  0.4085 -0.2600 -0.2990
  427MPD2    H5 6376   0.723   2.475  14.886  2.4679  1.4515 -1.7648
  427MPD2    N1 6377   1.154   2.282  15.209 -0.1544  0.1639  0.4147
  427MPD2    H7 6378   1.147   2.195  15.157 -1.3661  1.2162 -1.1894
  428TMC3    C1 6379   1.292   2.157  15.341  0.4249  0.3092 -0.1399
  428TMC3    C2 6380   1.251   2.054  15.259 -0.0004  0.0531 -0.4905
  428TMC3    C3 6381   1.337   1.953  15.239  0.2047  0.3786  0.0084
  428TMC3    C4 6382   1.419   2.159  15.388  0.8987 -0.6466  0.4039
  428TMC3    C5 6383   1.506   2.058  15.358  0.2708 -0.0949  0.4993
  428TMC3    C6 6384   1.472   1.951  15.286  0.3849  0.0145 -0.3286
  428TMC3     C 6385   1.238   2.286  15.309  0.3047  0.3066 -0.2710
  428TMC3     O 6386   1.261   2.375  15.391 -0.3043 -0.1293 -0.1468
  428TMC3     H 6387   1.144   2.037  15.255  0.0227 -0.0375 -0.7304
  428TMC3    H1 6388   1.460   2.246  15.438  0.8598 -0.1419 -0.4249
  428TMC3    H2 6389   1.544   1.874  15.261  1.6187  0.5832  1.4747
  428TMC3    C7 6390   1.648   2.091  15.352 -0.7442  0.0098 -0.3346
  428TMC3    C8 6391   1.289   1.828  15.188 -0.2394  0.4572  0.7351
  428TMC3    O1 6392   1.695   2.108  15.463  0.2155 -0.3781  0.0320
  428TMC3    O2 6393   1.346   1.733  15.240  0.7460 -0.5692 -0.6333
  429MPD2     C 6394   1.805   1.695   0.007 -0.1326 -0.2068  0.4707
  429MPD2    C1 6395   1.911   1.681  17.623  0.5854  0.1322 -0.1027
  429MPD2    C2 6396   1.989   1.791  17.602  0.2384 -0.0766  0.7982
  429MPD2    C3 6397   1.971   1.913  17.666  0.0454  0.1613  0.4441
  429MPD2    C4 6398   1.859   1.929   0.039  1.0053 -0.0724  0.0810
  429MPD2    C5 6399   1.776   1.815   0.066  0.6161  0.0663  0.2628
  429MPD2     H 6400   2.073   1.792  17.534  0.3658 -0.9306  0.9470
  429MPD2    H1 6401   1.840   2.016   0.102 -0.6897 -0.6087  0.3059
  429MPD2    H2 6402   1.736   1.614   0.028 -1.7168  1.0334  0.0667
  429MPD2    H3 6403   1.691   1.825   0.133 -1.2515 -0.7307 -1.9964
  429MPD2     N 6404   2.071   2.015  17.658 -0.1791 -0.8268 -0.2469
  429MPD2    H5 6405   2.154   1.986  17.607  1.5851  1.4833  1.3709
  429MPD2    N1 6406   1.954   1.563  17.549  0.1949 -0.3126 -0.0171
  429MPD2    H7 6407   2.028   1.571  17.479 -0.8917  0.4124 -1.0756
  430TMC3    C1 6408   2.171   2.225  17.640  0.2317 -0.3785  0.1020
  430TMC3    C2 6409   2.134   2.345  17.582 -0.2241 -0.8355  0.2616
  430TMC3    C3 6410   2.217   2.390  17.485 -0.1146  0.3869  0.2871
  430TMC3    C4 6411   2.276   2.149  17.606 -0.5498 -0.0300  0.9463
  430TMC3    C5 6412   2.337   2.184  17.490  0.3883 -0.3636  0.6230
  430TMC3    C6 6413   2.317   2.311  17.437  0.4026  0.4642 -0.6464
  430TMC3     C 6414   2.057   2.149  17.691 -0.9755  0.4203 -0.2917
  430TMC3     O 6415   1.954   2.213   0.021  0.0876  0.3970  0.1666
  430TMC3     H 6416   2.066   2.414  17.631 -0.2723 -1.1433  0.6243
  430TMC3    H1 6417   2.313   2.064  17.663 -1.8754 -1.4118 -0.2579
  430TMC3    H2 6418   2.371   2.337  17.346  0.4099 -0.9409 -1.0382
  430TMC3    C7 6419   2.312   2.088  17.389  0.1041  0.5628  1.0891
  430TMC3    C8 6420   2.159   2.468  17.373 -0.2590 -0.2552 -0.2538
  430TMC3    O1 6421   2.329   1.968  17.410 -0.2820  0.2158  0.3869
  430TMC3    O2 6422   2.087   2.396  17.307  0.3434 -0.2176 -0.0003
  431MPD2     C 6423   3.412   2.472  12.686 -0.1577  0.1481 -0.1277
  431MPD2    C1 6424   3.503   2.466  12.583  0.2767  0.2062  0.0039
  431MPD2    C2 6425   3.455   2.442  12.457  0.4162  0.2286  0.2388
  431MPD2    C3 6426   3.326   2.425  12.423 -0.5112  1.1393  0.1467
  431MPD2    C4 6427   3.240   2.426  12.532  0.1648 -0.4446 -0.4413
  431MPD2    C5 6428   3.278   2.447  12.664  0.0569  1.0035  0.2542
  431MPD2     H 6429   3.531   2.435  12.380 -0.4739 -0.5088 -0.5603
  431MPD2    H1 6430   3.135   2.410  12.512 -0.3811 -0.1601  2.2375
  431MPD2    H2 6431   3.437   2.488  12.790 -0.9364  0.6243 -0.0131
  431MPD2    H3 6432   3.200   2.452  12.739 -0.5666 -1.2737 -0.2238
  431MPD2     N 6433   3.282   2.392  12.297 -0.0214  0.4961  0.0534
  431MPD2    H5 6434   3.187   2.358  12.287  0.1923  0.3079 -1.2337
  431MPD2    N1 6435   3.643   2.472  12.600  0.3286 -0.1647 -0.2020
  431MPD2    H7 6436   3.690   2.475  12.510  2.0147  0.6437  0.7014
  432TMC3    C1 6437   3.304   2.322  12.081  0.3775  0.0422 -0.7079
  432TMC3    C2 6438   3.374   2.338  11.967  0.0458 -0.6059  0.0011
  432TMC3    C3 6439   3.444   2.234  11.914 -0.6989  0.1826 -0.5639
  432TMC3    C4 6440   3.278   2.192  12.126 -0.1413  0.4164  0.3235
  432TMC3    C5 6441   3.354   2.086  12.084 -1.2711 -0.3045  0.0494
  432TMC3    C6 6442   3.434   2.108  11.969 -0.3085  0.1227 -0.2485
  432TMC3     C 6443   3.352   2.408  12.183 -0.2704 -0.0035  0.8492
  432TMC3     O 6444   3.468   2.446  12.167  0.3787  0.5861 -0.4632
  432TMC3     H 6445   3.382   2.441  11.934  0.9837 -0.1435  1.6735
  432TMC3    H1 6446   3.207   2.177  12.207 -2.1352  0.3278 -1.4314
  432TMC3    H2 6447   3.505   2.029  11.944  0.3549  0.0222  1.9305
  432TMC3    C7 6448   3.411   2.003  12.191 -0.6074  0.2936 -0.1875
  432TMC3    C8 6449   3.566   2.266  11.839  0.0048 -0.6985 -0.4864
  432TMC3    O1 6450   3.503   1.929  12.162  0.1767  0.4079  0.0445
  432TMC3    O2 6451   3.661   2.193  11.857 -0.4274  0.1389  0.0755
  433MPD2     C 6452   2.133   1.539  10.717 -0.0755  0.1369 -0.9502
  433MPD2    C1 6453   2.082   1.442  10.798  0.6392  0.0245 -0.0052
  433MPD2    C2 6454   2.085   1.469  10.936 -0.0916 -0.3792  0.7856
  433MPD2    C3 6455   2.156   1.573  10.989  0.3176  0.2399 -0.0898
  433MPD2    C4 6456   2.199   1.675  10.904 -0.8213 -0.0112  0.1969
  433MPD2    C5 6457   2.182   1.660  10.768 -0.6413  0.1597 -0.5487
  433MPD2     H 6458   2.039   1.401  11.006 -1.3985 -1.4225 -1.0971
  433MPD2    H1 6459   2.257   1.755  10.948 -1.0341  0.2949 -0.0736
  433MPD2    H2 6460   2.139   1.511  10.613  1.2598 -2.7632 -0.0916
  433MPD2    H3 6461   2.234   1.729  10.703 -1.1753  0.0155 -1.1350
  433MPD2     N 6462   2.176   1.568  11.132  0.3221  0.4492 -0.0340
  433MPD2    H5 6463   2.133   1.490  11.180  1.0321  0.0279 -0.0646
  433MPD2    N1 6464   2.024   1.329  10.730  0.5333  0.2051  0.3544
  433MPD2    H7 6465   2.045   1.321  10.631 -1.2102 -1.0637  0.0804
  434TMC3    C1 6466   1.915   1.118  10.709  0.3002  0.2856 -0.4020
  434TMC3    C2 6467   1.911   1.000  10.777 -0.0427  0.1423  1.0128
  434TMC3    C3 6468   1.799   0.913  10.746  0.5422 -0.8094  0.4830
  434TMC3    C4 6469   1.843   1.147  10.592  0.4585 -0.2189  0.2870
  434TMC3    C5 6470   1.741   1.059  10.570  0.1875  0.6111 -0.2073
  434TMC3    C6 6471   1.714   0.943  10.642  0.2871 -0.7043 -0.2523
  434TMC3     C 6472   1.971   1.217  10.791 -0.2840  0.0576 -0.3550
  434TMC3     O 6473   1.950   1.196  10.912 -0.1855 -0.1401 -0.0176
  434TMC3     H 6474   1.982   0.981  10.857  1.3635 -0.7629 -0.4409
  434TMC3    H1 6475   1.859   1.237  10.533 -0.7566  0.1725  0.5484
  434TMC3    H2 6476   1.624   0.884  10.626 -0.9331  0.5170  2.1617
  434TMC3    C7 6477   1.717   1.053  10.430 -0.1210  0.4990  0.1538
  434TMC3    C8 6478   1.810   0.766  10.774 -0.2206  0.4734 -0.8487
  434TMC3    O1 6479   1.726   1.159  10.370 -0.2829  0.2451 -0.5871
  434TMC3    O2 6480   1.742   0.697  10.698 -0.2789  0.3196  0.7053
  435MPD2     C 6481   3.976   1.007  15.487 -0.2847 -0.0281 -0.0947
  435MPD2    C1 6482   3.959   0.936  15.603 -0.0079  0.6802 -0.2532
  435MPD2    C2 6483   4.068   0.873  15.669  0.1664 -0.6154 -0.0695
  435MPD2    C3 6484   4.195   0.881  15.612  0.1439  0.1406  0.3682
  435MPD2    C4 6485   4.202   0.943  15.483  0.3629  0.1500  1.0354
  435MPD2    C5 6486   4.095   1.009  15.427 -0.0532  0.4486 -0.0494
  435MPD2     H 6487   4.059   0.819  15.762 -0.8084 -1.0529 -0.4142
  435MPD2    H1 6488   4.295   0.938  15.427  1.7743  1.2343  3.2900
  435MPD2    H2 6489   3.895   1.061  15.439  0.0396 -1.6772 -2.4675
  435MPD2    H3 6490   4.108   1.051  15.328 -2.6605  0.0559 -0.5331
  435MPD2     N 6491   4.300   0.810  15.677 -0.0003  0.0919  0.2363
  435MPD2    H5 6492   4.283   0.773  15.770 -0.7882 -3.2598 -1.2393
  435MPD2    N1 6493   3.833   0.919  15.664 -0.7854  0.5633  0.6581
  435MPD2    H7 6494   3.825   0.870  15.752  1.2231 -2.1835 -0.7081
  436TMC3    C1 6495   3.547   1.060  15.937  0.2794 -0.6587 -0.1020
  436TMC3    C2 6496   3.648   1.016  15.855  0.3686 -0.4913 -0.5240
  436TMC3    C3 6497   3.609   0.984  15.728  0.0923 -0.7396 -0.2658
  436TMC3    C4 6498   3.417   1.067  15.906  0.2500  0.6525 -0.6123
  436TMC3    C5 6499   3.381   1.022  15.780 -0.6817 -0.0621 -0.4350
  436TMC3    C6 6500   3.477   0.994  15.689 -0.1392  1.0354  0.0731
  436TMC3     C 6501   3.594   1.082  16.076  0.2015  0.4645  0.1619
  436TMC3     O 6502   3.713   1.095  16.084  0.9669 -0.3528 -0.3132
  436TMC3     H 6503   3.738   0.976  15.898 -0.8679  0.1558  2.6828
  436TMC3    H1 6504   3.333   1.108  15.961 -1.1411  0.5977 -2.7054
  436TMC3    H2 6505   3.458   0.970  15.585  0.4776  1.4197 -0.1237
  436TMC3    C7 6506   3.239   1.010  15.740 -0.4144 -0.4352  0.3044
  436TMC3    C8 6507   3.713   0.967  15.623  0.3669 -0.8180 -0.0704
  436TMC3    O1 6508   3.164   1.019  15.836  0.3184 -0.0980 -0.1495
  436TMC3    O2 6509   3.672   0.988  15.510  0.0099 -0.3267  0.2576
  437TMC3    C1 6510   2.938   3.146  12.623 -0.0521  0.4415 -0.0143
  437TMC3    C2 6511   2.844   3.239  12.602  0.1541 -0.4305 -0.2693
  437TMC3    C3 6512   2.828   3.301  12.479  0.1453 -0.2180  0.0272
  437TMC3    C4 6513   3.018   3.116  12.517 -0.5718 -0.4904  0.2369
  437TMC3    C5 6514   2.999   3.171  12.394  0.7214  0.0538 -0.0195
  437TMC3    C6 6515   2.906   3.273  12.371  0.5170  0.2497  0.4995
  437TMC3     C 6516   2.950   3.082  12.751 -0.2159 -0.2778 -0.2389
  437TMC3     O 6517   2.856   3.088  12.829  0.4720  0.0258 -0.1841
  437TMC3     H 6518   2.771   3.256  12.681 -0.1826  0.1309 -0.7021
  437TMC3    H1 6519   3.092   3.037  12.526 -0.9837 -0.6324  2.5516
  437TMC3    H2 6520   2.905   3.331  12.280  0.5412  1.0431  1.0053
  437TMC3    C7 6521   3.118   3.195  12.318 -0.1351  0.2507  0.6852
  437TMC3    C8 6522   2.713   3.387  12.465  0.0289  0.1858  0.1761
  437TMC3    O1 6523   3.111   3.201  12.189  0.2180 -0.2154  0.1961
  437TMC3    O2 6524   2.621   3.358  12.546  0.1407 -0.1848  0.2958
  438MPD2     C 6525   0.228   3.604  16.809  0.4486 -0.2953  0.5065
  438MPD2    C1 6526   0.288   3.523  16.910  0.4244  0.0227  0.2011
  438MPD2    C2 6527   0.210   3.475  17.010 -0.2063  0.1845  0.6777
  438MPD2    C3 6528   0.071   3.504  17.011 -0.6842 -0.8427 -0.4334
  438MPD2    C4 6529   0.014   3.598  16.920  0.0484  0.4362  0.8051
  438MPD2    C5 6530   0.102   3.640  16.824 -0.5098  0.1148  0.4238
  438MPD2     H 6531   0.251   3.397  17.073  0.5115 -1.1134 -1.3784
  438MPD2    H1 6532   4.632   3.610  16.914  0.1279  1.4616  1.3261
  438MPD2    H2 6533   0.278   3.636  16.719 -0.5681 -1.6805 -0.5597
  438MPD2    H3 6534   0.057   3.690  16.739 -0.3990  0.2489  0.4440
  438MPD2     N 6535   0.001   3.430  17.104 -0.0667 -0.0725  0.1504
  438MPD2    H5 6536   0.060   3.372  17.163  0.4078 -0.6190 -0.8627
  438MPD2    N1 6537   0.426   3.488  16.909  0.6829 -0.2713  0.1935
  438MPD2    H7 6538   0.464   3.444  16.993  1.5364  0.1984  0.0613
  439TMC3    C1 6539   0.642   3.475  16.849 -0.4483  0.0558  0.1576
  439TMC3    C2 6540   0.709   3.397  16.753 -0.1773  0.1877 -0.3058
  439TMC3    C3 6541   0.817   3.324  16.800 -0.7522 -0.3155 -0.0124
  439TMC3    C4 6542   0.693   3.491  16.977 -0.2032 -0.0102 -0.3107
  439TMC3    C5 6543   0.805   3.426  17.011 -0.4903  0.4209 -0.4125
  439TMC3    C6 6544   0.869   3.339  16.926  0.3958  0.5332 -0.0886
  439TMC3     C 6545   0.517   3.531  16.814 -0.3757 -0.8046 -0.2816
  439TMC3     O 6546   0.497   3.565  16.698 -0.1372 -0.8045 -0.7309
  439TMC3     H 6547   0.680   3.394  16.648 -0.2101 -0.2818 -0.2813
  439TMC3    H1 6548   0.641   3.551  17.051  0.5978  0.6547 -0.2867
  439TMC3    H2 6549   0.961   3.299  16.966  1.3310  1.9450 -0.8394
  439TMC3    C7 6550   0.856   3.425  17.153 -0.4685  0.1404 -0.3080
  439TMC3    C8 6551   0.887   3.236  16.702 -0.3869  0.5526 -0.3932
  439TMC3    O1 6552   0.974   3.400  17.162  0.1943  0.0379  0.4729
  439TMC3    O2 6553   0.995   3.201  16.732 -0.8444 -0.0297 -0.4346
  440MPD2     C 6554   3.876   4.096  15.071  0.0129  0.1293 -0.1797
  440MPD2    C1 6555   3.973   4.187  15.116  0.2795 -0.9261  1.0140
  440MPD2    C2 6556   4.104   4.153  15.091  0.1064 -0.0522 -0.1535
  440MPD2    C3 6557   4.140   4.048  15.009 -0.0446 -0.5911 -0.6252
  440MPD2    C4 6558   4.041   3.967  14.959 -0.2799 -0.6136 -0.1024
  440MPD2    C5 6559   3.915   3.985  14.995 -0.4182  0.1472 -0.1631
  440MPD2     H 6560   4.173   4.228  15.127  1.2105 -0.4121 -1.5385
  440MPD2    H1 6561   4.066   3.880  14.900 -1.5235 -0.6903 -0.5027
  440MPD2    H2 6562   3.769   4.113  15.078  0.4718  2.6829  0.6112
  440MPD2    H3 6563   3.839   3.917  14.957  2.0672 -1.9131 -1.4289
  440MPD2     N 6564   4.270   4.045  14.952  0.1166 -1.0450  0.2654
  440MPD2    H5 6565   4.287   3.966  14.891  1.4623 -1.0065  0.5954
  440MPD2    N1 6566   3.941   4.298  15.203  0.1100 -0.2436 -0.0060
  440MPD2    H7 6567   4.019   4.345  15.249 -0.3216  1.0076 -0.5420
  441TMC3    C1 6568   4.500   4.076  14.930  0.1094  0.1984 -0.2024
  441TMC3    C2 6569   4.592   4.172  14.964  0.0136  0.3349  1.1304
  441TMC3    C3 6570   4.683   4.151  15.056  0.7475  0.2184  0.6553
  441TMC3    C4 6571   4.518   3.948  14.969  0.0198 -0.5039  0.8557
  441TMC3    C5 6572   4.612   3.927  15.064 -0.1467  0.0813 -0.0559
  441TMC3    C6 6573   4.692   4.024  15.112  0.3699 -0.2426  0.3534
  441TMC3     C 6574   4.370   4.135  14.964 -0.3255  1.0357 -0.2381
  441TMC3     O 6575   4.382   4.236  15.031 -0.2589  0.8611  0.2568
  441TMC3     H 6576   4.597   4.267  14.911  0.7181  0.4624  1.4372
  441TMC3    H1 6577   4.447   3.867  14.956 -1.3234  0.6025  1.3550
  441TMC3    H2 6578   0.030   4.005  15.198 -0.2912 -0.5822  0.7714
  441TMC3    C7 6579   4.591   3.808  15.145  0.1504 -0.5874  0.6655
  441TMC3    C8 6580   4.716   4.262  15.134  0.7781 -0.0128  0.0065
  441TMC3    O1 6581   4.480   3.764  15.157  0.2960  0.1659  0.3215
  441TMC3    O2 6582   0.094   4.274  15.194 -0.2626 -0.5475  0.0407
  442MPD2     C 6583   2.353   4.337  16.529 -0.4520 -0.8233  0.4535
  442MPD2    C1 6584   2.228   4.320  16.476  0.5754 -0.4313  0.1131
  442MPD2    C2 6585   2.207   4.199  16.417  0.0038  0.5014 -0.1281
  442MPD2    C3 6586   2.308   4.109  16.406 -0.0016 -0.2741 -0.7137
  442MPD2    C4 6587   2.431   4.134  16.462 -0.0774 -0.4461  0.1574
  442MPD2    C5 6588   2.458   4.249  16.527  0.1563  0.3380  0.0944
  442MPD2     H 6589   2.115   4.185  16.363  0.3400 -1.9668 -0.0996
  442MPD2    H1 6590   2.517   4.069  16.445  1.0953  1.1964 -0.2352
  442MPD2    H2 6591   2.387   4.432  16.569 -0.0216 -0.4240 -0.8696
  442MPD2    H3 6592   2.557   4.277  16.559  0.7229 -1.2200 -0.2933
  442MPD2     N 6593   2.287   3.988  16.343 -0.0627 -0.3126  0.2238
  442MPD2    H5 6594   2.369   3.928  16.340  1.0196  1.1825  0.1831
  442MPD2    N1 6595   2.130   4.414  16.460 -0.4594 -0.2860 -0.0423
  442MPD2    H7 6596   2.042   4.382  16.419 -1.0625  0.8106  0.3856
  443TMC3    C1 6597   2.000   4.605  16.487  0.2540 -1.0084  0.4081
  443TMC3    C2 6598   1.968   4.651  16.361  0.1069  0.7854 -0.4976
  443TMC3    C3 6599   1.865   0.019  16.351 -0.2360 -0.0180  0.2905
  443TMC3    C4 6600   1.948   4.651  16.601 -0.0689 -0.2781  0.5021
  443TMC3    C5 6601   1.847   0.016  16.589  0.3053  0.1067  0.0054
  443TMC3    C6 6602   1.810   0.068  16.463  0.3808 -0.1338 -0.5174
  443TMC3     C 6603   2.126   4.540  16.508  1.1018  0.9710  0.0822
  443TMC3     O 6604   2.202   4.590  16.595  0.1238  0.3989 -0.5251
  443TMC3     H 6605   2.016   4.618  16.270 -0.7226  1.3904 -1.1665
  443TMC3    H1 6606   1.971   4.609  16.698  0.4041 -1.1314  0.0208
  443TMC3    H2 6607   1.716   0.122  16.455  0.4581  0.2586  1.1319
  443TMC3    C7 6608   1.749   4.711  16.687  0.1343  0.0822  0.8969
  443TMC3    C8 6609   1.785   0.023  16.234 -0.2672  1.2793  0.8506
  443TMC3    O1 6610   1.757   4.602  16.743  0.2313  0.0311  0.1121
  443TMC3    O2 6611   1.706   0.114  16.220  0.3222  0.2684 -0.4882
  444MPD2     C 6612   2.760   3.503  17.118  0.6076 -0.2296  0.0176
  444MPD2    C1 6613   2.665   3.488  17.022 -0.7043 -0.5108  0.2143
  444MPD2    C2 6614   2.708   3.423  16.905  0.4628 -0.3199  0.8292
  444MPD2    C3 6615   2.837   3.373  16.886  0.4887  1.3281  0.3070
  444MPD2    C4 6616   2.925   3.385  16.991 -0.7806 -0.6361 -0.3565
  444MPD2    C5 6617   2.883   3.448  17.106  0.3146 -0.0201 -0.0165
  444MPD2     H 6618   2.639   3.416  16.822  0.0184 -1.3602  1.2816
  444MPD2    H1 6619   3.020   3.334  16.987  0.2573  1.1806  0.8313
  444MPD2    H2 6620   2.737   3.564  17.205 -0.9079 -1.5516  0.5519
  444MPD2    H3 6621   2.957   3.458  17.184 -0.4095 -1.9852  0.9297
  444MPD2     N 6622   2.872   3.298  16.770  0.2149 -0.1092 -0.0785
  444MPD2    H5 6623   2.799   3.290  16.700 -0.8864 -2.2661  1.3177
  444MPD2    N1 6624   2.533   3.542  17.031  0.0604 -0.1086  0.4638
  444MPD2    H7 6625   2.474   3.527  16.950 -1.2228  1.1173  1.1766
  445TMC3    C1 6626   3.009   3.176  16.615 -0.2077 -0.5916  0.0457
  445TMC3    C2 6627   2.896   3.147  16.541  0.4199  0.1925  0.3936
  445TMC3    C3 6628   2.923   3.088  16.421  0.5075  0.4516 -0.3011
  445TMC3    C4 6629   3.139   3.132  16.585  0.0110 -0.2404 -0.3336
  445TMC3    C5 6630   3.159   3.079  16.462 -0.8415  0.6053 -0.2293
  445TMC3    C6 6631   3.051   3.059  16.381  0.0841  0.0134 -0.0348
  445TMC3     C 6632   2.997   3.266  16.735  0.3110 -0.4616 -0.7479
  445TMC3     O 6633   3.104   3.280  16.789 -0.1529  0.0394 -0.2581
  445TMC3     H 6634   2.796   3.166  16.578 -0.1727 -3.0244  0.4718
  445TMC3    H1 6635   3.219   3.168  16.649  1.0506 -2.8002 -0.1889
  445TMC3    H2 6636   3.077   3.026  16.280 -0.1452 -0.1842 -0.0282
  445TMC3    C7 6637   3.293   3.095  16.405  0.2005  0.2833 -0.4482
  445TMC3    C8 6638   2.805   3.051  16.351 -0.9927 -1.0296  0.2786
  445TMC3    O1 6639   3.307   3.092  16.283 -0.3705 -0.2325  0.2977
  445TMC3    O2 6640   2.705   3.114  16.384 -0.0507 -0.2687  0.0253
  446MPD2     C 6641   1.994   0.789  11.317 -0.2642 -0.4363 -1.4758
  446MPD2    C1 6642   1.922   0.842  11.213 -0.4134 -0.1298  0.1213
  446MPD2    C2 6643   1.978   0.946  11.142 -0.1836 -0.9032 -0.4373
  446MPD2    C3 6644   2.102   0.997  11.169 -0.1558 -0.1315 -0.0827
  446MPD2    C4 6645   2.171   0.946  11.277  0.2117 -0.9925 -0.4654
  446MPD2    C5 6646   2.115   0.850  11.349 -0.2075 -0.0123  0.2742
  446MPD2     H 6647   1.908   0.994  11.075 -1.3663  2.0098  2.8860
  446MPD2    H1 6648   2.272   0.973  11.304  0.0636 -1.5721  0.6638
  446MPD2    H2 6649   1.961   0.707  11.380 -0.9787 -0.1082 -1.4320
  446MPD2    H3 6650   2.162   0.814  11.440 -1.2247 -1.1647  0.3393
  446MPD2     N 6651   2.158   1.096  11.081  0.3005  0.2838 -0.2847
  446MPD2    H5 6652   2.097   1.124  11.005 -0.3120 -0.2996 -0.0028
  446MPD2    N1 6653   1.802   0.783  11.159  0.8091 -0.8071 -0.4848
  446MPD2    H7 6654   1.751   0.838  11.091 -2.7695 -2.4700  0.8571
  447TMC3    C1 6655   2.337   1.202  10.965 -0.0668 -0.0930  0.5408
  447TMC3    C2 6656   2.287   1.152  10.845  0.0843 -0.0950 -1.0061
  447TMC3    C3 6657   2.360   1.177  10.730  0.0436 -0.0229 -0.1732
  447TMC3    C4 6658   2.459   1.270  10.971  0.3424  0.4114 -0.4496
  447TMC3    C5 6659   2.535   1.273  10.859  0.2544  0.1926 -0.8587
  447TMC3    C6 6660   2.485   1.230  10.736 -0.3519 -0.0620  0.9247
  447TMC3     C 6661   2.290   1.141  11.081 -0.2708 -0.2732 -0.4607
  447TMC3     O 6662   2.375   1.129  11.168 -0.5801 -0.6143  0.2400
  447TMC3     H 6663   2.197   1.092  10.842 -0.0655 -0.0131  1.9457
  447TMC3    H1 6664   2.497   1.297  11.069 -0.9998  1.0604 -0.1153
  447TMC3    H2 6665   2.550   1.247  10.652 -0.4001  1.4106  1.1885
  447TMC3    C7 6666   2.678   1.238  10.870 -0.2202  0.3215 -0.8127
  447TMC3    C8 6667   2.337   1.107  10.608  0.0619  0.4236  0.2754
  447TMC3    O1 6668   2.740   1.192  10.777  0.0712 -1.0515 -0.4736
  447TMC3    O2 6669   2.404   1.137  10.510  0.1883 -0.0937 -0.2679
  448TMC3    C1 6670   0.775   0.558  17.178  0.3109  0.0139 -0.4634
  448TMC3    C2 6671   0.837   0.449  17.124  0.2881 -0.4305 -0.4797
  448TMC3    C3 6672   0.835   0.339  17.206  0.8433 -0.1218 -0.1522
  448TMC3    C4 6673   0.710   0.557  17.297  0.2776 -0.5533 -0.3684
  448TMC3    C5 6674   0.723   0.444  17.371  0.1791 -0.2834  0.4637
  448TMC3    C6 6675   0.779   0.330  17.323  0.1760  0.0876  0.0354
  448TMC3     C 6676   0.833   0.691  17.140  0.7613 -0.3401 -0.3803
  448TMC3     O 6677   0.950   0.687  17.102 -0.6447  0.0996 -0.2564
  448TMC3     H 6678   0.881   0.444  17.025 -2.5872  0.7696 -1.8202
  448TMC3    H1 6679   0.677   0.645  17.351 -1.8022 -2.9932  2.3524
  448TMC3    H2 6680   0.804   0.243  17.382  1.7881 -1.1951 -2.5116
  448TMC3    C7 6681   0.700   0.454  17.520  0.2106  0.5137  0.2428
  448TMC3    C8 6682   0.841   0.211  17.139  0.5839  0.9444 -0.9712
  448TMC3    O1 6683   0.698   0.565  17.571 -0.4122  0.3854  0.2949
  448TMC3    O2 6684   0.791   0.119  17.197 -0.1929 -0.2825  0.3688
  449MPD2     C 6685   1.479   3.519  13.539  0.8167  0.0823  0.6877
  449MPD2    C1 6686   1.408   3.511  13.425 -0.3897 -0.5867  0.6527
  449MPD2    C2 6687   1.322   3.405  13.411 -0.0575 -1.2133  0.3692
  449MPD2    C3 6688   1.323   3.300  13.506  0.1311 -0.6001 -0.4102
  449MPD2    C4 6689   1.417   3.305  13.608 -0.2006 -0.2487 -0.3589
  449MPD2    C5 6690   1.482   3.422  13.630 -0.1705  0.8500 -0.0544
  449MPD2     H 6691   1.252   3.388  13.330 -0.8200  1.2018  0.5384
  449MPD2    H1 6692   1.419   3.226  13.683  1.9612  0.6608  0.5637
  449MPD2    H2 6693   1.544   3.605  13.550 -0.4695  1.2072 -0.5879
  449MPD2    H3 6694   1.548   3.440  13.715 -0.1179  0.3472  0.0153
  449MPD2     N 6695   1.234   3.193  13.482  0.7196 -0.3803  0.2762
  449MPD2    H5 6696   1.177   3.198  13.398 -0.2529  0.9429  1.0152
  449MPD2    N1 6697   1.406   3.611  13.326 -0.5528 -0.1258 -0.1726
  449MPD2    H7 6698   1.340   3.600  13.250  0.1880  1.3717 -1.0500
  450TMC3    C1 6699   1.433   3.799  13.190 -0.2545  0.2358  0.2324
  450TMC3    C2 6700   1.543   3.813  13.113 -0.4352  0.1242 -0.0828
  450TMC3    C3 6701   1.536   3.784  12.976 -0.4154  0.4081  0.6208
  450TMC3    C4 6702   1.311   3.760  13.135  0.4002 -0.0781  1.1195
  450TMC3    C5 6703   1.307   3.729  13.003  0.0051 -0.4878 -0.2204
  450TMC3    C6 6704   1.415   3.738  12.918  0.7500  0.1679 -0.5960
  450TMC3     C 6705   1.469   3.731  13.312  0.3978 -0.6388 -0.1256
  450TMC3     O 6706   1.551   3.783  13.388 -0.5445  0.5584  0.5555
  450TMC3     H 6707   1.633   3.831  13.171 -0.1601 -0.3533 -0.3560
  450TMC3    H1 6708   1.219   3.774  13.191  0.4735 -1.5918  1.6145
  450TMC3    H2 6709   1.416   3.690  12.821 -4.2405 -0.0742 -0.5453
  450TMC3    C7 6710   1.228   3.605  12.993  0.4525 -0.2692 -0.3970
  450TMC3    C8 6711   1.651   3.788  12.882 -0.3202  0.0452  0.6221
  450TMC3    O1 6712   1.181   3.564  13.100  0.5408  0.1145 -0.4258
  450TMC3    O2 6713   1.618   3.809  12.766 -0.4617 -0.0061 -0.1839
  451MPD2     C 6714   3.179   0.937   1.602 -0.4019  0.6078 -1.0782
  451MPD2    C1 6715   3.173   1.012   1.492  0.3271 -0.3149 -0.1675
  451MPD2    C2 6716   3.256   0.979   1.384  0.4027  0.2859  0.5293
  451MPD2    C3 6717   3.352   0.884   1.390 -0.8726 -0.3723  0.5139
  451MPD2    C4 6718   3.359   0.810   1.509  0.0043  0.1728 -0.2116
  451MPD2    C5 6719   3.277   0.841   1.611 -0.3229 -0.5904  0.4687
  451MPD2     H 6720   3.248   1.042   1.297  0.6775 -0.0902  0.2302
  451MPD2    H1 6721   3.427   0.726   1.508 -1.7788 -1.2650  0.7411
  451MPD2    H2 6722   3.103   0.951   1.679  0.3571  0.6266 -0.3279
  451MPD2    H3 6723   3.284   0.789   1.706  0.1563  0.5522  1.0589
  451MPD2     N 6724   3.439   0.841   1.286  0.4028  0.3544 -0.0355
  451MPD2    H5 6725   3.494   0.760   1.313 -0.4140 -0.2162 -0.0575
  451MPD2    N1 6726   3.072   1.113   1.483 -0.4052 -0.8026 -0.0051
  451MPD2    H7 6727   2.990   1.109   1.544 -0.1125 -2.1426  0.3027
  452TMC3    C1 6728   3.554   0.849   1.068  0.3099  0.4531  0.6313
  452TMC3    C2 6729   3.658   0.778   1.120 -0.0865 -0.0436  0.3889
  452TMC3    C3 6730   3.764   0.745   1.040 -0.2380  0.2627 -0.2664
  452TMC3    C4 6731   3.568   0.903   0.944 -0.1312 -0.3889 -0.0249
  452TMC3    C5 6732   3.674   0.874   0.866 -0.5592  0.5196 -0.2033
  452TMC3    C6 6733   3.773   0.798   0.914  0.2887 -0.8952 -0.3902
  452TMC3     C 6734   3.443   0.887   1.150 -0.0681  0.0997  0.3682
  452TMC3     O 6735   3.372   0.973   1.099 -0.8848 -0.0492  0.2709
  452TMC3     H 6736   3.661   0.766   1.228 -0.8200  2.1452  0.6553
  452TMC3    H1 6737   3.502   0.977   0.900  0.8180  0.2237 -0.4099
  452TMC3    H2 6738   3.850   0.758   0.849  2.1973  2.1022  0.0265
  452TMC3    C7 6739   3.706   0.979   0.762 -0.1861 -0.3593 -0.4310
  452TMC3    C8 6740   3.875   0.673   1.102 -0.2008  0.5903  0.8119
  452TMC3    O1 6741   3.625   1.065   0.732 -0.1104  0.1333 -0.4990
  452TMC3    O2 6742   3.840   0.624   1.212 -0.3569 -0.2209  0.4389
  453TMC3    C1 6743   4.323   4.623  11.548  0.1304 -0.3991  0.1902
  453TMC3    C2 6744   4.199   4.644  11.610 -0.9950 -0.4945  0.3507
  453TMC3    C3 6745   4.092   4.603  11.534 -0.1205  0.2975 -0.4222
  453TMC3    C4 6746   4.338   4.577  11.428  0.5069  0.1550 -0.4949
  453TMC3    C5 6747   4.226   4.534  11.356 -0.6210 -0.8287  0.4900
  453TMC3    C6 6748   4.101   4.551  11.408 -0.0721 -0.2917 -0.3052
  453TMC3     C 6749   4.448   4.685  11.599 -0.2679 -0.4855  0.6577
  453TMC3     O 6750   4.531   4.706  11.516  0.0928  0.2396  0.0559
  453TMC3     H 6751   4.183   4.690  11.707 -0.3345  0.7003 -0.1179
  453TMC3    H1 6752   4.440   4.554  11.401  0.5434  2.1654 -2.0637
  453TMC3    H2 6753   4.010   4.521  11.358 -2.2098 -0.7957  3.8248
  453TMC3    C7 6754   4.253   4.435  11.266  0.9962 -0.4586  0.2507
  453TMC3    C8 6755   3.964   4.585  11.601  0.6134 -0.2629  0.4392
  453TMC3    O1 6756   4.164   4.351  11.255  0.5808  0.0558 -0.3353
  453TMC3    O2 6757   3.855   4.600  11.545 -0.1608  0.0479  0.5751
  454MPD2     C 6758   3.467   3.509  16.131  0.1243  0.0024  0.2688
  454MPD2    C1 6759   3.370   3.573  16.067 -0.1041 -0.8014 -0.4742
  454MPD2    C2 6760   3.321   3.694  16.125 -0.5063  0.0499  0.6891
  454MPD2    C3 6761   3.377   3.748  16.242  0.4439 -0.4571  0.2184
  454MPD2    C4 6762   3.468   3.672  16.308  0.4080  0.6735 -0.9301
  454MPD2    C5 6763   3.509   3.548  16.255 -0.3221  0.2812  0.3680
  454MPD2     H 6764   3.241   3.750  16.077 -1.4039 -0.7121  1.3109
  454MPD2    H1 6765   3.519   3.715  16.393 -2.8724  2.8596 -0.0632
  454MPD2    H2 6766   3.513   3.420  16.089  0.3538 -0.1764  0.8859
  454MPD2    H3 6767   3.589   3.487  16.296 -0.4756 -1.0339 -1.2794
  454MPD2     N 6768   3.330   3.875  16.294 -0.7178  0.2926  0.1078
  454MPD2    H5 6769   3.351   3.883  16.393 -0.1177 -0.6395  0.0599
  454MPD2    N1 6770   3.311   3.529  15.944  0.1856  0.2829  0.5928
  454MPD2    H7 6771   3.229   3.578  15.909  0.3147 -0.4308 -0.7321
  455TMC3    C1 6772   3.143   4.008  16.304 -0.5246  0.3092  0.7610
  455TMC3    C2 6773   3.064   4.100  16.232 -0.2504 -0.4356 -0.6950
  455TMC3    C3 6774   2.930   4.076  16.206 -0.3999 -0.6698  0.8553
  455TMC3    C4 6775   3.087   3.898  16.350 -0.1924 -0.4275  0.0352
  455TMC3    C5 6776   2.948   3.885  16.333  0.0298  0.2316 -0.0466
  455TMC3    C6 6777   2.872   3.966  16.255  0.2407 -0.1919 -0.3053
  455TMC3     C 6778   3.256   3.967  16.223 -0.0935 -0.4850 -0.2290
  455TMC3     O 6779   3.254   3.990  16.104  0.2523 -0.2042  0.1820
  455TMC3     H 6780   3.113   4.182  16.181 -0.4780 -1.1228 -2.0164
  455TMC3    H1 6781   3.132   3.838  16.428  0.9559  1.8298  1.1056
  455TMC3    H2 6782   2.764   3.964  16.248  0.2732  1.9876 -1.2916
  455TMC3    C7 6783   2.895   3.751  16.330 -0.6734  0.7301 -0.3487
  455TMC3    C8 6784   2.835   4.192  16.210 -0.6033 -0.1008  0.3715
  455TMC3    O1 6785   2.775   3.733  16.307 -0.3201 -0.0863  0.2067
  455TMC3    O2 6786   2.736   4.186  16.136  0.8188 -0.1791 -0.1370
  456MPD2     C 6787   0.665   3.656  16.309 -0.3441  0.4581 -0.0591
  456MPD2    C1 6788   0.766   3.625  16.401  0.6550 -0.3103 -0.6548
  456MPD2    C2 6789   0.786   3.692  16.520  0.4016 -0.1134  0.2941
  456MPD2    C3 6790   0.705   3.804  16.542  0.3393 -0.6008 -0.1562
  456MPD2    C4 6791   0.601   3.832  16.458 -0.0448  0.3200  0.1205
  456MPD2    C5 6792   0.587   3.761  16.340 -0.4104  0.3720  0.1385
  456MPD2     H 6793   0.865   3.669  16.591  1.3869  0.9398 -0.4513
  456MPD2    H1 6794   0.542   3.923  16.459  0.7807  0.8296  1.5236
  456MPD2    H2 6795   0.668   3.619  16.208 -0.7411 -0.7689  0.3805
  456MPD2    H3 6796   0.517   3.788  16.262 -0.2711 -2.6176 -1.0419
  456MPD2     N 6797   0.722   3.878  16.660  0.6105 -0.5784  0.0300
  456MPD2    H5 6798   0.773   3.828  16.733  0.6132  1.3505  1.3662
  456MPD2    N1 6799   0.853   3.525  16.358 -0.2866  0.6565 -0.6773
  456MPD2    H7 6800   0.833   3.482  16.269 -0.4503  1.6684 -1.1236
  457TMC3    C1 6801   0.736   4.065  16.804 -0.2000  0.6245  0.1782
  457TMC3    C2 6802   0.756   4.201  16.819  0.0975  0.1110 -0.8674
  457TMC3    C3 6803   0.763   4.263  16.943 -0.0363  0.6170 -0.1217
  457TMC3    C4 6804   0.718   3.994  16.919 -0.1759  0.2119  0.5758
  457TMC3    C5 6805   0.725   4.065  17.039 -0.0506 -0.4032 -0.1362
  457TMC3    C6 6806   0.761   4.193  17.061 -0.0422  0.0649 -0.3798
  457TMC3     C 6807   0.701   4.013  16.675  0.2797 -0.0376 -0.2727
  457TMC3     O 6808   0.667   4.095  16.591  0.1212  0.3796 -0.0729
  457TMC3     H 6809   0.756   4.258  16.727 -1.2689  1.5173  0.0246
  457TMC3    H1 6810   0.706   3.886  16.922 -2.1712  0.3352 -3.4431
  457TMC3    H2 6811   0.762   4.231  17.162 -2.4277  0.2999 -0.4415
  457TMC3    C7 6812   0.670   3.987  17.149 -0.4618 -0.4038  0.1524
  457TMC3    C8 6813   0.782   4.405  16.956 -0.6466 -0.4939 -0.7234
  457TMC3    O1 6814   0.696   4.025  17.262 -0.2467  0.0688 -0.5650
  457TMC3    O2 6815   0.758   4.457  17.065  0.1067 -0.0933  0.1298
  458MPD2     C 6816   3.546   3.488  12.271  0.5248 -0.1868 -0.3703
  458MPD2    C1 6817   3.514   3.476  12.404  0.0207  0.2101 -0.8690
  458MPD2    C2 6818   3.409   3.387  12.435 -0.1881  0.2734  0.0970
  458MPD2    C3 6819   3.336   3.319  12.342 -0.0364 -0.2190 -0.2556
  458MPD2    C4 6820   3.377   3.336  12.209  0.2560  0.3242  0.3388
  458MPD2    C5 6821   3.482   3.423  12.175  0.4196 -0.8705 -0.1568
  458MPD2     H 6822   3.384   3.371  12.540  1.4459 -1.6435  0.1886
  458MPD2    H1 6823   3.323   3.282  12.133 -2.2128  1.5183  1.2178
  458MPD2    H2 6824   3.634   3.545  12.243  1.5547 -1.4812  0.2133
  458MPD2    H3 6825   3.515   3.441  12.073  1.0769 -0.0963  0.2001
  458MPD2     N 6826   3.223   3.249  12.391  0.1514  0.1903 -0.2434
  458MPD2    H5 6827   3.218   3.238  12.491 -0.9194  0.0707 -0.3182
  458MPD2    N1 6828   3.566   3.562  12.504  0.2052 -0.2034 -0.2772
  458MPD2    H7 6829   3.628   3.633  12.468  0.4289 -0.1304  0.2468
  459TMC3    C1 6830   3.605   3.658  12.731  0.6168  0.6605  0.1183
  459TMC3    C2 6831   3.729   3.709  12.708  0.3100  0.1850 -0.3539
  459TMC3    C3 6832   3.805   3.744  12.818 -0.4232 -0.1799 -0.2340
  459TMC3    C4 6833   3.557   3.644  12.861 -0.0063 -0.0463 -0.3115
  459TMC3    C5 6834   3.634   3.675  12.967  0.7860  0.2794  0.0907
  459TMC3    C6 6835   3.761   3.731  12.946  0.5567  0.3049  0.0575
  459TMC3     C 6836   3.549   3.553  12.639 -0.0060  0.4605 -0.5649
  459TMC3     O 6837   3.491   3.458  12.701 -0.5435  0.3015  0.5719
  459TMC3     H 6838   3.770   3.712  12.608 -1.5468 -0.2292 -1.1176
  459TMC3    H1 6839   3.460   3.601  12.880 -0.5243  1.5032  0.5720
  459TMC3    H2 6840   3.837   3.732  13.023  0.4008  2.2918  0.1853
  459TMC3    C7 6841   3.611   3.600  13.090 -0.4986 -0.3496  0.0055
  459TMC3    C8 6842   3.952   3.780  12.799  0.4375 -0.7615  0.4484
  459TMC3    O1 6843   3.559   3.492  13.073 -0.2169  0.5337 -0.4377
  459TMC3    O2 6844   3.991   3.741  12.692  0.2320 -0.1722  0.1964
  460MPD2     C 6845   2.122   0.822  10.545 -0.5963 -0.1113  0.4615
  460MPD2    C1 6846   2.188   0.938  10.517 -0.0059 -0.0709  0.0607
  460MPD2    C2 6847   2.189   0.978  10.383 -0.3638 -0.3828  1.1793
  460MPD2    C3 6848   2.135   0.896  10.285 -0.8308 -1.3468 -0.1875
  460MPD2    C4 6849   2.075   0.777  10.312 -0.6834  0.0775 -0.6573
  460MPD2    C5 6850   2.074   0.742  10.443 -1.0491 -0.1716 -0.3956
  460MPD2     H 6851   2.245   1.059  10.339 -0.2087 -1.2841 -0.2601
  460MPD2    H1 6852   2.031   0.710  10.240 -1.6453 -0.1162  0.1039
  460MPD2    H2 6853   2.110   0.779  10.644  0.2310  0.9916  1.0325
  460MPD2    H3 6854   2.029   0.646  10.468  0.6218 -0.4885  1.3577
  460MPD2     N 6855   2.146   0.950  10.153 -0.0903 -0.3481 -0.0100
  460MPD2    H5 6856   2.168   1.048  10.140 -0.6929 -0.0130  1.5027
  460MPD2    N1 6857   2.244   1.010  10.623 -0.0323  0.4612 -0.0692
  460MPD2    H7 6858   2.241   0.977  10.719 -0.5466  2.7121  0.6797
  461TMC3    C1 6859   2.101   0.964   9.924  0.6212  0.1452  0.2551
  461TMC3    C2 6860   2.118   0.903   9.807  0.6417 -0.1161  0.7142
  461TMC3    C3 6861   2.147   0.978   9.696  0.2739 -0.1407  0.7267
  461TMC3    C4 6862   2.095   1.099   9.936 -0.4167 -0.3541 -0.3025
  461TMC3    C5 6863   2.096   1.169   9.820  0.0996  0.3455 -0.0930
  461TMC3    C6 6864   2.118   1.108   9.702  0.4473  0.2587  0.6673
  461TMC3     C 6865   2.107   0.879  10.041 -0.9093 -0.1884  0.8290
  461TMC3     O 6866   2.089   0.757  10.023 -0.6899  0.2089  0.5088
  461TMC3     H 6867   2.136   0.796   9.810  0.7034 -0.0247  3.2205
  461TMC3    H1 6868   2.049   1.143  10.024  0.5918  0.7861 -0.3538
  461TMC3    H2 6869   2.114   1.160   9.607 -0.2099 -1.6208 -0.3254
  461TMC3    C7 6870   2.051   1.302   9.820  0.3390  0.5095 -0.3156
  461TMC3    C8 6871   2.241   0.926   9.591  0.6709 -0.0509 -0.1013
  461TMC3    O1 6872   1.993   1.342   9.721  0.6883  0.5058 -0.3839
  461TMC3    O2 6873   2.313   1.003   9.530 -0.3104  0.3235  0.2715
  462TMC3    C1 6874   2.620   1.612   0.418  0.1180  0.7335 -0.0377
  462TMC3    C2 6875   2.733   1.558   0.447  0.5223 -0.4071 -0.2375
  462TMC3    C3 6876   2.743   1.426   0.408  0.1394 -0.0846  0.5683
  462TMC3    C4 6877   2.509   1.545   0.370 -0.3434 -0.2357 -0.7821
  462TMC3    C5 6878   2.523   1.416   0.331  0.0253  0.4073 -0.4102
  462TMC3    C6 6879   2.645   1.356   0.340  1.0641  0.8571  0.4614
  462TMC3     C 6880   2.612   1.753   0.395  0.3189 -0.2337  0.0509
  462TMC3     O 6881   2.721   1.803   0.361 -0.3348 -0.0331  0.1429
  462TMC3     H 6882   2.825   1.615   0.457 -1.9989  3.2950  2.1523
  462TMC3    H1 6883   2.418   1.601   0.352  0.3061  0.7746 -0.9356
  462TMC3    H2 6884   2.657   1.249   0.334 -1.5405  0.5713  0.4517
  462TMC3    C7 6885   2.417   1.350   0.259 -0.0346 -0.5054  0.5568
  462TMC3    C8 6886   2.881   1.382   0.396 -0.7027  0.1994  0.4318
  462TMC3    O1 6887   2.431   1.227   0.243  0.4374  0.3702  0.4026
  462TMC3    O2 6888   2.955   1.402   0.488 -0.0496 -0.7758  0.0773
  463MPD2     C 6889   4.079   4.614   1.413 -0.1760  0.0328 -0.8532
  463MPD2    C1 6890   4.012   4.500   1.418 -0.1528  0.5715 -0.1664
  463MPD2    C2 6891   4.066   4.400   1.340 -0.3664 -0.3070  0.2060
  463MPD2    C3 6892   4.196   4.404   1.283  0.5081  1.0864  0.3475
  463MPD2    C4 6893   4.261   4.521   1.279 -0.5028 -0.1180  0.3143
  463MPD2    C5 6894   4.194   4.621   1.343 -0.0092  0.4756 -0.5286
  463MPD2     H 6895   4.010   4.308   1.331 -1.5431  0.6882 -2.5012
  463MPD2    H1 6896   4.362   4.537   1.245 -0.2028 -1.9392  0.4004
  463MPD2    H2 6897   4.062   4.708   1.464 -2.1277 -0.5631 -0.3962
  463MPD2    H3 6898   4.242   4.718   1.347  2.0841 -0.6533  1.9170
  463MPD2     N 6899   4.265   4.297   1.222 -0.8104  0.5992  0.3495
  463MPD2    H5 6900   4.348   4.319   1.168 -2.5940  2.2522 -1.7219
  463MPD2    N1 6901   3.884   4.490   1.473  0.0223  0.1781  0.0465
  463MPD2    H7 6902   3.831   4.403   1.462 -0.0209  0.2304 -0.1664
  464TMC3    C1 6903   3.706   4.539   1.593 -0.2479  0.1967 -0.0808
  464TMC3    C2 6904   3.599   4.615   1.605 -0.5953  0.5665 -0.0556
  464TMC3    C3 6905   3.479   4.562   1.642  0.7519  0.1175  0.0460
  464TMC3    C4 6906   3.694   4.406   1.624  0.5262  0.4005  0.0335
  464TMC3    C5 6907   3.570   4.349   1.632  0.1050  0.1160 -0.6698
  464TMC3    C6 6908   3.460   4.424   1.649  0.1335  0.6107 -0.3015
  464TMC3     C 6909   3.822   4.595   1.533  0.0295 -0.5973  0.3984
  464TMC3     O 6910   3.835   4.716   1.527 -0.1537 -0.3303  0.5652
  464TMC3     H 6911   3.609   4.723   1.596  1.1770  0.3899 -0.3514
  464TMC3    H1 6912   3.778   4.338   1.630  0.8865  0.8415 -0.0448
  464TMC3    H2 6913   3.364   4.386   1.681  0.1782 -0.7102 -1.7509
  464TMC3    C7 6914   3.569   4.204   1.660  0.3077 -0.1083  0.1236
  464TMC3    C8 6915   3.367   4.648   1.647 -0.2006 -0.1916  0.5232
  464TMC3    O1 6916   3.671   4.157   1.711 -0.0879  0.4237  0.1606
  464TMC3    O2 6917   3.369   0.029   1.583  0.4790  0.1176 -0.2812
  465MPD2     C 6918   0.364   4.193  16.746 -0.2613 -0.0351 -0.4244
  465MPD2    C1 6919   0.274   4.125  16.820 -0.0184 -0.2940 -0.1236
  465MPD2    C2 6920   0.179   4.052  16.749 -0.3387 -0.8120 -0.1794
  465MPD2    C3 6921   0.175   4.049  16.605  0.0834 -0.4936 -0.4207
  465MPD2    C4 6922   0.272   4.121  16.534 -0.2577 -0.2457 -0.3486
  465MPD2    C5 6923   0.368   4.187  16.608 -0.7247  0.1790  0.5259
  465MPD2     H 6924   0.109   3.995  16.809  0.9339  0.1545  2.2257
  465MPD2    H1 6925   0.283   4.127  16.426  2.6268  0.6018 -0.0173
  465MPD2    H2 6926   0.433   4.264  16.790 -0.2482  1.0325 -2.1564
  465MPD2    H3 6927   0.444   4.243  16.554 -1.2309  0.2792 -0.0812
  465MPD2     N 6928   0.062   3.983  16.543  0.0093  0.3101 -0.3625
  465MPD2    H5 6929   4.717   3.940  16.602 -1.0101 -1.4270 -2.8194
  465MPD2    N1 6930   0.268   4.120  16.960 -0.3968  0.0396  0.3274
  465MPD2    H7 6931   0.208   4.047  16.999 -2.2707  1.9835  1.0930
  466TMC3    C1 6932   4.494   3.748  16.400  0.3116 -0.4597  0.5430
  466TMC3    C2 6933   4.415   3.797  16.304 -0.4178 -0.1228 -0.2249
  466TMC3    C3 6934   4.461   3.904  16.228  0.0605 -0.3072 -0.0383
  466TMC3    C4 6935   4.612   3.810  16.438 -0.0204  0.1777  0.0599
  466TMC3    C5 6936   4.644   3.922  16.364  0.3169 -0.5798  0.5423
  466TMC3    C6 6937   4.577   3.959  16.251 -0.0706  0.6925  0.2869
  466TMC3     C 6938   4.433   3.664  16.504 -0.1891 -0.1499 -0.1199
  466TMC3     O 6939   4.481   3.655  16.616 -0.4557  0.3687  0.4408
  466TMC3     H 6940   4.320   3.750  16.283 -1.3328  0.4146  2.8328
  466TMC3    H1 6941   4.672   3.775  16.521 -0.4676  2.3081  1.2840
  466TMC3    H2 6942   4.601   4.045  16.189 -1.1567  1.4065  0.8708
  466TMC3    C7 6943   0.029   4.000  16.406  0.4672 -1.3356  0.0092
  466TMC3    C8 6944   4.355   3.991  16.190  0.4791 -0.0956  0.0795
  466TMC3    O1 6945   0.080   4.073  16.325  0.8783  0.4960 -0.1102
  466TMC3    O2 6946   4.277   3.939  16.112  0.0190  0.4125 -0.1106
  467TMC3    C1 6947   0.240   3.018  13.584  0.1681 -0.3817 -0.0585
  467TMC3    C2 6948   0.250   3.095  13.472  0.0669  0.0945  0.6464
  467TMC3    C3 6949   0.205   3.048  13.354 -0.1143 -0.6109  0.1682
  467TMC3    C4 6950   0.171   2.900  13.578 -0.6082  0.7707  0.2436
  467TMC3    C5 6951   0.106   2.869  13.461  0.0333  0.0674  0.4773
  467TMC3    C6 6952   0.126   2.940  13.344  0.4110  0.5788 -0.1655
  467TMC3     C 6953   0.369   2.994  13.637 -0.2746 -0.2296  0.3863
  467TMC3     O 6954   0.406   2.879  13.653  0.4492 -0.5149  0.5665
  467TMC3     H 6955   0.312   3.184  13.478  0.8764 -0.4184 -0.0872
  467TMC3    H1 6956   0.158   2.843  13.669 -0.1767  2.6176  1.4821
  467TMC3    H2 6957   0.082   2.908  13.251  0.0243 -0.9675  0.5415
  467TMC3    C7 6958   4.711   2.788  13.473  0.6555  0.0872 -0.2721
  467TMC3    C8 6959   0.288   3.093  13.245 -0.1194  0.3668  0.8594
  467TMC3    O1 6960   4.656   2.768  13.368 -0.5019  0.0003 -0.2886
  467TMC3    O2 6961   0.395   3.141  13.274  0.0583 -0.0095 -0.3281
  468MPD2     C 6962   4.030   0.656  10.505  0.1888  0.4177  0.2033
  468MPD2    C1 6963   4.145   0.643  10.581  0.0845 -0.1649 -0.3325
  468MPD2    C2 6964   4.205   0.522  10.602  0.1896 -0.2804 -0.6522
  468MPD2    C3 6965   4.154   0.403  10.544 -0.7580  0.1895 -0.3814
  468MPD2    C4 6966   4.045   0.410  10.462  0.0056  0.1237 -0.1758
  468MPD2    C5 6967   3.982   0.539  10.445  0.1056 -0.4674 -0.2709
  468MPD2     H 6968   4.293   0.529  10.664  0.3718  0.0554 -0.9489
  468MPD2    H1 6969   3.999   0.320  10.424  1.8493 -0.5054 -0.9218
  468MPD2    H2 6970   3.980   0.751  10.486 -0.0166  0.3503  0.4096
  468MPD2    H3 6971   3.897   0.546  10.379  0.2089  0.5586 -0.3016
  468MPD2     N 6972   4.207   0.273  10.571 -0.0270  0.2612  0.6352
  468MPD2    H5 6973   4.155   0.195  10.531 -2.3636  2.2807 -0.3164
  468MPD2    N1 6974   4.205   0.742  10.655 -0.0674  0.5118  0.4423
  468MPD2    H7 6975   4.297   0.715  10.690 -0.1363 -0.3869 -0.0669
  469TMC3    C1 6976   4.223   0.914  10.810  0.2934  0.3588  0.2322
  469TMC3    C2 6977   4.357   0.906  10.804  0.4876  0.0860 -0.5997
  469TMC3    C3 6978   4.431   0.962  10.901  0.3373  0.0136 -0.4731
  469TMC3    C4 6979   4.158   1.008  10.887 -0.5411  0.4983 -0.0408
  469TMC3    C5 6980   4.234   1.079  10.974  0.6945  0.0363 -0.3639
  469TMC3    C6 6981   4.370   1.051  10.987 -0.3251  0.1858  0.0993
  469TMC3     C 6982   4.141   0.848  10.712  0.4902  0.0411  0.5972
  469TMC3     O 6983   4.029   0.891  10.690  0.4441  0.4102 -0.5327
  469TMC3     H 6984   4.399   0.835  10.734  2.2177  0.4510  0.0579
  469TMC3    H1 6985   4.053   1.031  10.874  0.1647  2.5010 -2.0257
  469TMC3    H2 6986   4.435   1.107  11.053 -0.0569  0.1879 -0.1658
  469TMC3    C7 6987   4.159   1.150  11.083 -0.1659  0.4668 -0.5761
  469TMC3    C8 6988   4.571   0.920  10.900 -0.0515 -0.0920 -0.3609
  469TMC3    O1 6989   4.037   1.126  11.089 -0.4598 -0.0876  0.5511
  469TMC3    O2 6990   4.604   0.853  10.805  0.3007 -0.4088 -0.2327
  470TMC3    C1 6991   2.140   1.051   0.532 -0.3676 -0.2190 -0.3957
  470TMC3    C2 6992   2.121   1.185   0.513 -0.3208 -0.0244 -0.6951
  470TMC3    C3 6993   2.211   1.264   0.582  0.4425 -1.0671 -0.0606
  470TMC3    C4 6994   2.247   0.993   0.593  0.6565  0.0192  0.4804
  470TMC3    C5 6995   2.340   1.077   0.644  0.1427 -0.4115  0.2785
  470TMC3    C6 6996   2.318   1.210   0.645 -0.1939 -0.6539  0.4516
  470TMC3     C 6997   2.034   0.966   0.482 -0.5469  0.7379  0.2147
  470TMC3     O 6998   1.963   1.015   0.397  0.3264  0.0176 -0.0316
  470TMC3     H 6999   2.029   1.227   0.475 -0.2532 -0.4891 -1.3799
  470TMC3    H1 7000   2.260   0.886   0.603 -3.4707 -0.6894 -1.5191
  470TMC3    H2 7001   2.391   1.274   0.693 -1.5539  0.7576  0.6524
  470TMC3    C7 7002   2.432   1.023   0.748 -0.0089  0.0694 -0.5773
  470TMC3    C8 7003   2.161   1.383   0.649 -0.3448  0.4872  0.7987
  470TMC3    O1 7004   2.549   1.013   0.718  0.6631 -0.2273  0.2053
  470TMC3    O2 7005   2.236   1.439   0.730  0.0045  0.1641 -0.2222
  471MPD2     C 7006   2.345   2.721  16.966 -0.3030  0.4001 -0.3497
  471MPD2    C1 7007   2.244   2.622  16.962  0.4853 -0.1797 -0.7524
  471MPD2    C2 7008   2.208   2.576  17.088  0.4005  0.1715  0.0130
  471MPD2    C3 7009   2.250   2.633  17.208 -0.5435  0.1242 -0.1930
  471MPD2    C4 7010   2.339   2.740  17.203 -0.1105  1.0601 -0.7889
  471MPD2    C5 7011   2.377   2.788  17.082 -0.5996  0.3737  0.8785
  471MPD2     H 7012   2.142   2.490  17.094  2.4797 -1.5315 -1.3332
  471MPD2    H1 7013   2.382   2.794  17.287 -0.7980  1.0285 -0.4120
  471MPD2    H2 7014   2.380   2.766  16.873  0.4493 -1.3409 -0.9099
  471MPD2    H3 7015   2.427   2.885  17.082 -0.7081  0.4322  2.0047
  471MPD2     N 7016   2.230   2.581  17.340  0.0165 -0.4363  0.1868
  471MPD2    H5 7017   2.290   2.629  17.406 -2.3687  1.3739  1.0246
  471MPD2    N1 7018   2.201   2.555  16.837 -0.3920 -0.6754 -0.6000
  471MPD2    H7 7019   2.117   2.499  16.847 -0.6331 -0.4476 -1.3929
  472TMC3    C1 7020   2.210   2.502  16.603  0.7975 -0.3166 -0.3034
  472TMC3    C2 7021   2.160   2.583  16.506  0.1905 -0.4603 -0.0636
  472TMC3    C3 7022   2.075   2.526  16.415 -0.0981  0.5118  0.1639
  472TMC3    C4 7023   2.166   2.373  16.622  0.0688 -0.4355 -0.6421
  472TMC3    C5 7024   2.086   2.319  16.525 -0.0276  0.1572 -0.6609
  472TMC3    C6 7025   2.033   2.390  16.418  0.4865  0.0606 -0.2483
  472TMC3     C 7026   2.259   2.576  16.712 -0.8819 -0.0952  0.1360
  472TMC3     O 7027   2.360   2.642  16.683 -0.0735 -0.0986  0.7826
  472TMC3     H 7028   2.181   2.688  16.491  0.4583 -0.6817 -1.2481
  472TMC3    H1 7029   2.195   2.323  16.713 -2.5126 -0.0374  0.4112
  472TMC3    H2 7030   1.962   2.346  16.350  0.6131 -1.0802  0.3499
  472TMC3    C7 7031   2.051   2.174  16.540  0.4031 -0.0563  0.5579
  472TMC3    C8 7032   2.026   2.611  16.307 -0.0218  0.9192  0.9966
  472TMC3    O1 7033   2.095   2.124  16.639 -0.0176 -0.2561  0.1466
  472TMC3    O2 7034   2.094   2.710  16.284  0.0006 -0.4303 -0.6279
  473MPD2     C 7035   2.631   0.364  13.691  0.2069  0.3950 -0.2031
  473MPD2    C1 7036   2.495   0.371  13.709 -0.1921  0.4403 -0.2862
  473MPD2    C2 7037   2.446   0.456  13.803  0.1942  0.2490  0.0298
  473MPD2    C3 7038   2.533   0.533  13.879  0.8344  0.1036 -0.8898
  473MPD2    C4 7039   2.670   0.522  13.865  0.6252 -1.0021  0.0084
  473MPD2    C5 7040   2.711   0.440  13.765 -0.1317  0.3223  0.1225
  473MPD2     H 7041   2.339   0.461  13.821  0.4735  1.1896  1.3719
  473MPD2    H1 7042   2.742   0.580  13.922 -1.1765  0.7903  0.4721
  473MPD2    H2 7043   2.672   0.301  13.613  3.3320  0.1440  1.6460
  473MPD2    H3 7044   2.817   0.431  13.743 -0.0595  1.8800 -0.1405
  473MPD2     N 7045   2.487   0.632  13.962 -0.0663 -0.4233 -0.4206
  473MPD2    H5 7046   2.559   0.681  14.014 -0.8821  0.5791 -0.2400
  473MPD2    N1 7047   2.406   0.278  13.647  0.2829 -0.6429  0.1277
  473MPD2    H7 7048   2.306   0.287  13.662  0.2526 -1.1507  0.2288
  474TMC3    C1 7049   2.338   0.778  14.070  0.2432 -0.9172 -0.5616
  474TMC3    C2 7050   2.228   0.852  14.060 -0.8947 -0.1229 -0.3380
  474TMC3    C3 7051   2.225   0.963  14.144  0.1775 -0.3985  0.3484
  474TMC3    C4 7052   2.433   0.803  14.166 -0.4285  0.0236  0.6204
  474TMC3    C5 7053   2.419   0.906  14.250  0.1838 -0.0375  0.8055
  474TMC3    C6 7054   2.315   0.988  14.243 -0.3835  0.0729 -0.3735
  474TMC3     C 7055   2.355   0.663  13.987 -1.0310 -0.1359  0.5964
  474TMC3     O 7056   2.251   0.621  13.942  0.4847 -0.1727  0.2807
  474TMC3     H 7057   2.163   0.845  13.974 -0.7119  1.2409 -0.5822
  474TMC3    H1 7058   2.521   0.745  14.194  1.0830  1.3426 -1.4797
  474TMC3    H2 7059   2.310   1.078  14.304 -1.4420  1.1810 -2.1021
  474TMC3    C7 7060   2.532   0.930  14.334  0.2818 -0.4221  0.2533
  474TMC3    C8 7061   2.120   1.055  14.115 -0.6922  0.3535  0.1126
  474TMC3    O1 7062   2.640   0.925  14.277  0.6161  0.5431  0.2463
  474TMC3    O2 7063   2.013   1.017  14.066  0.0130 -0.0987  0.1404
  475MPD2     C 7064   0.497   3.610  10.911 -0.6887 -0.3685  1.1254
  475MPD2    C1 7065   0.450   3.560  10.789  0.0768  0.2189  0.0682
  475MPD2    C2 7066   0.314   3.585  10.768  0.0397 -0.0926  0.7977
  475MPD2    C3 7067   0.237   3.667  10.850  0.4373  0.4148  0.3284
  475MPD2    C4 7068   0.303   3.727  10.953  0.0724 -0.3312 -0.0702
  475MPD2    C5 7069   0.427   3.699  10.992  0.3485  0.0295 -0.8095
  475MPD2     H 7070   0.267   3.535  10.684  0.0003  1.2347  0.0257
  475MPD2    H1 7071   0.248   3.791  11.022  1.7860  0.4901  0.5442
  475MPD2    H2 7072   0.602   3.603  10.937 -0.5032  2.0209  0.9953
  475MPD2    H3 7073   0.472   3.740  11.082  0.0907 -1.7933  0.1386
  475MPD2     N 7074   0.113   3.713  10.795  0.5415 -0.1724 -0.3291
  475MPD2    H5 7075   0.089   3.666  10.709  0.4172 -2.3997  0.9173
  475MPD2    N1 7076   0.535   3.504  10.694 -0.5654  0.1718  0.7656
  475MPD2    H7 7077   0.629   3.493  10.732 -0.7602 -0.3620  1.0954
  476TMC3    C1 7078   0.603   3.476  10.465  0.4090 -0.4108 -0.2134
  476TMC3    C2 7079   0.548   3.512  10.345  0.2969 -0.0987  0.9319
  476TMC3    C3 7080   0.615   3.612  10.280 -0.1833  0.4969  0.4847
  476TMC3    C4 7081   0.730   3.509  10.505 -0.0955  0.0797  0.3516
  476TMC3    C5 7082   0.802   3.600  10.435  0.3667  0.2094  0.3091
  476TMC3    C6 7083   0.737   3.658  10.322  0.1218  0.5415 -0.0286
  476TMC3     C 7084   0.501   3.457  10.566 -1.2211  0.1691 -0.9143
  476TMC3     O 7085   0.391   3.448  10.520  0.2982  0.0977  0.1526
  476TMC3     H 7086   0.444   3.496  10.318  0.4959 -0.3459  0.2956
  476TMC3    H1 7087   0.769   3.469  10.597  2.2247 -0.6493 -0.9641
  476TMC3    H2 7088   0.782   3.735  10.260 -0.3022 -1.0855 -2.3537
  476TMC3    C7 7089   0.899   3.683  10.496 -0.2486 -0.3968  0.5030
  476TMC3    C8 7090   0.540   3.680  10.175  0.1939  1.3716 -0.0940
  476TMC3    O1 7091   0.896   3.800  10.471  0.1208 -0.6838 -0.1832
  476TMC3    O2 7092   0.577   3.795  10.149  0.4287 -0.4539  0.4501
  477MPD2     C 7093   2.683   4.655  11.335  0.9332  0.5380  0.1219
  477MPD2    C1 7094   2.681   0.028  11.428 -0.1864  0.5144 -0.0488
  477MPD2    C2 7095   2.718   4.724  11.557 -0.1839  0.0402 -0.1927
  477MPD2    C3 7096   2.739   4.590  11.594 -0.8904  0.1731  0.5979
  477MPD2    C4 7097   2.725   4.488  11.504  0.5747  0.5648  0.2440
  477MPD2    C5 7098   2.711   4.525  11.375 -0.5280  0.0167 -0.6475
  477MPD2     H 7099   2.724   0.073  11.635 -0.7058 -0.8083  0.6495
  477MPD2    H1 7100   2.737   4.385  11.535  0.4855  0.7666  0.9476
  477MPD2    H2 7101   2.658   4.665  11.230 -1.3163 -3.5628  0.2901
  477MPD2    H3 7102   2.704   4.439  11.309  0.3400 -0.6277  0.1022
  477MPD2     N 7103   2.791   4.559  11.727 -0.9394  0.6035 -0.1440
  477MPD2    H5 7104   2.809   4.642  11.783  4.7478  0.1924 -1.4573
  477MPD2    N1 7105   2.614   0.148  11.388 -0.3253 -0.0430  0.0732
  477MPD2    H7 7106   2.584   0.156  11.292  2.4215  3.0501 -0.5351
  478TMC3    C1 7107   2.537   0.372  11.406 -0.1869 -0.0861 -0.1120
  478TMC3    C2 7108   2.558   0.498  11.451 -0.0629  0.3791  0.3573
  478TMC3    C3 7109   2.467   0.597  11.427  0.1102  0.3086  0.5664
  478TMC3    C4 7110   2.419   0.330  11.352 -0.2168  0.5132  0.3423
  478TMC3    C5 7111   2.332   0.432  11.316 -0.2631  0.2702 -0.6298
  478TMC3    C6 7112   2.355   0.564  11.354 -0.6854 -0.3306 -0.3343
  478TMC3     C 7113   2.613   0.264  11.467  0.7697  0.2714  0.8425
  478TMC3     O 7114   2.682   0.282  11.567 -0.3629 -0.6626  0.3706
  478TMC3     H 7115   2.647   0.514  11.512 -0.3979 -0.6720  1.1169
  478TMC3    H1 7116   2.395   0.226  11.330  1.1228  0.2638  0.0782
  478TMC3    H2 7117   2.286   0.644  11.331 -0.8016  0.2164  1.8907
  478TMC3    C7 7118   2.216   0.397  11.238 -0.2996  0.2272  0.4823
  478TMC3    C8 7119   2.460   0.678  11.544  0.0277  0.2527  0.4158
  478TMC3    O1 7120   2.180   0.280  11.231 -0.4251 -0.3660  0.0408
  478TMC3    O2 7121   2.510   0.634  11.647  0.4296 -0.5610  0.0975
  479MPD2     C 7122   1.853   2.224  15.070  0.5425  0.4796 -0.1955
  479MPD2    C1 7123   1.825   2.172  15.197 -0.1611 -0.1577 -0.1805
  479MPD2    C2 7124   1.926   2.203  15.286  0.6026 -0.0309 -0.2976
  479MPD2    C3 7125   2.042   2.270  15.256  0.3083 -0.0283 -0.2782
  479MPD2    C4 7126   2.067   2.304  15.126  0.3229  0.2644  0.3815
  479MPD2    C5 7127   1.974   2.278  15.035  0.1523  0.5460 -0.4887
  479MPD2     H 7128   1.907   2.182  15.390 -0.3172  1.0870 -0.2471
  479MPD2    H1 7129   2.154   2.358  15.091  0.5685 -1.8774 -2.2738
  479MPD2    H2 7130   1.782   2.227  14.988  0.6275 -3.0190 -0.4269
  479MPD2    H3 7131   1.987   2.314  14.934 -1.9094  2.9228  0.0929
  479MPD2     N 7132   2.141   2.309  15.350  0.3953  0.0550  0.5718
  479MPD2    H5 7133   2.233   2.325  15.310  2.1579 -0.4577  4.4088
  479MPD2    N1 7134   1.695   2.122  15.229  0.1160 -0.2108 -0.3893
  479MPD2    H7 7135   1.621   2.113  15.160  1.6743  2.6181 -2.4340
  480TMC3    C1 7136   1.841   2.282  15.712 -0.0131  0.2130 -0.7057
  480TMC3    C2 7137   1.757   2.373  15.654  0.2291 -0.2651 -0.4573
  480TMC3    C3 7138   1.795   2.455  15.551  0.2713  0.0915 -0.2231
  480TMC3    C4 7139   1.966   2.270  15.656 -0.0437 -0.3399 -0.3410
  480TMC3    C5 7140   2.001   2.343  15.538  0.4071  1.0281 -0.2283
  480TMC3    C6 7141   1.920   2.446  15.485  0.1639 -0.3031 -0.4922
  480TMC3     C 7142   1.788   2.179  15.802  0.2746 -0.2990 -0.7752
  480TMC3     O 7143   1.857   2.110  15.877 -0.5568 -0.2942  0.1333
  480TMC3     H 7144   1.664   2.395  15.705  0.8366 -0.8016  0.9047
  480TMC3    H1 7145   2.040   2.204  15.701 -1.3857 -0.3677  1.8329
  480TMC3    H2 7146   1.954   2.503  15.400  0.0900  0.0793 -0.2667
  480TMC3    C7 7147   2.126   2.311  15.491  0.4024  0.1110  0.0344
  480TMC3    C8 7148   1.678   2.483  15.466  0.7553 -0.7795  0.5474
  480TMC3    O1 7149   2.219   2.322  15.564 -0.2450  0.2461  0.0695
  480TMC3    O2 7150   1.568   2.471  15.515 -0.9289  0.0680  0.3826
  481MPD2     C 7151   3.239   1.428  14.413 -0.0315  0.3977  0.7467
  481MPD2    C1 7152   3.280   1.554  14.436  0.0883 -0.2959 -1.2274
  481MPD2    C2 7153   3.242   1.613  14.556  0.1065  0.0541 -0.3129
  481MPD2    C3 7154   3.171   1.545  14.660 -0.3324 -0.0383  0.1447
  481MPD2    C4 7155   3.122   1.417  14.630 -0.1642  0.1726 -0.3461
  481MPD2    C5 7156   3.159   1.366  14.509  0.3071  0.3828  0.4061
  481MPD2     H 7157   3.266   1.718  14.569  0.4924 -0.1562  0.6705
  481MPD2    H1 7158   3.051   1.365  14.693  0.7950  0.2515  0.7923
  481MPD2    H2 7159   3.253   1.376  14.319  0.4270  0.1500  0.9521
  481MPD2    H3 7160   3.112   1.270  14.491 -0.5837  0.7271  0.9324
  481MPD2     N 7161   3.121   1.605  14.772  0.0408  0.2410 -0.2916
  481MPD2    H5 7162   3.066   1.541  14.828 -0.6195  1.8254  0.8466
  481MPD2    N1 7163   3.352   1.623  14.330  0.4182 -0.0497 -0.6569
  481MPD2    H7 7164   3.386   1.571  14.249  1.5155 -0.1603 -0.1301
  482TMC3    C1 7165   3.476   1.791  14.222 -0.2340 -0.1037  0.5254
  482TMC3    C2 7166   3.539   1.698  14.139 -0.3871 -0.3274  0.4786
  482TMC3    C3 7167   3.589   1.734  14.014 -1.3170  0.0018 -0.4604
  482TMC3    C4 7168   3.465   1.924  14.181  0.4735 -0.0777 -0.0159
  482TMC3    C5 7169   3.512   1.957  14.056  0.3302  0.0619 -0.6361
  482TMC3    C6 7170   3.585   1.868  13.976  0.1681 -0.1894 -0.2500
  482TMC3     C 7171   3.387   1.758  14.333  0.2832  0.6119 -0.3612
  482TMC3     O 7172   3.365   1.847  14.413 -0.1843  0.4114  0.0373
  482TMC3     H 7173   3.543   1.593  14.168  1.2284 -0.5317 -0.4949
  482TMC3    H1 7174   3.401   1.993  14.235  0.7715  1.1708 -1.2553
  482TMC3    H2 7175   3.650   1.913  13.902  0.6507 -2.3123 -1.1054
  482TMC3    C7 7176   3.502   2.099  14.011 -0.4846  0.3286  0.4497
  482TMC3    C8 7177   3.662   1.633  13.935  0.1359  0.1035  0.5562
  482TMC3    O1 7178   3.494   2.184  14.098 -0.4505 -0.5151 -0.3980
  482TMC3    O2 7179   3.689   1.522  13.978  0.4712 -0.5928  0.0586
  483TMC3    C1 7180   1.992   0.642   1.121 -0.9732 -0.2386  0.4411
  483TMC3    C2 7181   2.051   0.696   1.009  0.0999  0.0858  0.0053
  483TMC3    C3 7182   2.177   0.666   0.983 -0.3322  0.6634 -0.3075
  483TMC3    C4 7183   2.063   0.572   1.214  0.0513  0.3501 -0.6403
  483TMC3    C5 7184   2.197   0.556   1.178  0.0725  0.1547  0.5488
  483TMC3    C6 7185   2.258   0.606   1.069  0.3270 -0.4434  0.1008
  483TMC3     C 7186   1.849   0.642   1.139  0.3406 -0.4860 -0.7181
  483TMC3     O 7187   1.807   0.707   1.238 -0.1378  0.3090 -0.5944
  483TMC3     H 7188   1.989   0.750   0.939 -0.8444 -1.3403 -0.2686
  483TMC3    H1 7189   2.022   0.525   1.303  0.4456 -1.3883 -1.3708
  483TMC3    H2 7190   2.365   0.590   1.062 -0.2594 -3.9282 -1.1085
  483TMC3    C7 7191   2.283   0.480   1.265 -0.3463 -0.1339  0.1962
  483TMC3    C8 7192   2.215   0.679   0.837 -0.4976  0.0318 -0.3057
  483TMC3    O1 7193   2.395   0.454   1.227 -0.0074  0.0671  0.2139
  483TMC3    O2 7194   2.149   0.764   0.779 -0.0842  0.1188  0.1680
  484MPD2     C 7195   4.225   3.849  13.030 -0.2069  0.1898 -0.3097
  484MPD2    C1 7196   4.171   3.797  12.917  0.6851  0.2331  0.1375
  484MPD2    C2 7197   4.259   3.750  12.815 -0.2357  0.1005 -0.5701
  484MPD2    C3 7198   4.395   3.746  12.838 -0.4217  0.1221  0.5066
  484MPD2    C4 7199   4.444   3.800  12.956 -0.4260  0.6471 -0.6470
  484MPD2    C5 7200   4.366   3.845  13.052 -0.2782 -0.2786  0.2535
  484MPD2     H 7201   4.220   3.705  12.724 -1.8113 -1.0035  0.6508
  484MPD2    H1 7202   4.552   3.811  12.954 -0.2545 -1.0124 -1.2139
  484MPD2    H2 7203   4.161   3.888  13.109 -1.4387  1.0649 -1.7156
  484MPD2    H3 7204   4.412   3.897  13.135 -0.0584 -1.9635  1.1825
  484MPD2     N 7205   4.479   3.687  12.735 -0.0780 -0.2898 -0.0408
  484MPD2    H5 7206   4.577   3.709  12.747  0.1580 -0.5392 -1.5314
  484MPD2    N1 7207   4.030   3.803  12.912  0.6576 -0.4324 -0.0190
  484MPD2    H7 7208   3.991   3.830  13.002  0.6748 -0.9566  0.1465
  485TMC3    C1 7209   4.579   3.568  12.553 -0.1853 -0.5535 -0.2697
  485TMC3    C2 7210   4.574   3.474  12.453 -0.6707 -0.8717 -0.3318
  485TMC3    C3 7211   4.693   3.413  12.418  1.2194  0.0872  0.1995
  485TMC3    C4 7212   4.691   3.617  12.604 -0.3597 -0.0440  0.0986
  485TMC3    C5 7213   0.085   3.560  12.568 -0.0229 -0.1130 -0.5568
  485TMC3    C6 7214   0.084   3.453  12.483  0.0223  0.5058 -0.3922
  485TMC3     C 7215   4.453   3.608  12.623 -0.3877  0.6821  0.1659
  485TMC3     O 7216   4.342   3.588  12.574 -0.2705  0.2860 -0.1337
  485TMC3     H 7217   4.486   3.457  12.392  0.1158 -0.6447 -1.5219
  485TMC3    H1 7218   4.702   3.703  12.669  2.3059  0.5890 -1.2040
  485TMC3    H2 7219   0.178   3.404  12.459 -1.7583 -1.9683 -2.4111
  485TMC3    C7 7220   0.181   3.660  12.524 -0.4684 -0.3727 -0.0927
  485TMC3    C8 7221   4.703   3.342  12.296 -1.0614 -0.1352  0.5333
  485TMC3    O1 7222   0.217   3.745  12.603 -0.0071 -0.1040 -0.2799
  485TMC3    O2 7223   4.616   3.361  12.208 -0.1449  0.2253 -0.6833
  486MPD2     C 7224   1.455   2.770  12.818  0.1068 -0.5645  0.1839
  486MPD2    C1 7225   1.451   2.734  12.692  0.0434 -0.5458  0.2389
  486MPD2    C2 7226   1.467   2.830  12.591  0.3033 -0.4915  0.0702
  486MPD2    C3 7227   1.479   2.960  12.622  1.0465 -0.9082  0.1888
  486MPD2    C4 7228   1.481   3.002  12.755 -0.1667 -0.7784 -0.9089
  486MPD2    C5 7229   1.469   2.905  12.851  0.3658 -0.3676 -0.4540
  486MPD2     H 7230   1.466   2.790  12.490 -0.0111  1.6437 -0.7624
  486MPD2    H1 7231   1.497   3.106  12.782  0.7268 -1.1917  0.1808
  486MPD2    H2 7232   1.437   2.710  12.906  3.2301  1.0847  1.9597
  486MPD2    H3 7233   1.455   2.941  12.953 -4.3353 -0.4425 -1.0645
  486MPD2     N 7234   1.486   3.049  12.512  0.9677 -0.7626 -0.2584
  486MPD2    H5 7235   1.477   3.015  12.417  1.1595  0.9800 -0.9031
  486MPD2    N1 7236   1.431   2.594  12.675  0.3230  0.5816  0.5300
  486MPD2    H7 7237   1.432   2.538  12.759 -0.9915 -1.5032 -0.8469
  487TMC3    C1 7238   1.385   2.388  12.566 -0.4429  0.7279 -0.0640
  487TMC3    C2 7239   1.305   2.335  12.464 -0.2287  0.2434  0.0493
  487TMC3    C3 7240   1.250   2.216  12.482  0.3366 -0.1772  0.2392
  487TMC3    C4 7241   1.410   2.317  12.678 -0.0098 -1.2054 -0.1838
  487TMC3    C5 7242   1.359   2.195  12.688 -0.4915  0.2159 -0.1605
  487TMC3    C6 7243   1.272   2.142  12.594  0.1682 -0.8481  0.0456
  487TMC3     C 7244   1.408   2.532  12.557 -0.4204  0.1295 -1.0714
  487TMC3     O 7245   1.391   2.584  12.449 -0.3948  0.1129 -0.4103
  487TMC3     H 7246   1.315   2.378  12.365  2.0566 -0.2571  0.0613
  487TMC3    H1 7247   1.467   2.352  12.763 -1.4521  2.6854 -0.7985
  487TMC3    H2 7248   1.256   2.035  12.590  1.0359 -1.0114  1.1630
  487TMC3    C7 7249   1.350   2.136  12.823  0.7878 -0.4235  0.0939
  487TMC3    C8 7250   1.191   2.152  12.367 -0.5881 -0.4016 -0.0286
  487TMC3    O1 7251   1.419   2.185  12.909  0.2512 -0.1490 -0.4211
  487TMC3    O2 7252   1.236   2.200  12.261  0.8030 -0.5626 -0.0977
  488MPD2     C 7253   1.224   3.796  16.143  0.0496  0.9220 -0.0465
  488MPD2    C1 7254   1.332   3.871  16.181 -0.2892  0.0542  0.1998
  488MPD2    C2 7255   1.334   3.942  16.300 -0.2567  0.1073 -0.3687
  488MPD2    C3 7256   1.227   3.928  16.389  1.0888 -0.0742  0.1265
  488MPD2    C4 7257   1.114   3.851  16.351  0.3237 -0.5424 -0.0765
  488MPD2    C5 7258   1.118   3.781  16.227  0.4071  0.1308  0.2590
  488MPD2     H 7259   1.422   4.002  16.323  1.3107 -2.3598  0.1049
  488MPD2    H1 7260   1.024   3.849  16.411  0.9781  0.9899  0.9510
  488MPD2    H2 7261   1.216   3.760  16.042 -1.1445 -0.4945  0.5563
  488MPD2    H3 7262   1.029   3.725  16.203  0.9261 -0.0758 -1.1836
  488MPD2     N 7263   1.222   4.012  16.503  0.1896  0.3188 -0.4672
  488MPD2    H5 7264   1.297   4.077  16.523 -0.1327  0.3543  0.6213
  488MPD2    N1 7265   1.447   3.879  16.095  0.1782  0.1017  0.2549
  488MPD2    H7 7266   1.516   3.945  16.129  0.9214 -1.2242  1.3199
  489TMC3    C1 7267   1.136   4.093  16.709  0.8154  0.4414 -0.2254
  489TMC3    C2 7268   1.204   4.209  16.686  0.4412 -0.5920 -0.4006
  489TMC3    C3 7269   1.218   4.294  16.791 -0.3242 -0.1719 -0.3203
  489TMC3    C4 7270   1.093   4.054  16.837  0.2246  0.3254 -0.1864
  489TMC3    C5 7271   1.120   4.137  16.941 -0.1807  0.2772  0.7880
  489TMC3    C6 7272   1.177   4.263  16.918  0.0071  0.7225  0.3902
  489TMC3     C 7273   1.129   3.996  16.602  0.3120 -0.2000  0.5307
  489TMC3     O 7274   1.050   3.908  16.626  0.0762  0.1130  0.4822
  489TMC3     H 7275   1.241   4.230  16.586  0.3069  0.3898 -0.2403
  489TMC3    H1 7276   1.044   3.961  16.861  0.5843  0.3868  0.7937
  489TMC3    H2 7277   1.221   4.321  16.998  2.4962 -2.0835  1.0893
  489TMC3    C7 7278   1.082   4.104  17.074  0.7614 -0.1856  0.3735
  489TMC3    C8 7279   1.316   4.396  16.779 -0.1736  0.2880  0.2867
  489TMC3    O1 7280   1.057   3.988  17.094  0.2874  0.2848  0.2430
  489TMC3    O2 7281   1.385   4.387  16.678  0.1221  0.1271 -0.8131
  490MPD2     C 7282   2.862   3.773   0.299 -0.8351  0.6338  0.5296
  490MPD2    C1 7283   2.834   3.644   0.337 -0.3138 -0.8436 -0.2345
  490MPD2    C2 7284   2.934   3.564   0.389  0.0831 -0.1837  0.6666
  490MPD2    C3 7285   3.065   3.604   0.382 -0.7271  0.0783 -0.8919
  490MPD2    C4 7286   3.098   3.735   0.345 -0.1738  0.3900  0.2051
  490MPD2    C5 7287   2.992   3.816   0.300 -0.2552 -0.3877 -0.2628
  490MPD2     H 7288   2.903   3.474   0.440  0.2788 -0.8223 -0.3534
  490MPD2    H1 7289   3.202   3.762   0.333  0.1264 -0.1937  1.5139
  490MPD2    H2 7290   2.784   3.839   0.263  0.7638  2.7108  0.8862
  490MPD2    H3 7291   3.012   3.918   0.268 -0.1646  0.7812  3.5738
  490MPD2     N 7292   3.171   3.516   0.408  0.1682  0.4000 -0.0881
  490MPD2    H5 7293   3.266   3.543   0.384  0.6398 -1.8467 -0.6887
  490MPD2    N1 7294   2.700   3.601   0.340 -0.1577  0.1600  0.2453
  490MPD2    H7 7295   2.675   3.519   0.394 -1.2180  1.3152  1.5356
  491TMC3    C1 7296   2.480   3.590   0.256  0.1579 -0.2132 -0.1648
  491TMC3    C2 7297   2.435   3.566   0.382 -0.5785 -0.4869  0.4246
  491TMC3    C3 7298   2.345   3.469   0.405  0.5386  0.1737 -0.3090
  491TMC3    C4 7299   2.435   3.510   0.149  0.0534  0.1049  1.2758
  491TMC3    C5 7300   2.345   3.412   0.178  0.1512 -0.4180 -0.3120
  491TMC3    C6 7301   2.292   3.386   0.305  1.4189 -0.1789 -0.4932
  491TMC3     C 7302   2.610   3.641   0.242  0.5713 -0.0410  0.8177
  491TMC3     O 7303   2.640   3.692   0.135  0.3415  0.0658 -0.0781
  491TMC3     H 7304   2.478   3.636   0.453 -0.0738  0.5912 -0.9437
  491TMC3    H1 7305   2.457   3.546   0.049  0.3858 -0.2401  1.2212
  491TMC3    H2 7306   2.224   3.309   0.340 -0.3976  0.6254 -2.2545
  491TMC3    C7 7307   2.321   3.303   0.085 -0.1774 -0.4001  0.4494
  491TMC3    C8 7308   2.252   3.496   0.510 -0.2378  0.1603  0.5770
  491TMC3    O1 7309   2.235   3.224   0.121  0.3119  0.1397 -0.3797
  491TMC3    O2 7310   2.174   3.407   0.538 -0.4119  0.4791 -0.1812
  492MPD2     C 7311   2.508   3.979  11.595  0.0416 -0.5932  0.7440
  492MPD2    C1 7312   2.483   3.855  11.534 -0.4353  0.3952 -1.4241
  492MPD2    C2 7313   2.487   3.741  11.606  0.2180 -0.0431  0.7692
  492MPD2    C3 7314   2.512   3.734  11.741  1.0868  0.1243  0.4762
  492MPD2    C4 7315   2.532   3.859  11.799 -0.1280  0.2079 -0.1709
  492MPD2    C5 7316   2.528   3.976  11.731 -0.2539  0.0876 -0.0922
  492MPD2     H 7317   2.458   3.641  11.574  0.6327 -0.4106  1.5283
  492MPD2    H1 7318   2.539   3.861  11.908  1.2275  0.6936 -0.2664
  492MPD2    H2 7319   2.523   4.063  11.528 -2.3655 -0.0334  0.8974
  492MPD2    H3 7320   2.533   4.072  11.782 -2.5595  0.0896  0.1218
  492MPD2     N 7321   2.521   3.615  11.825 -0.5552  0.7426  0.6828
  492MPD2    H5 7322   2.510   3.640  11.923  0.9960  1.2390  0.7388
  492MPD2    N1 7323   2.453   3.854  11.396  0.1453  0.3605 -0.5774
  492MPD2    H7 7324   2.460   3.940  11.342  0.2804  1.0338  0.5073
  493TMC3    C1 7325   2.381   3.770  11.184  0.7630  0.4072  0.2119
  493TMC3    C2 7326   2.464   3.847  11.110 -0.3635 -0.3084 -0.4559
  493TMC3    C3 7327   2.460   3.841  10.971 -0.0205  0.4810  0.1621
  493TMC3    C4 7328   2.283   3.694  11.132 -0.0443  1.2195 -0.1934
  493TMC3    C5 7329   2.286   3.687  10.997 -0.0941  0.3127 -0.3723
  493TMC3    C6 7330   2.374   3.754  10.907 -0.5763 -0.2330  0.2296
  493TMC3     C 7331   2.396   3.742  11.331  0.2409  0.4398 -0.2737
  493TMC3     O 7332   2.344   3.640  11.375 -0.3800  0.4686  1.1788
  493TMC3     H 7333   2.540   3.906  11.160  1.4262  0.6880 -4.3820
  493TMC3    H1 7334   2.206   3.652  11.196 -0.6448  1.2504 -0.8887
  493TMC3    H2 7335   2.378   3.738  10.800 -1.0531  0.4240  0.1175
  493TMC3    C7 7336   2.198   3.589  10.932  0.2228  0.1193 -0.4054
  493TMC3    C8 7337   2.594   3.870  10.911  0.7504 -0.0465  0.2339
  493TMC3    O1 7338   2.171   3.609  10.816  0.5578 -0.3421  0.4994
  493TMC3    O2 7339   2.690   3.872  10.982  0.2945  0.0695  0.0256
  494TMC3    C1 7340   3.023   0.200   0.631  0.0361 -0.9912  0.0387
  494TMC3    C2 7341   3.057   0.074   0.662 -0.1048  0.1028 -0.5782
  494TMC3    C3 7342   3.086   4.707   0.566 -0.1409  0.1365 -0.3542
  494TMC3    C4 7343   3.016   0.240   0.501 -0.5843  0.7987  0.8127
  494TMC3    C5 7344   3.050   0.143   0.408 -0.2493  0.3743 -0.2102
  494TMC3    C6 7345   3.095   0.016   0.433 -0.0663  0.4291 -0.1720
  494TMC3     C 7346   2.946   0.263   0.732 -0.5433 -0.8991  0.8924
  494TMC3     O 7347   2.963   0.227   0.849 -0.1638  0.4706 -0.2708
  494TMC3     H 7348   3.065   0.046   0.767  1.3365  0.7372 -0.5220
  494TMC3    H1 7349   2.996   0.343   0.475 -2.0987  0.4148  0.4163
  494TMC3    H2 7350   3.118   4.666   0.358  1.7838  0.0412  0.7740
  494TMC3    C7 7351   3.042   0.171   0.264 -0.3787  0.0477  0.2616
  494TMC3    C8 7352   3.114   4.576   0.616 -0.9951 -0.6040  0.1022
  494TMC3    O1 7353   3.111   0.108   0.184 -0.0781  0.0260 -0.7563
  494TMC3    O2 7354   3.124   4.565   0.739  0.1094  0.8471  0.2069
  495TMC3    C1 7355   2.021   2.576  14.535 -0.6517 -0.1738 -0.0415
  495TMC3    C2 7356   1.923   2.553  14.443  0.6127 -0.1920  0.0583
  495TMC3    C3 7357   1.793   2.593  14.468 -0.4276  0.5914  0.0273
  495TMC3    C4 7358   1.999   2.633  14.659 -0.0947  0.0104 -0.7952
  495TMC3    C5 7359   1.863   2.645  14.692 -0.2986 -0.7009  0.2028
  495TMC3    C6 7360   1.762   2.636  14.595 -0.4002 -0.8100  0.1408
  495TMC3     C 7361   2.088   2.452  14.544  0.5474  0.4237 -0.6303
  495TMC3     O 7362   2.199   2.451  14.595  0.2484 -0.1547  0.4995
  495TMC3     H 7363   1.951   2.528  14.341 -1.7281 -0.9201 -0.4062
  495TMC3    H1 7364   2.082   2.643  14.728  1.0850  0.3026 -2.2581
  495TMC3    H2 7365   1.663   2.673  14.620 -1.1468 -1.7188 -1.4725
  495TMC3    C7 7366   1.833   2.625  14.832 -0.6806 -0.1517 -0.5565
  495TMC3    C8 7367   1.683   2.543  14.392 -0.6389  0.0836 -0.2183
  495TMC3    O1 7368   1.920   2.658  14.909 -0.3434 -0.3675 -0.2673
  495TMC3    O2 7369   1.568   2.577  14.423  0.1827  0.2620 -0.1458
  496MPD2     C 7370   3.677   2.110  15.175 -1.0616  0.2698  0.2305
  496MPD2    C1 7371   3.718   2.003  15.245  0.0855 -0.2557  0.8454
  496MPD2    C2 7372   3.658   1.987  15.372 -0.0655 -0.0078 -0.6781
  496MPD2    C3 7373   3.577   2.082  15.430 -0.3381  0.0517  0.0347
  496MPD2    C4 7374   3.542   2.187  15.353 -0.6413  0.5851  0.1528
  496MPD2    C5 7375   3.590   2.200  15.226 -0.7567  0.9867  0.0919
  496MPD2     H 7376   3.684   1.904  15.436 -0.3328  1.0853  0.8645
  496MPD2    H1 7377   3.468   2.264  15.372 -1.7856 -0.6804  0.8054
  496MPD2    H2 7378   3.706   2.122  15.071 -0.3297 -0.7639  0.3030
  496MPD2    H3 7379   3.550   2.275  15.158 -3.8724  0.4842  1.3672
  496MPD2     N 7380   3.508   2.076  15.557  0.2100  0.0533  0.8797
  496MPD2    H5 7381   3.452   2.155  15.587  2.3110  2.5925 -1.8266
  496MPD2    N1 7382   3.811   1.914  15.187  0.3120  0.4547  0.4062
  496MPD2    H7 7383   3.855   1.939  15.099  2.0907  0.0766  1.1853
  497TMC3    C1 7384   3.429   1.982  15.754  1.2695  0.2944 -0.4696
  497TMC3    C2 7385   3.309   2.054  15.739 -0.4176 -0.1124 -0.2139
  497TMC3    C3 7386   3.211   2.051  15.828  0.7280 -0.0318  0.4281
  497TMC3    C4 7387   3.453   1.912  15.871 -0.1505 -0.0608  0.0486
  497TMC3    C5 7388   3.348   1.916  15.962 -1.0847  0.9387 -0.1193
  497TMC3    C6 7389   3.232   1.988  15.944  0.2841 -0.2519  0.2474
  497TMC3     C 7390   3.519   1.972  15.648  0.6133  0.2025 -0.2602
  497TMC3     O 7391   3.589   1.872  15.636 -0.0688  0.1199 -0.0674
  497TMC3     H 7392   3.295   2.109  15.646 -1.1211 -0.1671 -0.1370
  497TMC3    H1 7393   3.541   1.849  15.880 -0.7845 -1.1649 -1.5577
  497TMC3    H2 7394   3.151   1.973  16.014  1.4479  0.9536  1.8365
  497TMC3    C7 7395   3.393   1.873  16.091  0.6103  0.0053  0.7835
  497TMC3    C8 7396   3.099   2.143  15.809 -0.2566 -0.1101  0.4178
  497TMC3    O1 7397   3.324   1.795  16.156 -0.2908  0.3387  0.1072
  497TMC3    O2 7398   3.096   2.203  15.701 -0.2706  0.3335  0.1709
  498MPD2     C 7399   0.442   3.990  10.469 -0.6104  0.0767  0.0549
  498MPD2    C1 7400   0.385   4.010  10.343 -0.5770 -0.7786  0.6104
  498MPD2    C2 7401   0.305   3.916  10.290 -0.3594  0.0478 -0.2166
  498MPD2    C3 7402   0.275   3.804  10.371 -0.6772 -0.7637  0.2024
  498MPD2    C4 7403   0.327   3.790  10.494  0.8840 -0.1559  0.1378
  498MPD2    C5 7404   0.414   3.881  10.550  0.3410  0.4211  0.1864
  498MPD2     H 7405   0.260   3.928  10.193  1.4251  0.9274 -0.9359
  498MPD2    H1 7406   0.302   3.700  10.549 -0.9265  2.6364  3.8652
  498MPD2    H2 7407   0.521   4.051  10.512  1.0709  0.7085 -4.0179
  498MPD2    H3 7408   0.464   3.875  10.646  0.6730 -1.0950 -0.0900
  498MPD2     N 7409   0.196   3.701  10.309  0.3271 -0.3805 -0.5084
  498MPD2    H5 7410   0.191   3.692  10.208 -2.2602  1.2158 -0.5398
  498MPD2    N1 7411   0.433   4.121  10.264 -0.2093  0.9047 -0.4830
  498MPD2    H7 7412   0.416   4.111  10.164  2.7724  0.5445 -0.9589
  499TMC3    C1 7413   0.515   4.336  10.205 -0.2541 -0.6078 -0.5775
  499TMC3    C2 7414   0.561   4.453  10.245  0.0561 -0.2722  0.2393
  499TMC3    C3 7415   0.562   4.549  10.154 -0.3398  0.2652  1.0515
  499TMC3    C4 7416   0.482   4.306  10.072  0.1653 -0.2881  0.2948
  499TMC3    C5 7417   0.499   4.413   9.981 -0.1579 -0.0737  0.3210
  499TMC3    C6 7418   0.529   4.535  10.028  0.0396  0.0715 -0.1415
  499TMC3     C 7419   0.493   4.233  10.309  0.2712  0.2592  0.7515
  499TMC3     O 7420   0.522   4.265  10.423  0.2667  0.5165  0.2352
  499TMC3     H 7421   0.583   4.481  10.347  2.0403 -2.1253  0.3029
  499TMC3    H1 7422   0.446   4.209  10.040  1.1501 -0.5730  0.0701
  499TMC3    H2 7423   0.544   4.618   9.961 -1.7154 -0.1642 -0.8384
  499TMC3    C7 7424   0.449   4.404   9.847  0.1226 -0.6544  0.5125
  499TMC3    C8 7425   0.632   4.677  10.189 -0.2589  0.5424 -0.2780
  499TMC3    O1 7426   0.421   4.510   9.790  0.6082 -0.3645 -0.3754
  499TMC3    O2 7427   0.605   0.057  10.121  0.4571 -0.2542 -0.5895
  500MPD2     C 7428   1.728   0.069   9.585 -0.0880 -0.6364  0.1461
  500MPD2    C1 7429   1.692   0.168   9.681  0.4890 -0.2156 -0.1744
  500MPD2    C2 7430   1.561   0.209   9.697  1.0258 -0.3386  0.1196
  500MPD2    C3 7431   1.465   0.140   9.619  0.4088 -0.4700 -0.2928
  500MPD2    C4 7432   1.499   0.051   9.519  0.6997  0.5220 -0.0270
  500MPD2    C5 7433   1.632   0.026   9.498  0.0299  0.5875 -0.2354
  500MPD2     H 7434   1.539   0.283   9.773 -1.8577 -0.7160 -0.3449
  500MPD2    H1 7435   1.431   0.009   9.445  0.4142 -0.1283  0.6033
  500MPD2    H2 7436   1.829   0.029   9.579  0.9095  1.5320  2.3300
  500MPD2    H3 7437   1.648   4.688   9.412 -0.6444  1.0597 -0.7052
  500MPD2     N 7438   1.330   0.157   9.637  0.6836  0.2830  0.0879
  500MPD2    H5 7439   1.278   0.074   9.609  1.1515 -0.4501  1.3691
  500MPD2    N1 7440   1.784   0.209   9.783 -0.1083 -0.2576 -0.6985
  500MPD2    H7 7441   1.754   0.280   9.848  2.5021  1.8695 -1.8189
  501TMC3    C1 7442   1.962   0.225   9.927  0.7234  0.0194 -0.1292
  501TMC3    C2 7443   1.897   0.332   9.970  0.2457  0.2623 -0.8420
  501TMC3    C3 7444   1.908   0.358  10.105  0.0452 -0.5865 -0.1052
  501TMC3    C4 7445   2.050   0.149  10.002  0.1160 -0.3282 -0.2855
  501TMC3    C5 7446   2.061   0.185  10.134  0.0563 -0.2312  0.3711
  501TMC3    C6 7447   1.989   0.290  10.184 -0.7139  0.2027 -0.3503
  501TMC3     C 7448   1.910   0.158   9.810 -0.3078  0.2281 -0.2644
  501TMC3     O 7449   1.982   0.084   9.749 -0.2461  0.4190 -0.1269
  501TMC3     H 7450   1.827   0.395   9.916 -0.4375  0.1308 -0.1141
  501TMC3    H1 7451   2.117   0.078   9.956  1.7805  2.1206 -1.6608
  501TMC3    H2 7452   1.988   0.304  10.292 -1.9900  1.5502 -0.5358
  501TMC3    C7 7453   2.156   0.119  10.220 -0.3713  0.4194  0.6513
  501TMC3    C8 7454   1.845   0.476  10.168 -0.2912  0.7319  0.5160
  501TMC3    O1 7455   2.203   0.012  10.179  0.1394  0.3541 -1.5482
  501TMC3    O2 7456   1.844   0.481  10.288 -0.0606 -0.2946  0.4347
  502TMC3    C1 7457   1.472   3.199  15.376  0.1273  0.5187 -0.1038
  502TMC3    C2 7458   1.481   3.260  15.252  0.7159 -0.3065 -0.0991
  502TMC3    C3 7459   1.377   3.245  15.170 -0.7835  0.2041 -0.2515
  502TMC3    C4 7460   1.367   3.124  15.417 -0.1629  0.5002 -0.4669
  502TMC3    C5 7461   1.266   3.104  15.330  0.0813 -0.0510  0.0938
  502TMC3    C6 7462   1.270   3.160  15.200 -0.0063 -0.3705 -0.9230
  502TMC3     C 7463   1.591   3.213  15.458 -0.0473 -0.5050 -0.5212
  502TMC3     O 7464   1.700   3.246  15.402  0.0035  0.5446 -0.7832
  502TMC3     H 7465   1.561   3.331  15.233  1.5296 -1.1123  0.3150
  502TMC3    H1 7466   1.379   3.065  15.507  1.3257  2.3376  0.5390
  502TMC3    H2 7467   1.191   3.139  15.128  0.7096 -0.7965 -1.5912
  502TMC3    C7 7468   1.156   3.022  15.369  0.3629  0.7242 -0.5541
  502TMC3    C8 7469   1.375   3.322  15.042 -0.3312  0.9722  0.0221
  502TMC3    O1 7470   1.188   2.962  15.471  0.3413 -0.2487 -0.2613
  502TMC3    O2 7471   1.480   3.376  15.002 -0.4753  0.0200 -0.3385
  503MPD2     C 7472   3.377   3.598  16.592 -0.0193  0.6601  0.3496
  503MPD2    C1 7473   3.481   3.654  16.664 -0.1177  0.5269 -0.3450
  503MPD2    C2 7474   3.573   3.572  16.718 -0.1200 -0.1470  0.4814
  503MPD2    C3 7475   3.563   3.433  16.705  0.4164  0.3073 -0.9382
  503MPD2    C4 7476   3.464   3.377  16.627  0.2022 -0.3543 -0.5955
  503MPD2    C5 7477   3.378   3.465  16.571  0.3136  0.0541  0.0190
  503MPD2     H 7478   3.658   3.607  16.777  0.7297 -0.8209 -0.3379
  503MPD2    H1 7479   3.459   3.269  16.626 -0.0997 -0.3395 -0.6281
  503MPD2    H2 7480   3.300   3.661  16.551  0.6492  0.2149 -1.5945
  503MPD2    H3 7481   3.304   3.417  16.508 -1.0219  1.4111  0.5679
  503MPD2     N 7482   3.652   3.355  16.779 -0.2546 -0.2372 -0.1395
  503MPD2    H5 7483   3.721   3.402  16.836 -0.5929  1.0933 -0.8117
  503MPD2    N1 7484   3.493   3.790  16.696 -0.0060  0.4209 -0.2152
  503MPD2    H7 7485   3.570   3.808  16.760  0.4825  1.0492 -0.9858
  504TMC3    C1 7486   3.727   3.146  16.884  0.1047  0.3431 -0.1402
  504TMC3    C2 7487   3.684   3.061  16.975  0.2909  0.4779  0.3726
  504TMC3    C3 7488   3.766   3.002  17.070  0.8385  0.1889  0.8588
  504TMC3    C4 7489   3.861   3.179  16.879 -0.6698 -0.2401  0.1627
  504TMC3    C5 7490   3.944   3.103  16.961 -0.1603  0.2473 -0.8323
  504TMC3    C6 7491   3.901   3.013  17.051 -0.0556 -0.2215 -0.1771
  504TMC3     C 7492   3.618   3.224  16.819  0.0209  0.0268 -0.2879
  504TMC3     O 7493   3.509   3.170  16.822 -0.1049 -0.6497  0.3428
  504TMC3     H 7494   3.579   3.054  17.000 -0.0153  1.5398 -0.6008
  504TMC3    H1 7495   3.902   3.251  16.809  0.9893 -2.9525 -1.6738
  504TMC3    H2 7496   3.972   2.964  17.118 -0.5194 -2.5663 -1.3946
  504TMC3    C7 7497   4.088   3.127  16.945  0.6428  0.4566 -0.5002
  504TMC3    C8 7498   3.708   2.897  17.154  0.2243  0.4911 -0.0296
  504TMC3    O1 7499   4.123   3.228  16.879  0.2726  0.3049 -0.2928
  504TMC3    O2 7500   3.597   2.856  17.126  0.1115 -0.8226 -0.0986
  505MPD2     C 7501   3.968   3.141   9.507 -0.1284 -0.5148  0.0903
  505MPD2    C1 7502   4.003   3.015   9.545 -0.0875 -0.1014 -0.1675
  505MPD2    C2 7503   3.956   2.972   9.665 -0.5441  0.3826 -0.0087
  505MPD2    C3 7504   3.859   3.046   9.735  0.4708 -0.0939  0.0399
  505MPD2    C4 7505   3.821   3.172   9.687  0.0159  0.0167 -0.0241
  505MPD2    C5 7506   3.879   3.213   9.574 -0.0038 -0.2512  0.4398
  505MPD2     H 7507   3.990   2.874   9.697 -1.3677  0.1924  0.2713
  505MPD2    H1 7508   3.743   3.230   9.734 -0.1322  0.2207 -0.5167
  505MPD2    H2 7509   3.995   3.192   9.415  2.3418 -2.7390 -0.4343
  505MPD2    H3 7510   3.835   3.304   9.532  1.3282 -0.2454 -0.9321
  505MPD2     N 7511   3.827   2.999   9.868 -0.6392  0.3568  0.1728
  505MPD2    H5 7512   3.769   3.066   9.918 -1.4240  0.7004 -1.2151
  505MPD2    N1 7513   4.096   2.947   9.462 -0.9435  0.3211  0.6949
  505MPD2    H7 7514   4.139   2.993   9.382 -1.6634 -0.2616 -0.0351
  506TMC3    C1 7515   4.254   2.782   9.411  0.1433 -0.4603  0.3075
  506TMC3    C2 7516   4.356   2.866   9.425 -0.7876  0.5762 -0.1198
  506TMC3    C3 7517   4.478   2.826   9.457 -0.1753  0.2880 -0.7034
  506TMC3    C4 7518   4.272   2.651   9.432 -0.9080 -0.0816  0.3423
  506TMC3    C5 7519   4.397   2.604   9.464 -0.3963 -0.6391 -0.1580
  506TMC3    C6 7520   4.503   2.688   9.477 -1.1744  0.5383  0.9487
  506TMC3     C 7521   4.140   2.819   9.485  0.2150 -0.5252  1.1361
  506TMC3     O 7522   4.101   2.730   9.558  0.3793  0.1047  0.2664
  506TMC3     H 7523   4.338   2.973   9.426 -0.1766  0.6916 -1.2448
  506TMC3    H1 7524   4.205   2.574   9.394 -0.4690 -1.4189  2.2622
  506TMC3    H2 7525   4.587   2.654   9.537 -0.5652 -0.1599 -0.2700
  506TMC3    C7 7526   4.391   2.524   9.581  0.6138  0.1518  0.2188
  506TMC3    C8 7527   4.545   2.915   9.549  0.1116 -0.1488 -0.2188
  506TMC3    O1 7528   4.497   2.472   9.613 -0.1028 -0.0223 -0.1021
  506TMC3    O2 7529   4.491   3.015   9.581  0.3273 -0.6758  0.1295
  507TMC3    C1 7530   4.714   3.503  14.842  0.7479 -0.1133 -0.1184
  507TMC3    C2 7531   4.676   3.419  14.744 -0.7410  0.4612  0.4116
  507TMC3    C3 7532   4.704   3.453  14.614 -0.4623  0.4508  0.3968
  507TMC3    C4 7533   0.047   3.624  14.816  0.8962 -0.0089  0.3336
  507TMC3    C5 7534   0.079   3.654  14.694 -0.5773 -1.2032 -0.8246
  507TMC3    C6 7535   0.055   3.565  14.590 -0.7313  0.0284 -0.3640
  507TMC3     C 7536   4.681   3.462  14.978 -0.4387 -0.0493  0.3131
  507TMC3     O 7537   0.039   3.504  15.062  0.0892 -0.6964  0.5659
  507TMC3     H 7538   4.617   3.331  14.765 -0.5919 -0.5333 -3.2359
  507TMC3    H1 7539   0.059   3.688  14.902  1.3408 -1.3476  1.2629
  507TMC3    H2 7540   0.086   3.589  14.489  1.1790 -1.2644 -0.1011
  507TMC3    C7 7541   0.086   3.792  14.651  0.4876  0.1497 -0.4553
  507TMC3    C8 7542   4.581   3.471  14.537 -0.1633  0.0020  0.5010
  507TMC3    O1 7543   0.044   3.807  14.535 -0.6262 -0.3173 -0.0511
  507TMC3    O2 7544   4.494   3.386  14.547 -0.6817  0.6154 -0.2865
  508MPD2     C 7545   0.147   1.325  16.050  0.8409 -0.4127  0.2403
  508MPD2    C1 7546   0.275   1.288  16.026  0.2034  0.4037 -0.5870
  508MPD2    C2 7547   0.321   1.270  15.898 -0.0503  0.0099 -0.2228
  508MPD2    C3 7548   0.231   1.278  15.792 -0.4966  0.2293 -0.3828
  508MPD2    C4 7549   0.098   1.316  15.817 -0.4496  0.0918 -0.2344
  508MPD2    C5 7550   0.059   1.330  15.945  0.4918 -0.0730  0.1658
  508MPD2     H 7551   0.416   1.222  15.876  1.1183  1.9706  0.5528
  508MPD2    H1 7552   0.025   1.323  15.737  0.6263  0.4681 -1.1874
  508MPD2    H2 7553   0.096   1.331  16.146 -0.2502  0.1255 -0.3758
  508MPD2    H3 7554   4.685   1.359  15.976  0.6283 -2.0095  2.4327
  508MPD2     N 7555   0.267   1.273  15.653 -0.1365  0.2938  0.5852
  508MPD2    H5 7556   0.191   1.276  15.586 -1.0427 -0.0937  1.5841
  508MPD2    N1 7557   0.353   1.273  16.140 -0.6834  0.5059 -0.6205
  508MPD2    H7 7558   0.309   1.282  16.231 -0.7645 -0.4059 -0.5674
  509TMC3    C1 7559   0.329   1.437  15.302 -0.7634  0.2474  0.3857
  509TMC3    C2 7560   0.461   1.461  15.273  0.2934  0.3973 -0.2173
  509TMC3    C3 7561   0.556   1.378  15.325  0.3261 -0.0163  0.7170
  509TMC3    C4 7562   0.298   1.344  15.396 -0.2127  0.1453  0.4197
  509TMC3    C5 7563   0.398   1.265  15.451 -0.0595  0.8474  0.1806
  509TMC3    C6 7564   0.529   1.283  15.419  0.1198 -0.5846  0.3131
  509TMC3     C 7565   0.228   1.530  15.245  0.0224 -0.3501 -0.4949
  509TMC3     O 7566   0.119   1.535  15.300 -0.4441 -0.1568 -0.1871
  509TMC3     H 7567   0.508   1.529  15.203 -0.4482 -0.8578 -1.9398
  509TMC3    H1 7568   0.195   1.324  15.423 -0.2667 -0.5878 -0.3276
  509TMC3    H2 7569   0.599   1.208  15.453  0.5682 -0.5742 -0.5981
  509TMC3    C7 7570   0.389   1.249  15.599  0.0870 -0.8633 -0.2600
  509TMC3    C8 7571   0.693   1.415  15.309  0.1378  0.4740 -0.5977
  509TMC3    O1 7572   0.500   1.245  15.655 -1.0891 -0.0525 -0.2812
  509TMC3    O2 7573   0.763   1.318  15.299 -0.3427 -0.6700 -0.2121
  510MPD2     C 7574   3.290   2.973  14.764 -0.4856 -0.0070  0.4357
  510MPD2    C1 7575   3.319   2.843  14.789  0.0138  0.4865 -0.1060
  510MPD2    C2 7576   3.429   2.791  14.719  0.8917  0.3845  0.4199
  510MPD2    C3 7577   3.498   2.863  14.622  0.5759  0.0421  0.0668
  510MPD2    C4 7578   3.456   2.999  14.601 -0.1812  0.0747  0.0497
  510MPD2    C5 7579   3.357   3.051  14.674 -0.0013 -0.8279 -0.9080
  510MPD2     H 7580   3.461   2.689  14.734  2.3121  1.1098  2.2082
  510MPD2    H1 7581   3.507   3.062  14.530 -2.1167  1.2061 -0.3214
  510MPD2    H2 7582   3.194   3.011  14.796  0.0708  3.3091 -1.8066
  510MPD2    H3 7583   3.320   3.151  14.657 -0.6914 -0.8492  0.5160
  510MPD2     N 7584   3.614   2.807  14.555 -0.3999  0.1850  0.3039
  510MPD2    H5 7585   3.629   2.711  14.585  0.8306  0.5060  0.7197
  510MPD2    N1 7586   3.240   2.775  14.882  0.2768 -0.0647 -0.1023
  510MPD2    H7 7587   3.162   2.825  14.924  0.0028 -0.4597 -0.1465
  511TMC3    C1 7588   3.135   2.601  14.979  0.6382 -0.5572 -0.0486
  511TMC3    C2 7589   3.074   2.659  15.086 -0.4674 -0.3784  0.4975
  511TMC3    C3 7590   2.967   2.597  15.144  0.2597 -0.8571 -0.6119
  511TMC3    C4 7591   3.091   2.480  14.934  0.4493  0.9974  0.1051
  511TMC3    C5 7592   2.980   2.424  14.983  0.4681  0.0775  0.5328
  511TMC3    C6 7593   2.915   2.481  15.090  0.6466 -0.0304 -0.4000
  511TMC3     C 7594   3.255   2.643  14.918 -0.8015  0.1413  0.1172
  511TMC3     O 7595   3.339   2.562  14.880  0.2387  0.4459 -0.1396
  511TMC3     H 7596   3.099   2.763  15.106  0.8215 -1.3011  3.6247
  511TMC3    H1 7597   3.124   2.442  14.838 -0.8331 -1.2921  0.5705
  511TMC3    H2 7598   2.818   2.441  15.116 -0.3578  2.8632  0.2699
  511TMC3    C7 7599   2.919   2.324  14.898 -0.0625 -0.0772  0.0260
  511TMC3    C8 7600   2.901   2.649  15.269 -0.5331  0.2008 -0.0936
  511TMC3    O1 7601   2.945   2.320  14.778  0.0442  0.3076 -0.5893
  511TMC3    O2 7602   2.928   2.766  15.301  0.3075 -0.2431 -0.2266
  512TMC3    C1 7603   3.004   1.892  14.012  0.0996 -0.2498  0.1265
  512TMC3    C2 7604   2.871   1.895  13.997  0.0904 -0.3388  0.0184
  512TMC3    C3 7605   2.808   1.784  13.956  0.2100 -0.0319  0.6673
  512TMC3    C4 7606   3.070   1.779  13.973 -0.0373  0.4456  0.4559
  512TMC3    C5 7607   3.005   1.661  13.929 -0.1623  0.5381 -0.0698
  512TMC3    C6 7608   2.866   1.660  13.922 -0.3597 -0.2420  0.3481
  512TMC3     C 7609   3.077   2.008  14.064 -0.4159 -0.6744 -0.3340
  512TMC3     O 7610   3.187   1.990  14.110  0.2721 -1.0489  0.2179
  512TMC3     H 7611   2.809   1.972  14.042  2.4377  1.6062 -0.0829
  512TMC3    H1 7612   3.178   1.781  13.981  0.2477 -0.2472 -3.0303
  512TMC3    H2 7613   2.806   1.578  13.885  1.4930 -1.8328  0.8113
  512TMC3    C7 7614   3.066   1.541  13.977  0.1651 -0.1557  0.4467
  512TMC3    C8 7615   2.669   1.797  13.911  0.0462 -0.1269  0.5098
  512TMC3    O1 7616   3.166   1.545  14.046 -0.0961  0.4517  0.4618
  512TMC3    O2 7617   2.607   1.693  13.884  0.0945 -0.0587  0.3517
  513MPD2     C 7618   3.931   1.996  13.094  1.2604 -0.0335  0.2465
  513MPD2    C1 7619   3.976   2.120  13.136 -0.2342 -0.1085 -0.0897
  513MPD2    C2 7620   3.946   2.166  13.264  0.0239 -0.3175  0.3441
  513MPD2    C3 7621   3.860   2.101  13.346  0.1496  0.5952  0.1950
  513MPD2    C4 7622   3.819   1.973  13.310  0.1195  0.5645  0.8076
  513MPD2    C5 7623   3.848   1.927  13.181  0.2484 -0.3242 -0.2302
  513MPD2     H 7624   3.992   2.259  13.294 -1.7194  0.8396 -0.5640
  513MPD2    H1 7625   3.765   1.908  13.378 -0.3605  0.2517  0.1367
  513MPD2    H2 7626   3.954   1.959  12.995 -0.7538 -0.2097 -0.1512
  513MPD2    H3 7627   3.809   1.829  13.156 -0.1460  0.1184 -1.3286
  513MPD2     N 7628   3.836   2.169  13.466 -0.3598  0.2563 -0.4260
  513MPD2    H5 7629   3.853   2.268  13.474  1.2961 -0.1266  0.7685
  513MPD2    N1 7630   4.069   2.197  13.062 -0.0070  0.5527 -0.4355
  513MPD2    H7 7631   4.116   2.266  13.120 -1.6351  0.7398  0.6637
  514TMC3    C1 7632   4.224   2.277  12.911  0.4576  0.7012  0.4912
  514TMC3    C2 7633   4.232   2.364  12.800  0.5041 -0.1855  0.2831
  514TMC3    C3 7634   4.286   2.488  12.828  0.4783  0.1208 -0.0076
  514TMC3    C4 7635   4.284   2.309  13.031 -0.0954  0.0072 -0.2148
  514TMC3    C5 7636   4.332   2.432  13.058  0.6357 -0.2724 -0.4873
  514TMC3    C6 7637   4.337   2.518  12.953  0.0346 -0.1070  0.4815
  514TMC3     C 7638   4.113   2.184  12.932 -0.3212  0.3643  0.4253
  514TMC3     O 7639   4.082   2.105  12.843  0.8088  0.0394 -0.4531
  514TMC3     H 7640   4.177   2.347  12.708  0.1275 -0.0506  0.4807
  514TMC3    H1 7641   4.288   2.241  13.115  0.0261  1.3102  0.8458
  514TMC3    H2 7642   4.374   2.617  12.976  0.8753 -0.2904 -0.0774
  514TMC3    C7 7643   4.269   2.478  13.178  0.6284 -0.6041  0.4415
  514TMC3    C8 7644   4.278   2.601  12.734 -0.5433  0.2480  0.1114
  514TMC3    O1 7645   4.202   2.390  13.232 -0.7697 -0.3274  0.6364
  514TMC3    O2 7646   4.268   2.710  12.792  0.4648 -0.2801  0.1252
  515MPD2     C 7647   2.366   3.615  14.095  0.7702  0.3116 -0.4709
  515MPD2    C1 7648   2.339   3.528  14.195  0.8674 -0.3455  0.0077
  515MPD2    C2 7649   2.392   3.547  14.315 -0.8171 -0.2792 -0.2123
  515MPD2    C3 7650   2.472   3.655  14.348  0.8481  0.1620 -0.5328
  515MPD2    C4 7651   2.495   3.749  14.249 -0.6797 -0.5773  0.1729
  515MPD2    C5 7652   2.446   3.727  14.124  0.0359  0.3387  0.5748
  515MPD2     H 7653   2.371   3.479  14.398  0.3525  2.0180  1.9701
  515MPD2    H1 7654   2.545   3.844  14.261 -0.3137 -1.0123  2.0816
  515MPD2    H2 7655   2.324   3.598  13.996 -1.2216 -0.2290  0.4688
  515MPD2    H3 7656   2.467   3.802  14.048 -0.9451 -0.6257 -0.6374
  515MPD2     N 7657   2.516   3.694  14.476  0.6542  0.1005 -0.0014
  515MPD2    H5 7658   2.551   3.788  14.492  1.6204 -0.7123  2.6276
  515MPD2    N1 7659   2.245   3.421  14.169 -0.5859 -0.1879 -0.2177
  515MPD2    H7 7660   2.204   3.403  14.078  0.9435 -0.5760 -0.8278
  516TMC3    C1 7661   2.076   3.262  14.213  0.1048 -0.2834  0.3893
  516TMC3    C2 7662   1.982   3.325  14.139 -0.8325 -0.0347  0.2348
  516TMC3    C3 7663   1.852   3.277  14.131 -0.0716  0.2517 -0.4050
  516TMC3    C4 7664   2.029   3.153  14.290 -0.4793  0.0414  0.1119
  516TMC3    C5 7665   1.898   3.102  14.285 -0.7051 -0.7832 -0.2568
  516TMC3    C6 7666   1.808   3.161  14.196  0.5071  0.3328 -0.0964
  516TMC3     C 7667   2.185   3.339  14.271  0.6720  0.6149  0.5171
  516TMC3     O 7668   2.205   3.326  14.393 -0.9252  0.1402  0.4532
  516TMC3     H 7669   2.011   3.414  14.085 -0.1177  0.0560  0.7738
  516TMC3    H1 7670   2.111   3.118  14.350 -0.8576 -1.7147 -0.3981
  516TMC3    H2 7671   1.707   3.122  14.190  0.6299  0.4866 -3.2209
  516TMC3    C7 7672   1.862   3.020  14.399 -0.0537  0.8413 -0.0353
  516TMC3    C8 7673   1.739   3.354  14.064  0.0704 -0.3852 -0.3178
  516TMC3    O1 7674   1.937   3.017  14.497 -0.4041  0.4357  0.6703
  516TMC3    O2 7675   1.628   3.310  14.091 -0.1554  0.2888 -0.3240
  517MPD2     C 7676   1.437   0.218  17.499  0.3793 -0.4894 -0.4086
  517MPD2    C1 7677   1.561   0.227  17.442  0.3748  0.3991  0.2244
  517MPD2    C2 7678   1.652   0.331  17.478 -0.2132  0.3231 -0.1267
  517MPD2    C3 7679   1.616   0.420  17.576  0.3049 -0.3128 -0.1616
  517MPD2    C4 7680   1.490   0.411  17.630 -0.7501 -0.2051  0.2006
  517MPD2    C5 7681   1.405   0.311  17.597  0.7670 -0.4521 -0.4693
  517MPD2     H 7682   1.743   0.345  17.420 -0.4426 -1.5755 -0.9378
  517MPD2    H1 7683   1.458   0.466   0.016  0.4030 -0.6572  0.9088
  517MPD2    H2 7684   1.365   0.141  17.475 -3.2158  2.2971  1.4329
  517MPD2    H3 7685   1.310   0.303  17.649  1.9159  0.1666  1.7093
  517MPD2     N 7686   1.705   0.513  17.626  0.2287 -0.0241 -0.5214
  517MPD2    H5 7687   1.668   0.585  17.687  0.7018  0.9737 -1.4161
  517MPD2    N1 7688   1.608   0.128  17.346 -0.3152  0.0366 -0.0054
  517MPD2    H7 7689   1.697   0.142  17.299 -0.6532 -2.5711 -1.4160
  518TMC3    C1 7690   1.606   4.698  17.169 -0.1563  0.0629  0.4215
  518TMC3    C2 7691   1.630   4.564  17.150  0.6529  0.0645 -0.0913
  518TMC3    C3 7692   1.744   4.537  17.082 -0.1876  0.0026  0.4424
  518TMC3    C4 7693   1.686   0.065  17.106  0.0175 -0.4531  0.1545
  518TMC3    C5 7694   1.807   0.024  17.058  0.1321  0.7481  0.4606
  518TMC3    C6 7695   1.835   4.624  17.027 -0.2994 -0.1365 -0.4955
  518TMC3     C 7696   1.535   0.030  17.283 -0.0439 -0.7659 -0.2399
  518TMC3     O 7697   1.430   4.708  17.317  0.0061 -0.2935  0.7638
  518TMC3     H 7698   1.579   4.485  17.203 -0.9129  0.1703 -1.4153
  518TMC3    H1 7699   1.658   0.170  17.107 -1.4688 -0.8594  0.1063
  518TMC3    H2 7700   1.933   4.595  16.993  0.5173 -0.9604  2.5239
  518TMC3    C7 7701   1.903   0.090  17.143  0.0050 -0.2971 -0.7520
  518TMC3    C8 7702   1.774   4.396  17.057 -0.1429  0.5487 -0.3725
  518TMC3    O1 7703   1.851   0.161  17.233 -0.5433  0.1464 -0.3710
  518TMC3    O2 7704   1.767   4.306  17.141 -0.1237  0.5653  0.7999
  519MPD2     C 7705   3.635   4.234  14.218  0.2839  0.1340 -0.3301
  519MPD2    C1 7706   3.561   4.199  14.111  0.4637 -0.6781  0.3369
  519MPD2    C2 7707   3.577   4.078  14.051 -0.1942 -0.0265  0.2349
  519MPD2    C3 7708   3.673   3.990  14.105 -0.1419 -0.0585  0.4737
  519MPD2    C4 7709   3.744   4.026  14.220  0.1875  0.1042  0.1259
  519MPD2    C5 7710   3.728   4.150  14.267  0.5107  0.7028  0.3839
  519MPD2     H 7711   3.515   4.051  13.967  0.3447 -0.8524  0.0971
  519MPD2    H1 7712   3.816   3.958  14.265  0.2638 -0.1774 -0.4125
  519MPD2    H2 7713   3.627   4.328  14.272  0.7931  0.0063 -0.0273
  519MPD2    H3 7714   3.779   4.183  14.357 -0.7416  1.8321  0.6833
  519MPD2     N 7715   3.693   3.864  14.048  0.0466 -0.0511  1.2914
  519MPD2    H5 7716   3.762   3.802  14.089 -0.6142 -0.8491  1.1980
  519MPD2    N1 7717   3.470   4.296  14.063  0.6621 -0.4909 -0.0387
  519MPD2    H7 7718   3.444   4.377  14.119 -2.1846 -0.7283 -1.0190
  520TMC3    C1 7719   3.633   3.650  13.953 -0.5300  0.7571  0.4536
  520TMC3    C2 7720   3.530   3.570  13.898  0.1969  0.4042 -0.2057
  520TMC3    C3 7721   3.541   3.434  13.891  0.7894  0.0806 -0.0413
  520TMC3    C4 7722   3.745   3.592  14.006  0.1416  0.3654  0.0473
  520TMC3    C5 7723   3.746   3.454  13.998 -0.0012  0.1848 -0.4356
  520TMC3    C6 7724   3.648   3.374  13.945  0.2553 -0.5283  0.4609
  520TMC3     C 7725   3.598   3.798  13.969 -0.6068 -0.1806 -0.3712
  520TMC3     O 7726   3.501   3.840  13.907  0.2700 -0.2711  0.5275
  520TMC3     H 7727   3.445   3.623  13.857 -0.4201  0.8997  1.7534
  520TMC3    H1 7728   3.817   3.649  14.063 -0.2969 -0.2641  1.2214
  520TMC3    H2 7729   3.663   3.267  13.943  2.8242 -0.1853  1.2637
  520TMC3    C7 7730   3.881   3.399  14.001  0.1845 -0.2237 -1.0201
  520TMC3    C8 7731   3.459   3.357  13.798 -0.4725  0.4054 -0.3874
  520TMC3    O1 7732   3.893   3.281  14.027  0.0490  0.0988 -0.0049
  520TMC3    O2 7733   3.487   3.237  13.786 -0.2263  0.1872  0.4359
  521MPD2     C 7734   4.276   1.303   0.130  0.3377  0.3382  0.5866
  521MPD2    C1 7735   4.212   1.263   0.012 -0.5791 -0.6914 -0.3895
  521MPD2    C2 7736   4.276   1.176  17.624 -0.0051  0.2515 -0.1286
  521MPD2    C3 7737   4.410   1.145  17.646 -0.4900  0.0811 -0.3401
  521MPD2    C4 7738   4.470   1.187   0.065  0.6853  0.6804 -0.1964
  521MPD2    C5 7739   4.402   1.265   0.153 -0.0958 -0.7825  0.3585
  521MPD2     H 7740   4.217   1.150  17.537 -1.3048  0.6239  0.6307
  521MPD2    H1 7741   4.571   1.163   0.096  1.3879  1.0145 -2.2529
  521MPD2    H2 7742   4.227   1.365   0.204 -3.0415 -1.2391 -0.3222
  521MPD2    H3 7743   4.442   1.301   0.247  0.2317  0.0085 -0.0908
  521MPD2     N 7744   4.467   1.074  17.533  0.0794 -0.6440  0.5131
  521MPD2    H5 7745   4.414   1.059  17.448  1.6005 -0.9681 -0.3789
  521MPD2    N1 7746   4.079   1.311   0.002 -0.2840 -0.3597 -0.5535
  521MPD2    H7 7747   4.057   1.398   0.050 -3.4310 -1.4552 -0.0107
  522TMC3    C1 7748   4.642   0.987  17.414  0.0107  0.2012  0.9392
  522TMC3    C2 7749   0.039   1.030  17.386  0.4339 -0.5168 -0.4164
  522TMC3    C3 7750   0.074   1.044  17.247 -0.4388  0.0324 -0.2988
  522TMC3    C4 7751   4.550   0.954  17.318 -0.4933 -0.3575 -0.0270
  522TMC3    C5 7752   4.588   0.980  17.185  0.2051  0.3718 -0.5788
  522TMC3    C6 7753   4.711   1.017  17.142  0.4699  0.1434  0.4288
  522TMC3     C 7754   4.592   1.036  17.538 -0.3871  0.1699 -0.3565
  522TMC3     O 7755   4.684   1.059  17.620  0.4236 -0.0964  0.5075
  522TMC3     H 7756   0.113   1.051  17.463  1.9733 -0.4606 -1.8939
  522TMC3    H1 7757   4.456   0.905  17.336 -0.1342 -0.6259  1.1347
  522TMC3    H2 7758   0.022   1.030  17.041 -1.0616 -1.1251 -0.2838
  522TMC3    C7 7759   4.493   0.936  17.082  0.3766 -0.6300 -0.0484
  522TMC3    C8 7760   0.181   1.143  17.216 -0.0414 -0.5959  0.2297
  522TMC3    O1 7761   4.451   0.823  17.078 -0.5312  0.7417 -0.0466
  522TMC3    O2 7762   0.198   1.229  17.304  0.8320  0.5149  0.8642
  523MPD2     C 7763   2.037   1.561  10.091 -0.3058  0.1532 -0.2019
  523MPD2    C1 7764   1.997   1.489   9.980  0.1487  0.1736  0.0018
  523MPD2    C2 7765   1.891   1.540   9.911  0.4266  0.1562 -0.1480
  523MPD2    C3 7766   1.831   1.656   9.950  0.4296 -0.1425 -0.1408
  523MPD2    C4 7767   1.879   1.729  10.058 -0.4591 -0.3150  0.7161
  523MPD2    C5 7768   1.989   1.684  10.117  0.2035 -0.1322  0.3248
  523MPD2     H 7769   1.847   1.473   9.837  2.3116  1.7221 -2.6923
  523MPD2    H1 7770   1.832   1.817  10.102  2.5495  0.9878  1.3876
  523MPD2    H2 7771   2.126   1.524  10.142 -0.5675 -0.1472  0.0363
  523MPD2    H3 7772   2.039   1.745  10.192 -1.4176  2.5038 -0.7293
  523MPD2     N 7773   1.719   1.712   9.879  0.7460 -0.1627  0.3912
  523MPD2    H5 7774   1.678   1.801   9.906 -0.2363 -0.6379  0.4484
  523MPD2    N1 7775   2.072   1.376   9.937  0.0320  0.4777  0.2938
  523MPD2    H7 7776   2.138   1.336  10.003  1.5229  0.9060 -0.9537
  524TMC3    C1 7777   1.555   1.737   9.712 -0.0164 -0.5350 -0.0087
  524TMC3    C2 7778   1.478   1.675   9.625 -0.2051  0.4802  0.4093
  524TMC3    C3 7779   1.370   1.744   9.576  0.0190  0.1655 -0.4284
  524TMC3    C4 7780   1.511   1.859   9.769  0.0991  0.4383  0.2406
  524TMC3    C5 7781   1.406   1.930   9.712  0.0364 -0.3208  0.7235
  524TMC3    C6 7782   1.335   1.876   9.599 -0.4017  0.1273 -0.3203
  524TMC3     C 7783   1.672   1.665   9.760 -0.8805  0.1083  0.2574
  524TMC3     O 7784   1.713   1.572   9.692  0.5110  0.2806  0.1069
  524TMC3     H 7785   1.507   1.577   9.589 -0.9344  0.1996  0.5911
  524TMC3    H1 7786   1.569   1.900   9.850 -0.2819 -0.3169  0.9022
  524TMC3    H2 7787   1.245   1.924   9.563  0.1976  1.3874 -0.1628
  524TMC3    C7 7788   1.345   2.041   9.785 -0.5065 -0.6078  0.2319
  524TMC3    C8 7789   1.321   1.676   9.456  0.2834 -0.1357 -0.3561
  524TMC3    O1 7790   1.388   2.058   9.899  0.2127  0.4186 -0.3048
  524TMC3    O2 7791   1.314   1.553   9.450  0.0879 -0.1473  0.8893
  525MPD2     C 7792   0.125   3.296  14.333  0.1688 -0.0225  0.1583
  525MPD2    C1 7793   0.232   3.299  14.427  0.1559  0.0829  0.7607
  525MPD2    C2 7794   0.326   3.401  14.432 -0.0642 -0.4312  0.5901
  525MPD2    C3 7795   0.315   3.496  14.332  0.3353  0.5511 -1.0071
  525MPD2    C4 7796   0.222   3.489  14.235 -0.9138 -0.2100 -0.8771
  525MPD2    C5 7797   0.126   3.393  14.240 -0.1360 -0.3287 -0.5347
  525MPD2     H 7798   0.390   3.404  14.519 -1.5047  0.0555  1.6485
  525MPD2    H1 7799   0.215   3.557  14.152 -1.4324  0.4189 -0.3249
  525MPD2    H2 7800   0.046   3.222  14.325  1.0562 -0.6307 -3.2847
  525MPD2    H3 7801   0.046   3.407  14.168  1.4359  2.1175 -1.8151
  525MPD2     N 7802   0.419   3.593  14.334  0.5852  1.0728  0.0353
  525MPD2    H5 7803   0.470   3.619  14.417  0.9961 -0.2550  0.1921
  525MPD2    N1 7804   0.241   3.200  14.531 -0.0037  0.0090  0.5947
  525MPD2    H7 7805   0.327   3.193  14.584  0.3135 -1.3446 -0.1017
  526TMC3    C1 7806   0.207   3.020  14.682 -0.0971 -0.0302 -0.3906
  526TMC3    C2 7807   0.155   2.890  14.700 -0.4284  0.3359 -0.0405
  526TMC3    C3 7808   0.235   2.802  14.772 -0.3172  0.0391  0.3328
  526TMC3    C4 7809   0.328   3.052  14.744 -0.2927 -0.1279 -0.1096
  526TMC3    C5 7810   0.397   2.958  14.824  0.1550 -0.1209 -0.0503
  526TMC3    C6 7811   0.353   2.832  14.835  0.0719  0.3789 -0.4512
  526TMC3     C 7812   0.152   3.104  14.577  0.3447  0.3926 -1.3029
  526TMC3     O 7813   0.039   3.087  14.538  0.0466 -0.6186 -0.0480
  526TMC3     H 7814   0.064   2.854  14.653 -0.2358 -1.9623  1.3665
  526TMC3    H1 7815   0.359   3.156  14.740 -2.0016  0.3619 -0.5927
  526TMC3    H2 7816   0.406   2.764  14.901 -1.9446 -0.5997  0.1608
  526TMC3    C7 7817   0.541   2.972  14.797  0.6805  0.6090  0.4492
  526TMC3    C8 7818   0.167   2.691  14.846  0.0059  0.1902 -0.3172
  526TMC3    O1 7819   0.579   3.085  14.795  0.4727 -0.2312 -0.0088
  526TMC3    O2 7820   0.101   2.606  14.786  0.2027  0.3974 -0.3223
  527MPD2     C 7821   2.895   0.769   1.548 -0.4126 -0.2715  0.0452
  527MPD2    C1 7822   2.971   0.656   1.546  0.2871  0.0410 -0.1127
  527MPD2    C2 7823   3.022   0.627   1.413 -0.1577  0.7117 -0.6590
  527MPD2    C3 7824   3.000   0.702   1.304  1.0389 -0.0020  0.1576
  527MPD2    C4 7825   2.913   0.802   1.313  0.0039  0.0300 -0.1716
  527MPD2    C5 7826   2.854   0.831   1.429 -0.4974 -0.1776 -0.4118
  527MPD2     H 7827   3.095   0.548   1.409 -1.4207 -0.4843  0.0912
  527MPD2    H1 7828   2.898   0.877   1.236 -1.3539  2.5901  2.5977
  527MPD2    H2 7829   2.843   0.801   1.637 -0.5953  0.9690 -0.5048
  527MPD2    H3 7830   2.794   0.921   1.435 -1.2391 -0.7112  0.2638
  527MPD2     N 7831   3.067   0.660   1.188  0.1577 -0.0480  0.1457
  527MPD2    H5 7832   3.142   0.593   1.203 -0.3256 -0.5786  0.2053
  527MPD2    N1 7833   3.000   0.567   1.652 -0.1798 -0.0345 -0.0124
  527MPD2    H7 7834   3.060   0.488   1.632  1.1283  0.3303  2.4561
  528TMC3    C1 7835   3.024   0.486   1.868 -0.3811  0.1063  0.1516
  528TMC3    C2 7836   3.159   0.451   1.843 -0.1715  0.3152 -0.2087
  528TMC3    C3 7837   3.213   0.356   1.921 -0.4567  0.6418  0.3763
  528TMC3    C4 7838   2.952   0.430   1.966  0.4714  0.2482  0.8331
  528TMC3    C5 7839   3.009   0.332   2.039 -0.9560  0.1799  0.0739
  528TMC3    C6 7840   3.137   0.292   2.017 -0.1842  0.0957  0.3570
  528TMC3     C 7841   2.949   0.574   1.781 -0.1126  0.4734 -0.1211
  528TMC3     O 7842   2.840   0.626   1.810 -0.1352  0.1169 -0.2494
  528TMC3     H 7843   3.223   0.517   1.784 -0.1309  1.1007  0.7235
  528TMC3    H1 7844   2.850   0.462   1.982 -0.1451 -1.2989  0.0406
  528TMC3    H2 7845   3.177   0.214   2.081 -1.4644  1.7023  3.1551
  528TMC3    C7 7846   2.934   0.263   2.142 -0.4821 -0.7841  0.4809
  528TMC3    C8 7847   3.355   0.310   1.900  0.6971 -0.0576  0.5183
  528TMC3    O1 7848   2.987   0.166   2.195  0.4456  0.5517 -0.6691
  528TMC3    O2 7849   3.435   0.388   1.855  0.2493 -0.4497  0.2457
  529MPD2     C 7850   1.032   4.089   0.941  0.8141  0.2892 -0.0417
  529MPD2    C1 7851   0.912   4.038   0.893  0.1713 -0.4504  0.4491
  529MPD2    C2 7852   0.836   4.114   0.812  0.1575  0.0456  0.1667
  529MPD2    C3 7853   0.886   4.234   0.763 -0.2332  0.0872  0.2705
  529MPD2    C4 7854   1.008   4.282   0.806 -0.0827  0.1451 -0.2431
  529MPD2    C5 7855   1.076   4.209   0.898 -0.5442 -0.7539 -0.0963
  529MPD2     H 7856   0.741   4.079   0.774 -0.5477  1.7625  0.3146
  529MPD2    H1 7857   1.047   4.381   0.787 -1.1999  0.2736 -1.8218
  529MPD2    H2 7858   1.085   4.033   1.017  0.6925 -0.8925 -0.8084
  529MPD2    H3 7859   1.171   4.243   0.936  0.7841 -1.5753 -2.6810
  529MPD2     N 7860   0.820   4.314   0.668  0.1133 -0.0182  0.9496
  529MPD2    H5 7861   0.870   4.391   0.624 -0.0241  0.3466  1.4329
  529MPD2    N1 7862   0.843   3.928   0.953  0.0079 -0.5482 -0.7420
  529MPD2    H7 7863   0.747   3.906   0.929 -0.4544 -1.7404  2.1982
  530TMC3    C1 7864   0.779   3.776   1.120  0.7524 -0.2250  0.7471
  530TMC3    C2 7865   0.817   3.677   1.208 -0.3143 -1.1522  0.0160
  530TMC3    C3 7866   0.721   3.603   1.271 -0.7470  0.6061 -0.2052
  530TMC3    C4 7867   0.650   3.803   1.081 -0.3788  0.2510 -0.0401
  530TMC3    C5 7868   0.560   3.716   1.135  0.1820 -0.6240 -0.6338
  530TMC3    C6 7869   0.593   3.616   1.226  0.9036 -0.3418  0.0143
  530TMC3     C 7870   0.883   3.858   1.065  0.3337 -0.4261  0.0260
  530TMC3     O 7871   0.985   3.869   1.130 -0.0755 -0.2938  0.2385
  530TMC3     H 7872   0.921   3.660   1.233 -0.6167 -1.3929  1.0916
  530TMC3    H1 7873   0.624   3.884   1.014  1.6859 -0.3174 -1.5267
  530TMC3    H2 7874   0.523   3.537   1.249 -0.3394  0.4624 -0.9809
  530TMC3    C7 7875   0.424   3.724   1.095  0.2313  0.7040  0.1674
  530TMC3    C8 7876   0.757   3.492   1.356  0.7177  0.3992 -0.2546
  530TMC3    O1 7877   0.339   3.691   1.174 -0.3744  0.3721 -0.2778
  530TMC3    O2 7878   0.673   3.407   1.379  0.5205 -0.6153  0.1949
  531MPD2     C 7879   4.126   2.798  13.545  0.4327 -0.1098  0.3687
  531MPD2    C1 7880   4.085   2.673  13.511 -0.2578 -0.2083  0.2571
  531MPD2    C2 7881   4.133   2.608  13.402 -0.3543 -0.4811  0.2992
  531MPD2    C3 7882   4.238   2.662  13.327 -0.0292 -0.0053  0.1354
  531MPD2    C4 7883   4.283   2.788  13.369 -0.3537  0.0872 -1.0527
  531MPD2    C5 7884   4.223   2.859  13.473 -0.1334 -0.2146 -0.4607
  531MPD2     H 7885   4.104   2.506  13.378  0.0972 -0.7158  0.7607
  531MPD2    H1 7886   4.369   2.834  13.322  0.0965  0.7924  0.4613
  531MPD2    H2 7887   4.091   2.854  13.631 -0.9117  0.2426 -0.4024
  531MPD2    H3 7888   4.247   2.963  13.492 -0.1903 -0.6367  1.8765
  531MPD2     N 7889   4.300   2.601  13.216 -0.4725 -0.3304  0.6990
  531MPD2    H5 7890   4.375   2.652  13.171 -0.1097 -0.2208  1.4410
  531MPD2    N1 7891   4.003   2.604  13.602  0.3376  0.1257  0.2588
  531MPD2    H7 7892   3.993   2.644  13.696  0.4120 -0.1357  0.3767
  532TMC3    C1 7893   3.860   2.435  13.684  0.4351  0.5557 -0.6830
  532TMC3    C2 7894   3.773   2.344  13.637  1.4144  0.1022 -0.5711
  532TMC3    C3 7895   3.773   2.217  13.687 -0.6358  0.2221 -0.1588
  532TMC3    C4 7896   3.943   2.400  13.785 -0.4599 -0.6122  0.7126
  532TMC3    C5 7897   3.933   2.281  13.844 -0.4580 -0.3010 -0.2928
  532TMC3    C6 7898   3.854   2.177  13.795 -0.1217  0.4310  0.5688
  532TMC3     C 7899   3.925   2.502  13.569 -0.4939 -0.3039 -0.0047
  532TMC3     O 7900   3.888   2.473  13.456 -0.0661 -0.1891 -0.0934
  532TMC3     H 7901   3.698   2.372  13.564 -0.5861 -0.4696  1.2733
  532TMC3    H1 7902   4.029   2.462  13.804 -0.6475  0.4341 -1.8120
  532TMC3    H2 7903   3.876   2.078  13.831 -2.1192 -0.3620 -0.4189
  532TMC3    C7 7904   4.042   2.230  13.930 -0.0643  0.0960 -0.7655
  532TMC3    C8 7905   3.769   2.117  13.580  0.2675 -0.8526 -0.0692
  532TMC3    O1 7906   4.025   2.219  14.050 -0.1400  0.3956 -0.4896
  532TMC3    O2 7907   3.760   2.000  13.614 -0.0143 -0.4739  0.6625
  533TMC3    C1 7908   0.482   3.812  14.312 -0.2184 -0.3628 -0.6215
  533TMC3    C2 7909   0.605   3.857  14.279  0.1536  0.6266  0.6949
  533TMC3    C3 7910   0.672   3.927  14.371 -0.9601 -0.0597 -0.6728
  533TMC3    C4 7911   0.435   3.823  14.439  0.3134  0.4204  0.5986
  533TMC3    C5 7912   0.520   3.871  14.533  0.1883 -0.1364 -0.6410
  533TMC3    C6 7913   0.641   3.915  14.503 -0.2792 -0.4766 -0.5840
  533TMC3     C 7914   0.434   3.695  14.242 -0.1954  0.2284  0.5606
  533TMC3     O 7915   0.393   3.707  14.129  0.6757  0.2523  0.2510
  533TMC3     H 7916   0.647   3.844  14.180  1.1636  0.1642  1.1821
  533TMC3    H1 7917   0.337   3.781  14.461 -0.1578  1.3390  0.2305
  533TMC3    H2 7918   0.702   3.958  14.583 -0.8773 -1.2366  0.2811
  533TMC3    C7 7919   0.513   3.803  14.660  0.3587  0.2032  0.5011
  533TMC3    C8 7920   0.812   3.957  14.342  0.0761  0.1262  0.0940
  533TMC3    O1 7921   0.464   3.692  14.661  0.2766 -0.5672 -0.0808
  533TMC3    O2 7922   0.895   3.928  14.431  0.5725  0.4176  0.1578
  534MPD2     C 7923   3.505   3.932   1.759 -0.4083 -1.4814 -0.2888
  534MPD2    C1 7924   3.422   4.009   1.681  0.4103 -0.5351 -0.4004
  534MPD2    C2 7925   3.300   3.955   1.650  0.5642  0.2923  0.5918
  534MPD2    C3 7926   3.266   3.825   1.691  0.6154 -0.2440  0.2812
  534MPD2    C4 7927   3.353   3.743   1.757  0.1940  0.5791 -0.4366
  534MPD2    C5 7928   3.475   3.798   1.794  0.4677 -0.1462  0.5083
  534MPD2     H 7929   3.244   4.012   1.577  0.1690  0.3730  0.9602
  534MPD2    H1 7930   3.318   3.643   1.782  1.6761 -0.2060 -1.4586
  534MPD2    H2 7931   3.594   3.980   1.798 -0.3853 -1.4909 -0.3308
  534MPD2    H3 7932   3.549   3.739   1.847 -1.2781 -3.2879 -0.5075
  534MPD2     N 7933   3.141   3.761   1.659 -0.4691  0.3686 -0.2090
  534MPD2    H5 7934   3.129   3.667   1.697 -1.2559  0.6052  0.1357
  534MPD2    N1 7935   3.449   4.139   1.633  0.2838 -0.1214 -0.6488
  534MPD2    H7 7936   3.372   4.181   1.583  0.4584 -0.0338 -0.8446
  535TMC3    C1 7937   2.914   3.743   1.581  0.0944  0.6231  0.0762
  535TMC3    C2 7938   2.801   3.809   1.540 -0.0538  0.2401  0.1004
  535TMC3    C3 7939   2.713   3.751   1.455 -0.5000 -0.0600 -0.3697
  535TMC3    C4 7940   2.940   3.622   1.523  0.2272 -0.0686 -0.4595
  535TMC3    C5 7941   2.857   3.574   1.427  0.1478 -0.3780 -1.0090
  535TMC3    C6 7942   2.735   3.632   1.398  0.1972  0.5342  0.3655
  535TMC3     C 7943   3.033   3.824   1.596 -0.0909  0.2554  0.0582
  535TMC3     O 7944   3.032   3.938   1.554 -0.0682  0.2710 -0.8283
  535TMC3     H 7945   2.771   3.904   1.582  2.0273  1.1367 -0.4661
  535TMC3    H1 7946   3.034   3.569   1.534 -1.0170 -1.6436  2.6629
  535TMC3    H2 7947   2.664   3.574   1.341  1.8632 -2.2803  1.1453
  535TMC3    C7 7948   2.910   3.477   1.337 -0.5880  0.1903 -0.2173
  535TMC3    C8 7949   2.598   3.828   1.405  0.3762  0.8408 -0.4912
  535TMC3    O1 7950   2.987   3.395   1.387 -0.2733 -0.0355 -0.3168
  535TMC3    O2 7951   2.505   3.763   1.367 -0.2549 -0.0398 -0.3799
  536MPD2     C 7952   2.111   2.914  16.781 -0.1407  0.5913  0.3084
  536MPD2    C1 7953   1.992   2.873  16.823 -0.3086  0.5896  0.2837
  536MPD2    C2 7954   1.888   2.847  16.736  0.5533 -0.3114 -0.2581
  536MPD2    C3 7955   1.911   2.879  16.599 -0.0036 -0.0310  0.6641
  536MPD2    C4 7956   2.028   2.947  16.566  0.0831  0.2099  0.1912
  536MPD2    C5 7957   2.130   2.951  16.654  0.1777  0.5136 -0.1216
  536MPD2     H 7958   1.793   2.803  16.765  1.0887 -0.6018  1.0259
  536MPD2    H1 7959   2.060   2.974  16.466  0.3570 -0.4931  0.0862
  536MPD2    H2 7960   2.195   2.931  16.847 -0.6083  1.4720  0.6746
  536MPD2    H3 7961   2.226   2.977  16.611  1.0184 -1.6982  0.4214
  536MPD2     N 7962   1.812   2.890  16.499 -0.5194  0.1527 -0.3435
  536MPD2    H5 7963   1.832   2.925  16.406  0.3415  0.6574  0.0349
  536MPD2    N1 7964   1.989   2.845  16.960 -0.0830  0.4611  0.6583
  536MPD2    H7 7965   2.064   2.870  17.024 -0.6416  1.6255  0.8498
  537TMC3    C1 7966   1.911   2.767  17.161  0.1510 -0.1289 -0.1567
  537TMC3    C2 7967   1.979   2.864  17.235 -0.3398 -0.2081 -0.0764
  537TMC3    C3 7968   1.981   2.851  17.373 -0.5782  0.6050  0.4421
  537TMC3    C4 7969   1.833   2.675  17.215  0.5235 -0.2975 -0.2885
  537TMC3    C5 7970   1.837   2.670  17.348  0.0887 -0.2208  0.5321
  537TMC3    C6 7971   1.915   2.754  17.429  0.5705 -0.1264  0.5969
  537TMC3     C 7972   1.885   2.776  17.018  0.6822  1.0048 -0.4331
  537TMC3     O 7973   1.802   2.702  16.969  0.3496 -0.0014 -0.3188
  537TMC3     H 7974   2.005   2.956  17.184 -0.4731  1.6004  3.1407
  537TMC3    H1 7975   1.765   2.606  17.166 -0.9201 -0.0517  1.3871
  537TMC3    H2 7976   1.913   2.743  17.537 -1.2683 -3.0355  0.2847
  537TMC3    C7 7977   1.782   2.554  17.419 -0.1467 -0.3681  0.6444
  537TMC3    C8 7978   2.071   2.931  17.453  0.8563 -0.3135  0.1030
  537TMC3    O1 7979   1.739   2.580  17.531  0.2177  0.1660 -0.2047
  537TMC3    O2 7980   2.059   2.941  17.577  0.5209 -0.0180 -0.1338
  538TMC3    C1 7981   2.725   1.529  10.620  0.1458  0.4487 -0.0273
  538TMC3    C2 7982   2.787   1.420  10.561 -0.0239  0.4074  0.1940
  538TMC3    C3 7983   2.724   1.362  10.450  0.8936 -0.5225 -0.4290
  538TMC3    C4 7984   2.608   1.578  10.577 -0.3172  0.1681  0.3405
  538TMC3    C5 7985   2.549   1.516  10.471  0.5781  0.0940  0.7655
  538TMC3    C6 7986   2.603   1.410  10.411 -0.2204  0.5164  0.5217
  538TMC3     C 7987   2.772   1.567  10.753 -0.0276  0.3849  0.2533
  538TMC3     O 7988   2.682   1.604  10.825  0.0937 -0.2015 -0.7580
  538TMC3     H 7989   2.862   1.366  10.618  0.5850 -0.2304 -1.1920
  538TMC3    H1 7990   2.566   1.670  10.614 -0.0274  2.0080 -3.9377
  538TMC3    H2 7991   2.560   1.364  10.323 -0.6865  1.2251  0.3775
  538TMC3    C7 7992   2.418   1.571  10.431 -0.3954 -0.7345 -0.0606
  538TMC3    C8 7993   2.803   1.264  10.373 -0.6620  0.6754 -0.5221
  538TMC3    O1 7994   2.338   1.485  10.394  0.3409  0.5845 -0.0671
  538TMC3    O2 7995   2.754   1.178  10.298  0.4032  0.6166 -0.0145
  539MPD2     C 7996   2.382   0.868  11.760  0.7750  0.1678  0.2354
  539MPD2    C1 7997   2.386   0.897  11.628  0.1442 -0.1194 -0.0816
  539MPD2    C2 7998   2.356   1.022  11.592 -0.3966 -0.5731  0.1498
  539MPD2    C3 7999   2.324   1.122  11.685 -0.4971 -0.5924 -0.1644
  539MPD2    C4 8000   2.318   1.090  11.820 -0.6556  0.5691  0.1962
  539MPD2    C5 8001   2.347   0.962  11.856  0.8036  0.6577  0.0393
  539MPD2     H 8002   2.356   1.032  11.484  1.2498  1.6800  0.3431
  539MPD2    H1 8003   2.294   1.158  11.900 -2.9825  0.4289 -0.3821
  539MPD2    H2 8004   2.396   0.765  11.791 -3.1928 -0.3707  0.2229
  539MPD2    H3 8005   2.367   0.948  11.961 -0.9736  0.4541  0.3595
  539MPD2     N 8006   2.286   1.251  11.641  0.8469  0.5609  0.4662
  539MPD2    H5 8007   2.291   1.317  11.718  2.0621 -0.3688  1.1799
  539MPD2    N1 8008   2.418   0.807  11.522  0.2755 -0.0885  0.4165
  539MPD2    H7 8009   2.401   0.838  11.427 -0.8442  0.7202  0.8779
  540TMC3    C1 8010   2.263   1.432  11.489  0.6870  0.9839  0.4333
  540TMC3    C2 8011   2.263   1.476  11.360  0.3101  0.2105  0.4868
  540TMC3    C3 8012   2.278   1.613  11.338 -0.6177  0.4920 -0.5793
  540TMC3    C4 8013   2.249   1.521  11.590  0.2661 -0.6645  0.6453
  540TMC3    C5 8014   2.241   1.651  11.566  0.2440 -0.5213  0.6297
  540TMC3    C6 8015   2.275   1.708  11.439 -0.4862 -0.1643 -0.6903
  540TMC3     C 8016   2.265   1.293  11.507 -0.4723 -0.1600  0.0464
  540TMC3     O 8017   2.246   1.225  11.407  0.2926  0.2832 -0.4188
  540TMC3     H 8018   2.294   1.402  11.287 -0.5650 -0.5368  0.8658
  540TMC3    H1 8019   2.231   1.482  11.690 -0.2926 -0.3837  0.6551
  540TMC3    H2 8020   2.282   1.813  11.415 -0.7624  0.4347  1.9462
  540TMC3    C7 8021   2.191   1.734  11.675  0.8006  0.3490 -0.5060
  540TMC3    C8 8022   2.244   1.659  11.205 -0.3183  0.5421  0.6183
  540TMC3    O1 8023   2.113   1.678  11.750 -0.2631 -0.3392 -0.1157
  540TMC3    O2 8024   2.293   1.762  11.164 -0.4267 -0.1241 -0.2066
  541MPD2     C 8025   0.829   2.781  13.139  0.7995  0.3254  0.7921
  541MPD2    C1 8026   0.919   2.695  13.070 -0.3860  0.4158 -0.6897
  541MPD2    C2 8027   0.947   2.718  12.935  0.0686  0.7804 -0.0487
  541MPD2    C3 8028   0.892   2.827  12.872  0.5727  0.0332 -0.0849
  541MPD2    C4 8029   0.787   2.896  12.931 -0.3064 -0.0697  0.2715
  541MPD2    C5 8030   0.767   2.882  13.067 -0.1121 -0.0069 -0.3569
  541MPD2     H 8031   1.004   2.640  12.887 -0.5556 -0.4227  1.1697
  541MPD2    H1 8032   0.734   2.977  12.883  1.3432  0.8015 -0.0810
  541MPD2    H2 8033   0.798   2.769  13.242  2.3498  2.5249  1.5054
  541MPD2    H3 8034   0.687   2.940  13.111  0.9121  1.1482  0.0073
  541MPD2     N 8035   0.919   2.851  12.734 -0.2594  0.3653  1.2181
  541MPD2    H5 8036   0.877   2.932  12.690 -1.4566  0.6078  2.8543
  541MPD2    N1 8037   0.943   2.571  13.136  0.0239  0.1930  0.2390
  541MPD2    H7 8038   0.886   2.555  13.218 -0.3392  0.7182  0.0918
  542TMC3    C1 8039   1.030   2.841  12.523  0.3312 -0.2431  0.0662
  542TMC3    C2 8040   1.106   2.767  12.433 -0.0739  0.4598  0.5377
  542TMC3    C3 8041   1.129   2.816  12.308 -0.0460  0.3203 -0.3873
  542TMC3    C4 8042   0.974   2.963  12.492 -1.0381 -0.0170 -0.1770
  542TMC3    C5 8043   0.988   3.008  12.360 -0.2622  0.4272  0.1686
  542TMC3    C6 8044   1.069   2.931  12.273 -0.8014  0.6747  0.4786
  542TMC3     C 8045   1.018   2.784  12.656 -0.5523  0.5523  0.9345
  542TMC3     O 8046   1.081   2.686  12.683 -0.1582  0.1858  0.2856
  542TMC3     H 8047   1.143   2.667  12.454 -0.1122  0.3779  0.2161
  542TMC3    H1 8048   0.906   3.009  12.563  0.9277  0.8537  1.1331
  542TMC3    H2 8049   1.107   2.977  12.183 -1.7425 -1.3087 -0.9253
  542TMC3    C7 8050   0.926   3.132  12.313  0.0851  0.2798 -0.1091
  542TMC3    C8 8051   1.141   2.724  12.195 -0.1263  0.7055 -0.1596
  542TMC3    O1 8052   0.996   3.196  12.230 -0.2710  0.1297  0.0555
  542TMC3    O2 8053   1.081   2.743  12.090  0.7800  0.3605  0.2065
  543TMC3    C1 8054   4.543   3.328  17.194 -0.0949  0.3649 -0.6161
  543TMC3    C2 8055   4.614   3.223  17.227  0.0189 -0.0404 -0.4114
  543TMC3    C3 8056   4.572   3.138  17.324  0.2929 -0.3473  0.2935
  543TMC3    C4 8057   4.416   3.351  17.250 -0.6943  0.2623  0.1420
  543TMC3    C5 8058   4.372   3.263  17.343 -0.7532 -0.6756 -0.0179
  543TMC3    C6 8059   4.445   3.156  17.382  0.0544 -0.4654 -0.4734
  543TMC3     C 8060   4.595   3.438  17.119  0.3864 -0.4061 -0.5575
  543TMC3     O 8061   4.524   3.536  17.102 -0.0726 -0.5095 -0.0801
  543TMC3     H 8062   4.703   3.201  17.169  2.2703  0.7934  2.6557
  543TMC3    H1 8063   4.380   3.452  17.233 -1.7476 -0.0426  0.6013
  543TMC3    H2 8064   4.404   3.085  17.453  0.5973  0.9143  1.2115
  543TMC3    C7 8065   4.235   3.282  17.391  0.2945  0.4235  0.0192
  543TMC3    C8 8066   4.663   3.034  17.357 -0.1956  0.1310  0.5751
  543TMC3    O1 8067   4.183   3.176  17.423 -0.1949 -0.0251 -0.5746
  543TMC3    O2 8068   0.013   2.978  17.279 -0.7381  0.3386  1.1695
  544MPD2     C 8069   0.186   2.834   0.043 -0.4685 -0.5165 -0.1787
  544MPD2    C1 8070   0.232   2.858  17.620 -0.7973 -0.2109  0.5547
  544MPD2    C2 8071   0.148   2.924  17.536  0.0564  0.5671  0.9581
  544MPD2    C3 8072   0.027   2.967  17.583  0.7959  0.0408  0.4883
  544MPD2    C4 8073   4.713   2.949   0.008 -0.4355  0.0420 -0.6870
  544MPD2    C5 8074   0.066   2.880   0.091  0.1451 -0.1034  0.1248
  544MPD2     H 8075   0.173   2.934  17.431 -1.0015  2.3977  0.8834
  544MPD2    H1 8076   4.610   2.974   0.029  0.0556  1.2628  0.2752
  544MPD2    H2 8077   0.229   2.762   0.112 -1.6696 -1.9673 -0.9385
  544MPD2    H3 8078   0.031   2.853   0.190  1.0438 -1.9470 -0.0525
  544MPD2     N 8079   4.667   3.045  17.494 -0.0361 -0.3625  0.4189
  544MPD2    H5 8080   4.602   3.112  17.533 -0.4020 -0.4578 -0.0259
  544MPD2    N1 8081   0.370   2.809  17.591 -0.3345  0.4672  0.3845
  544MPD2    H7 8082   0.420   2.762  17.666 -0.0643 -2.7219 -1.8111
  545TMC3    C1 8083   0.565   2.738  17.465 -0.1674 -0.0918 -0.0177
  545TMC3    C2 8084   0.610   2.717  17.338 -0.3517 -0.0010 -0.8932
  545TMC3    C3 8085   0.711   2.629  17.324  0.1802  0.5870 -0.0509
  545TMC3    C4 8086   0.598   2.657  17.571 -0.0531  0.1263  0.6135
  545TMC3    C5 8087   0.693   2.563  17.554  0.2473  0.7431  0.7515
  545TMC3    C6 8088   0.751   2.545  17.428  0.4478 -0.4708 -0.0322
  545TMC3     C 8089   0.441   2.818  17.472 -0.6895  0.6029 -0.1341
  545TMC3     O 8090   0.408   2.867  17.368 -0.2724 -0.1097  0.1513
  545TMC3     H 8091   0.576   2.773  17.252  2.1496 -0.0538 -1.9199
  545TMC3    H1 8092   0.550   2.661  17.669 -0.0917  0.0259  0.5992
  545TMC3    H2 8093   0.842   2.487  17.417 -0.1489 -1.2117 -1.1045
  545TMC3    C7 8094   0.695   2.448  17.642  0.2921  0.0564 -0.5082
  545TMC3    C8 8095   0.807   2.668  17.229  0.2375 -0.4696  0.1381
  545TMC3    O1 8096   0.662   2.466   0.057  0.2045 -0.3458  0.1550
  545TMC3    O2 8097   0.924   2.648  17.259  0.2145 -0.0276  0.5938
  546MPD2     C 8098   1.949   3.606   0.134 -0.1411  0.2481 -0.2224
  546MPD2    C1 8099   1.858   3.591   0.030 -0.6383 -0.7500  1.0212
  546MPD2    C2 8100   1.906   3.614  17.602 -0.0220 -0.2260  0.7565
  546MPD2    C3 8101   2.042   3.643  17.588 -1.0833 -0.4701  0.2608
  546MPD2    C4 8102   2.130   3.652  17.691 -0.6408 -0.4264 -0.5054
  546MPD2    C5 8103   2.085   3.634   0.118 -1.1223  0.7481  0.3011
  546MPD2     H 8104   1.843   3.603  17.515  1.2231  0.0102 -0.1835
  546MPD2    H1 8105   2.236   3.671  17.677 -1.0647  1.9852 -0.4363
  546MPD2    H2 8106   1.915   3.599   0.237  0.8254 -1.6891 -0.0192
  546MPD2    H3 8107   2.151   3.635   0.204 -0.9312  0.1572  0.1658
  546MPD2     N 8108   2.103   3.655  17.463  0.0786 -0.9970 -0.0131
  546MPD2    H5 8109   2.202   3.672  17.474  0.0519 -0.5598 -0.4258
  546MPD2    N1 8110   1.724   3.568   0.070  0.0462  0.4389  0.0878
  546MPD2    H7 8111   1.705   3.572   0.169  1.8900  2.7402  0.3410
  547TMC3    C1 8112   1.502   3.512   0.045 -0.0412 -0.1229 -0.3420
  547TMC3    C2 8113   1.392   3.521  17.665  0.0002  0.0957 -0.3540
  547TMC3    C3 8114   1.281   3.448  17.697  0.3805  0.5279  0.3745
  547TMC3    C4 8115   1.502   3.433   0.156  0.2291 -0.1753  0.7118
  547TMC3    C5 8116   1.388   3.363   0.177  0.7901  0.0434 -0.7967
  547TMC3    C6 8117   1.268   3.377   0.106 -0.1422 -0.0115 -0.0919
  547TMC3     C 8118   1.624   3.545  17.681 -0.4382 -0.6123  0.3207
  547TMC3     O 8119   1.633   3.526  17.563  0.2967  0.4980  0.0085
  547TMC3     H 8120   1.395   3.588  17.580  1.1459 -1.8499 -1.8403
  547TMC3    H1 8121   1.587   3.430   0.223 -0.3372 -3.3221  1.2999
  547TMC3    H2 8122   1.185   3.311   0.129 -0.9478  1.3410  0.9091
  547TMC3    C7 8123   1.379   3.272   0.291  1.0526 -0.5122  0.2560
  547TMC3    C8 8124   1.177   3.434  17.598  0.1852 -0.2538 -0.2968
  547TMC3    O1 8125   1.270   3.265   0.347  0.1070 -0.6703  0.3116
  547TMC3    O2 8126   1.211   3.458  17.483  0.5385  0.5272 -0.1277
  548MPD2     C 8127   1.687   4.653  12.065  0.1383 -0.3073 -0.0055
  548MPD2    C1 8128   1.641   4.533  12.109 -0.0331 -0.3716  0.2793
  548MPD2    C2 8129   1.727   4.430  12.117  0.2754  1.1114  0.2990
  548MPD2    C3 8130   1.858   4.442  12.090  0.1191  0.2040 -0.6060
  548MPD2    C4 8131   1.910   4.567  12.067 -0.0007  0.7980  0.1873
  548MPD2    C5 8132   1.821   4.670  12.048 -0.2187 -0.7946  0.5430
  548MPD2     H 8133   1.691   4.331  12.142  0.4549  1.1241  0.6009
  548MPD2    H1 8134   2.012   4.587  12.038 -0.1533  0.0037 -0.8975
  548MPD2    H2 8135   1.624   0.016  12.061  1.5658  0.7150  0.2079
  548MPD2    H3 8136   1.878   0.034  12.027  1.3570 -1.1491  3.3506
  548MPD2     N 8137   1.950   4.342  12.119 -0.0390 -0.2463 -0.6462
  548MPD2    H5 8138   2.050   4.359  12.122  0.4180 -2.9469 -0.2522
  548MPD2    N1 8139   1.502   4.527  12.135 -0.1136  0.6700  0.1467
  548MPD2    H7 8140   1.449   4.609  12.107  0.3527  1.7248  2.3248
  549TMC3    C1 8141   1.298   4.441  12.218 -1.3116 -0.1790  0.1776
  549TMC3    C2 8142   1.225   4.523  12.139 -0.2936 -0.0636  0.8220
  549TMC3    C3 8143   1.091   4.508  12.128 -1.1225  0.0063  0.4494
  549TMC3    C4 8144   1.234   4.335  12.278 -0.1002  0.2642  0.0050
  549TMC3    C5 8145   1.102   4.313  12.257 -0.0499 -0.8477 -0.1465
  549TMC3    C6 8146   1.025   4.399  12.182  0.5197 -0.4138 -0.6015
  549TMC3     C 8147   1.438   4.428  12.213  0.3883 -0.4380  0.2829
  549TMC3     O 8148   1.497   4.335  12.267  0.0385 -0.5332 -0.5266
  549TMC3     H 8149   1.278   4.602  12.088 -2.3901  1.0789  0.4105
  549TMC3    H1 8150   1.287   4.264  12.340  0.2720 -0.0808 -0.7050
  549TMC3    H2 8151   0.920   4.392  12.159  0.2068 -0.6404  0.8946
  549TMC3    C7 8152   1.044   4.179  12.270 -0.3451  0.0328  0.1227
  549TMC3    C8 8153   1.012   4.614  12.079  0.4900  0.7364  0.1727
  549TMC3    O1 8154   0.929   4.174  12.237  0.4084  0.6014 -0.0967
  549TMC3    O2 8155   0.906   4.589  12.022 -1.3070  0.3527 -0.4982
  550TMC3    C1 8156   0.510   2.486  12.285 -0.3877 -0.6192 -0.3023
  550TMC3    C2 8157   0.450   2.547  12.393  0.1004 -0.7757  0.1548
  550TMC3    C3 8158   0.413   2.680  12.379 -0.3487  0.1728  0.5019
  550TMC3    C4 8159   0.517   2.548  12.166  0.1529  0.5098  0.5068
  550TMC3    C5 8160   0.474   2.675  12.149  0.2080 -0.5100 -0.0093
  550TMC3    C6 8161   0.430   2.747  12.254  0.1399  0.0449  0.4671
  550TMC3     C 8162   0.469   2.353  12.268  0.9388 -0.6168  0.4060
  550TMC3     O 8163   0.523   2.263  12.337 -0.3018  0.4132 -0.3528
  550TMC3     H 8164   0.441   2.483  12.480 -1.1826  2.4439  2.4149
  550TMC3    H1 8165   0.550   2.504  12.073  0.7643  0.6586  0.6585
  550TMC3    H2 8166   0.378   2.840  12.239 -0.0172 -0.5635 -2.6799
  550TMC3    C7 8167   0.371   2.678  12.049  0.1451 -0.9040  0.5147
  550TMC3    C8 8168   0.311   2.733  12.464 -0.2794 -0.4589  0.5038
  550TMC3    O1 8169   0.319   2.576  12.017 -0.2020  0.0084  0.6047
  550TMC3    O2 8170   0.294   2.855  12.451  0.8848 -0.5205  0.2728
  551TMC3    C1 8171   2.877   0.063  13.209 -0.6555  0.3282  0.1629
  551TMC3    C2 8172   3.000   0.080  13.141  0.2352  0.1836  0.7069
  551TMC3    C3 8173   3.092   0.150  13.212 -0.1622 -0.1810  0.0656
  551TMC3    C4 8174   2.857   0.124  13.333  0.2885  0.3645 -0.3922
  551TMC3    C5 8175   2.952   0.190  13.399 -0.4493  0.4249  0.6561
  551TMC3    C6 8176   3.070   0.206  13.335  0.2784 -0.5868  0.0611
  551TMC3     C 8177   2.759   0.051  13.119  0.0145 -0.8820 -0.1274
  551TMC3     O 8178   2.788   0.013  13.010 -0.3347 -0.0120  0.0490
  551TMC3     H 8179   3.009   0.046  13.038 -0.3590  0.8494  0.4353
  551TMC3    H1 8180   2.764   0.126  13.388 -0.9730  1.0368 -2.5481
  551TMC3    H2 8181   3.152   0.252  13.389  0.4634  0.2150 -0.9118
  551TMC3    C7 8182   2.940   0.221  13.541  0.1202  0.4716  0.5063
  551TMC3    C8 8183   3.178   0.231  13.127  1.3524 -0.1861  0.3015
  551TMC3    O1 8184   2.863   0.145  13.599  0.2311  0.1598  0.4434
  551TMC3    O2 8185   3.220   0.173  13.028  0.2622  0.2116  0.1446
  552MPD2     C 8186   4.112   1.921  14.229  0.0523 -0.1576 -0.1122
  552MPD2    C1 8187   4.193   1.837  14.161  0.5812 -0.6148 -0.0517
  552MPD2    C2 8188   4.308   1.810  14.227 -0.3182  0.2413  0.5942
  552MPD2    C3 8189   4.326   1.833  14.358  0.7956 -0.8242  0.3728
  552MPD2    C4 8190   4.223   1.886  14.431 -1.3631  0.4503  0.0113
  552MPD2    C5 8191   4.113   1.938  14.365 -0.2933 -0.5029  0.7547
  552MPD2     H 8192   4.377   1.760  14.159 -1.2333 -1.4206  0.8805
  552MPD2    H1 8193   4.228   1.886  14.539 -0.3487 -1.4688 -0.0380
  552MPD2    H2 8194   4.026   1.969  14.184  2.5886  3.7202 -0.7498
  552MPD2    H3 8195   4.038   1.980  14.430  1.8689  1.9865  1.6203
  552MPD2     N 8196   4.450   1.801  14.427  0.0217 -0.2700 -0.2990
  552MPD2    H5 8197   4.450   1.808  14.528  3.7327 -0.7865 -0.2657
  552MPD2    N1 8198   4.176   1.802  14.029 -0.3981  1.2794 -0.0233
  552MPD2    H7 8199   4.257   1.753  13.992 -0.3817 -0.0122  1.7397
  553TMC3    C1 8200   4.049   1.757  13.832 -0.2427 -0.7551 -0.7648
  553TMC3    C2 8201   4.037   1.842  13.726 -0.1758  0.4783  0.1355
  553TMC3    C3 8202   4.091   1.802  13.605 -0.4254  0.9299 -0.2474
  553TMC3    C4 8203   4.109   1.635  13.822 -1.2544 -0.2787  0.3304
  553TMC3    C5 8204   4.185   1.606  13.714  0.1535 -0.0774  0.2328
  553TMC3    C6 8205   4.176   1.692  13.610  0.3086  0.1127  0.1034
  553TMC3     C 8206   4.063   1.824  13.951 -0.1599 -0.4233 -0.2828
  553TMC3     O 8207   3.959   1.875  13.987 -1.0117  0.5679  0.1681
  553TMC3     H 8208   3.988   1.937  13.744  0.7564  1.0549 -0.3988
  553TMC3    H1 8209   4.123   1.576  13.912  0.7143  0.6557  0.6378
  553TMC3    H2 8210   4.252   1.680  13.534  1.4634 -0.0420  1.2716
  553TMC3    C7 8211   4.317   1.564  13.747  0.0070  0.2401 -0.4813
  553TMC3    C8 8212   4.129   1.910  13.514 -0.6990  0.4590 -0.4527
  553TMC3    O1 8213   4.348   1.577  13.866 -0.5982 -0.7719 -0.0183
  553TMC3    O2 8214   4.163   2.017  13.565 -0.0639  0.2227  0.6070
  554TMC3    C1 8215   1.384   1.430  11.901  0.3146 -0.3698  0.0946
  554TMC3    C2 8216   1.288   1.385  11.812 -0.5472  0.3157  0.0270
  554TMC3    C3 8217   1.307   1.415  11.678  0.2557 -0.0225  0.2316
  554TMC3    C4 8218   1.498   1.500  11.851 -0.1595  0.3365 -0.1483
  554TMC3    C5 8219   1.515   1.515  11.714 -0.2795  0.3787 -0.6375
  554TMC3    C6 8220   1.419   1.476  11.627  0.4419  0.0805 -0.3747
  554TMC3     C 8221   1.396   1.354  12.025  0.0666  0.5710  0.2595
  554TMC3     O 8222   1.291   1.310  12.074  0.2120 -0.2135  0.2967
  554TMC3     H 8223   1.194   1.346  11.847 -0.3504 -1.9330 -1.9989
  554TMC3    H1 8224   1.580   1.527  11.916 -0.0315 -2.5398  0.9013
  554TMC3    H2 8225   1.414   1.519  11.527 -1.8181  0.6944  0.0131
  554TMC3    C7 8226   1.655   1.551  11.671  0.7573 -0.3162 -0.0615
  554TMC3    C8 8227   1.213   1.366  11.578 -0.2334 -0.3199 -0.8714
  554TMC3    O1 8228   1.739   1.591  11.747  0.3624  0.4477  0.0107
  554TMC3    O2 8229   1.257   1.348  11.465  0.2394 -0.0158  0.5086
  555TMC3    C1 8230   0.960   0.093  14.881  0.1645  0.2836 -0.3250
  555TMC3    C2 8231   0.958   0.178  14.986 -0.0775  0.2251  0.3440
  555TMC3    C3 8232   1.032   0.139  15.098 -0.5349  0.6978  0.8574
  555TMC3    C4 8233   1.007   4.684  14.891  0.3922 -0.2882  0.1190
  555TMC3    C5 8234   1.063   4.657  15.016  0.9763 -0.0307  0.1083
  555TMC3    C6 8235   1.085   0.018  15.113 -0.4307  0.1007  0.3837
  555TMC3     C 8236   0.960   0.147  14.746  0.1407  0.0995  0.1525
  555TMC3     O 8237   1.012   0.088  14.653  0.0704  0.0074 -0.0709
  555TMC3     H 8238   0.923   0.280  14.974 -0.1623 -0.0845 -2.0598
  555TMC3    H1 8239   0.993   4.614  14.810 -0.6383 -0.4398  0.4239
  555TMC3    H2 8240   1.141   4.706  15.198  1.9177  0.0011 -1.1978
  555TMC3    C7 8241   1.107   4.529  15.037 -0.9511 -0.0650  0.7020
  555TMC3    C8 8242   1.065   0.238  15.198 -0.0428 -0.4188 -0.1095
  555TMC3    O1 8243   1.173   4.475  14.947  0.2149 -0.1078  0.7436
  555TMC3    O2 8244   1.077   0.356  15.163 -0.0306 -0.6697 -0.5707
  556MPD2     C 8245   4.041   1.983  10.538 -0.1208  0.4625  0.2362
  556MPD2    C1 8246   3.908   1.968  10.578 -0.2820  0.3537 -0.1634
  556MPD2    C2 8247   3.836   1.873  10.508 -0.7516 -0.1715  0.1669
  556MPD2    C3 8248   3.882   1.809  10.391 -0.0466  0.1372  0.3034
  556MPD2    C4 8249   4.013   1.826  10.359 -0.2790  0.3464 -0.4844
  556MPD2    C5 8250   4.090   1.913  10.435  1.2873 -0.1807 -0.4079
  556MPD2     H 8251   3.728   1.865  10.517 -0.9983  1.6989 -1.1109
  556MPD2    H1 8252   4.062   1.773  10.278 -1.0530 -1.1471  0.0387
  556MPD2    H2 8253   4.105   2.056  10.588 -0.6899  0.9458  0.2585
  556MPD2    H3 8254   4.193   1.934  10.408  1.0716  3.1931  1.4388
  556MPD2     N 8255   3.784   1.744  10.305 -0.1680 -0.1632  0.4102
  556MPD2    H5 8256   3.687   1.748  10.332  0.1115 -1.4184  1.5614
  556MPD2    N1 8257   3.847   2.031  10.691 -0.3777  0.7870 -0.5724
  556MPD2    H7 8258   3.757   1.993  10.717  0.1427  1.6183  2.5403
  557TMC3    C1 8259   3.714   1.617  10.116  0.3076  0.0609 -0.1265
  557TMC3    C2 8260   3.728   1.590   9.977  0.8441  0.0386 -0.1830
  557TMC3    C3 8261   3.618   1.517   9.926  0.7382  0.4316 -0.2207
  557TMC3    C4 8262   3.612   1.564  10.193  0.0047 -0.2907  0.4124
  557TMC3    C5 8263   3.519   1.485  10.132  0.3310 -0.1114 -0.2841
  557TMC3    C6 8264   3.519   1.459  10.000 -0.7431 -0.6730 -0.3970
  557TMC3     C 8265   3.817   1.698  10.174  0.3905 -0.1888 -0.4937
  557TMC3     O 8266   3.917   1.720  10.104  0.1887 -0.4569 -0.2052
  557TMC3     H 8267   3.813   1.621   9.916  0.7794  1.3719  0.4019
  557TMC3    H1 8268   3.611   1.589  10.299 -1.6276  0.9338  0.1058
  557TMC3    H2 8269   3.432   1.421   9.947 -1.4931  0.4832  0.0223
  557TMC3    C7 8270   3.412   1.430  10.217  0.4656  0.1854 -0.6353
  557TMC3    C8 8271   3.657   1.426   9.813  0.5981 -0.3280 -0.0146
  557TMC3    O1 8272   3.391   1.484  10.320  0.2628  0.1494  0.6979
  557TMC3    O2 8273   3.774   1.400   9.801  0.3082  0.2226 -0.2414
  558TMC3    C1 8274   1.132   0.229   9.722 -0.0911 -0.2218 -0.3250
  558TMC3    C2 8275   1.090   0.115   9.786 -1.0513 -0.0723 -0.3936
  558TMC3    C3 8276   0.959   0.078   9.769 -0.1644  0.2342 -0.4967
  558TMC3    C4 8277   1.049   0.315   9.657 -0.2768  0.1976 -0.2211
  558TMC3    C5 8278   0.920   0.277   9.644 -0.0142 -0.5460  0.5210
  558TMC3    C6 8279   0.873   0.161   9.705  0.0999 -0.1588  0.2488
  558TMC3     C 8280   1.271   0.254   9.710  0.0220 -0.4732  0.2646
  558TMC3     O 8281   1.309   0.364   9.740 -0.5206 -0.5133 -0.1910
  558TMC3     H 8282   1.161   0.044   9.826 -1.1045 -0.9502 -1.8717
  558TMC3    H1 8283   1.090   0.410   9.625  1.6460 -0.9896 -1.2790
  558TMC3    H2 8284   0.767   0.139   9.691 -0.6379  2.4064  1.7428
  558TMC3    C7 8285   0.855   0.313   9.524  0.4193  0.0496  0.0055
  558TMC3    C8 8286   0.900   4.702   9.853 -0.1047 -0.1438  0.0801
  558TMC3    O1 8287   0.903   0.413   9.473 -0.3079  0.0043 -0.0289
  558TMC3    O2 8288   0.808   4.638   9.806  0.2114 -0.1106  0.1714
  559MPD2     C 8289   1.101   0.685  10.456  0.2442 -0.2755  0.4603
  559MPD2    C1 8290   1.026   0.638  10.566 -0.2609 -0.3072  0.3051
  559MPD2    C2 8291   1.091   0.645  10.685  0.8290  0.0628 -0.7111
  559MPD2    C3 8292   1.219   0.697  10.701  0.0998  0.2838  0.2664
  559MPD2    C4 8293   1.272   0.766  10.594  0.2236 -0.0711 -0.4751
  559MPD2    C5 8294   1.216   0.751  10.473 -0.5760  0.2477  0.0482
  559MPD2     H 8295   1.039   0.610  10.773  1.4468  0.3163 -0.2430
  559MPD2    H1 8296   1.363   0.823  10.604  0.3422 -0.6606  1.9018
  559MPD2    H2 8297   1.060   0.689  10.356  2.4540 -0.5416 -0.4651
  559MPD2    H3 8298   1.258   0.794  10.383  1.1671  1.2895  1.3476
  559MPD2     N 8299   1.277   0.674  10.823 -1.1512  0.1476 -0.1656
  559MPD2    H5 8300   1.226   0.627  10.897 -2.1170 -0.9648 -1.5483
  559MPD2    N1 8301   0.902   0.583  10.542 -0.3696  0.3381 -0.6006
  559MPD2    H7 8302   0.873   0.595  10.446 -0.1086 -0.6464 -0.8090
  560TMC3    C1 8303   1.456   0.641  10.965  0.4471 -0.8462 -0.2422
  560TMC3    C2 8304   1.433   0.511  10.963 -0.6888  0.2289 -0.1813
  560TMC3    C3 8305   1.519   0.433  11.036 -0.3011  0.3275 -0.4431
  560TMC3    C4 8306   1.563   0.702  11.034 -0.2532 -0.7951  0.4839
  560TMC3    C5 8307   1.650   0.618  11.101  0.7869 -0.4300 -0.3672
  560TMC3    C6 8308   1.632   0.481  11.095 -0.1901 -0.1155  0.6671
  560TMC3     C 8309   1.401   0.721  10.857  0.3692  0.1202  0.2192
  560TMC3     O 8310   1.479   0.795  10.804  0.2226  0.2960  0.1340
  560TMC3     H 8311   1.376   0.459  10.887 -0.6879  0.4921 -0.3611
  560TMC3    H1 8312   1.584   0.807  11.015  1.7923 -1.1361  0.8722
  560TMC3    H2 8313   1.707   0.424  11.150 -1.2618 -2.8182 -0.6718
  560TMC3    C7 8314   1.751   0.665  11.198  0.1295 -0.0976  0.3322
  560TMC3    C8 8315   1.517   0.288  11.007  0.1569  0.1928  0.5012
  560TMC3    O1 8316   1.785   0.593  11.293  0.1228  0.1783 -0.0590
  560TMC3    O2 8317   1.420   0.244  10.946 -0.0599 -0.3842 -0.1777
  561TMC3    C1 8318   3.993   4.116  11.501 -0.3620  0.1334  0.6319
  561TMC3    C2 8319   3.939   4.102  11.625 -0.1959  0.0030 -1.0449
  561TMC3    C3 8320   3.831   4.184  11.653 -0.8283  0.2222 -0.3388
  561TMC3    C4 8321   3.943   4.204  11.409  1.2052  0.2102  0.3092
  561TMC3    C5 8322   3.832   4.277  11.445 -0.1879  0.5623  0.1709
  561TMC3    C6 8323   3.782   4.280  11.569  0.3937 -0.4852 -0.0015
  561TMC3     C 8324   4.072   4.002  11.451  0.6396 -0.1180  0.6584
  561TMC3     O 8325   4.077   3.898  11.517  0.5650  0.0650 -0.4468
  561TMC3     H 8326   3.974   4.015  11.680  0.2849  1.6317  1.2118
  561TMC3    H1 8327   3.971   4.202  11.304  0.2107  4.0474 -0.0430
  561TMC3    H2 8328   3.704   4.351  11.594  2.3599  0.5948  3.0837
  561TMC3    C7 8329   3.775   4.373  11.351  0.0092 -0.1470  0.5430
  561TMC3    C8 8330   3.770   4.154  11.783 -0.4165 -0.0946 -0.0711
  561TMC3    O1 8331   3.665   4.424  11.382  0.0451  0.1812 -0.4890
  561TMC3    O2 8332   3.837   4.087  11.857  0.5094 -0.0327  1.2046
  562TMC3    C1 8333   0.421   0.874  16.209 -0.4936  0.3266  0.2614
  562TMC3    C2 8334   0.294   0.919  16.239 -0.1274 -0.1278 -0.7062
  562TMC3    C3 8335   0.206   0.947  16.135 -0.2334 -0.3687  0.3575
  562TMC3    C4 8336   0.457   0.854  16.085 -0.4153 -0.5618  0.0484
  562TMC3    C5 8337   0.372   0.891  15.983  0.4348 -0.0971  0.3402
  562TMC3    C6 8338   0.245   0.938  16.010 -0.1455 -0.2459 -0.2969
  562TMC3     C 8339   0.515   0.858  16.317  0.6563 -0.6432  0.3221
  562TMC3     O 8340   0.630   0.874  16.277 -0.6694 -0.0672 -0.7442
  562TMC3     H 8341   0.263   0.933  16.341 -0.4103 -0.4908 -0.7445
  562TMC3    H1 8342   0.554   0.820  16.051  0.8569  2.1414  1.0777
  562TMC3    H2 8343   0.186   0.967  15.923  0.8267 -0.2332 -0.9487
  562TMC3    C7 8344   0.373   0.819  15.852 -0.0689 -0.6398  0.4591
  562TMC3    C8 8345   0.093   1.033  16.169 -0.4383  0.4012  0.6341
  562TMC3    O1 8346   0.387   0.872  15.744  0.0991 -0.3700  0.1177
  562TMC3    O2 8347   0.085   1.086  16.282 -0.7736 -0.6210 -0.0308
  563MPD2     C 8348   2.816   1.895  15.762 -0.4737  0.2847 -0.1888
  563MPD2    C1 8349   2.809   1.854  15.898 -0.0810  0.4728 -0.0782
  563MPD2    C2 8350   2.916   1.787  15.946 -0.5846  0.3462  0.1365
  563MPD2    C3 8351   3.019   1.740  15.874  0.3508 -0.1207 -0.2304
  563MPD2    C4 8352   3.036   1.785  15.742 -0.1605 -0.7089  0.3247
  563MPD2    C5 8353   2.930   1.858  15.687 -1.1358 -0.3020 -0.6902
  563MPD2     H 8354   2.907   1.760  16.051 -1.4915 -0.1467 -0.0682
  563MPD2    H1 8355   3.119   1.755  15.679  0.2547  1.1665 -0.0265
  563MPD2    H2 8356   2.742   1.959  15.716 -0.2442  0.1273 -0.7842
  563MPD2    H3 8357   2.928   1.876  15.580 -0.9275 -0.3822 -0.7063
  563MPD2     N 8358   3.111   1.662  15.948  0.2414  0.1929 -0.0897
  563MPD2    H5 8359   3.103   1.664  16.049  2.3420 -0.5497  0.0783
  563MPD2    N1 8360   2.700   1.886  15.982  0.2875  0.1637 -0.0846
  563MPD2    H7 8361   2.707   1.846  16.075 -2.8379 -0.0690  0.0268
  564TMC3    C1 8362   2.476   1.906  16.041 -0.1480 -0.2955  0.4163
  564TMC3    C2 8363   2.342   1.873  15.999 -0.6864 -0.5409 -0.3232
  564TMC3    C3 8364   2.254   1.816  16.098 -0.2792 -0.0623 -0.6812
  564TMC3    C4 8365   2.512   1.901  16.172 -0.1288 -0.4609  0.2204
  564TMC3    C5 8366   2.423   1.835  16.258  0.2578 -0.8300  0.4197
  564TMC3    C6 8367   2.295   1.800  16.225  0.3294 -0.2581 -0.2316
  564TMC3     C 8368   2.580   1.940  15.941 -0.2098  0.6371 -0.4186
  564TMC3     O 8369   2.533   1.959  15.830 -0.6070  0.3831  0.1907
  564TMC3     H 8370   2.327   1.876  15.891 -1.5920  1.4186 -0.1319
  564TMC3    H1 8371   2.613   1.910  16.209 -0.3895 -0.3251  0.9024
  564TMC3    H2 8372   2.222   1.760  16.294  3.1731 -0.1043  2.8699
  564TMC3    C7 8373   2.490   1.730  16.338  0.8403 -0.4810  0.8313
  564TMC3    C8 8374   2.204   1.684  16.052 -0.7091 -0.2890  0.6382
  564TMC3    O1 8375   2.580   1.766  16.411 -0.3982 -0.0822 -0.4233
  564TMC3    O2 8376   2.208   1.592  16.136 -0.1052 -0.4359 -0.2120
  565TMC3    C1 8377   2.804   3.325  10.445  0.6949  1.1731  0.1290
  565TMC3    C2 8378   2.804   3.243  10.556 -0.1817 -0.2663  0.2032
  565TMC3    C3 8379   2.689   3.178  10.587 -0.5474  0.0525  0.1224
  565TMC3    C4 8380   2.689   3.333  10.363  0.5690 -0.0809  0.2806
  565TMC3    C5 8381   2.580   3.256  10.397 -0.1129  0.2123 -0.0764
  565TMC3    C6 8382   2.576   3.179  10.514 -0.4660  0.0197  1.3393
  565TMC3     C 8383   2.895   3.440  10.430  0.6002  0.5189 -0.4855
  565TMC3     O 8384   2.883   3.494  10.320  0.2486 -0.1351 -0.0704
  565TMC3     H 8385   2.897   3.243  10.612 -0.1641 -0.4508  0.1745
  565TMC3    H1 8386   2.703   3.379  10.266  1.5636 -0.0563  0.4322
  565TMC3    H2 8387   2.527   3.083  10.509  0.6696 -0.6758  3.7610
  565TMC3    C7 8388   2.458   3.259  10.318  0.0709  0.1244 -0.6586
  565TMC3    C8 8389   2.718   3.086  10.696 -0.3609 -0.5423 -0.4188
  565TMC3    O1 8390   2.372   3.176  10.349  0.0951  0.2511  0.0704
  565TMC3    O2 8391   2.834   3.064  10.728 -0.3596 -0.0509  0.0322
  566MPD2     C 8392   0.225   0.886  13.991 -0.1171 -0.0610  1.3263
  566MPD2    C1 8393   0.265   0.758  14.011 -0.0798 -0.0194 -0.3983
  566MPD2    C2 8394   0.184   0.656  13.973 -0.5467  0.6610  0.2819
  566MPD2    C3 8395   0.070   0.679  13.898  0.1940  0.2634  0.3280
  566MPD2    C4 8396   0.028   0.810  13.883 -0.2413 -0.1220  0.3131
  566MPD2    C5 8397   0.103   0.913  13.940  0.5058  0.6154  0.2886
  566MPD2     H 8398   0.211   0.552  13.985  2.5234  1.5135  0.5889
  566MPD2    H1 8399   4.657   0.829  13.837 -0.0946  0.6187  0.3059
  566MPD2    H2 8400   0.282   0.971  14.026  0.0567 -0.0939  1.1285
  566MPD2    H3 8401   0.071   1.015  13.917  1.1370  0.5781 -0.7410
  566MPD2     N 8402   4.714   0.577  13.843 -0.5596  0.4675  0.2146
  566MPD2    H5 8403   4.634   0.608  13.790 -0.7077 -0.0256  0.1431
  566MPD2    N1 8404   0.388   0.748  14.089  0.2538 -0.7693  0.1812
  566MPD2    H7 8405   0.418   0.837  14.128  0.5211 -0.2870 -1.1194
  567TMC3    C1 8406   0.461   0.509  14.047  0.3107 -0.6549  0.1252
  567TMC3    C2 8407   0.491   0.534  13.914  0.3138 -0.1784 -0.7866
  567TMC3    C3 8408   0.513   0.431  13.830  0.1180  0.1979 -0.3926
  567TMC3    C4 8409   0.474   0.383  14.101  0.1715 -0.5048 -0.3245
  567TMC3    C5 8410   0.477   0.284  14.006 -0.2409  0.5760  0.4219
  567TMC3    C6 8411   0.496   0.304  13.868 -0.3077 -0.1883 -0.3045
  567TMC3     C 8412   0.442   0.628  14.142  0.1598  0.3866  1.2528
  567TMC3     O 8413   0.506   0.613  14.248 -0.7778 -0.0245  0.2582
  567TMC3     H 8414   0.505   0.638  13.884 -0.2754 -0.2423 -1.2868
  567TMC3    H1 8415   0.456   0.369  14.207  0.3372  1.6292 -0.0188
  567TMC3    H2 8416   0.498   0.221  13.798  1.3086 -1.7486  1.5997
  567TMC3    C7 8417   0.415   0.162  14.037 -0.3110 -0.0411 -0.1870
  567TMC3    C8 8418   0.556   0.459  13.694 -0.6288 -0.2493 -0.7826
  567TMC3    O1 8419   0.424   0.072  13.950 -0.2588  0.0119  0.1804
  567TMC3    O2 8420   0.528   0.570  13.655 -0.0847 -0.1892  0.1553
  568MPD2     C 8421   2.671   0.271  15.756  0.0213  0.0926  0.2284
  568MPD2    C1 8422   2.587   0.262  15.869 -0.3263 -0.3290 -0.4861
  568MPD2    C2 8423   2.487   0.352  15.887 -0.5244 -0.5624 -0.4975
  568MPD2    C3 8424   2.471   0.455  15.804  0.2015 -0.7749 -0.0760
  568MPD2    C4 8425   2.563   0.470  15.696 -0.6107 -0.3797  0.7238
  568MPD2    C5 8426   2.656   0.372  15.668  0.8598 -0.3196 -0.0370
  568MPD2     H 8427   2.421   0.345  15.972  0.7233 -0.7726  0.4539
  568MPD2    H1 8428   2.575   0.558  15.633 -1.1779  0.5742  1.9671
  568MPD2    H2 8429   2.750   0.197  15.745  0.2689  0.5099 -0.8095
  568MPD2    H3 8430   2.728   0.396  15.591 -0.3310 -0.6946 -1.2857
  568MPD2     N 8431   2.366   0.551  15.833 -0.5712 -0.1174 -0.3802
  568MPD2    H5 8432   2.302   0.529  15.909 -0.6426 -1.0161 -0.7083
  568MPD2    N1 8433   2.633   0.174  15.969  0.3511  0.0430 -0.5712
  568MPD2    H7 8434   2.721   0.126  15.952  0.5424 -0.2814  1.3466
  569TMC3    C1 8435   2.248   0.766  15.826 -0.4611  0.3340  0.5309
  569TMC3    C2 8436   2.208   0.755  15.954  0.4047 -0.0600 -0.0800
  569TMC3    C3 8437   2.129   0.852  16.010 -0.5108 -0.0936  0.0934
  569TMC3    C4 8438   2.231   0.880  15.760  0.2429 -0.4526  0.0338
  569TMC3    C5 8439   2.157   0.980  15.818  0.1045 -0.4715  0.1299
  569TMC3    C6 8440   2.104   0.969  15.942  0.4411  0.1477  0.3549
  569TMC3     C 8441   2.354   0.675  15.775 -0.4182 -0.3844 -0.2694
  569TMC3     O 8442   2.424   0.724  15.688  0.0448  0.5484  0.4055
  569TMC3     H 8443   2.245   0.677  16.020 -0.7324 -0.7573 -0.2704
  569TMC3    H1 8444   2.259   0.886  15.656  1.9639 -3.5657  0.3144
  569TMC3    H2 8445   2.032   1.035  15.988 -1.7179 -1.4220 -0.7528
  569TMC3    C7 8446   2.126   1.101  15.746 -0.1983 -0.0382 -0.3893
  569TMC3    C8 8447   2.094   0.833  16.151  0.3070 -0.3323  0.2386
  569TMC3    O1 8448   2.137   1.105  15.624 -0.4353 -1.0389  0.1799
  569TMC3    O2 8449   2.078   0.716  16.185  0.9178 -0.4178  0.4883
  570TMC3    C1 8450   1.582   3.848  15.911 -0.2687 -0.5509  0.0417
  570TMC3    C2 8451   1.592   3.809  15.779  0.0122  0.4589 -0.2436
  570TMC3    C3 8452   1.651   3.899  15.688  0.3390 -0.1954  0.2778
  570TMC3    C4 8453   1.652   3.953  15.952  0.2872  0.2973 -0.0653
  570TMC3    C5 8454   1.700   4.044  15.864 -0.1452 -0.6387  0.8658
  570TMC3    C6 8455   1.696   4.023  15.735 -1.5186 -0.6566 -0.3865
  570TMC3     C 8456   1.474   3.802  15.991  0.1933 -0.1889 -0.1401
  570TMC3     O 8457   1.428   3.695  15.950 -0.4708 -0.6908  0.0243
  570TMC3     H 8458   1.540   3.720  15.745  0.9319 -0.2610  0.2261
  570TMC3    H1 8459   1.665   3.969  16.058 -0.5083 -1.9819  0.3767
  570TMC3    H2 8460   1.734   4.106  15.677 -3.9726 -1.1782 -2.7434
  570TMC3    C7 8461   1.763   4.165  15.914  0.4194 -0.2147 -0.0448
  570TMC3    C8 8462   1.716   3.852  15.568  0.4697  0.4451 -0.1146
  570TMC3    O1 8463   1.824   4.155  16.019 -0.8633  0.4471  0.0405
  570TMC3    O2 8464   1.680   3.752  15.509  0.5123  0.6341  0.4254
  571MPD2     C 8465   4.630   0.591  17.410 -0.2654  0.4925 -0.1734
  571MPD2    C1 8466   0.006   0.612  17.314  0.0401 -0.7684 -0.6069
  571MPD2    C2 8467   0.114   0.698  17.347  0.5454 -0.3238  0.2772
  571MPD2    C3 8468   0.135   0.724  17.480 -0.2284  0.0212  0.3453
  571MPD2    C4 8469   0.046   0.686  17.571 -0.1222 -0.2945  0.6715
  571MPD2    C5 8470   4.653   0.628  17.540  0.1559  0.1054  0.5582
  571MPD2     H 8471   0.183   0.746  17.279  1.3535 -0.1131  1.2482
  571MPD2    H1 8472   0.061   0.726  17.670 -0.6558  0.6050  0.3809
  571MPD2    H2 8473   4.544   0.527  17.391  0.5470 -0.8384  0.6121
  571MPD2    H3 8474   4.581   0.607  17.618 -0.0978  1.1150  0.5914
  571MPD2     N 8475   0.238   0.808  17.528  0.0314  0.0085 -0.1726
  571MPD2    H5 8476   0.239   0.817  17.629  0.5618 -1.3419 -0.0554
  571MPD2    N1 8477   4.720   0.561  17.183  0.3961 -0.2356 -0.1491
  571MPD2    H7 8478   4.637   0.508  17.160 -0.3603 -0.1953  2.4763
  572TMC3    C1 8479   0.424   0.951  17.557 -0.4439  0.1375 -0.4776
  572TMC3    C2 8480   0.462   0.899  17.676 -0.3030 -0.1891  0.2588
  572TMC3    C3 8481   0.589   0.930   0.016  0.1857 -0.1629 -0.2033
  572TMC3    C4 8482   0.484   1.056  17.501 -0.0848 -0.2482 -0.3137
  572TMC3    C5 8483   0.605   1.096  17.555 -0.0587  0.7031 -0.0306
  572TMC3    C6 8484   0.665   1.032  17.663 -0.0604 -0.1143  1.0376
  572TMC3     C 8485   0.340   0.871  17.463 -0.3587  0.1977 -0.3942
  572TMC3     O 8486   0.382   0.881  17.345 -0.0678  0.3522 -0.2978
  572TMC3     H 8487   0.404   0.813   0.003 -1.7873  0.2050 -1.5201
  572TMC3    H1 8488   0.458   1.103  17.407 -2.7109 -0.8100  0.1132
  572TMC3    H2 8489   0.762   1.054   0.004  0.9452 -1.3596 -0.6008
  572TMC3    C7 8490   0.663   1.226  17.516  0.2249  0.7166 -0.2211
  572TMC3    C8 8491   0.639   0.879   0.140 -0.2203 -0.2832 -0.1032
  572TMC3    O1 8492   0.783   1.242  17.542 -0.9293 -0.0277  0.2612
  572TMC3    O2 8493   0.730   0.935   0.195  0.2050  0.0937 -0.0584
  573MPD2     C 8494   1.097   1.183   0.296  0.5297 -0.6005  0.2883
  573MPD2    C1 8495   1.161   1.309   0.288 -0.2142 -0.3501 -0.5068
  573MPD2    C2 8496   1.189   1.365   0.164  0.2093  0.0032  0.0994
  573MPD2    C3 8497   1.142   1.297   0.052  0.1058  0.1940 -0.4908
  573MPD2    C4 8498   1.080   1.172   0.059 -0.4294  0.0602 -0.1971
  573MPD2    C5 8499   1.048   1.121   0.183 -0.2929  0.3144  0.2328
  573MPD2     H 8500   1.254   1.451   0.156 -0.3187  0.3953  0.0765
  573MPD2    H1 8501   1.053   1.118  17.672  2.5533 -0.1299 -0.9527
  573MPD2    H2 8502   1.099   1.141   0.396 -1.0142  2.1500  1.4786
  573MPD2    H3 8503   1.004   1.023   0.193  0.4954 -0.2793 -2.2409
  573MPD2     N 8504   1.156   1.339  17.622  0.1498 -0.0533 -0.1764
  573MPD2    H5 8505   1.106   1.280  17.556  1.0422 -1.8383  0.7287
  573MPD2    N1 8506   1.194   1.364   0.406  0.4980  0.4198 -0.6440
  573MPD2    H7 8507   1.188   1.310   0.492  0.9558  1.7795  0.2346
  574TMC3    C1 8508   1.183   1.520  17.468  0.6448 -0.7076  0.5726
  574TMC3    C2 8509   1.052   1.553  17.486  0.4493 -0.3367 -0.1239
  574TMC3    C3 8510   1.013   1.679  17.452 -0.1512 -0.1233  0.5209
  574TMC3    C4 8511   1.268   1.607  17.411 -0.6528 -0.2084  0.2634
  574TMC3    C5 8512   1.232   1.734  17.376 -0.3329  0.7171 -0.5813
  574TMC3    C6 8513   1.098   1.772  17.396 -0.2751  0.2929 -0.4827
  574TMC3     C 8514   1.236   1.442  17.578  0.0492  0.1125 -0.4654
  574TMC3     O 8515   1.344   1.473  17.625  0.9393  0.3966  0.3317
  574TMC3     H 8516   0.978   1.492  17.535  1.0905 -0.2372  0.9617
  574TMC3    H1 8517   1.370   1.579  17.389 -0.7878 -1.6701  1.5744
  574TMC3    H2 8518   1.066   1.864  17.350 -0.2777  0.8257  0.5665
  574TMC3    C7 8519   1.310   1.788  17.270  0.4815  0.0836  0.3901
  574TMC3    C8 8520   0.915   1.744  17.541 -0.0753  0.2943  0.3960
  574TMC3    O1 8521   1.355   1.713  17.185  0.0053 -0.7174  0.2674
  574TMC3    O2 8522   0.860   1.680  17.633  0.0012 -0.4507  0.0158
  575TMC3    C1 8523   3.189   2.692  11.323 -0.2778 -0.6897 -0.0832
  575TMC3    C2 8524   3.182   2.558  11.353 -0.0442 -0.0989  0.2885
  575TMC3    C3 8525   3.098   2.485  11.280  0.3241 -0.2626 -0.1597
  575TMC3    C4 8526   3.122   2.745  11.221 -1.0094  0.1559  0.2818
  575TMC3    C5 8527   3.032   2.669  11.153 -0.5775  0.0865  0.4551
  575TMC3    C6 8528   3.022   2.537  11.185  0.3629 -0.6582 -0.0036
  575TMC3     C 8529   3.256   2.777  11.425  0.1095 -0.2287 -1.0192
  575TMC3     O 8530   3.256   2.731  11.535 -0.6739 -0.0154 -0.4262
  575TMC3     H 8531   3.237   2.515  11.436  0.5075  1.9933  1.0081
  575TMC3    H1 8532   3.128   2.849  11.189  0.6429 -0.3408 -1.0353
  575TMC3    H2 8533   2.945   2.484  11.130 -0.1672  0.0162  0.0957
  575TMC3    C7 8534   2.943   2.734  11.060 -0.6220 -0.1351  0.4384
  575TMC3    C8 8535   3.097   2.341  11.296  0.1049  0.6119  0.9520
  575TMC3    O1 8536   2.987   2.842  11.025 -0.1537  0.2887 -0.9999
  575TMC3    O2 8537   3.160   2.299  11.393 -0.2428 -0.4471  0.5508
  576MPD2     C 8538   2.573   0.074  12.396 -0.1191  0.2652  0.1013
  576MPD2    C1 8539   2.704   0.048  12.410 -0.2280 -0.3515  0.7852
  576MPD2    C2 8540   2.764   0.107  12.521 -0.4390 -0.3093 -0.0844
  576MPD2    C3 8541   2.691   0.177  12.611  0.4984 -0.1273 -0.4563
  576MPD2    C4 8542   2.553   0.195  12.599  0.5650  0.2084 -0.3304
  576MPD2    C5 8543   2.497   0.139  12.486  0.1349 -0.0651  0.4326
  576MPD2     H 8544   2.870   0.094  12.537 -0.2645  1.1911 -0.0453
  576MPD2    H1 8545   2.496   0.250  12.674 -0.0876 -0.8168 -0.0772
  576MPD2    H2 8546   2.519   0.029  12.313  0.9698 -0.4356 -0.2186
  576MPD2    H3 8547   2.389   0.145  12.474  0.0574  1.3310  1.7080
  576MPD2     N 8548   2.749   0.239  12.730  0.6518  0.1197 -0.2079
  576MPD2    H5 8549   2.686   0.303  12.777  0.2707 -1.1938  1.0485
  576MPD2    N1 8550   2.785   4.698  12.313  0.1955 -0.0720  0.1902
  576MPD2    H7 8551   2.882   4.689  12.342  0.2754  0.8512  0.2001
  577TMC3    C1 8552   2.834   4.574  12.109 -0.0256 -0.5131  0.2900
  577TMC3    C2 8553   2.950   4.521  12.154 -0.3592  0.8338 -0.2106
  577TMC3    C3 8554   3.024   4.437  12.071 -0.2556  0.0207 -0.4706
  577TMC3    C4 8555   2.783   4.533  11.985 -0.4264 -0.0632  0.3146
  577TMC3    C5 8556   2.853   4.445  11.916 -0.3695 -0.7177  1.0722
  577TMC3    C6 8557   2.975   4.393  11.952 -0.2351 -0.2602  0.0777
  577TMC3     C 8558   2.740   4.652  12.190 -0.3620 -0.5165  0.2531
  577TMC3     O 8559   2.632   4.682  12.142 -0.0783 -0.1986 -0.9761
  577TMC3     H 8560   2.991   4.542  12.253  2.9305 -1.7948 -1.0081
  577TMC3    H1 8561   2.681   4.560  11.956 -0.4655 -0.3664  0.1685
  577TMC3    H2 8562   3.027   4.326  11.885  0.0522 -0.5449  0.5908
  577TMC3    C7 8563   2.828   4.434  11.775  0.1492  0.0301  0.5260
  577TMC3    C8 8564   3.153   4.392  12.108  0.2051 -0.3244  0.3978
  577TMC3    O1 8565   2.854   4.331  11.712 -0.2538 -0.0692 -0.2772
  577TMC3    O2 8566   3.163   4.364  12.228  0.2892  0.4530  0.3302
  578MPD2     C 8567   1.327   4.214   0.652 -0.1586 -0.0151 -0.0984
  578MPD2    C1 8568   1.377   4.321   0.727  0.5368  0.6499 -0.1654
  578MPD2    C2 8569   1.462   4.287   0.833  0.4271  0.2034 -0.7253
  578MPD2    C3 8570   1.499   4.159   0.854 -0.3126 -0.4352  0.1035
  578MPD2    C4 8571   1.434   4.061   0.788  0.6201  0.2147 -0.7144
  578MPD2    C5 8572   1.351   4.084   0.685  0.1073 -0.3530  0.0117
  578MPD2     H 8573   1.512   4.357   0.899  1.6044 -0.9975 -0.3389
  578MPD2    H1 8574   1.448   3.957   0.817 -1.6586  0.0382 -0.2079
  578MPD2    H2 8575   1.256   4.232   0.572  0.9941  0.9798 -0.9038
  578MPD2    H3 8576   1.309   4.008   0.620 -1.4834  1.2504 -0.8301
  578MPD2     N 8577   1.603   4.125   0.944 -0.4312  0.2940 -0.4465
  578MPD2    H5 8578   1.639   4.200   1.001 -2.9819  1.2392 -0.0884
  578MPD2    N1 8579   1.336   4.450   0.703  0.0862 -0.4774  0.8046
  578MPD2    H7 8580   1.267   4.462   0.630 -0.2807  0.2404  1.2636
  579TMC3    C1 8581   1.734   3.982   1.068 -1.5660  0.9720  0.3705
  579TMC3    C2 8582   1.835   4.070   1.099  0.1151  0.4859 -0.3538
  579TMC3    C3 8583   1.947   4.009   1.161 -0.1297  0.2912 -0.0476
  579TMC3    C4 8584   1.737   3.850   1.095 -0.4836  0.3682  0.7924
  579TMC3    C5 8585   1.839   3.807   1.174  0.0371 -0.2342  0.3371
  579TMC3    C6 8586   1.947   3.881   1.202 -0.4012 -0.2769 -0.7952
  579TMC3     C 8587   1.656   4.000   0.946  0.6279  0.1767 -0.8859
  579TMC3     O 8588   1.652   3.903   0.866 -0.2552 -0.0457  0.2331
  579TMC3     H 8589   1.843   4.170   1.057  0.2823  0.5535 -0.1604
  579TMC3    H1 8590   1.659   3.787   1.055 -1.5989  2.0862  0.2744
  579TMC3    H2 8591   2.030   3.835   1.254  0.8954  1.1483 -1.6163
  579TMC3    C7 8592   1.833   3.668   1.220  0.4401  0.4161 -0.1928
  579TMC3    C8 8593   2.061   4.096   1.182  0.5938  0.4041 -0.3189
  579TMC3    O1 8594   1.946   3.620   1.223 -0.0800  0.6320 -0.4458
  579TMC3    O2 8595   2.034   4.218   1.184  0.1598 -0.1442 -0.0325
  580TMC3    C1 8596   0.673   3.958  11.875  0.6801  0.3686  0.0256
  580TMC3    C2 8597   0.725   4.083  11.899  1.1533 -0.0502  0.2235
  580TMC3    C3 8598   0.859   4.100  11.926 -0.2704  0.4562  0.5404
  580TMC3    C4 8599   0.746   3.841  11.897 -0.4997 -0.2847  0.8509
  580TMC3    C5 8600   0.877   3.858  11.934  0.1126 -1.0386 -0.7035
  580TMC3    C6 8601   0.934   3.983  11.939  0.3974  0.1036  0.5502
  580TMC3     C 8602   0.587   3.963  11.755 -1.2954  0.1509 -0.1368
  580TMC3     O 8603   0.469   3.984  11.770  0.5559 -0.2721 -0.3328
  580TMC3     H 8604   0.671   4.173  11.873 -2.4048 -2.3788 -0.4405
  580TMC3    H1 8605   0.703   3.742  11.905 -0.5364 -0.3256  0.0865
  580TMC3    H2 8606   1.038   3.996  11.965  0.1830 -0.1763  1.5281
  580TMC3    C7 8607   0.970   3.747  11.909  0.0342  0.3813  0.2491
  580TMC3    C8 8608   0.925   4.228  11.892 -0.0988  0.3436 -0.2898
  580TMC3    O1 8609   1.087   3.781  11.913  0.1345 -0.1846  0.0467
  580TMC3    O2 8610   0.852   4.320  11.859  0.3991 -0.4506  0.6585
  581MPD2     C 8611   4.032   3.184  14.504  0.0576 -0.5866  0.3004
  581MPD2    C1 8612   3.901   3.149  14.553  0.5527 -0.3066 -0.2837
  581MPD2    C2 8613   3.787   3.222  14.519 -0.2363  0.0296  0.8671
  581MPD2    C3 8614   3.804   3.330  14.431  0.2395  0.6126 -0.1705
  581MPD2    C4 8615   3.925   3.351  14.362 -0.8261 -0.3148 -0.3799
  581MPD2    C5 8616   4.037   3.283  14.409  0.2460  0.4168  0.3994
  581MPD2     H 8617   3.690   3.191  14.556 -0.5174  1.5030  1.3472
  581MPD2    H1 8618   3.946   3.429  14.290 -0.7144 -0.2294 -0.2564
  581MPD2    H2 8619   4.115   3.120  14.532  2.4626  1.1235 -2.9415
  581MPD2    H3 8620   4.138   3.302  14.375  1.0905  0.9892  3.2415
  581MPD2     N 8621   3.689   3.412  14.410  0.4922 -0.2465  0.7860
  581MPD2    H5 8622   3.603   3.391  14.460 -0.6517  4.2662  0.7293
  581MPD2    N1 8623   3.878   3.042  14.643 -0.3324 -0.4391  0.4406
  581MPD2    H7 8624   3.777   3.041  14.658 -0.2688  1.9268  0.9906
  582TMC3    C1 8625   3.904   2.897  14.825  0.1315  0.7257  0.3206
  582TMC3    C2 8626   3.997   2.846  14.918  0.3422  0.1672  0.3282
  582TMC3    C3 8627   3.958   2.833  15.047  0.7014  0.3126 -0.4546
  582TMC3    C4 8628   3.775   2.929  14.859  0.7707  0.7092 -0.0562
  582TMC3    C5 8629   3.741   2.905  14.992 -0.1657  0.5785 -0.2273
  582TMC3    C6 8630   3.830   2.858  15.083 -0.4349 -0.5896 -0.5577
  582TMC3     C 8631   3.968   2.962  14.707 -0.0825 -0.6079 -0.0214
  582TMC3     O 8632   4.093   2.968  14.708  0.5272 -0.7193  0.0064
  582TMC3     H 8633   4.095   2.817  14.884 -0.0067  1.0072 -1.4058
  582TMC3    H1 8634   3.703   2.982  14.798 -0.8335  0.0646  1.2705
  582TMC3    H2 8635   3.804   2.868  15.187  4.0002 -2.8668  0.7785
  582TMC3    C7 8636   3.614   2.959  15.038 -0.1595 -0.2010  0.0497
  582TMC3    C8 8637   4.061   2.808  15.143  0.3048 -1.2299 -0.4911
  582TMC3    O1 8638   3.563   3.053  14.978 -0.4199 -0.4473  0.1659
  582TMC3    O2 8639   4.167   2.758  15.105  0.2341 -0.1321 -0.3491
  583MPD2     C 8640   3.664   4.553  16.754 -0.1786  0.1773  0.3018
  583MPD2    C1 8641   3.628   4.671  16.689 -1.2435 -0.9865 -0.0390
  583MPD2    C2 8642   3.567   0.044  16.765  0.6845 -0.6257 -0.1099
  583MPD2    C3 8643   3.551   0.027  16.897  0.1941 -0.6180  0.0384
  583MPD2    C4 8644   3.606   4.639  16.966  0.4234 -0.9521 -0.8504
  583MPD2    C5 8645   3.646   4.538  16.891  0.1234  0.8380 -0.0543
  583MPD2     H 8646   3.539   0.141  16.726 -0.9577 -0.1481  2.2707
  583MPD2    H1 8647   3.624   4.626  17.072 -1.5534  0.4605 -0.3323
  583MPD2    H2 8648   3.709   4.468  16.705 -0.4508  0.0458  0.2838
  583MPD2    H3 8649   3.683   4.454  16.949 -1.8734  0.7114  1.0094
  583MPD2     N 8650   3.481   0.128  16.971 -0.0209 -0.3299  0.8015
  583MPD2    H5 8651   3.461   0.210  16.915  0.5640 -0.6164  0.1679
  583MPD2    N1 8652   3.645   4.693  16.552  0.0299 -0.2976 -0.2027
  583MPD2    H7 8653   3.613   0.054  16.508 -2.1543 -1.0923 -0.1628
  584TMC3    C1 8654   3.379   0.242  17.156 -0.3181 -0.9940  0.8273
  584TMC3    C2 8655   3.409   0.369  17.110  0.9217  0.3296  0.0534
  584TMC3    C3 8656   3.380   0.479  17.181 -0.6994  0.4756  0.0807
  584TMC3    C4 8657   3.317   0.221  17.273 -0.2651  0.9760 -0.4129
  584TMC3    C5 8658   3.280   0.333  17.336 -0.0036  0.5547 -0.2829
  584TMC3    C6 8659   3.308   0.464  17.292  0.0904 -0.1925  0.0481
  584TMC3     C 8660   3.438   0.119  17.099 -0.1039  0.0379 -0.1146
  584TMC3     O 8661   3.429   0.011  17.160 -0.1946 -0.3397  0.0967
  584TMC3     H 8662   3.462   0.384  17.016  1.0257  0.6126  0.1568
  584TMC3    H1 8663   3.301   0.124  17.319 -0.7486  0.8880 -0.7610
  584TMC3    H2 8664   3.274   0.556  17.339  0.4779 -0.0606  0.0704
  584TMC3    C7 8665   3.201   0.306  17.455 -0.3227  0.0472  0.6099
  584TMC3    C8 8666   3.410   0.609  17.118  0.9035 -0.2036 -0.8074
  584TMC3    O1 8667   3.238   0.209  17.523 -0.2191  0.3922  0.0969
  584TMC3    O2 8668   3.425   0.622  17.000 -0.0894  0.0108  0.4853
  585MPD2     C 8669   3.240   2.868   1.123 -0.1296 -0.6109  0.4249
  585MPD2    C1 8670   3.374   2.875   1.068 -0.3353  0.4522 -0.7345
  585MPD2    C2 8671   3.382   2.908   0.928 -0.1643  0.8554  0.5491
  585MPD2    C3 8672   3.274   2.945   0.850 -0.1700  0.7051 -0.4822
  585MPD2    C4 8673   3.147   2.924   0.903 -0.3401 -0.0507  0.3539
  585MPD2    C5 8674   3.128   2.893   1.042  0.3413  0.2915 -0.1107
  585MPD2     H 8675   3.480   2.914   0.882 -0.8787 -1.2226 -1.2925
  585MPD2    H1 8676   3.055   2.949   0.850  0.2863 -0.0746 -0.7363
  585MPD2    H2 8677   3.215   2.854   1.227 -0.1385  0.1597  0.5272
  585MPD2    H3 8678   3.026   2.905   1.077  1.1584  1.2547  1.9591
  585MPD2     N 8679   3.279   3.006   0.722  0.3254 -0.1593 -0.5817
  585MPD2    H5 8680   3.183   3.021   0.690  0.4953  0.4233 -0.8298
  585MPD2    N1 8681   3.482   2.865   1.160  0.0861  0.2332  0.4231
  585MPD2    H7 8682   3.474   2.804   1.240 -1.3286  0.4047  0.4239
  586TMC3    C1 8683   3.341   3.103   0.529  0.3035 -0.1952  0.1562
  586TMC3    C2 8684   3.402   3.076   0.407  0.0868 -0.2248 -0.4519
  586TMC3    C3 8685   3.384   3.170   0.313 -0.1969  0.3682  1.0852
  586TMC3    C4 8686   3.268   3.217   0.556  0.4738 -0.0214  0.3398
  586TMC3    C5 8687   3.273   3.317   0.464  0.1705  0.1406 -0.0433
  586TMC3    C6 8688   3.334   3.291   0.341 -0.3530 -0.0341 -0.6649
  586TMC3     C 8689   3.388   3.036   0.647  0.5112 -0.0519 -0.3690
  586TMC3     O 8690   3.503   3.002   0.664 -0.8284 -0.3643 -0.6397
  586TMC3     H 8691   3.445   2.978   0.390  0.2413 -0.2958  0.3553
  586TMC3    H1 8692   3.233   3.233   0.658  0.3188 -0.8768  0.4190
  586TMC3    H2 8693   3.319   3.368   0.266  0.0259  0.8537  0.1636
  586TMC3    C7 8694   3.156   3.401   0.467  0.0755 -0.5196 -0.5544
  586TMC3    C8 8695   3.340   3.116   0.184 -0.7621 -0.1833  0.0695
  586TMC3    O1 8696   3.071   3.367   0.544  0.7698  0.0363  0.5768
  586TMC3    O2 8697   3.313   2.996   0.175  0.1440 -0.6254 -0.2041
  587TMC3    C1 8698   0.260   2.340  16.914 -0.3538 -0.3869 -0.2810
  587TMC3    C2 8699   0.333   2.426  16.848 -0.1890  0.2183 -0.8547
  587TMC3    C3 8700   0.463   2.394  16.811  0.5333  0.2751 -0.4724
  587TMC3    C4 8701   0.307   2.215  16.946  0.7536  0.2999  0.5300
  587TMC3    C5 8702   0.433   2.180  16.905  0.3881  0.3793 -0.7598
  587TMC3    C6 8703   0.515   2.267  16.834 -0.4554  0.5528 -0.3939
  587TMC3     C 8704   0.143   2.387  16.982  0.1356  1.2817  0.0662
  587TMC3     O 8705   0.138   2.366  17.101 -0.2251  0.1776 -0.1391
  587TMC3     H 8706   0.291   2.521  16.817 -1.0020 -0.1145 -0.7893
  587TMC3    H1 8707   0.249   2.143  17.001  1.8005 -0.9022  0.0518
  587TMC3    H2 8708   0.616   2.241  16.807 -0.1860 -0.1928  1.3094
  587TMC3    C7 8709   0.481   2.054  16.961 -0.4418 -0.2406 -0.0441
  587TMC3    C8 8710   0.529   2.481  16.718  0.1436  0.4174  0.2169
  587TMC3    O1 8711   0.401   1.968  17.000 -0.7361 -0.4447  0.8895
  587TMC3    O2 8712   0.606   2.432  16.633  0.3304 -0.3349 -0.0871
  588TMC3    C1 8713   2.691   0.558   9.588 -0.7127 -0.3978  0.1047
  588TMC3    C2 8714   2.698   0.430   9.556  0.4855  0.7355  0.3034
  588TMC3    C3 8715   2.819   0.377   9.519 -0.6952  0.5776 -0.1962
  588TMC3    C4 8716   2.799   0.635   9.562  0.8250 -0.1842 -0.2693
  588TMC3    C5 8717   2.917   0.585   9.509  0.1276 -0.4849  0.2570
  588TMC3    C6 8718   2.928   0.451   9.491 -0.3243  0.0515  1.3695
  588TMC3     C 8719   2.590   0.601   9.684  0.0328  0.2379 -0.8061
  588TMC3     O 8720   2.559   0.513   9.767 -0.1482 -0.4560 -0.4177
  588TMC3     H 8721   2.608   0.369   9.555  0.8356  0.2275 -0.7655
  588TMC3    H1 8722   2.798   0.740   9.589  2.1669 -0.6200  1.4786
  588TMC3    H2 8723   3.021   0.418   9.446 -0.8184  0.0382  0.3688
  588TMC3    C7 8724   3.040   0.652   9.548 -0.2706 -0.6558  0.7146
  588TMC3    C8 8725   2.806   0.240   9.476 -0.5880 -0.5489 -0.1101
  588TMC3    O1 8726   3.133   0.657   9.472 -0.0362 -0.1330 -0.5684
  588TMC3    O2 8727   2.860   0.206   9.370 -0.3959  0.3714 -0.1553
  589TMC3    C1 8728   1.794   1.892   1.298 -0.2277 -0.3684  0.6833
  589TMC3    C2 8729   1.845   1.836   1.414 -0.2095  0.3058 -0.3544
  589TMC3    C3 8730   1.940   1.742   1.397 -0.0593 -0.5467 -0.3684
  589TMC3    C4 8731   1.829   1.855   1.171 -0.9548  0.4332 -0.6804
  589TMC3    C5 8732   1.924   1.756   1.160 -0.2247  0.0983 -0.1212
  589TMC3    C6 8733   1.980   1.700   1.272  0.3009  0.3890  0.1208
  589TMC3     C 8734   1.705   2.002   1.314  0.2204 -0.3444 -0.5026
  589TMC3     O 8735   1.615   2.011   1.229  0.6541  0.0793 -0.3329
  589TMC3     H 8736   1.836   1.876   1.515 -0.0165 -0.2437 -0.1169
  589TMC3    H1 8737   1.784   1.907   1.087  0.2189  0.2755 -1.4007
  589TMC3    H2 8738   2.045   1.614   1.261 -0.5022  0.0327 -1.8615
  589TMC3    C7 8739   1.961   1.702   1.032 -0.3889 -0.3196 -0.1097
  589TMC3    C8 8740   2.022   1.713   1.506 -0.0845  0.1094 -0.6347
  589TMC3    O1 8741   2.027   1.599   1.036 -0.1994  0.3978  0.0151
  589TMC3    O2 8742   1.966   1.719   1.616 -0.0832  0.0754  0.2282
  590MPD2     C 8743   1.147   1.135  16.651  0.9181 -0.1117  0.9773
  590MPD2    C1 8744   1.099   1.178  16.528  0.7318  0.3582 -0.4050
  590MPD2    C2 8745   1.179   1.218  16.424  0.1816 -0.3543 -0.8552
  590MPD2    C3 8746   1.315   1.214  16.448 -0.7542 -0.0784 -0.2731
  590MPD2    C4 8747   1.364   1.168  16.573 -0.3697 -0.3977 -0.0931
  590MPD2    C5 8748   1.280   1.129  16.672 -0.2435 -0.1997  0.0202
  590MPD2     H 8749   1.139   1.251  16.329 -0.6808  0.2852 -0.2618
  590MPD2    H1 8750   1.468   1.173  16.602 -1.2519 -0.7493  3.0251
  590MPD2    H2 8751   1.082   1.115  16.736 -0.1527  0.4897  0.2911
  590MPD2    H3 8752   1.327   1.107  16.767 -0.8857 -1.4480  0.0431
  590MPD2     N 8753   1.403   1.271  16.358 -0.5863  0.2687  0.6744
  590MPD2    H5 8754   1.366   1.324  16.280 -0.4369  0.1062  0.4921
  590MPD2    N1 8755   0.958   1.188  16.512  0.2332  0.4734  0.3057
  590MPD2    H7 8756   0.901   1.143  16.583 -2.3168 -0.1299 -2.1133
  591TMC3    C1 8757   1.603   1.339  16.249  0.1143  0.7445 -0.1100
  591TMC3    C2 8758   1.681   1.268  16.160 -0.4156  0.1831 -0.3310
  591TMC3    C3 8759   1.704   1.341  16.043 -0.1621 -0.4055 -0.4491
  591TMC3    C4 8760   1.556   1.468  16.239 -0.3169 -0.1726 -0.5966
  591TMC3    C5 8761   1.599   1.538  16.128  0.3918  0.1430 -0.4494
  591TMC3    C6 8762   1.672   1.475  16.028  0.0377  0.1165 -0.4211
  591TMC3     C 8763   1.542   1.264  16.357 -0.5253  0.3136 -0.5091
  591TMC3     O 8764   1.613   1.183  16.417  0.2631  0.0171  0.4172
  591TMC3     H 8765   1.707   1.164  16.177 -1.3443  0.4975  2.9799
  591TMC3    H1 8766   1.485   1.500  16.315 -0.0825 -0.2575 -0.3402
  591TMC3    H2 8767   1.702   1.534  15.942  0.6295 -0.2295 -0.4513
  591TMC3    C7 8768   1.514   1.645  16.089  0.0215  0.2675  0.1801
  591TMC3    C8 8769   1.727   1.269  15.926  0.3463 -0.1978 -0.0898
  591TMC3    O1 8770   1.402   1.641  16.133  0.0762  0.2477 -0.5400
  591TMC3    O2 8771   1.746   1.150  15.951  0.0945  0.2266  0.1784
  592MPD2     C 8772   2.171   3.373  11.555  0.2175  0.4040 -0.2830
  592MPD2    C1 8773   2.174   3.454  11.668  0.2708 -1.0135  0.4867
  592MPD2    C2 8774   2.154   3.387  11.788  0.3487  0.0627  0.0552
  592MPD2    C3 8775   2.157   3.246  11.802  0.0866 -0.0742  0.5508
  592MPD2    C4 8776   2.179   3.179  11.686  0.0517 -0.9710  0.0258
  592MPD2    C5 8777   2.184   3.238  11.564 -0.0548 -0.1228  0.0629
  592MPD2     H 8778   2.151   3.448  11.877 -2.1461  0.5567 -0.3510
  592MPD2    H1 8779   2.181   3.071  11.687  0.7954 -0.9674 -1.7727
  592MPD2    H2 8780   2.156   3.416  11.457  0.8857 -1.0435 -1.0047
  592MPD2    H3 8781   2.194   3.174  11.478 -0.8407  1.3956 -1.1506
  592MPD2     N 8782   2.131   3.182  11.927 -0.0975 -0.1811  0.1051
  592MPD2    H5 8783   2.128   3.245  12.007 -0.1160 -1.4532  1.1074
  592MPD2    N1 8784   2.175   3.598  11.655 -0.3827 -0.5731 -0.2790
  592MPD2    H7 8785   2.157   3.631  11.561  0.1339  0.4315 -0.0287
  593TMC3    C1 8786   2.173   3.831  11.714 -0.5224 -0.7133 -0.6701
  593TMC3    C2 8787   2.175   3.932  11.811  0.3767  0.0140 -1.2034
  593TMC3    C3 8788   2.156   4.058  11.771 -0.3801  0.2571 -0.1176
  593TMC3    C4 8789   2.163   3.870  11.580 -0.2518  0.0392 -0.5332
  593TMC3    C5 8790   2.165   4.006  11.545 -0.2116  0.4591 -0.0689
  593TMC3    C6 8791   2.158   4.102  11.644  0.2031 -0.2612  0.4344
  593TMC3     C 8792   2.194   3.691  11.755  0.6432  0.1126  0.4036
  593TMC3     O 8793   2.190   3.671  11.879  0.0228 -0.3620 -0.5136
  593TMC3     H 8794   2.158   3.913  11.916 -0.8807  2.0213 -1.0428
  593TMC3    H1 8795   2.192   3.801  11.502 -1.5759 -0.3599 -0.6771
  593TMC3    H2 8796   2.127   4.202  11.616 -0.5214 -0.9877 -1.4024
  593TMC3    C7 8797   2.162   4.050  11.399  0.1272 -0.2997 -0.2568
  593TMC3    C8 8798   2.192   4.158  11.870  0.3167  0.1195  0.5743
  593TMC3    O1 8799   2.190   4.169  11.378  0.2685 -0.0370 -0.5693
  593TMC3    O2 8800   2.134   4.265  11.858  0.2927  0.1555 -0.3754
  594MPD2     C 8801   0.612   1.648  14.632  0.4486  1.1403  1.2550
  594MPD2    C1 8802   0.534   1.747  14.585 -0.2381 -0.1834  0.1686
  594MPD2    C2 8803   0.597   1.865  14.538 -0.6385 -0.2496 -0.3618
  594MPD2    C3 8804   0.727   1.886  14.552 -0.5809  0.3616  0.1184
  594MPD2    C4 8805   0.799   1.778  14.611 -0.2134  0.0145  0.2679
  594MPD2    C5 8806   0.746   1.662  14.645  0.2241  0.3119 -0.3738
  594MPD2     H 8807   0.531   1.944  14.503 -0.7630 -1.2005 -2.2106
  594MPD2    H1 8808   0.903   1.798  14.637 -0.7445  3.0258  0.0619
  594MPD2    H2 8809   0.567   1.558  14.675  2.2429 -1.0244 -1.4239
  594MPD2    H3 8810   0.801   1.590  14.704 -2.0147  0.6401  2.1404
  594MPD2     N 8811   0.784   2.010  14.499  0.2660  0.2686 -0.0658
  594MPD2    H5 8812   0.718   2.068  14.449  2.6591  2.7694 -0.3345
  594MPD2    N1 8813   0.393   1.727  14.576 -0.5910  0.0400 -0.1843
  594MPD2    H7 8814   0.355   1.646  14.624 -0.5292  0.2934  0.2878
  595TMC3    C1 8815   1.101   2.296  14.325 -0.0487  0.4481 -0.0806
  595TMC3    C2 8816   1.047   2.173  14.356 -0.4763  0.5660  0.5761
  595TMC3    C3 8817   0.931   2.164  14.424 -0.0119 -0.0384  0.3889
  595TMC3    C4 8818   1.045   2.407  14.381  0.4271 -0.1665 -0.3688
  595TMC3    C5 8819   0.924   2.393  14.441 -0.0387  0.3554 -0.2056
  595TMC3    C6 8820   0.868   2.270  14.468 -0.2680  0.1431  0.2146
  595TMC3     C 8821   1.232   2.311  14.264 -0.5205  0.2648 -0.3856
  595TMC3     O 8822   1.263   2.430  14.249 -0.4459  0.4075  0.3731
  595TMC3     H 8823   1.087   2.081  14.315 -1.5240 -0.2721  1.4054
  595TMC3    H1 8824   1.083   2.505  14.356  0.0488  0.5548  1.9449
  595TMC3    H2 8825   0.776   2.262  14.525  0.2180  1.0604  1.1363
  595TMC3    C7 8826   0.868   2.500  14.496 -0.4212 -0.1883  0.4483
  595TMC3    C8 8827   0.911   2.044  14.494  0.0718  0.1990 -0.2252
  595TMC3    O1 8828   0.759   2.472  14.537 -0.3836  0.4092  0.3566
  595TMC3    O2 8829   1.009   1.969  14.514  0.2053 -0.3775 -0.1581
  596MPD2     C 8830   4.461   4.502  16.415  0.0493  0.1368 -0.9802
  596MPD2    C1 8831   4.461   4.634  16.384 -0.3352 -0.5857  0.8077
  596MPD2    C2 8832   4.478   4.651  16.249 -0.7894  0.2755  0.1104
  596MPD2    C3 8833   4.515   4.559  16.156 -0.6186 -0.2491  0.3020
  596MPD2    C4 8834   4.518   4.436  16.195  0.1375 -0.9840  0.2562
  596MPD2    C5 8835   4.492   4.407  16.324 -0.0215  0.2861  0.3345
  596MPD2     H 8836   4.469   0.030  16.221 -1.7857  0.5030  1.2839
  596MPD2    H1 8837   4.542   4.353  16.129 -0.1370 -0.5675 -0.3710
  596MPD2    H2 8838   4.426   4.468  16.512  1.2691  0.1662 -0.5237
  596MPD2    H3 8839   4.492   4.302  16.352  0.5317 -0.1716 -1.3701
  596MPD2     N 8840   4.541   4.584  16.018  0.8951  0.5538 -0.3087
  596MPD2    H5 8841   4.550   4.504  15.955 -1.7668 -0.7537  0.9814
  596MPD2    N1 8842   4.428   0.013  16.468 -0.2676  0.2627  0.1077
  596MPD2    H7 8843   4.455   0.106  16.436  0.6984 -0.3871 -0.9886
  597TMC3    C1 8844   4.373   0.118  16.679 -0.2219 -0.4083 -0.0114
  597TMC3    C2 8845   4.446   0.233  16.657 -0.7500 -0.4355 -0.0690
  597TMC3    C3 8846   4.415   0.348  16.715 -0.6072 -0.6637  0.1896
  597TMC3    C4 8847   4.283   0.121  16.782 -0.2076  0.1129  0.1221
  597TMC3    C5 8848   4.265   0.239  16.851  0.3449 -1.4496  0.2292
  597TMC3    C6 8849   4.319   0.353  16.809 -0.2820 -0.7596 -0.4016
  597TMC3     C 8850   4.393   4.724  16.603 -0.8736 -0.3795  0.4022
  597TMC3     O 8851   4.360   4.621  16.662 -0.5046 -0.7366  0.1840
  597TMC3     H 8852   4.526   0.223  16.584  0.7482 -1.4542  1.6953
  597TMC3    H1 8853   4.227   0.038  16.824  0.2046  1.2441  2.9323
  597TMC3    H2 8854   4.314   0.448  16.862 -1.2685 -0.3861 -1.1746
  597TMC3    C7 8855   4.153   0.250  16.951 -0.0905 -0.2981  1.0116
  597TMC3    C8 8856   4.467   0.463  16.652 -0.1649 -0.3763 -0.1250
  597TMC3    O1 8857   4.108   0.149  16.997  0.3459 -0.1546  0.4310
  597TMC3    O2 8858   4.567   0.450  16.577 -0.5650  0.0463  0.5818
  598TMC3    C1 8859   2.384   1.638  15.396  1.0453  0.4751 -0.5532
  598TMC3    C2 8860   2.268   1.567  15.363  0.1560  0.1511  0.3598
  598TMC3    C3 8861   2.226   1.571  15.234  0.3225 -0.1532 -0.4609
  598TMC3    C4 8862   2.455   1.723  15.309  0.5481  0.1204  0.2237
  598TMC3    C5 8863   2.413   1.711  15.176 -0.4818 -0.3764  0.4199
  598TMC3    C6 8864   2.303   1.641  15.141 -0.2630 -0.8453  0.2941
  598TMC3     C 8865   2.449   1.628  15.532  0.6210 -0.1094  0.5901
  598TMC3     O 8866   2.535   1.712  15.563 -0.5348  0.3425  0.3525
  598TMC3     H 8867   2.197   1.545  15.442 -0.4164  3.3198  0.7349
  598TMC3    H1 8868   2.554   1.764  15.327  0.6528  0.0453 -0.1933
  598TMC3    H2 8869   2.287   1.634  15.034 -0.7500  2.0901  0.1859
  598TMC3    C7 8870   2.497   1.753  15.069 -1.6259 -0.5104 -0.7576
  598TMC3    C8 8871   2.117   1.503  15.172  0.1074 -0.7195 -0.2404
  598TMC3    O1 8872   2.464   1.720  14.956  0.4729  0.1210  0.2498
  598TMC3    O2 8873   2.070   1.546  15.065 -0.1931  0.5047  0.4351
  599MPD2     C 8874   2.861   3.862  15.782 -1.0753  0.8774 -0.4422
  599MPD2    C1 8875   2.821   3.733  15.816  0.1489  0.0218  0.6242
  599MPD2    C2 8876   2.720   3.716  15.906 -0.2647 -0.7921  0.2368
  599MPD2    C3 8877   2.643   3.817  15.957 -0.2678 -0.2822 -0.3817
  599MPD2    C4 8878   2.674   3.946  15.923  0.2940 -0.0659  0.1166
  599MPD2    C5 8879   2.794   3.970  15.840  0.4401 -0.4940  0.6080
  599MPD2     H 8880   2.690   3.614  15.929 -0.0776 -0.7793  0.5307
  599MPD2    H1 8881   2.620   4.034  15.957 -1.2016 -1.0487  0.3037
  599MPD2    H2 8882   2.948   3.873  15.719  0.2063  0.7219  1.3085
  599MPD2    H3 8883   2.832   4.070  15.824 -1.3250  0.3451  1.5197
  599MPD2     N 8884   2.531   3.796  16.043 -0.4324 -0.3422  0.1060
  599MPD2    H5 8885   2.491   3.884  16.075 -2.2487 -0.5121 -1.7790
  599MPD2    N1 8886   2.910   3.629  15.784  0.4309 -1.5021  0.1728
  599MPD2    H7 8887   2.995   3.656  15.735  0.0017 -1.8689 -0.7671
  600TMC3    C1 8888   2.358   3.674  16.143 -0.1405  0.0010  0.1365
  600TMC3    C2 8889   2.298   3.550  16.188  0.4559 -0.2307 -0.1224
  600TMC3    C3 8890   2.174   3.567  16.245  0.1794 -0.3988  0.1411
  600TMC3    C4 8891   2.303   3.798  16.171 -0.9341 -0.0397 -0.6084
  600TMC3    C5 8892   2.182   3.804  16.232 -0.5658  0.1380 -0.2966
  600TMC3    C6 8893   2.114   3.687  16.268 -0.7521  0.2023  0.5235
  600TMC3     C 8894   2.488   3.677  16.088  0.6821  0.3931 -0.1533
  600TMC3     O 8895   2.542   3.565  16.083 -0.2043 -0.2172  0.4359
  600TMC3     H 8896   2.356   3.458  16.191  0.0002 -0.4083  2.8843
  600TMC3    H1 8897   2.347   3.891  16.136  1.1303 -0.9641 -0.4131
  600TMC3    H2 8898   2.032   3.695  16.339 -0.4862 -1.0947  0.9719
  600TMC3    C7 8899   2.170   3.923  16.320  0.3904 -0.1745  0.4812
  600TMC3    C8 8900   2.105   3.446  16.280 -0.2509 -0.7734  0.9912
  600TMC3    O1 8901   2.057   3.951  16.361 -0.2081 -0.1247 -0.3158
  600TMC3    O2 8902   2.183   3.351  16.304  0.0179 -0.0373 -0.5577
  601MPD2     C 8903   0.627   1.687  17.316 -0.2657  0.5080 -0.2662
  601MPD2    C1 8904   0.503   1.660  17.368 -0.5641 -0.0963  0.8064
  601MPD2    C2 8905   0.483   1.533  17.430  0.8569  0.2272 -0.3216
  601MPD2    C3 8906   0.596   1.448  17.437  0.4861 -0.4715 -0.2602
  601MPD2    C4 8907   0.715   1.479  17.376 -0.0408  0.4076 -0.3601
  601MPD2    C5 8908   0.733   1.600  17.319 -0.1761 -0.9605 -0.5110
  601MPD2     H 8909   0.390   1.501  17.477  0.1322 -1.7288 -3.1104
  601MPD2    H1 8910   0.802   1.415  17.378  0.0137  0.5095  0.3153
  601MPD2    H2 8911   0.653   1.788  17.287  2.6624  0.0348  0.6936
  601MPD2    H3 8912   0.828   1.624  17.272  0.3917 -2.1163  0.0275
  601MPD2     N 8913   0.567   1.320  17.489  0.1097 -0.3405 -0.7112
  601MPD2    H5 8914   0.472   1.300  17.518  0.9512 -2.8878  0.2888
  601MPD2    N1 8915   0.398   1.749  17.359 -0.2042 -0.0228 -0.7387
  601MPD2    H7 8916   0.309   1.729  17.402  0.1079  0.9070  0.3509
  602TMC3    C1 8917   0.263   1.937  17.324 -0.2023 -0.4513 -0.6799
  602TMC3    C2 8918   0.254   2.060  17.389 -0.2407  0.4945 -0.6528
  602TMC3    C3 8919   0.130   2.101  17.420  0.2573  0.2685 -0.1242
  602TMC3    C4 8920   0.157   1.851  17.294  0.4386 -0.2575  0.1226
  602TMC3    C5 8921   0.034   1.897  17.327  0.4712 -0.4731 -0.4513
  602TMC3    C6 8922   0.018   2.021  17.392 -0.0607 -0.4545 -0.9083
  602TMC3     C 8923   0.401   1.882  17.323  0.0589  0.7367 -0.6801
  602TMC3     O 8924   0.500   1.957  17.314 -0.0713  0.5600 -0.2556
  602TMC3     H 8925   0.349   2.105  17.418  0.4922 -1.4320 -0.0927
  602TMC3    H1 8926   0.172   1.752  17.253  0.1973 -0.2631  0.0456
  602TMC3    H2 8927   4.649   2.054  17.435  2.3401  3.6427  1.2056
  602TMC3    C7 8928   4.631   1.826  17.270 -0.6792  0.5889  0.2976
  602TMC3    C8 8929   0.101   2.236  17.450 -0.6861 -0.6953 -0.0544
  602TMC3    O1 8930   4.625   1.707  17.243  0.3695  0.1002 -0.4860
  602TMC3    O2 8931   0.192   2.307  17.494 -0.7293  0.0138 -0.3243
  603TMC3    C1 8932   2.397   2.983  11.147  0.3682  0.1889 -0.2391
  603TMC3    C2 8933   2.478   2.900  11.222 -0.0409 -0.5849 -0.8795
  603TMC3    C3 8934   2.607   2.934  11.242  0.0690 -0.3366  0.1922
  603TMC3    C4 8935   2.449   3.090  11.085  0.3426  0.0614 -0.1583
  603TMC3    C5 8936   2.581   3.125  11.112 -0.0829 -0.8280 -0.1430
  603TMC3    C6 8937   2.657   3.061  11.205  0.2655 -0.0234 -0.1693
  603TMC3     C 8938   2.280   2.924  11.088  0.4685  0.1317  0.1998
  603TMC3     O 8939   2.243   2.970  10.979  0.0093  0.2670 -0.0067
  603TMC3     H 8940   2.444   2.802  11.252  0.9227 -0.8329 -0.6073
  603TMC3    H1 8941   2.380   3.140  11.017 -0.2341  1.3116  1.3577
  603TMC3    H2 8942   2.763   3.084  11.201  0.2840 -0.4106 -1.7508
  603TMC3    C7 8943   2.641   3.244  11.047 -0.0376 -0.0066 -0.2130
  603TMC3    C8 8944   2.689   2.851  11.335 -0.3354  0.1768  0.3830
  603TMC3    O1 8945   2.744   3.291  11.091 -0.4223  0.4216 -0.1767
  603TMC3    O2 8946   2.660   2.734  11.341 -0.0596  0.2436  0.4520
  604MPD2     C 8947   3.537   1.173  16.561 -0.3388 -0.2668 -0.2093
  604MPD2    C1 8948   3.412   1.145  16.518 -0.2062  0.0184  0.4846
  604MPD2    C2 8949   3.398   1.105  16.386 -0.5164 -0.2485 -0.1486
  604MPD2    C3 8950   3.511   1.106  16.300 -0.0258 -0.7856 -0.3755
  604MPD2    C4 8951   3.632   1.131  16.352  0.8398  0.0575  0.0221
  604MPD2    C5 8952   3.652   1.170  16.483 -0.0333 -0.4635  1.0935
  604MPD2     H 8953   3.318   1.051  16.337 -2.2314  1.0802  1.1932
  604MPD2    H1 8954   3.723   1.128  16.295  0.2739  2.4617 -1.0376
  604MPD2    H2 8955   3.554   1.209  16.662 -0.5488 -1.9242  0.4147
  604MPD2    H3 8956   3.748   1.203  16.520  0.9629 -2.3902  0.2531
  604MPD2     N 8957   3.497   1.074  16.166  0.0980  0.4175  0.4537
  604MPD2    H5 8958   3.404   1.041  16.140 -0.4440  1.9855  0.3779
  604MPD2    N1 8959   3.306   1.150  16.614  0.2749  0.0688 -0.3190
  604MPD2    H7 8960   3.330   1.186  16.705 -2.1932 -0.5730  0.5780
  605TMC3    C1 8961   3.092   1.151  16.703  0.4857 -0.9645  0.1259
  605TMC3    C2 8962   3.156   1.230  16.798  0.4452  0.0545  0.7239
  605TMC3    C3 8963   3.129   1.364  16.822 -0.1696 -0.2440 -0.1248
  605TMC3    C4 8964   2.982   1.213  16.646  0.2146  0.1901  0.9850
  605TMC3    C5 8965   2.945   1.339  16.680  1.3629  0.3112  0.0486
  605TMC3    C6 8966   3.026   1.424  16.755  0.4725 -0.3944  0.2561
  605TMC3     C 8967   3.177   1.109  16.592 -0.1526  0.0829 -0.3695
  605TMC3     O 8968   3.129   1.066  16.488  0.0781 -0.2067 -0.2745
  605TMC3     H 8969   3.234   1.184  16.858 -1.5760  1.3452  4.2583
  605TMC3    H1 8970   2.930   1.163  16.565 -0.8737 -0.0868  1.8651
  605TMC3    H2 8971   2.990   1.524  16.779 -1.8460 -1.0974 -0.3303
  605TMC3    C7 8972   2.827   1.397  16.622 -0.6165  0.6156  0.6257
  605TMC3    C8 8973   3.240   1.440  16.868  0.4776 -0.2727  0.5997
  605TMC3    O1 8974   2.824   1.518  16.621  0.4381  0.2722 -0.5745
  605TMC3    O2 8975   3.350   1.388  16.855  0.5547  0.4505  0.6706
  606TMC3    C1 8976   0.216   4.620  17.044  1.2631 -0.4627 -0.3572
  606TMC3    C2 8977   0.205   4.651  17.175 -0.1981  0.0078 -0.2399
  606TMC3    C3 8978   0.121   4.568  17.248 -0.8692  0.3588 -0.6893
  606TMC3    C4 8979   0.149   4.516  16.987 -0.6438  0.3941 -0.5049
  606TMC3    C5 8980   0.058   4.447  17.060  0.3914 -0.4018  0.0586
  606TMC3    C6 8981   0.049   4.469  17.200 -0.3250 -1.0062  0.5107
  606TMC3     C 8982   0.318   4.680  16.960 -0.5039 -0.0513  0.0135
  606TMC3     O 8983   0.358   4.620  16.858 -0.1009 -0.0377  0.6100
  606TMC3     H 8984   0.275   4.717  17.226  0.6378 -0.1193 -1.2287
  606TMC3    H1 8985   0.161   4.494  16.882 -1.6516  1.8637 -0.9325
  606TMC3    H2 8986   4.693   4.423  17.256  0.1449 -1.3024  0.9435
  606TMC3    C7 8987   4.683   4.372  16.992 -0.0891  0.0411 -0.0061
  606TMC3    C8 8988   0.147   4.570  17.391 -0.2859  0.2996 -0.3083
  606TMC3    O1 8989   4.696   4.386  16.870 -0.4214  0.0261 -0.1365
  606TMC3    O2 8990   0.238   4.642  17.436 -0.0649 -0.3457 -0.6120
  607MPD2     C 8991   2.356   2.775  11.872 -1.0046  0.1161 -0.0640
  607MPD2    C1 8992   2.389   2.839  11.986 -0.1447 -0.1034  0.0542
  607MPD2    C2 8993   2.354   2.781  12.111  0.8051 -0.1966  0.4590
  607MPD2    C3 8994   2.275   2.666  12.120  0.3315 -0.1584  0.0194
  607MPD2    C4 8995   2.224   2.615  12.000 -0.3786 -0.2326 -0.1743
  607MPD2    C5 8996   2.276   2.660  11.879 -0.9423 -0.8986 -0.1104
  607MPD2     H 8997   2.369   2.843  12.199  1.7620 -1.1185  0.9533
  607MPD2    H1 8998   2.160   2.528  12.007  0.7481 -1.0771 -0.4497
  607MPD2    H2 8999   2.373   2.812  11.772 -2.5081 -1.4353 -0.8892
  607MPD2    H3 9000   2.258   2.607  11.787  2.0408 -0.6029 -0.8605
  607MPD2     N 9001   2.240   2.615  12.247 -0.1557 -0.2227  0.4466
  607MPD2    H5 9002   2.289   2.655  12.327 -0.3977  1.4198 -0.2166
  607MPD2    N1 9003   2.453   2.964  11.989 -0.2444  0.2708 -0.5637
  607MPD2    H7 9004   2.477   2.995  12.083  1.1737  2.1371 -1.5419
  608TMC3    C1 9005   2.546   3.167  11.923 -0.7852 -0.4404 -0.6770
  608TMC3    C2 9006   2.555   3.190  12.059 -0.3005  0.0443 -0.4832
  608TMC3    C3 9007   2.542   3.321  12.096  0.2542 -0.3930  0.4544
  608TMC3    C4 9008   2.557   3.268  11.837 -0.1801  0.0726  0.3534
  608TMC3    C5 9009   2.545   3.392  11.884 -0.3024  0.1200  0.2133
  608TMC3    C6 9010   2.539   3.425  12.012 -0.5267  0.0579 -0.3071
  608TMC3     C 9011   2.488   3.042  11.880 -0.1557 -0.3202 -0.3044
  608TMC3     O 9012   2.460   3.023  11.766 -0.2445  0.2429 -0.4680
  608TMC3     H 9013   2.583   3.103  12.118  0.9996  0.2917 -0.7199
  608TMC3    H1 9014   2.540   3.237  11.734 -2.9873 -0.3805  0.9578
  608TMC3    H2 9015   2.530   3.526  12.052 -0.7025 -0.4307  0.8773
  608TMC3    C7 9016   2.519   3.482  11.781  0.4099  0.0782  0.1407
  608TMC3    C8 9017   2.446   3.340  12.209  0.3755  0.1487  0.0854
  608TMC3    O1 9018   2.530   3.444  11.665 -0.2831  0.5444 -0.2650
  608TMC3    O2 9019   2.381   3.440  12.210 -0.3880  0.0155 -0.5261
  609TMC3    C1 9020   0.215   1.303   9.160  0.1423 -0.7046 -0.5611
  609TMC3    C2 9021   0.180   1.218   9.059 -0.1107 -0.9178 -0.3650
  609TMC3    C3 9022   0.231   1.091   9.068  0.6231 -0.2668 -0.2504
  609TMC3    C4 9023   0.300   1.264   9.256  0.0178  0.4709  0.5673
  609TMC3    C5 9024   0.354   1.138   9.253 -0.2039 -0.1397 -0.2067
  609TMC3    C6 9025   0.309   1.044   9.166 -0.0725  0.0196 -0.1691
  609TMC3     C 9026   0.137   1.420   9.199  0.4992  0.5244  0.3297
  609TMC3     O 9027   0.186   1.481   9.292 -0.1574  0.5804 -0.0134
  609TMC3     H 9028   0.116   1.258   8.981 -3.3209  0.5864  3.0461
  609TMC3    H1 9029   0.312   1.316   9.351 -1.6258  4.2516 -1.2896
  609TMC3    H2 9030   0.339   0.941   9.179 -0.8539 -0.2488 -0.4797
  609TMC3    C7 9031   0.463   1.105   9.343  0.3317 -0.4320 -0.2687
  609TMC3    C8 9032   0.172   0.994   8.970  0.6193 -0.9499  0.1486
  609TMC3    O1 9033   0.497   1.194   9.416  0.0013  0.1472 -0.2648
  609TMC3    O2 9034   0.080   1.034   8.900  0.0121  0.2467  0.0869
  610TMC3    C1 9035   2.551   3.049  12.753 -0.1286  0.2699  0.8049
  610TMC3    C2 9036   2.558   3.050  12.621  0.5141 -0.6590 -0.4379
  610TMC3    C3 9037   2.639   2.957  12.565 -0.4407  0.9163 -0.4670
  610TMC3    C4 9038   2.596   2.949  12.838 -0.3909  0.3232  0.0695
  610TMC3    C5 9039   2.670   2.849  12.772 -0.5868 -0.5263  0.0008
  610TMC3    C6 9040   2.695   2.856  12.639  0.3806 -0.6392  0.3577
  610TMC3     C 9041   2.447   3.130  12.813  1.1029  0.1786 -0.3274
  610TMC3     O 9042   2.386   3.100  12.914  0.1770 -0.5849 -0.1994
  610TMC3     H 9043   2.517   3.125  12.554 -0.8995  0.7587  2.0144
  610TMC3    H1 9044   2.597   2.952  12.946 -0.9448  2.7255  0.0023
  610TMC3    H2 9045   2.760   2.781  12.595  0.8009  0.0089 -0.1251
  610TMC3    C7 9046   2.745   2.746  12.846  0.3668 -0.2839  0.2194
  610TMC3    C8 9047   2.667   2.966  12.424 -0.2023  0.5895  1.0011
  610TMC3    O1 9048   2.842   2.696  12.796  0.6552  0.2997 -0.3684
  610TMC3    O2 9049   2.632   3.068  12.359  0.4343 -0.2501  0.3289
  611MPD2     C 9050   1.758   2.925  10.598 -0.3425  0.0575  0.6174
  611MPD2    C1 9051   1.729   2.980  10.477 -0.3070 -0.0581  0.3182
  611MPD2    C2 9052   1.804   3.089  10.434  0.1204 -0.2059  0.1098
  611MPD2    C3 9053   1.920   3.133  10.502 -0.3047  0.1258 -0.0064
  611MPD2    C4 9054   1.954   3.058  10.614 -0.5253  0.2033  0.4358
  611MPD2    C5 9055   1.881   2.948  10.657 -0.1502 -0.1943 -0.4267
  611MPD2     H 9056   1.771   3.140  10.345 -0.2497 -2.0704 -0.8109
  611MPD2    H1 9057   2.046   3.073  10.670  0.2924 -0.0350 -0.8414
  611MPD2    H2 9058   1.696   2.856  10.654  1.4295 -0.7381  1.5881
  611MPD2    H3 9059   1.906   2.889  10.745  1.4992 -1.5829 -1.8390
  611MPD2     N 9060   2.007   3.235  10.463 -0.3273 -0.1677  1.0215
  611MPD2    H5 9061   2.085   3.267  10.520  0.5924 -0.1412 -0.2571
  611MPD2    N1 9062   1.623   2.919  10.406  0.8462  0.0155  0.1074
  611MPD2    H7 9063   1.594   2.827  10.438 -0.6452  0.3652 -0.2191
  612TMC3    C1 9064   2.070   3.431  10.342  0.4784  0.9278  0.4741
  612TMC3    C2 9065   2.190   3.437  10.409  0.1921  0.1470 -0.4124
  612TMC3    C3 9066   2.263   3.555  10.391  0.4563  0.0816 -0.4144
  612TMC3    C4 9067   2.033   3.534  10.255  0.2642  0.5582 -0.2339
  612TMC3    C5 9068   2.114   3.638  10.231 -0.5031 -0.7048  0.6176
  612TMC3    C6 9069   2.236   3.649  10.293  0.5257  0.8359 -1.1015
  612TMC3     C 9070   1.982   3.315  10.353  0.4003  0.1533  0.6211
  612TMC3     O 9071   1.891   3.313  10.272 -0.4793  0.3315 -0.0868
  612TMC3     H 9072   2.216   3.357  10.476 -0.5131  0.4230  0.1951
  612TMC3    H1 9073   1.952   3.520  10.184  0.3535  2.8480 -0.8041
  612TMC3    H2 9074   2.293   3.739  10.309  1.1929  0.1139  0.5375
  612TMC3    C7 9075   2.099   3.730  10.119  0.0144 -0.1316 -0.1562
  612TMC3    C8 9076   2.387   3.581  10.463 -0.6424 -0.8352 -0.0990
  612TMC3    O1 9077   2.191   3.810  10.100  0.4999  0.0096 -0.1896
  612TMC3    O2 9078   2.474   3.646  10.407 -0.0818  0.8031 -0.0457
  613MPD2     C 9079   1.009   0.196  16.404  0.0826 -0.7035  0.0845
  613MPD2    C1 9080   1.028   0.092  16.315  0.1907  0.1585  0.6139
  613MPD2    C2 9081   0.919   0.022  16.259 -0.5718  0.0010  0.5455
  613MPD2    C3 9082   0.791   0.064  16.297 -0.3831  0.3232 -0.4798
  613MPD2    C4 9083   0.777   0.158  16.395 -0.2254  0.2066  0.0058
  613MPD2    C5 9084   0.886   0.222  16.456  0.6496  0.3103 -0.1139
  613MPD2     H 9085   0.944   4.671  16.186 -2.0067  1.1442 -1.1500
  613MPD2    H1 9086   0.675   0.179  16.424 -0.4618 -0.0714 -0.6150
  613MPD2    H2 9087   1.091   0.254  16.445 -0.9983  0.1722  0.9724
  613MPD2    H3 9088   0.884   0.288  16.541 -2.9279  1.0784 -0.7928
  613MPD2     N 9089   0.678   0.013  16.232  0.1557 -0.3442  0.6052
  613MPD2    H5 9090   0.592   0.065  16.246 -0.6466 -1.3497 -0.6111
  613MPD2    N1 9091   1.150   0.054  16.261  0.0626  0.2147  0.2147
  613MPD2    H7 9092   1.152   4.702  16.195 -2.6657  1.3223 -1.1692
  614TMC3    C1 9093   1.365   0.064  16.182 -0.6377  0.1509 -0.2600
  614TMC3    C2 9094   1.341   4.653  16.151  0.0725 -0.9358 -0.3150
  614TMC3    C3 9095   1.340   4.619  16.014  0.4895  0.0542  0.1375
  614TMC3    C4 9096   1.396   0.156  16.088  0.2632 -0.8147  0.1249
  614TMC3    C5 9097   1.397   0.125  15.955  0.2314  0.4034  0.0093
  614TMC3    C6 9098   1.370   4.719  15.917 -0.5976 -0.5288  0.2106
  614TMC3     C 9099   1.272   0.116  16.279  0.2358  0.2313  0.5616
  614TMC3     O 9100   1.305   0.220  16.339  0.1352 -0.3194  0.2053
  614TMC3     H 9101   1.305   4.585  16.228  0.7940 -0.5532  0.3693
  614TMC3    H1 9102   1.423   0.253  16.128  1.1941 -0.0582 -2.3415
  614TMC3    H2 9103   1.379   4.691  15.813 -0.7978  1.4101 -0.3243
  614TMC3    C7 9104   1.367   0.233  15.867  0.0252  0.0658 -0.5476
  614TMC3    C8 9105   1.223   4.531  15.988 -0.2722 -0.3673 -0.0217
  614TMC3    O1 9106   1.389   0.344  15.913 -0.4890  0.2252  0.2329
  614TMC3    O2 9107   1.140   4.526  16.076  0.6176 -0.0775 -0.2185
  615MPD2     C 9108   0.566   1.657  16.376 -0.9666 -0.1387 -0.8261
  615MPD2    C1 9109   0.543   1.780  16.306 -0.3131  0.4787 -0.7217
  615MPD2    C2 9110   0.527   1.778  16.165 -0.0939 -0.1212 -0.6114
  615MPD2    C3 9111   0.540   1.653  16.099 -0.4537 -0.7902 -0.2506
  615MPD2    C4 9112   0.580   1.549  16.171  0.9970  0.5647 -0.5855
  615MPD2    C5 9113   0.584   1.544  16.306  1.0637  0.1950  0.4868
  615MPD2     H 9114   0.521   1.870  16.109  0.1963  1.5767  2.1717
  615MPD2    H1 9115   0.609   1.463  16.112 -0.2793 -2.1910  2.7652
  615MPD2    H2 9116   0.556   1.648  16.484  1.3222 -0.6271 -0.6642
  615MPD2    H3 9117   0.610   1.458  16.367  0.7298 -1.1282 -1.2544
  615MPD2     N 9118   0.540   1.643  15.957 -0.1338  0.2022 -0.1394
  615MPD2    H5 9119   0.565   1.552  15.921 -1.5649 -1.2561  2.5933
  615MPD2    N1 9120   0.492   1.891  16.368 -0.1292 -0.0613  0.3864
  615MPD2    H7 9121   0.461   1.964  16.305  0.9936  0.7747  0.8086
  616TMC3    C1 9122   0.420   2.044  16.529 -0.7798  0.4001 -0.0356
  616TMC3    C2 9123   0.464   2.135  16.441 -0.4356  0.2387  0.2042
  616TMC3    C3 9124   0.387   2.247  16.428  0.4954 -0.5217  0.1322
  616TMC3    C4 9125   0.303   2.056  16.596 -0.2757 -0.9567 -0.3982
  616TMC3    C5 9126   0.227   2.168  16.576 -0.1466 -0.1838 -0.1692
  616TMC3    C6 9127   0.271   2.266  16.491 -0.0570 -0.2536  0.3136
  616TMC3     C 9128   0.478   1.912  16.505  0.0528  0.1832  0.1455
  616TMC3     O 9129   0.500   1.844  16.605  0.4233 -0.4116  0.2807
  616TMC3     H 9130   0.564   2.126  16.400 -0.2530 -1.1318  0.9389
  616TMC3    H1 9131   0.272   1.970  16.655  0.1360  0.9436  2.6101
  616TMC3    H2 9132   0.208   2.352  16.474  1.2485  0.8375  0.9525
  616TMC3    C7 9133   0.095   2.186  16.628 -0.0574 -0.1042 -0.5964
  616TMC3    C8 9134   0.434   2.350  16.338  0.1360  0.2105  0.7384
  616TMC3    O1 9135   0.056   2.300  16.644  0.7379  0.1230 -0.0144
  616TMC3    O2 9136   0.358   2.435  16.299  0.2755  0.2286  0.1398
  617MPD2     C 9137   3.354   0.096  13.690 -0.0566  0.4785 -0.3413
  617MPD2    C1 9138   3.341   0.090  13.823 -0.1094  0.4361 -0.9536
  617MPD2    C2 9139   3.224   0.041  13.876 -0.0185 -0.5558 -0.3033
  617MPD2    C3 9140   3.132   4.706  13.793 -0.9296  0.0429  0.2917
  617MPD2    C4 9141   3.148   4.712  13.658  0.2582  0.2885  0.1395
  617MPD2    C5 9142   3.258   0.050  13.605  0.5950  0.2390 -0.4826
  617MPD2     H 9143   3.207   0.036  13.983  0.7854  2.8694 -0.0204
  617MPD2    H1 9144   3.072   4.671  13.592  2.6700 -0.4704 -2.1725
  617MPD2    H2 9145   3.444   0.132  13.641  2.2758  0.5750  4.0335
  617MPD2    H3 9146   3.267   0.068  13.498  1.0887 -0.0739 -0.4942
  617MPD2     N 9147   3.011   4.648  13.842  0.0782 -0.2225  0.4353
  617MPD2    H5 9148   2.934   4.633  13.777 -0.7401  1.2462  1.0738
  617MPD2    N1 9149   3.448   0.148  13.889  0.0476  0.1564 -0.0453
  617MPD2    H7 9150   3.526   0.179  13.832  0.4852  2.1706  1.6674
  618TMC3    C1 9151   3.582   0.203  14.074  0.2854  0.5870  0.3299
  618TMC3    C2 9152   3.647   0.101  14.139  0.9207 -0.6382  0.3752
  618TMC3    C3 9153   3.771   0.064  14.099 -0.0209 -0.9057 -0.0940
  618TMC3    C4 9154   3.647   0.281  13.984 -0.1413 -0.4220 -0.8947
  618TMC3    C5 9155   3.769   0.237  13.945 -0.8825  0.0736  0.5735
  618TMC3    C6 9156   3.838   0.130  13.999  0.4141 -0.0547  0.9099
  618TMC3     C 9157   3.455   0.164  14.026 -0.6107 -0.0112 -0.1975
  618TMC3     O 9158   3.376   0.124  14.111  0.4848  0.7370  0.0531
  618TMC3     H 9159   3.591   0.045  14.213  0.1886 -2.6582 -1.6980
  618TMC3    H1 9160   3.595   0.367  13.943  0.4045  0.4479  0.2270
  618TMC3    H2 9161   3.921   0.086  13.946  0.8315  1.9441 -0.1021
  618TMC3    C7 9162   3.775   0.252  13.801 -0.0491 -0.3640  0.2699
  618TMC3    C8 9163   3.804   4.648  14.113 -0.5307 -0.3049 -0.7120
  618TMC3    O1 9164   3.669   0.225  13.746  0.7778  0.0963  0.2218
  618TMC3    O2 9165   3.714   4.572  14.146  0.3904 -0.0128  0.1370
  619MPD2     C 9166   0.346   1.673  13.337  0.5054  0.1734  0.0476
  619MPD2    C1 9167   0.245   1.746  13.281  0.4498  0.3120  0.1412
  619MPD2    C2 9168   0.168   1.671  13.188 -0.4102  0.0076 -0.6489
  619MPD2    C3 9169   0.191   1.542  13.153  0.0043 -0.3899  0.5304
  619MPD2    C4 9170   0.285   1.473  13.218 -0.5553  0.2451 -0.0999
  619MPD2    C5 9171   0.361   1.537  13.310 -0.7137 -0.0906  0.4252
  619MPD2     H 9172   0.081   1.722  13.148 -0.3829  2.1882  2.0489
  619MPD2    H1 9173   0.292   1.366  13.204  0.1347  0.6124 -2.6476
  619MPD2    H2 9174   0.408   1.709  13.418  0.4224 -2.3321  1.2345
  619MPD2    H3 9175   0.433   1.483  13.371  0.0293 -0.0471 -0.4182
  619MPD2     N 9176   0.113   1.469  13.058  0.6153 -0.4242  0.1690
  619MPD2    H5 9177   0.132   1.370  13.060  3.6915  0.1607  0.8756
  619MPD2    N1 9178   0.208   1.886  13.307  0.1383  0.0854 -0.5481
  619MPD2    H7 9179   0.119   1.925  13.276 -0.0730 -0.0463 -0.1097
  620TMC3    C1 9180   0.183   2.058  13.464  0.1573 -0.8248  0.7960
  620TMC3    C2 9181   0.098   2.113  13.371 -0.7086 -1.0538  0.3052
  620TMC3    C3 9182   4.724   2.201  13.411  0.8012 -0.8369  0.1278
  620TMC3    C4 9183   0.170   2.087  13.596 -0.5359  0.1106 -0.1939
  620TMC3    C5 9184   0.084   2.185  13.639 -0.7628 -0.4959  0.1241
  620TMC3    C6 9185   0.005   2.246  13.542  0.3161  0.3314 -0.1216
  620TMC3     C 9186   0.258   1.942  13.419  0.1468  0.5474  0.0042
  620TMC3     O 9187   0.367   1.921  13.475 -0.3824  0.2119 -0.0026
  620TMC3     H 9188   0.114   2.097  13.265  1.2492 -1.7982  0.7153
  620TMC3    H1 9189   0.210   2.020  13.671 -0.5901 -2.4554 -2.4448
  620TMC3    H2 9190   4.670   2.333  13.566  0.0014  0.2290 -0.5415
  620TMC3    C7 9191   0.017   2.141  13.752 -0.1102  0.0024 -0.4831
  620TMC3    C8 9192   4.580   2.177  13.381  0.2971 -0.1661 -0.2082
  620TMC3    O1 9193   0.088   2.093  13.843 -0.1400 -0.1106 -0.6748
  620TMC3    O2 9194   4.505   2.193  13.475 -0.3625 -0.6129 -0.7105
  621MPD2     C 9195   0.884   0.917   9.884 -0.1817 -0.3752  0.2217
  621MPD2    C1 9196   0.786   1.011   9.861 -0.3999 -0.7629 -0.0082
  621MPD2    C2 9197   0.813   1.138   9.896  0.2695  0.0444  0.1337
  621MPD2    C3 9198   0.932   1.172   9.966  0.6989  0.7099 -0.2775
  621MPD2    C4 9199   1.028   1.076   9.990 -0.1276  0.0907 -0.2889
  621MPD2    C5 9200   1.005   0.951   9.942  0.0261 -0.0251 -0.1737
  621MPD2     H 9201   0.743   1.218   9.872  1.8087  1.7578  1.4017
  621MPD2    H1 9202   1.121   1.095  10.043 -0.7509  0.1855  0.7692
  621MPD2    H2 9203   0.870   0.816   9.848  0.7399 -0.7080  0.7953
  621MPD2    H3 9204   1.069   0.870   9.976  2.1211  1.6016 -0.2465
  621MPD2     N 9205   0.944   1.308  10.008 -0.0599  0.1047  0.1138
  621MPD2    H5 9206   0.862   1.366   9.990 -1.2699 -2.0212 -1.1890
  621MPD2    N1 9207   0.659   0.981   9.809  0.7944  0.1853 -0.4266
  621MPD2    H7 9208   0.593   1.058   9.809 -1.8388 -2.0615  0.0107
  622TMC3    C1 9209   0.473   0.867   9.725  0.5038  0.4867  0.2774
  622TMC3    C2 9210   0.406   0.988   9.701  0.4870  0.2363  0.0164
  622TMC3    C3 9211   0.280   0.985   9.661 -0.2765 -0.3481 -0.6318
  622TMC3    C4 9212   0.416   0.745   9.703  0.1357  0.3137  0.2503
  622TMC3    C5 9213   0.281   0.741   9.677 -0.4225  0.5466  0.3227
  622TMC3    C6 9214   0.214   0.861   9.647  0.4811 -0.1087 -0.4624
  622TMC3     C 9215   0.610   0.864   9.763 -0.5539  0.6340 -0.4246
  622TMC3     O 9216   0.657   0.756   9.785  0.0629  0.2403  0.1218
  622TMC3     H 9217   0.450   1.087   9.707  0.6935  0.0803  1.1542
  622TMC3    H1 9218   0.470   0.655   9.732  1.8685  1.4510  0.5315
  622TMC3    H2 9219   0.107   0.866   9.635  0.5924  0.7571 -1.1165
  622TMC3    C7 9220   0.215   0.615   9.685 -0.1160 -0.2459 -0.3243
  622TMC3    C8 9221   0.189   1.101   9.673  0.0366 -0.4521 -0.2031
  622TMC3    O1 9222   0.265   0.537   9.765 -0.4074  0.1980  0.0074
  622TMC3    O2 9223   0.095   1.104   9.591  0.2983  0.0254  0.1473
  623MPD2     C 9224   3.805   1.762  16.084  0.5747 -0.0299 -0.4032
  623MPD2    C1 9225   3.747   1.673  16.174 -0.3259 -0.1360  0.5263
  623MPD2    C2 9226   3.803   1.674  16.304 -0.5841  0.1307 -0.7616
  623MPD2    C3 9227   3.909   1.754  16.340  0.0663  0.6743  0.8168
  623MPD2    C4 9228   3.966   1.841  16.243 -0.5001  0.4126  0.5747
  623MPD2    C5 9229   3.908   1.849  16.117 -0.3721  0.4641  0.2964
  623MPD2     H 9230   3.767   1.607  16.381  0.1754 -0.2368 -0.7317
  623MPD2    H1 9231   4.053   1.904  16.258  0.7128 -0.9287 -0.8199
  623MPD2    H2 9232   3.759   1.769  15.986  0.5855  2.1934 -0.2640
  623MPD2    H3 9233   3.964   1.903  16.042  0.4381  0.7777  1.1212
  623MPD2     N 9234   3.941   1.754  16.481  0.0414 -0.0858  0.0185
  623MPD2    H5 9235   3.882   1.690  16.534  0.9452 -1.0543 -0.1403
  623MPD2    N1 9236   3.640   1.590  16.134 -1.0690  0.2666  0.4527
  623MPD2    H7 9237   3.604   1.603  16.040 -0.8281 -2.6635 -0.0579
  624TMC3    C1 9238   4.080   1.560  16.791  0.2454 -0.9236 -0.1050
  624TMC3    C2 9239   3.964   1.575  16.857 -0.8032 -0.4100 -0.1170
  624TMC3    C3 9240   3.877   1.675  16.815 -0.9705 -0.5900 -0.1843
  624TMC3    C4 9241   4.127   1.646  16.699 -0.3614 -0.0279 -0.1615
  624TMC3    C5 9242   4.046   1.756  16.675 -0.5899 -0.0954  0.2575
  624TMC3    C6 9243   3.921   1.768  16.728  0.5976  0.3398 -0.7706
  624TMC3     C 9244   4.168   1.448  16.831  0.0274 -0.2577  0.2362
  624TMC3     O 9245   4.287   1.470  16.846 -0.1742 -0.7469  0.1059
  624TMC3     H 9246   3.942   1.499  16.930  0.1710 -1.3712 -0.8205
  624TMC3    H1 9247   4.226   1.643  16.656 -0.4800 -0.3714 -0.4102
  624TMC3    H2 9248   3.862   1.846  16.681  1.2588 -0.4406 -2.8832
  624TMC3    C7 9249   4.052   1.799  16.540  0.2343 -0.5381 -0.8886
  624TMC3    C8 9250   3.736   1.666  16.859 -0.6262  0.2742 -0.0128
  624TMC3    O1 9251   4.145   1.866  16.498  0.3845 -0.1018 -0.1878
  624TMC3    O2 9252   3.700   1.554  16.892 -0.1673 -0.0074 -1.1898
  625MPD2     C 9253   4.306   2.134   0.342  0.0247  0.5716 -0.2339
  625MPD2    C1 9254   4.356   2.255   0.388 -0.0694 -0.1081  0.1189
  625MPD2    C2 9255   4.484   2.265   0.450 -0.0876 -1.3257 -0.1439
  625MPD2    C3 9256   4.557   2.148   0.465 -0.3506  0.3840 -0.0485
  625MPD2    C4 9257   4.502   2.028   0.421  0.3645 -0.1519 -0.1294
  625MPD2    C5 9258   4.384   2.024   0.356  0.4772  0.3464  0.1119
  625MPD2     H 9259   4.527   2.352   0.498  1.2885 -1.3087 -1.4021
  625MPD2    H1 9260   4.558   1.935   0.433  1.3723  0.6026  1.0913
  625MPD2    H2 9261   4.209   2.121   0.295  0.0262 -0.7106  0.1111
  625MPD2    H3 9262   4.341   1.931   0.320 -1.2461  0.4941  1.7805
  625MPD2     N 9263   4.679   2.164   0.534 -0.3698  0.6984 -0.2830
  625MPD2    H5 9264   4.694   2.261   0.560 -2.1849  0.1866  2.7218
  625MPD2    N1 9265   4.282   2.374   0.373  0.7443 -0.4094  0.3442
  625MPD2    H7 9266   4.329   2.457   0.406 -0.6722  0.7459 -0.5684
  626TMC3    C1 9267   4.109   2.515   0.302 -0.3178  0.3128 -0.2589
  626TMC3    C2 9268   4.047   2.551   0.179  0.0443  0.0555 -0.1236
  626TMC3    C3 9269   4.001   2.680   0.177 -0.1667  1.0171  0.6285
  626TMC3    C4 9270   4.139   2.601   0.405  0.4758  0.0019 -0.4417
  626TMC3    C5 9271   4.087   2.721   0.388  0.0210  0.0671  0.4424
  626TMC3    C6 9272   4.018   2.769   0.277 -0.5091 -0.4102 -0.2245
  626TMC3     C 9273   4.163   2.385   0.302 -0.2234 -0.2912  0.0957
  626TMC3     O 9274   4.115   2.307   0.220 -0.2317  0.0859  0.1201
  626TMC3     H 9275   4.036   2.475   0.102  0.9234  0.1222 -0.3177
  626TMC3    H1 9276   4.190   2.573   0.496 -0.8087 -1.7440 -0.2607
  626TMC3    H2 9277   3.978   2.869   0.281  0.8694  0.0026  3.1770
  626TMC3    C7 9278   4.056   2.783   0.513 -0.8245 -0.6225 -0.6145
  626TMC3    C8 9279   3.933   2.730   0.059  0.1933  0.1065  0.0467
  626TMC3    O1 9280   4.144   2.786   0.600 -0.3252 -0.1703 -0.1033
  626TMC3    O2 9281   3.966   2.839   0.023  0.2042 -0.0723  0.3774
  627MPD2     C 9282   3.106   3.423  13.955 -0.1268  0.0955 -0.2648
  627MPD2    C1 9283   3.116   3.390  14.092 -0.2222 -0.0794 -0.0673
  627MPD2    C2 9284   3.020   3.313  14.152  0.3199 -0.0232 -0.4134
  627MPD2    C3 9285   2.898   3.288  14.088 -0.5044 -0.1346 -0.7419
  627MPD2    C4 9286   2.883   3.325  13.953 -0.6968  0.0588 -0.1326
  627MPD2    C5 9287   2.988   3.393  13.890 -0.2713 -0.1908  0.2546
  627MPD2     H 9288   3.030   3.276  14.254  0.2021  0.4969 -0.2137
  627MPD2    H1 9289   2.796   3.294  13.896 -0.3467  0.2706 -0.7795
  627MPD2    H2 9290   3.188   3.472  13.905 -0.7282  0.7583 -0.6126
  627MPD2    H3 9291   2.973   3.420  13.786  1.5127  2.0322  0.5833
  627MPD2     N 9292   2.788   3.240  14.166  0.4313 -0.0175 -0.4819
  627MPD2    H5 9293   2.816   3.202  14.256 -1.9683  2.4622  1.3348
  627MPD2    N1 9294   3.223   3.437  14.168  0.4314  0.5335  0.1932
  627MPD2    H7 9295   3.246   3.391  14.255 -0.6961  1.5552  1.0172
  628TMC3    C1 9296   3.362   3.596  14.249 -1.0414 -0.0033 -0.1908
  628TMC3    C2 9297   3.470   3.513  14.277 -0.2350 -0.6111 -0.2783
  628TMC3    C3 9298   3.568   3.592  14.330 -0.2717 -0.2079 -0.3596
  628TMC3    C4 9299   3.355   3.737  14.267 -0.8505 -0.0956 -0.1286
  628TMC3    C5 9300   3.461   3.795  14.333 -0.2632 -0.2631 -0.1151
  628TMC3    C6 9301   3.566   3.719  14.380  0.4733  0.2839 -0.0568
  628TMC3     C 9302   3.289   3.553  14.137 -0.0390 -0.0743  0.0853
  628TMC3     O 9303   3.273   3.632  14.043  0.0109 -0.0379  0.1209
  628TMC3     H 9304   3.490   3.420  14.226  1.0159  0.1654 -1.1937
  628TMC3    H1 9305   3.286   3.797  14.209 -1.5028 -0.9097 -0.1769
  628TMC3    H2 9306   3.660   3.763  14.412 -0.0552  0.9928  0.5000
  628TMC3    C7 9307   3.448   3.924  14.393 -1.0270 -0.0301 -0.1478
  628TMC3    C8 9308   3.694   3.529  14.338 -0.1162  0.1207 -0.0782
  628TMC3    O1 9309   3.530   3.952  14.479  0.2642  0.2213  0.5348
  628TMC3    O2 9310   3.787   3.596  14.299  0.6573 -0.1929  0.3556
  629MPD2     C 9311   0.810   2.544  16.044  0.5752  0.1975  0.0081
  629MPD2    C1 9312   0.862   2.438  16.125 -0.2153 -0.6038  0.5238
  629MPD2    C2 9313   0.780   2.367  16.217 -0.9966  0.1261 -0.3144
  629MPD2    C3 9314   0.649   2.423  16.235 -0.4138  0.4352  0.2912
  629MPD2    C4 9315   0.607   2.518  16.149  0.2248 -0.3080 -0.3694
  629MPD2    C5 9316   0.681   2.583  16.056  0.0227 -0.5026  0.9532
  629MPD2     H 9317   0.821   2.280  16.266 -0.4703  0.2814 -0.4740
  629MPD2    H1 9318   0.515   2.571  16.171 -0.9396 -2.8300  0.7616
  629MPD2    H2 9319   0.872   2.598  15.973  1.0783 -0.6228 -0.1675
  629MPD2    H3 9320   0.642   2.666  15.997 -0.2898 -1.2094  0.1649
  629MPD2     N 9321   0.569   2.349  16.317  0.7178  0.4981  0.4600
  629MPD2    H5 9322   0.617   2.275  16.368 -0.3111 -0.7578 -0.3804
  629MPD2    N1 9323   0.986   2.384  16.090  0.2803  0.3266 -0.0058
  629MPD2    H7 9324   1.028   2.424  16.007 -0.5354 -0.3716 -0.7619
  630TMC3    C1 9325   1.172   2.261  16.080 -0.0147  0.1474  0.2161
  630TMC3    C2 9326   1.236   2.373  16.024 -0.3936 -0.6101  0.0849
  630TMC3    C3 9327   1.369   2.370  16.012  1.2931  0.0140  0.5458
  630TMC3    C4 9328   1.239   2.154  16.123  0.1078 -0.1664 -0.0777
  630TMC3    C5 9329   1.376   2.159  16.132 -0.8525  0.3963  0.8047
  630TMC3    C6 9330   1.442   2.262  16.065 -0.1749  0.2081  0.1508
  630TMC3     C 9331   1.050   2.282  16.155  0.1163  0.0079 -0.2894
  630TMC3     O 9332   1.026   2.218  16.256  0.6470  0.2184  0.6186
  630TMC3     H 9333   1.188   2.470  16.021 -2.1801 -1.5141 -0.4654
  630TMC3    H1 9334   1.187   2.075  16.177  0.0139 -0.3456 -0.4347
  630TMC3    H2 9335   1.548   2.282  16.065  0.3157 -2.4364  1.7591
  630TMC3    C7 9336   1.431   2.108  16.251  0.5560  0.4860  0.7540
  630TMC3    C8 9337   1.436   2.488  16.061  0.7141  0.1984 -0.3515
  630TMC3    O1 9338   1.413   1.990  16.285  0.6166  0.4635 -0.1463
  630TMC3    O2 9339   1.434   2.497  16.185  0.0866 -0.3641 -0.4302
  631MPD2     C 9340   4.356   1.579  15.658  0.6226  0.3437 -0.0065
  631MPD2    C1 9341   4.406   1.628  15.539  0.2286 -0.4687  0.2535
  631MPD2    C2 9342   4.542   1.627  15.514  0.1781 -0.5551  0.3145
  631MPD2    C3 9343   4.635   1.595  15.611  0.0359 -0.2936 -0.0626
  631MPD2    C4 9344   4.585   1.549  15.734 -0.2129 -0.4684  0.0378
  631MPD2    C5 9345   4.449   1.547  15.752 -0.0567  0.3986  0.3770
  631MPD2     H 9346   4.571   1.659  15.415  1.2351 -0.3547  0.6901
  631MPD2    H1 9347   4.650   1.507  15.809 -0.6268 -1.7693 -0.3316
  631MPD2    H2 9348   4.249   1.565  15.664  0.9561 -2.9834 -1.9764
  631MPD2    H3 9349   4.419   1.509  15.849 -2.7889 -1.3667 -1.1608
  631MPD2     N 9350   0.049   1.589  15.576  0.0551  0.5906 -0.1124
  631MPD2    H5 9351   0.072   1.573  15.479  0.3485 -1.5959  0.3221
  631MPD2    N1 9352   4.307   1.687  15.455 -0.0865  0.2180  0.0297
  631MPD2    H7 9353   4.208   1.690  15.476  0.1977  0.8063  1.3289
  632TMC3    C1 9354   4.230   1.801  15.255  0.0037 -0.1002  0.9185
  632TMC3    C2 9355   4.103   1.745  15.279  0.8687 -0.6677 -0.2560
  632TMC3    C3 9356   4.004   1.779  15.192 -0.3338  0.4953 -0.6078
  632TMC3    C4 9357   4.264   1.861  15.137  0.7436 -0.1909  0.2968
  632TMC3    C5 9358   4.158   1.866  15.044  0.0118  0.1327  0.7533
  632TMC3    C6 9359   4.028   1.840  15.075 -0.2736 -0.1630  0.6282
  632TMC3     C 9360   4.341   1.764  15.345 -0.1038  0.8404 -0.1432
  632TMC3     O 9361   4.451   1.793  15.298 -0.1536 -0.0520 -0.3804
  632TMC3     H 9362   4.084   1.682  15.366  1.0808 -1.6662 -0.9304
  632TMC3    H1 9363   4.361   1.907  15.122 -0.5965  1.9760 -1.6029
  632TMC3    H2 9364   3.949   1.853  15.001 -1.9125  1.4999  2.6625
  632TMC3    C7 9365   4.196   1.912  14.913 -0.4857 -0.0944  0.7571
  632TMC3    C8 9366   3.877   1.808  15.252 -0.4048  0.1617  0.1097
  632TMC3    O1 9367   4.131   2.001  14.860 -0.2776  0.0430  0.4238
  632TMC3    O2 9368   3.860   1.765  15.365 -0.3781 -0.1474  0.3513
  633MPD2     C 9369   3.987   4.381  17.307  0.7331 -0.7353 -0.6296
  633MPD2    C1 9370   3.969   4.319  17.190  0.2608  0.5848 -0.2858
  633MPD2    C2 9371   3.957   4.176  17.191  0.7333  0.7982  0.1920
  633MPD2    C3 9372   3.961   4.108  17.308 -0.1208 -0.0031 -1.0682
  633MPD2    C4 9373   3.984   4.179  17.424 -0.2587  0.4159 -0.2715
  633MPD2    C5 9374   4.006   4.319  17.425  0.0516  0.2735  0.6264
  633MPD2     H 9375   3.946   4.119  17.099  1.9924 -0.4887  0.8458
  633MPD2    H1 9376   3.989   4.122  17.516  0.3611  1.4501  0.3372
  633MPD2    H2 9377   4.016   4.486  17.311 -1.5689 -0.0493 -2.2204
  633MPD2    H3 9378   4.028   4.375  17.516  0.5794 -1.1607  1.3670
  633MPD2     N 9379   3.953   3.966  17.303  0.2596 -0.0133  0.1215
  633MPD2    H5 9380   3.963   3.914  17.390  0.6711  0.6070  0.4416
  633MPD2    N1 9381   3.986   4.390  17.067 -0.4652  0.1258  0.0194
  633MPD2    H7 9382   4.002   4.332  16.985  0.4660 -0.5677  0.6971
  634TMC3    C1 9383   3.994   4.558  16.909  0.2077  0.0834 -0.1550
  634TMC3    C2 9384   4.075   4.485  16.824 -0.4379  0.8559 -0.2207
  634TMC3    C3 9385   4.073   4.528  16.691  0.0042 -0.1470 -0.1640
  634TMC3    C4 9386   3.946   4.681  16.868  0.3744  0.4525 -0.5448
  634TMC3    C5 9387   3.959   4.722  16.735 -0.2171  0.6707 -0.7970
  634TMC3    C6 9388   4.030   4.642  16.639 -0.1619 -0.3157 -0.2367
  634TMC3     C 9389   3.987   4.528  17.052 -0.5785  0.0974 -0.3499
  634TMC3     O 9390   3.943   4.621  17.124  0.0276 -0.2274 -0.2171
  634TMC3     H 9391   4.131   4.396  16.851  1.0092  2.5458  2.3019
  634TMC3    H1 9392   3.898   0.018  16.943 -3.1248 -1.1452 -1.4539
  634TMC3    H2 9393   4.050   4.676  16.538 -1.6254  1.5758  0.1170
  634TMC3    C7 9394   3.909   0.124  16.685 -0.0554  0.1705  0.3214
  634TMC3    C8 9395   4.114   4.428  16.596  0.6307 -0.2184  0.3193
  634TMC3    O1 9396   3.939   0.157  16.572  0.0013 -0.0996 -0.8819
  634TMC3    O2 9397   4.147   4.317  16.639  0.3791 -0.0544 -0.3473
  635TMC3    C1 9398   0.047   0.468  16.980 -0.1973 -0.9312 -0.1277
  635TMC3    C2 9399   0.123   0.481  16.861 -0.4269  1.3888 -0.0365
  635TMC3    C3 9400   0.126   0.372  16.779 -0.9307 -0.3554 -0.2146
  635TMC3    C4 9401   4.701   0.357  17.009 -0.2255  0.4040  0.2866
  635TMC3    C5 9402   4.702   0.256  16.914 -0.4711  0.1035 -0.1270
  635TMC3    C6 9403   0.046   0.262  16.799  0.3423  0.2513 -0.4062
  635TMC3     C 9404   0.086   0.565  17.088 -0.0116  0.6666 -0.3962
  635TMC3     O 9405   0.192   0.626  17.070 -0.2012 -0.1286  0.0541
  635TMC3     H 9406   0.188   0.565  16.843  0.7021  1.0262  2.2926
  635TMC3    H1 9407   4.650   0.340  17.103  0.9556 -1.0574  0.6552
  635TMC3    H2 9408   0.037   0.185  16.722  0.7118 -1.1449  0.9544
  635TMC3    C7 9409   4.642   0.129  16.937  0.7095 -0.3525  0.1695
  635TMC3    C8 9410   0.205   0.366  16.654  0.8082 -0.8065 -0.2482
  635TMC3    O1 9411   4.635   0.054  16.845  0.2422 -0.7027  0.1363
  635TMC3    O2 9412   0.175   0.272  16.577  0.0858 -0.3513 -0.3478
  636MPD2     C 9413   0.501   0.603  15.696  0.0521  0.1845 -0.6133
  636MPD2    C1 9414   0.431   0.580  15.807 -0.3568 -0.5315 -0.1838
  636MPD2    C2 9415   0.417   0.454  15.854  0.3121  1.3768 -0.1983
  636MPD2    C3 9416   0.459   0.350  15.783  0.5044  0.4679 -0.4919
  636MPD2    C4 9417   0.512   0.373  15.657  0.7278 -0.6718 -0.2490
  636MPD2    C5 9418   0.544   0.499  15.612  0.2923 -0.1602  0.2303
  636MPD2     H 9419   0.366   0.441  15.949  1.4488 -0.0269  0.2271
  636MPD2    H1 9420   0.552   0.290  15.600 -0.4071 -1.3208 -0.0961
  636MPD2    H2 9421   0.522   0.703  15.658 -0.9690  0.9548  0.8290
  636MPD2    H3 9422   0.585   0.525  15.515 -0.4352  0.1566  0.0099
  636MPD2     N 9423   0.440   0.220  15.832  0.8110  0.2149 -0.0675
  636MPD2    H5 9424   0.395   0.208  15.922  0.8686  0.7850  0.0321
  636MPD2    N1 9425   0.369   0.682  15.873 -0.3622  0.0151 -0.0303
  636MPD2    H7 9426   0.318   0.658  15.958 -0.4817  0.7981  0.1205
  637TMC3    C1 9427   0.485   4.715  15.866  0.2497  0.2102 -0.9474
  637TMC3    C2 9428   0.521   4.723  15.993 -0.1820  0.0753  0.9422
  637TMC3    C3 9429   0.555   4.610  16.068  0.3483 -0.8039  0.1130
  637TMC3    C4 9430   0.484   4.596  15.800  0.3709 -0.0324  1.1937
  637TMC3    C5 9431   0.520   4.484  15.872  0.1495  0.2043 -0.1876
  637TMC3    C6 9432   0.542   4.487  16.007  0.1615  0.7848 -0.4552
  637TMC3     C 9433   0.505   0.111  15.786  0.7265  0.2974 -0.4819
  637TMC3     O 9434   0.547   0.093  15.675  0.1195 -0.2589  0.1386
  637TMC3     H 9435   0.539   0.092  16.043  1.1572  0.0805  0.4552
  637TMC3    H1 9436   0.485   4.584  15.692  0.7915  1.6375  1.0169
  637TMC3    H2 9437   0.569   4.394  16.056 -2.0569 -0.6080 -1.8136
  637TMC3    C7 9438   0.614   4.400  15.795  0.0635 -0.3055 -0.2773
  637TMC3    C8 9439   0.679   4.630  16.144 -1.0395 -0.5609 -0.4133
  637TMC3    O1 9440   0.598   4.382  15.675  0.3119  0.6687  0.3237
  637TMC3    O2 9441   0.768   4.550  16.114  0.1075  0.3314  0.6810
  638MPD2     C 9442   0.607   3.926  14.998  0.0412  0.9068  0.6967
  638MPD2    C1 9443   0.549   3.846  14.907  0.2420  0.0527  0.3349
  638MPD2    C2 9444   0.500   3.723  14.955 -0.2063 -0.6110 -0.1532
  638MPD2    C3 9445   0.494   3.699  15.092  0.5243  0.7001  0.3495
  638MPD2    C4 9446   0.560   3.777  15.180  0.2873  0.6614  0.4926
  638MPD2    C5 9447   0.616   3.894  15.132  0.2400 -0.1699  0.7529
  638MPD2     H 9448   0.454   3.656  14.883 -0.2883 -0.3954 -0.3011
  638MPD2    H1 9449   0.572   3.752  15.285 -2.7217 -0.3010  0.6326
  638MPD2    H2 9450   0.662   4.013  14.964 -0.9830 -0.3000 -4.0024
  638MPD2    H3 9451   0.666   3.956  15.205  2.0702 -1.4366  0.5882
  638MPD2     N 9452   0.442   3.573  15.127 -0.1969  0.2185 -0.1482
  638MPD2    H5 9453   0.405   3.511  15.056 -0.0432 -0.5612  0.4441
  638MPD2    N1 9454   0.559   3.877  14.770 -0.1576  0.0677  0.7589
  638MPD2    H7 9455   0.590   3.970  14.743  0.3416 -0.7560 -1.5076
  639TMC3    C1 9456   0.373   3.384  15.242  0.0473  0.3087  0.3698
  639TMC3    C2 9457   0.295   3.344  15.131 -0.2156 -0.3564 -0.2683
  639TMC3    C3 9458   0.246   3.215  15.129  0.1841  0.6095  0.1308
  639TMC3    C4 9459   0.404   3.294  15.336  0.1191  0.0217 -0.0636
  639TMC3    C5 9460   0.349   3.170  15.332  0.3547 -0.7190 -0.2805
  639TMC3    C6 9461   0.269   3.130  15.232 -0.4093  0.2245  0.2845
  639TMC3     C 9462   0.444   3.514  15.253 -0.8961  0.4095 -0.2165
  639TMC3     O 9463   0.488   3.550  15.362  0.3413 -0.5044 -0.0926
  639TMC3     H 9464   0.242   3.415  15.068 -0.0192  1.9863  2.2142
  639TMC3    H1 9465   0.474   3.310  15.417  0.7102 -0.9319 -0.3849
  639TMC3    H2 9466   0.250   3.023  15.234 -2.0242  0.5011 -0.5673
  639TMC3    C7 9467   0.432   3.070  15.381 -0.6094  0.4070  0.1528
  639TMC3    C8 9468   0.146   3.184  15.028  0.5701  0.0111  0.3745
  639TMC3    O1 9469   0.384   2.968  15.433 -0.4361 -0.0781 -0.0110
  639TMC3    O2 9470   0.163   3.230  14.915 -0.2001 -0.6284 -0.2275
  640MPD2     C 9471   0.630   2.538   9.778  0.1466 -0.7229 -0.1995
  640MPD2    C1 9472   0.597   2.526   9.646  0.3985 -1.0746 -0.3048
  640MPD2    C2 9473   0.528   2.626   9.587  0.1248  0.2458  0.0152
  640MPD2    C3 9474   0.507   2.746   9.656  0.1608 -0.3363 -0.1784
  640MPD2    C4 9475   0.546   2.758   9.789 -0.0888  0.0530 -0.2285
  640MPD2    C5 9476   0.606   2.653   9.852 -0.3201  0.1116 -0.3712
  640MPD2     H 9477   0.506   2.624   9.481  1.4750  3.0531 -0.3088
  640MPD2    H1 9478   0.523   2.852   9.838 -1.2161 -0.4830  0.2830
  640MPD2    H2 9479   0.676   2.451   9.822 -1.2964 -0.8766  0.9980
  640MPD2    H3 9480   0.639   2.662   9.954  0.6689 -1.3831 -0.5584
  640MPD2     N 9481   0.447   2.865   9.601 -0.5792  0.1779  0.9626
  640MPD2    H5 9482   0.459   2.952   9.652 -0.0476  1.0237 -0.6147
  640MPD2    N1 9483   0.618   2.401   9.585 -0.8588  0.1070 -0.5150
  640MPD2    H7 9484   0.636   2.327   9.653  2.7867  1.0597 -0.4447
  641TMC3    C1 9485   0.596   2.221   9.432  0.9497  0.2662  0.4137
  641TMC3    C2 9486   0.689   2.143   9.491  0.3962  0.2296 -0.0405
  641TMC3    C3 9487   0.661   2.003   9.481 -0.5021 -0.5532 -0.1146
  641TMC3    C4 9488   0.487   2.177   9.359  0.2758 -0.0069  1.0530
  641TMC3    C5 9489   0.479   2.041   9.347 -0.7022 -0.2178 -0.2450
  641TMC3    C6 9490   0.561   1.948   9.412  0.1141  0.2739 -0.1126
  641TMC3     C 9491   0.597   2.370   9.451 -0.5204  0.3470 -0.0676
  641TMC3     O 9492   0.548   2.435   9.363 -0.1089 -0.3165 -0.0845
  641TMC3     H 9493   0.770   2.181   9.552  1.0993  0.9611 -1.4333
  641TMC3    H1 9494   0.409   2.249   9.340  0.4151 -0.0528  0.2863
  641TMC3    H2 9495   0.530   1.844   9.405 -0.1397  0.2505  1.3831
  641TMC3    C7 9496   0.378   1.989   9.258  0.1907 -0.8480 -0.6011
  641TMC3    C8 9497   0.757   1.910   9.545  0.1386  0.1528  0.1181
  641TMC3    O1 9498   0.340   1.877   9.281  0.4125  0.3579 -0.0399
  641TMC3    O2 9499   0.745   1.796   9.501  0.0438  0.0059  0.2424
  642TMC3    C1 9500   2.038   4.134  12.168 -1.0710  0.3572  0.3702
  642TMC3    C2 9501   2.118   4.172  12.268  0.6920 -0.3930  0.0360
  642TMC3    C3 9502   2.173   4.078  12.349 -0.5250 -0.8844 -0.2413
  642TMC3    C4 9503   2.025   3.996  12.144 -0.4167 -2.0228 -0.1771
  642TMC3    C5 9504   2.078   3.909  12.227  0.2630  0.2452 -0.1907
  642TMC3    C6 9505   2.145   3.944  12.341 -0.6317 -1.0878  0.5620
  642TMC3     C 9506   1.918   4.207  12.126  0.2574 -0.6276  0.4305
  642TMC3     O 9507   1.811   4.147  12.100  0.1461  0.3313 -0.3677
  642TMC3     H 9508   2.111   4.275  12.301  0.4328 -0.2467 -0.4831
  642TMC3    H1 9509   1.964   3.952  12.065 -1.2101 -0.3040 -0.5305
  642TMC3    H2 9510   2.192   3.862  12.395  0.3529 -1.4532 -0.8428
  642TMC3    C7 9511   2.003   3.780  12.226  0.2416  1.1691 -0.1363
  642TMC3    C8 9512   2.243   4.116  12.473 -0.0140  0.8912  0.3280
  642TMC3    O1 9513   2.012   3.709  12.127 -0.1600 -0.0383 -0.0288
  642TMC3    O2 9514   2.285   4.028  12.545 -0.4389  0.0283 -0.0362
  643TMC3    C1 9515   1.008   2.769   0.938 -0.2620  0.1923  0.7192
  643TMC3    C2 9516   0.885   2.813   0.925 -0.2737 -0.3784  0.0316
  643TMC3    C3 9517   0.852   2.908   0.835 -0.1462 -0.1455  0.2439
  643TMC3    C4 9518   1.107   2.806   0.846 -0.5734  0.9186  0.1927
  643TMC3    C5 9519   1.081   2.917   0.769  0.2687 -0.4374  0.0738
  643TMC3    C6 9520   0.951   2.969   0.759 -0.3811  0.4642 -0.2259
  643TMC3     C 9521   1.016   2.627   0.986  0.5234  0.4683 -0.0441
  643TMC3     O 9522   0.924   2.561   0.945  0.1342  0.1231  0.0992
  643TMC3     H 9523   0.807   2.767   0.986 -0.5325 -1.5393 -1.1610
  643TMC3    H1 9524   1.204   2.759   0.840 -1.5822 -0.7722 -2.7182
  643TMC3    H2 9525   0.929   3.057   0.700 -1.8859 -0.3318 -0.8447
  643TMC3    C7 9526   1.175   2.963   0.666  0.5007  0.0677 -0.2996
  643TMC3    C8 9527   0.715   2.950   0.830  0.0752 -0.1535 -0.0802
  643TMC3    O1 9528   1.125   3.030   0.575 -0.6432  0.0820 -0.0671
  643TMC3    O2 9529   0.641   2.941   0.928 -0.2698  0.1901 -0.6322
  644MPD2     C 9530   0.480   3.118   9.145 -0.2834  0.4900 -0.6499
  644MPD2    C1 9531   0.573   3.127   9.245 -0.6250  0.1926 -0.0414
  644MPD2    C2 9532   0.574   3.236   9.332 -0.5175 -0.4016  0.6802
  644MPD2    C3 9533   0.482   3.340   9.309 -0.2174  0.2003  0.2413
  644MPD2    C4 9534   0.386   3.327   9.213 -0.2804  0.8178  0.0105
  644MPD2    C5 9535   0.387   3.218   9.137 -0.6325 -0.0577  0.0842
  644MPD2     H 9536   0.655   3.248   9.402  1.5671  0.0518 -1.7913
  644MPD2    H1 9537   0.301   3.393   9.203  0.5044  1.7287 -0.5557
  644MPD2    H2 9538   0.482   3.023   9.094 -1.1828  0.0020  0.2209
  644MPD2    H3 9539   0.311   3.204   9.061  1.3499  0.3475 -1.9893
  644MPD2     N 9540   0.498   3.460   9.382  0.1177  0.3441  0.3764
  644MPD2    H5 9541   0.577   3.459   9.446 -1.6577  1.5909  2.5835
  644MPD2    N1 9542   0.660   3.020   9.266 -0.3585 -0.3803  0.3022
  644MPD2    H7 9543   0.646   2.948   9.196 -0.6692 -0.1724  0.1522
  645TMC3    C1 9544   0.516   3.681   9.426  0.5085  0.6281 -0.5688
  645TMC3    C2 9545   0.526   3.801   9.369 -0.0451 -0.5550 -0.3481
  645TMC3    C3 9546   0.577   3.904   9.442  0.3229  0.6126 -0.0410
  645TMC3    C4 9547   0.553   3.650   9.559 -0.2647  0.7996 -0.1947
  645TMC3    C5 9548   0.597   3.758   9.632 -0.2891  0.1234 -0.7066
  645TMC3    C6 9549   0.618   3.886   9.573  0.2300  0.4366 -0.1734
  645TMC3     C 9550   0.448   3.583   9.349  0.2065  0.0799 -0.3009
  645TMC3     O 9551   0.387   3.619   9.248 -0.2355  0.9771  0.2862
  645TMC3     H 9552   0.502   3.820   9.264  1.3553 -1.7276 -0.8775
  645TMC3    H1 9553   0.548   3.550   9.600  1.9571  1.7942  2.4536
  645TMC3    H2 9554   0.650   3.968   9.636  1.0618  0.9675 -1.2725
  645TMC3    C7 9555   0.684   3.735   9.749 -0.0609  0.2013 -0.0682
  645TMC3    C8 9556   0.602   4.033   9.372 -0.3951 -0.7451  0.2427
  645TMC3    O1 9557   0.701   3.831   9.821  0.1961 -0.2593  0.4996
  645TMC3    O2 9558   0.577   4.028   9.255 -0.0233 -0.1567  0.1225
  646MPD2     C 9559   0.514   2.683  14.432  0.2657 -0.2805  0.3167
  646MPD2    C1 9560   0.414   2.601  14.483  0.0473  0.2416  0.5330
  646MPD2    C2 9561   0.281   2.641  14.471 -0.1529  0.2512 -0.5769
  646MPD2    C3 9562   0.247   2.753  14.402 -0.3876  0.1743 -0.3304
  646MPD2    C4 9563   0.347   2.834  14.350 -0.1296  0.9186  0.4070
  646MPD2    C5 9564   0.480   2.798  14.361 -0.2589 -0.0473  0.5030
  646MPD2     H 9565   0.206   2.572  14.506  0.2781  1.0062  1.8196
  646MPD2    H1 9566   0.333   2.922  14.288  0.9000  2.1435  1.9014
  646MPD2    H2 9567   0.618   2.653  14.437  0.2789 -0.6015 -1.8843
  646MPD2    H3 9568   0.561   2.857  14.318 -0.1200 -0.7286 -0.1587
  646MPD2     N 9569   0.110   2.775  14.370  0.1786 -0.0801 -0.5008
  646MPD2    H5 9570   0.053   2.706  14.419 -0.2997 -0.2202 -1.2617
  646MPD2    N1 9571   0.460   2.492  14.555 -0.1037  0.2325  0.4230
  646MPD2    H7 9572   0.562   2.489  14.563  0.1548  0.9325 -2.5157
  647TMC3    C1 9573   0.464   2.301  14.684 -0.6627  0.2633  0.4250
  647TMC3    C2 9574   0.425   2.165  14.695  0.4584 -0.2407 -0.4367
  647TMC3    C3 9575   0.505   2.082  14.767 -0.4580 -0.4379 -0.3673
  647TMC3    C4 9576   0.576   2.353  14.742 -0.0861  0.3731  0.6893
  647TMC3    C5 9577   0.663   2.260  14.797  0.2138  0.3524 -0.0235
  647TMC3    C6 9578   0.627   2.123  14.804 -0.0916 -0.1686 -0.6097
  647TMC3     C 9579   0.383   2.387  14.603  0.2578  0.1267 -0.0746
  647TMC3     O 9580   0.267   2.351  14.583 -0.3290 -0.1965  0.3795
  647TMC3     H 9581   0.329   2.126  14.661  0.9538 -1.3667 -0.5378
  647TMC3    H1 9582   0.608   2.455  14.726  0.5092 -0.3055 -2.4436
  647TMC3    H2 9583   0.691   2.052  14.857 -0.3639 -0.2019 -0.3267
  647TMC3    C7 9584   0.797   2.292  14.846 -0.5322  0.8420  0.2779
  647TMC3    C8 9585   0.443   1.967  14.837  0.6156  0.5964 -0.1636
  647TMC3    O1 9586   0.888   2.207  14.832 -1.0112  0.0693  0.2455
  647TMC3    O2 9587   0.518   1.894  14.898 -0.1376 -0.0806  0.2023
  648TMC3    C1 9588   4.511   4.698  15.826 -0.2075 -0.2542 -0.0161
  648TMC3    C2 9589   4.559   4.602  15.748  0.4748 -0.2492  0.0892
  648TMC3    C3 9590   4.521   4.609  15.616 -0.3225  0.7729  0.7061
  648TMC3    C4 9591   4.427   0.068  15.784  0.4433  0.5808  0.0369
  648TMC3    C5 9592   4.367   0.053  15.660 -0.6807 -0.2201  0.6517
  648TMC3    C6 9593   4.418   4.686  15.572  0.4756  0.5206  0.1178
  648TMC3     C 9594   4.532   4.705  15.961  0.8415 -0.7259  0.1833
  648TMC3     O 9595   4.514   0.092  16.013  0.0190 -0.8602  0.2672
  648TMC3     H 9596   4.641   4.542  15.786 -0.4221 -1.1431  0.5912
  648TMC3    H1 9597   4.394   0.149  15.849 -0.1056 -0.8287  1.5108
  648TMC3    H2 9598   4.385   4.677  15.469 -1.1199 -1.5812  0.8098
  648TMC3    C7 9599   4.285   0.162  15.605  0.0320  0.7496 -0.2541
  648TMC3    C8 9600   4.514   4.476  15.556  0.4514  0.4185  0.1622
  648TMC3    O1 9601   4.297   0.191  15.487  0.6219 -0.1408  0.8718
  648TMC3    O2 9602   4.408   4.443  15.507  0.2088 -0.7164  0.0066
  649TMC3    C1 9603   3.594   1.494  12.710  0.0338  0.2649  0.1161
  649TMC3    C2 9604   3.660   1.531  12.601 -0.2435 -0.1024  0.2724
  649TMC3    C3 9605   3.764   1.458  12.550  0.3202 -0.9335 -0.5209
  649TMC3    C4 9606   3.626   1.377  12.775  0.4975  0.1230  0.7313
  649TMC3    C5 9607   3.723   1.295  12.716 -0.0267 -0.1619 -0.2995
  649TMC3    C6 9608   3.800   1.335  12.607 -0.3158 -0.2251 -0.4389
  649TMC3     C 9609   3.470   1.558  12.739 -0.0575  1.0292  0.3292
  649TMC3     O 9610   3.427   1.554  12.853 -0.2351  0.1170  0.0423
  649TMC3     H 9611   3.653   1.633  12.565  0.0178  0.1938  1.0691
  649TMC3    H1 9612   3.575   1.348  12.866  0.2803  1.1933  0.9620
  649TMC3    H2 9613   3.866   1.268  12.553 -1.7817 -0.8407 -1.4392
  649TMC3    C7 9614   3.776   1.209  12.819 -0.4033  0.2677 -0.3717
  649TMC3    C8 9615   3.821   1.518  12.429 -1.2211 -0.6778 -0.2078
  649TMC3    O1 9616   3.715   1.196  12.928  0.3069 -0.0684 -0.6551
  649TMC3    O2 9617   3.767   1.619  12.389 -0.0822 -0.5720 -0.3032
  650TMC3    C1 9618   1.492   3.275  12.410 -0.8316  0.8369  0.1105
  650TMC3    C2 9619   1.483   3.408  12.421 -0.0579  0.2426 -0.8464
  650TMC3    C3 9620   1.485   3.490  12.314  1.2858  0.0912 -0.1935
  650TMC3    C4 9621   1.470   3.222  12.289  0.2884 -0.0356  0.6275
  650TMC3    C5 9622   1.465   3.300  12.179 -0.7269 -0.1737  0.0192
  650TMC3    C6 9623   1.478   3.437  12.187 -0.1157 -0.4044  0.1651
  650TMC3     C 9624   1.508   3.191  12.527 -0.1021  0.0525 -0.4238
  650TMC3     O 9625   1.535   3.258  12.624  0.0081 -0.1023 -0.3222
  650TMC3     H 9626   1.472   3.461  12.515 -2.2556 -0.7427 -0.5375
  650TMC3    H1 9627   1.469   3.114  12.279 -0.2556 -0.1796  2.3396
  650TMC3    H2 9628   1.489   3.502  12.101 -1.8428  0.2882  0.4595
  650TMC3    C7 9629   1.375   3.255  12.065 -0.0508 -0.6226 -0.7185
  650TMC3    C8 9630   1.406   3.615  12.338 -0.3351  0.2251 -0.1250
  650TMC3    O1 9631   1.361   3.135  12.044 -0.0500  0.0509 -0.5851
  650TMC3    O2 9632   1.471   3.713  12.376  0.6185  0.0395  0.8203
  651MPD2     C 9633   0.148   4.520  10.615  1.0752  0.3747 -0.0388
  651MPD2    C1 9634   0.089   4.645  10.629  0.0411  0.0372 -0.0101
  651MPD2    C2 9635   0.171   0.033  10.621 -0.2144  0.2632  0.1572
  651MPD2    C3 9636   0.305   0.026  10.600 -0.4589 -0.2813 -0.0075
  651MPD2    C4 9637   0.368   4.625  10.581 -0.8723 -0.1292 -0.5522
  651MPD2    C5 9638   0.286   4.513  10.592 -0.6592 -0.4436  0.3001
  651MPD2     H 9639   0.125   0.130  10.631  1.7735  1.4093 -1.8306
  651MPD2    H1 9640   0.475   4.609  10.575 -0.8457 -0.7661  1.4755
  651MPD2    H2 9641   0.087   4.430  10.621  0.1474  0.9883 -0.3277
  651MPD2    H3 9642   0.323   4.411  10.584 -0.4922 -0.4212  0.7679
  651MPD2     N 9643   0.375   0.147  10.607  0.0453  0.5483  0.6251
  651MPD2    H5 9644   0.319   0.231  10.615  1.2748  1.4360 -0.1867
  651MPD2    N1 9645   4.675   4.668  10.634  0.0366  0.2960 -0.5291
  651MPD2    H7 9646   4.643   0.038  10.644 -0.6737 -0.2382  2.2595
  652TMC3    C1 9647   0.706   0.461  10.573  0.0123  0.3687  0.0619
  652TMC3    C2 9648   0.669   0.343  10.615  0.0188  0.0746 -0.4536
  652TMC3    C3 9649   0.542   0.298  10.574 -0.0529  0.9575 -0.3372
  652TMC3    C4 9650   0.625   0.537  10.496 -0.6128  0.6387  0.4578
  652TMC3    C5 9651   0.502   0.490  10.451 -0.2489 -0.7095 -0.1983
  652TMC3    C6 9652   0.458   0.370  10.491 -0.2316 -0.0867 -0.6622
  652TMC3     C 9653   0.828   0.511  10.631 -0.3134  0.5087 -0.2784
  652TMC3     O 9654   0.852   0.472  10.746  0.2307 -0.4212 -0.2362
  652TMC3     H 9655   0.731   0.282  10.680  0.6904  1.1875 -0.0447
  652TMC3    H1 9656   0.660   0.638  10.484  1.7232 -0.2532 -0.1669
  652TMC3    H2 9657   0.366   0.328  10.453 -1.2201  1.3978  0.0908
  652TMC3    C7 9658   0.410   0.575  10.379  0.6468  0.3542  0.0783
  652TMC3    C8 9659   0.508   0.161  10.595  0.2448 -0.1275 -0.6236
  652TMC3    O1 9660   0.327   0.525  10.306  0.2222 -0.0849 -0.6703
  652TMC3    O2 9661   0.597   0.079  10.609  0.1345 -0.1351  0.4715
  653MPD2     C 9662   3.616   4.392  17.487 -0.1188  0.1017  0.2533
  653MPD2    C1 9663   3.568   4.489  17.395  0.4967  0.1698 -0.0557
  653MPD2    C2 9664   3.537   4.452  17.268 -1.0124  0.1595  0.0965
  653MPD2    C3 9665   3.549   4.323  17.223  0.0371  0.1773  0.1037
  653MPD2    C4 9666   3.593   4.223  17.311  0.0430  0.6328  0.2403
  653MPD2    C5 9667   3.618   4.261  17.440 -0.3494 -0.2120  0.2179
  653MPD2     H 9668   3.493   4.525  17.202  1.1396  1.4994  0.1317
  653MPD2    H1 9669   3.594   4.117  17.288  3.3258  0.7704 -0.2863
  653MPD2    H2 9670   3.633   4.421  17.590  0.0884 -0.4916  0.3849
  653MPD2    H3 9671   3.647   4.180  17.506  2.7004 -0.2622 -1.1794
  653MPD2     N 9672   3.511   4.296  17.095  0.2976  0.2305  0.0356
  653MPD2    H5 9673   3.457   4.365  17.044  0.7697  2.1130  2.0940
  653MPD2    N1 9674   3.550   4.625  17.433 -0.1881  0.0347  0.1609
  653MPD2    H7 9675   3.510   4.683  17.359  0.6616 -0.4282 -0.6622
  654TMC3    C1 9676   3.465   4.152  16.901 -0.4090 -0.3601  0.0527
  654TMC3    C2 9677   3.456   4.260  16.823  0.2571 -0.0065  0.7674
  654TMC3    C3 9678   3.455   4.252  16.686 -0.0696  0.4073 -0.3783
  654TMC3    C4 9679   3.469   4.024  16.845  0.1988  0.5773 -0.0431
  654TMC3    C5 9680   3.454   4.021  16.708 -0.2253  0.0541 -0.3214
  654TMC3    C6 9681   3.457   4.127  16.625 -0.3854  0.2973 -0.9584
  654TMC3     C 9682   3.525   4.168  17.038 -0.1839  0.7031  0.1099
  654TMC3     O 9683   3.576   4.066  17.078  0.2964  0.9128  0.0957
  654TMC3     H 9684   3.449   4.361  16.863  0.1058  0.3080 -0.0586
  654TMC3    H1 9685   3.505   3.942  16.906  0.0124  2.0097  2.0090
  654TMC3    H2 9686   3.429   4.103  16.523  0.2798 -0.5755 -0.9363
  654TMC3    C7 9687   3.420   3.895  16.645 -0.0568  0.3499 -0.2785
  654TMC3    C8 9688   3.386   4.354  16.610 -0.8450 -0.3489  0.8381
  654TMC3    O1 9689   3.345   3.888  16.550 -0.6343  0.0410 -0.1545
  654TMC3    O2 9690   3.332   4.444  16.665  0.5571  0.2740 -0.0965
  655MPD2     C 9691   0.190   0.289  15.496 -0.4548 -0.2753  0.3572
  655MPD2    C1 9692   0.065   0.330  15.448  0.4310  0.1927 -0.3340
  655MPD2    C2 9693   0.040   0.322  15.316 -0.6625 -0.3237  0.1697
  655MPD2    C3 9694   0.122   0.245  15.236 -0.6686 -0.7883  0.5657
  655MPD2    C4 9695   0.243   0.209  15.282 -0.6715  0.4833 -1.1308
  655MPD2    C5 9696   0.281   0.240  15.411 -0.0012  0.2186 -0.3304
  655MPD2     H 9697   4.672   0.368  15.283 -0.2588  0.4043  0.0316
  655MPD2    H1 9698   0.312   0.158  15.215 -1.7592  1.6218 -3.0974
  655MPD2    H2 9699   0.214   0.304  15.601 -0.4702 -0.6919  0.4209
  655MPD2    H3 9700   0.379   0.220  15.452  0.0245 -0.1948 -0.5833
  655MPD2     N 9701   0.085   0.209  15.106  0.1909  0.2651  0.3841
  655MPD2    H5 9702   0.153   0.161  15.048 -1.2299 -2.1046  0.6443
  655MPD2    N1 9703   4.694   0.393  15.530  0.3537  0.2761 -0.7810
  655MPD2    H7 9704   4.614   0.435  15.483 -0.6034 -0.4704  0.1733
  656TMC3    C1 9705   4.583   0.473  15.717 -0.4384  0.4367 -0.0348
  656TMC3    C2 9706   4.517   0.435  15.828 -0.0111  0.4864 -0.5806
  656TMC3    C3 9707   4.438   0.533  15.892  0.2528 -0.3749 -0.1190
  656TMC3    C4 9708   4.572   0.600  15.665  0.1838 -0.2420  0.6835
  656TMC3    C5 9709   4.479   0.686  15.725  0.5790 -0.0558 -0.4411
  656TMC3    C6 9710   4.415   0.657  15.843 -0.0382 -0.0302 -0.1496
  656TMC3     C 9711   4.690   0.389  15.669 -0.7352  0.0711 -0.5473
  656TMC3     O 9712   0.025   0.318  15.751  0.2298 -0.2717 -0.1040
  656TMC3     H 9713   4.525   0.337  15.875  0.3073  0.0431 -1.5729
  656TMC3    H1 9714   4.621   0.622  15.570  0.8968  3.6511  1.9354
  656TMC3    H2 9715   4.344   0.722  15.893  0.1223 -1.2800  1.6850
  656TMC3    C7 9716   4.420   0.779  15.629  0.1012  0.4674 -0.5891
  656TMC3    C8 9717   4.345   0.464  15.988 -0.2676 -0.0172  0.1884
  656TMC3    O1 9718   4.481   0.806  15.528 -0.8991  0.8427  0.5261
  656TMC3    O2 9719   4.321   0.345  15.971  1.1261  0.2539 -0.5165
  657TMC3    C1 9720   3.821   4.484  15.275  0.0657  0.2663 -0.2858
  657TMC3    C2 9721   3.916   4.509  15.368  0.6870 -0.4311 -0.1611
  657TMC3    C3 9722   3.916   4.632  15.424  0.5081 -0.6811 -0.7838
  657TMC3    C4 9723   3.733   4.576  15.227 -0.5083  0.6024  0.1254
  657TMC3    C5 9724   3.747   4.706  15.272  0.2714  0.4780  0.1080
  657TMC3    C6 9725   3.831   0.011  15.379  0.4395  0.1464 -0.7353
  657TMC3     C 9726   3.818   4.351  15.208  0.1301 -0.3699  0.3697
  657TMC3     O 9727   3.703   4.322  15.165 -0.6510  0.6753 -0.0914
  657TMC3     H 9728   3.960   4.422  15.416  3.0857 -0.2097 -1.9585
  657TMC3    H1 9729   3.662   4.548  15.149  2.1502 -0.9918 -1.7136
  657TMC3    H2 9730   3.813   0.104  15.433 -1.4635 -1.8939  2.1448
  657TMC3    C7 9731   3.649   0.082  15.239 -0.7614  0.3293  0.2657
  657TMC3    C8 9732   3.960   4.647  15.563 -0.6732 -0.9777  0.5201
  657TMC3    O1 9733   3.606   0.131  15.343  0.2938 -0.1890 -0.5587
  657TMC3    O2 9734   3.924   0.020  15.622 -0.5894  0.5383 -0.1351
  658MPD2     C 9735   0.159   4.566  14.340  0.0617  0.1800  0.9422
  658MPD2    C1 9736   0.172   4.684  14.405  0.0112 -0.2016  0.3709
  658MPD2    C2 9737   0.251   0.056  14.354  0.0262  0.4429  0.5310
  658MPD2    C3 9738   0.307   0.045  14.226 -0.4840 -0.1196 -0.1578
  658MPD2    C4 9739   0.293   4.650  14.161  0.2504 -0.5768  0.2081
  658MPD2    C5 9740   0.224   4.553  14.222  0.2379  0.3727 -0.4874
  658MPD2     H 9741   0.264   0.151  14.404 -0.8166 -0.8361  3.1916
  658MPD2    H1 9742   0.314   4.629  14.057 -0.2484  1.2096 -0.2513
  658MPD2    H2 9743   0.092   4.486  14.371  0.6573 -0.3611  0.8260
  658MPD2    H3 9744   0.207   4.462  14.165  0.5111 -0.2510  0.4156
  658MPD2     N 9745   0.375   0.153  14.169 -0.1061  0.1524 -0.0822
  658MPD2    H5 9746   0.393   0.233  14.228 -4.0290  0.0092  1.2661
  658MPD2    N1 9747   0.087   4.710  14.515  0.3490 -0.0031  0.2665
  658MPD2    H7 9748   0.009   4.647  14.530  1.6854 -1.9236 -0.7315
  659TMC3    C1 9749   0.007   0.086  14.714 -0.0595 -0.2241 -0.6755
  659TMC3    C2 9750   0.037   0.146  14.833 -0.8153 -0.0981 -0.2761
  659TMC3    C3 9751   4.661   0.204  14.910 -0.3601 -0.6396  0.4758
  659TMC3    C4 9752   4.608   0.046  14.688  0.3243  0.0273 -0.0274
  659TMC3    C5 9753   4.512   0.111  14.759  0.3621  0.2956  0.3239
  659TMC3    C6 9754   4.532   0.185  14.867 -0.2079 -0.4206 -0.0459
  659TMC3     C 9755   0.111   0.081  14.612  0.1589 -0.4115  0.1381
  659TMC3     O 9756   0.217   0.136  14.635  0.2998 -0.3521 -0.1092
  659TMC3     H 9757   0.139   0.169  14.862  0.8094 -3.9962 -2.8389
  659TMC3    H1 9758   4.584   0.010  14.588 -2.6735 -2.6850  1.6533
  659TMC3    H2 9759   4.454   0.225  14.930  0.2330  0.0694  0.1941
  659TMC3    C7 9760   4.382   0.066  14.751  1.0086 -0.4390  0.2908
  659TMC3    C8 9761   4.688   0.246  15.047  0.4351  0.3584 -0.2085
  659TMC3    O1 9762   4.298   0.141  14.801 -0.0617  0.1590  0.1834
  659TMC3    O2 9763   4.588   0.292  15.104 -0.1056  0.0811  0.5367
  660MPD2     C 9764   3.139   3.535  12.635 -0.1972  0.6872 -0.5128
  660MPD2    C1 9765   3.037   3.624  12.616 -0.1274  1.3117  0.8197
  660MPD2    C2 9766   2.926   3.613  12.697 -0.4177  0.1678  0.0962
  660MPD2    C3 9767   2.922   3.509  12.798  0.4602  0.0328  0.2404
  660MPD2    C4 9768   3.043   3.437  12.818 -0.0673 -0.2192  0.3099
  660MPD2    C5 9769   3.150   3.440  12.732  0.5539  0.4254  0.3120
  660MPD2     H 9770   2.833   3.660  12.665 -0.0870  0.7234 -0.0471
  660MPD2    H1 9771   3.045   3.360  12.894  0.6590 -2.8297 -2.3589
  660MPD2    H2 9772   3.228   3.547  12.575  1.4078  0.7531  1.9199
  660MPD2    H3 9773   3.234   3.376  12.755 -0.5800  0.0358  3.4360
  660MPD2     N 9774   2.807   3.475  12.877  0.0341  0.0212 -0.3427
  660MPD2    H5 9775   2.811   3.400  12.945  2.3369 -0.3480 -0.9048
  660MPD2    N1 9776   3.048   3.727  12.514 -0.1155  0.2968  0.0315
  660MPD2    H7 9777   3.136   3.731  12.463 -0.4919  0.3677 -0.6108
  661TMC3    C1 9778   2.999   3.916  12.386  0.2113  0.5682  1.1631
  661TMC3    C2 9779   3.046   3.871  12.265 -0.2096  0.4773 -0.6662
  661TMC3    C3 9780   3.046   3.960  12.159 -0.0134  1.5688  0.1434
  661TMC3    C4 9781   2.949   4.041  12.403  0.4673  0.4358 -0.0992
  661TMC3    C5 9782   2.926   4.114  12.285  0.1505 -0.1195 -0.0442
  661TMC3    C6 9783   2.989   4.081  12.168  0.4116  0.4562  0.2757
  661TMC3     C 9784   2.959   3.826  12.492 -0.4513 -0.1636  0.0793
  661TMC3     O 9785   2.858   3.858  12.553 -0.0947  0.0403  0.0081
  661TMC3     H 9786   3.065   3.766  12.250 -1.7123 -0.0124  0.8991
  661TMC3    H1 9787   2.898   4.062  12.496  0.4559  2.2968 -0.5218
  661TMC3    H2 9788   2.990   4.162  12.096  0.9047  0.4975  0.3296
  661TMC3    C7 9789   2.804   4.183  12.284  0.3131 -0.6921 -0.2422
  661TMC3    C8 9790   3.117   3.915  12.042 -0.0890 -0.1094  0.6793
  661TMC3    O1 9791   2.788   4.276  12.360  0.2267  0.1029  0.3040
  661TMC3    O2 9792   3.149   3.800  12.023  0.1256  0.5936 -0.2286
  662MPD2     C 9793   3.195   3.192  17.392  0.0701 -0.0708  0.0108
  662MPD2    C1 9794   3.161   3.093  17.488  0.0005  0.1439 -0.1028
  662MPD2    C2 9795   3.223   3.104  17.612  0.3692  0.0925 -0.4497
  662MPD2    C3 9796   3.314   3.199  17.654  0.1549  0.2408 -0.1253
  662MPD2    C4 9797   3.337   3.294  17.558 -0.1975 -0.3459  0.6654
  662MPD2    C5 9798   3.272   3.296  17.436 -0.5925 -1.1333  0.3680
  662MPD2     H 9799   3.198   3.033  17.690  1.6698 -0.6773 -0.7415
  662MPD2    H1 9800   3.403   3.377  17.580  1.2612 -0.9579 -1.4625
  662MPD2    H2 9801   3.161   3.198  17.289 -2.6133 -2.7439  0.7317
  662MPD2    H3 9802   3.306   3.372  17.367 -2.2591 -0.0726  0.7131
  662MPD2     N 9803   3.354   3.212   0.084  0.2920  0.0804 -0.0859
  662MPD2    H5 9804   3.393   3.301   0.114  1.9687  0.2407 -2.7748
  662MPD2    N1 9805   3.081   2.984  17.455 -0.2097  0.1379  0.4340
  662MPD2    H7 9806   3.054   2.923  17.532 -0.0713 -1.9778 -1.1968
  663TMC3    C1 9807   2.971   2.807  17.350 -0.3587  0.3027  0.3062
  663TMC3    C2 9808   3.015   2.742  17.456 -0.1739 -0.2490 -0.2120
  663TMC3    C3 9809   2.928   2.656  17.518  0.1353 -0.3610  0.0758
  663TMC3    C4 9810   2.847   2.798  17.300 -0.2833  0.7003 -0.3679
  663TMC3    C5 9811   2.760   2.710  17.352  0.9519  0.3434  0.0101
  663TMC3    C6 9812   2.809   2.635  17.456 -0.0228  0.0915  0.4097
  663TMC3     C 9813   3.026   2.943  17.334 -0.5674 -0.8332 -1.1849
  663TMC3     O 9814   2.998   3.003  17.229 -0.3304  0.4822 -0.4396
  663TMC3     H 9815   3.104   2.760  17.516  0.6427 -0.6619 -1.3058
  663TMC3    H1 9816   2.819   2.849  17.209  2.2678  0.4099 -1.3169
  663TMC3    H2 9817   2.732   2.591  17.518  0.8782  1.7599  2.6878
  663TMC3    C7 9818   2.682   2.641  17.256 -0.0090 -1.0054  0.1125
  663TMC3    C8 9819   2.903   2.695  17.658 -0.8371  0.1776 -0.4995
  663TMC3    O1 9820   2.655   2.688  17.147 -0.0862  0.1930  0.0634
  663TMC3    O2 9821   2.936   2.813  17.674  0.0663  0.3423 -0.5247
  664MPD2     C 9822   1.485   1.317  17.116  0.3293 -0.3020  0.4825
  664MPD2    C1 9823   1.549   1.407  17.194  0.2460 -0.5448 -0.0118
  664MPD2    C2 9824   1.569   1.386  17.328  0.3736 -0.3596 -0.1445
  664MPD2    C3 9825   1.515   1.273  17.389  0.4104  1.2655  0.0580
  664MPD2    C4 9826   1.452   1.178  17.310  0.3770 -0.0545 -0.0230
  664MPD2    C5 9827   1.437   1.205  17.182  0.1581 -0.0860 -0.2804
  664MPD2     H 9828   1.633   1.450  17.387  1.3353 -1.0321 -0.4669
  664MPD2    H1 9829   1.406   1.090  17.353  3.6044 -2.0143 -0.6025
  664MPD2    H2 9830   1.459   1.312  17.011  0.5140 -2.2409  0.5179
  664MPD2    H3 9831   1.382   1.136  17.119  0.4690 -0.8606  0.2876
  664MPD2     N 9832   1.530   1.265  17.535  0.5146  0.4047  0.0660
  664MPD2    H5 9833   1.570   1.345  17.581  0.4200  0.4793  0.0197
  664MPD2    N1 9834   1.628   1.515  17.142  0.3536  0.5940  0.2233
  664MPD2    H7 9835   1.656   1.584  17.210  1.4857  0.5919 -0.2443
  665TMC3    C1 9836   1.486   1.194   0.063  0.3162  0.2520  0.1050
  665TMC3    C2 9837   1.425   1.109   0.154  0.6432 -0.1078  0.4343
  665TMC3    C3 9838   1.458   1.123   0.285 -0.0477 -0.1111 -0.6379
  665TMC3    C4 9839   1.565   1.301   0.107 -0.1735 -0.4289 -0.2820
  665TMC3    C5 9840   1.593   1.315   0.238 -0.3577 -0.1207 -0.7467
  665TMC3    C6 9841   1.540   1.227   0.328 -0.0919  0.2181 -0.3971
  665TMC3     C 9842   1.482   1.168  17.619  0.7256  0.0544  0.3073
  665TMC3     O 9843   1.435   1.061  17.595 -0.1173  0.3239  0.2705
  665TMC3     H 9844   1.371   1.019   0.125  2.3036 -1.0511  0.2853
  665TMC3    H1 9845   1.603   1.381   0.044 -0.9882 -0.1787 -0.4594
  665TMC3    H2 9846   1.548   1.226   0.436 -0.0493 -1.1892 -0.4136
  665TMC3    C7 9847   1.605   1.445   0.291  0.2490 -0.2261 -0.7482
  665TMC3    C8 9848   1.385   1.053   0.392 -0.2778 -0.2732 -0.8651
  665TMC3    O1 9849   1.580   1.540   0.217  0.0278 -0.1992  0.3270
  665TMC3    O2 9850   1.356   1.122   0.486 -0.0264 -0.1192 -0.0006
  666TMC3    C1 9851   1.012   1.474  10.162 -0.5236  0.6213  0.6209
  666TMC3    C2 9852   1.018   1.458  10.300 -0.1236 -0.2057 -0.5957
  666TMC3    C3 9853   0.944   1.543  10.380 -0.2896 -0.3389 -0.1877
  666TMC3    C4 9854   0.930   1.571  10.110 -0.3109 -0.2310 -0.3442
  666TMC3    C5 9855   0.865   1.659  10.195 -1.0993  0.3479  0.1622
  666TMC3    C6 9856   0.866   1.648  10.329  0.4374 -0.2175 -0.2250
  666TMC3     C 9857   1.044   1.346  10.097  0.1005  0.0047 -0.3259
  666TMC3     O 9858   1.146   1.297  10.136  0.7893  0.3018 -0.3602
  666TMC3     H 9859   1.064   1.369  10.341  0.6098  0.9034  0.9992
  666TMC3    H1 9860   0.916   1.585  10.003  0.9979  0.2514 -0.4613
  666TMC3    H2 9861   0.816   1.721  10.391 -3.0237 -0.8389 -2.2808
  666TMC3    C7 9862   0.826   1.789  10.153  0.5775  0.0193 -0.0656
  666TMC3    C8 9863   0.927   1.509  10.519 -0.0768  0.3338  0.2072
  666TMC3    O1 9864   0.721   1.813  10.105  0.0158 -0.3200 -0.0899
  666TMC3    O2 9865   1.021   1.469  10.582 -0.3640 -0.0805 -0.0965
  667MPD2     C 9866   2.434   1.711  14.547 -0.1287  0.2236  0.1668
  667MPD2    C1 9867   2.305   1.725  14.603  1.0446 -0.1728 -0.3791
  667MPD2    C2 9868   2.213   1.639  14.559  0.5075 -0.5803 -0.0185
  667MPD2    C3 9869   2.229   1.543  14.457 -0.4857  0.7665  0.7776
  667MPD2    C4 9870   2.355   1.526  14.404 -0.3045 -0.8902 -0.4369
  667MPD2    C5 9871   2.452   1.611  14.456  0.3266 -0.1419  0.1529
  667MPD2     H 9872   2.120   1.653  14.613 -0.9302 -2.6097 -2.0253
  667MPD2    H1 9873   2.368   1.443  14.335  3.2471  1.5488 -2.6850
  667MPD2    H2 9874   2.514   1.778  14.575 -1.2283  1.0100  1.4548
  667MPD2    H3 9875   2.555   1.590  14.429  0.0941 -2.1014  0.7468
  667MPD2     N 9876   2.113   1.470  14.416  0.0457 -0.0445 -0.4709
  667MPD2    H5 9877   2.129   1.384  14.363  0.3238 -1.2175  1.4913
  667MPD2    N1 9878   2.265   1.817  14.704  0.3631 -0.0328  0.5181
  667MPD2    H7 9879   2.175   1.802  14.748 -0.3515  2.0846 -0.1925
  668TMC3    C1 9880   2.301   1.979  14.880  0.2434 -1.0014  0.0979
  668TMC3    C2 9881   2.376   2.084  14.926  0.4038 -0.2297 -0.2838
  668TMC3    C3 9882   2.356   2.134  15.057  0.2502 -0.2605 -0.1751
  668TMC3    C4 9883   2.208   1.919  14.959  0.7691 -0.2666  0.1610
  668TMC3    C5 9884   2.204   1.960  15.092  0.0449  0.6411  0.6356
  668TMC3    C6 9885   2.277   2.062  15.136  0.7151 -0.1165  0.0576
  668TMC3     C 9886   2.349   1.915  14.755 -0.7018 -0.5776 -0.2169
  668TMC3     O 9887   2.447   1.964  14.699 -0.0540  0.2922  0.4939
  668TMC3     H 9888   2.455   2.127  14.867  0.3651  0.0739 -0.1167
  668TMC3    H1 9889   2.134   1.846  14.925 -0.6697  0.6339  1.3604
  668TMC3    H2 9890   2.261   2.081  15.242  1.6021 -0.5160  0.2687
  668TMC3    C7 9891   2.121   1.895  15.184  0.0914  0.1247  0.4399
  668TMC3    C8 9892   2.425   2.255  15.107 -0.0756 -0.1478 -1.0003
  668TMC3    O1 9893   2.161   1.891  15.301  0.0522  0.7984 -0.3260
  668TMC3    O2 9894   2.409   2.290  15.225 -0.1893  0.1201 -0.1672
  669TMC3    C1 9895   0.033   1.624  14.648 -0.4990  0.2153  0.7310
  669TMC3    C2 9896   4.654   1.665  14.569 -0.3927  0.1330 -0.0375
  669TMC3    C3 9897   4.680   1.744  14.459  0.0613  0.3472 -0.1061
  669TMC3    C4 9898   0.157   1.678  14.636 -0.0728 -0.0951  0.5578
  669TMC3    C5 9899   0.175   1.754  14.522 -0.1359  0.4136  0.1840
  669TMC3    C6 9900   0.081   1.792  14.437  0.3675 -0.0432  0.0039
  669TMC3     C 9901   4.721   1.556  14.766 -0.4546 -0.1758 -0.1027
  669TMC3     O 9902   4.608   1.585  14.806 -0.2549  0.1555  0.2011
  669TMC3     H 9903   4.553   1.626  14.581 -0.2469  0.3911  2.0207
  669TMC3    H1 9904   0.236   1.661  14.708  0.3087 -1.6317 -0.2223
  669TMC3    H2 9905   0.097   1.868  14.362  2.2622  0.4378  0.8694
  669TMC3    C7 9906   0.304   1.809  14.513 -0.4338  0.2035 -0.0040
  669TMC3    C8 9907   4.576   1.793  14.369 -0.4971  0.4838  0.6665
  669TMC3    O1 9908   0.321   1.900  14.428  0.3244  0.2027 -0.6041
  669TMC3    O2 9909   4.612   1.811  14.254  0.3728  0.3357  0.0193
  670MPD2     C 9910   3.149   4.440  13.144 -0.5247  0.7897  0.1898
  670MPD2    C1 9911   3.244   4.500  13.229 -0.2370  0.5823 -0.5325
  670MPD2    C2 9912   3.252   4.465  13.363 -0.8140  0.3136  0.3531
  670MPD2    C3 9913   3.152   4.385  13.420 -0.2396 -0.1672 -0.6488
  670MPD2    C4 9914   3.047   4.339  13.339  0.2890 -0.5484  0.2970
  670MPD2    C5 9915   3.046   4.370  13.203  0.0404  0.0686 -0.1627
  670MPD2     H 9916   3.333   4.505  13.423 -1.5173  1.6120  0.4455
  670MPD2    H1 9917   2.968   4.279  13.384 -1.2229  2.5046  1.6907
  670MPD2    H2 9918   3.151   4.432  13.036 -1.9875 -1.3971  0.3327
  670MPD2    H3 9919   2.969   4.329  13.140 -0.0324 -0.2667  0.1471
  670MPD2     N 9920   3.172   4.352  13.554  0.2122 -0.3394 -0.2924
  670MPD2    H5 9921   3.251   4.396  13.601  0.6211  1.7885 -2.9739
  670MPD2    N1 9922   3.354   4.573  13.180 -0.3613  1.0322 -0.1247
  670MPD2    H7 9923   3.411   4.617  13.251  0.9208 -0.0623 -0.4739
  671TMC3    C1 9924   3.104   4.283  13.772  0.0883 -0.2916 -1.0563
  671TMC3    C2 9925   3.202   4.356  13.830  0.3679 -0.0161 -0.9867
  671TMC3    C3 9926   3.258   4.325  13.948  0.5455 -0.5627 -0.4925
  671TMC3    C4 9927   3.039   4.182  13.843  0.7938 -0.4383 -0.4493
  671TMC3    C5 9928   3.087   4.160  13.975  0.3157  0.0359  0.1082
  671TMC3    C6 9929   3.192   4.234  14.024  0.3230  0.2113 -0.2622
  671TMC3     C 9930   3.083   4.276  13.630  0.1417 -0.4831 -0.5382
  671TMC3     O 9931   2.987   4.205  13.595 -0.5535 -0.1274 -0.7177
  671TMC3     H 9932   3.264   4.416  13.765  2.4987 -0.6669  0.4586
  671TMC3    H1 9933   2.969   4.112  13.799 -0.5147  1.4596 -1.3816
  671TMC3    H2 9934   3.231   4.212  14.123  1.3944  0.4634 -0.6265
  671TMC3    C7 9935   3.067   4.032  14.039  0.0428 -0.8947 -0.1440
  671TMC3    C8 9936   3.396   4.278  13.942 -0.4533  0.7864 -0.2197
  671TMC3    O1 9937   3.150   3.990  14.118 -0.3698  0.1315  0.3535
  671TMC3    O2 9938   3.420   4.217  13.837  0.1656 -0.0665  0.3971
  672MPD2     C 9939   3.195   4.461   1.334 -0.9779 -0.3714  0.6685
  672MPD2    C1 9940   3.295   4.372   1.298  0.7588  0.5297  0.7278
  672MPD2    C2 9941   3.419   4.422   1.266  0.1114 -0.1775  0.0607
  672MPD2    C3 9942   3.453   4.555   1.270  1.0985  0.0353 -0.1542
  672MPD2    C4 9943   3.358   4.642   1.312 -0.1902  0.3520 -0.0445
  672MPD2    C5 9944   3.234   4.594   1.347  0.2608  0.2159 -0.5022
  672MPD2     H 9945   3.496   4.354   1.230 -0.8039 -0.9567 -0.4226
  672MPD2    H1 9946   3.379   0.023   1.325  1.1974 -0.0147  0.6697
  672MPD2    H2 9947   3.092   4.432   1.347 -1.1717  0.4203  0.8688
  672MPD2    H3 9948   3.159   4.662   1.384  1.4836  1.0874  0.3735
  672MPD2     N 9949   3.577   4.620   1.227  0.7974 -0.1256 -0.3799
  672MPD2    H5 9950   3.587   4.720   1.239 -0.4127 -0.0200 -0.2802
  672MPD2    N1 9951   3.274   4.236   1.275  0.3290 -0.0852  0.5578
  672MPD2    H7 9952   3.350   4.184   1.232  1.1630  1.2109  0.4486
  673TMC3    C1 9953   3.154   4.048   1.201  0.0514  0.0372 -0.2643
  673TMC3    C2 9954   3.150   3.925   1.260 -0.0512  0.2281 -0.2374
  673TMC3    C3 9955   3.163   3.814   1.178  0.1453 -0.3915 -0.1777
  673TMC3    C4 9956   3.152   4.071   1.067  0.0695 -0.8098  0.7900
  673TMC3    C5 9957   3.164   3.956   0.988 -0.1495 -0.4526 -0.4413
  673TMC3    C6 9958   3.164   3.832   1.039  1.0224  0.1948 -0.4080
  673TMC3     C 9959   3.152   4.170   1.283 -0.0313  1.0046  0.4286
  673TMC3     O 9960   3.047   4.207   1.336 -0.1421  0.2562  0.4901
  673TMC3     H 9961   3.166   3.921   1.367 -1.9706  0.6303  0.0677
  673TMC3    H1 9962   3.151   4.174   1.032 -0.8301 -0.7506  0.9978
  673TMC3    H2 9963   3.171   3.744   0.976 -1.9079  0.8998 -1.6996
  673TMC3    C7 9964   3.156   3.968   0.847  0.4757 -0.0105  0.3196
  673TMC3    C8 9965   3.246   3.710   1.230 -0.2708 -0.3633  0.5293
  673TMC3    O1 9966   3.156   3.862   0.779 -0.1431 -0.2164 -0.0927
  673TMC3    O2 9967   3.229   3.673   1.343  1.3735  0.1797  0.1880
  674MPD2     C 9968   3.973   3.159   0.300  0.5570  0.1058  0.4875
  674MPD2    C1 9969   3.841   3.120   0.295  0.5718  0.7122  0.1503
  674MPD2    C2 9970   3.777   3.099   0.414  0.0006  0.0021 -0.4434
  674MPD2    C3 9971   3.842   3.127   0.536  0.5442 -0.9224  0.3324
  674MPD2    C4 9972   3.976   3.149   0.536 -0.0481  0.4005 -0.2655
  674MPD2    C5 9973   4.037   3.173   0.416  0.0353 -0.0965 -0.2213
  674MPD2     H 9974   3.671   3.078   0.411 -0.4527  2.5224 -1.8379
  674MPD2    H1 9975   4.040   3.159   0.623 -1.3915 -0.2872  0.8048
  674MPD2    H2 9976   4.029   3.166   0.207 -2.3635  1.1828 -1.2208
  674MPD2    H3 9977   4.142   3.198   0.410 -0.4562  1.8049 -0.7504
  674MPD2     N 9978   3.767   3.115   0.654  0.2594  0.1063 -0.6221
  674MPD2    H5 9979   3.667   3.096   0.649  0.2527  0.1550 -0.6723
  674MPD2    N1 9980   3.792   3.092   0.167  0.2331  0.0088  0.5296
  674MPD2    H7 9981   3.856   3.122   0.094  1.8798  0.1944  2.0493
  675TMC3    C1 9982   3.654   2.978   0.014 -0.0001 -0.9401 -0.1620
  675TMC3    C2 9983   3.564   2.875  17.698 -0.7354 -0.3577  0.6696
  675TMC3    C3 9984   3.484   2.883  17.590 -0.8492 -0.2871  0.3537
  675TMC3    C4 9985   3.681   3.068  17.617 -0.5616 -0.3207 -0.1584
  675TMC3    C5 9986   3.596   3.067  17.503  0.2783 -0.0296  0.2836
  675TMC3    C6 9987   3.493   2.976  17.495  0.2751 -1.1466  1.1365
  675TMC3     C 9988   3.699   2.996   0.145  0.4476 -0.4907 -0.4062
  675TMC3     O 9989   3.650   2.921   0.229  0.3310  0.0725  0.0005
  675TMC3     H 9990   3.557   2.793   0.065  3.1977 -0.6383  0.7595
  675TMC3    H1 9991   3.762   3.139  17.627  0.4071 -1.3344 -0.8280
  675TMC3    H2 9992   3.428   2.968  17.408  1.3057  1.1349  0.1462
  675TMC3    C7 9993   3.638   3.144  17.399  0.8041 -0.7481 -0.4880
  675TMC3    C8 9994   3.359   2.799  17.589  0.4024  0.1524 -0.1157
  675TMC3    O1 9995   3.747   3.199  17.407  1.0006 -0.0460 -0.0961
  675TMC3    O2 9996   3.345   2.744  17.483 -0.8483 -0.2081 -0.1858
  676MPD2     C 9997   1.456   2.856  10.814 -1.2212  0.4650 -0.1817
  676MPD2    C1 9998   1.422   2.832  10.947  0.2935  0.4364  0.9823
  676MPD2    C2 9999   1.331   2.732  10.976 -0.1966 -0.4505 -0.6335
  676MPD2    C310000   1.289   2.647  10.876 -0.0136  0.4749 -0.2997
  676MPD2    C410001   1.327   2.670  10.747 -0.7789 -1.0416 -0.5601
  676MPD2    C510002   1.406   2.776  10.716 -0.3198  0.1169  1.3723
  676MPD2     H10003   1.301   2.704  11.076 -0.6175 -0.9355 -0.8956
  676MPD2    H110004   1.296   2.601  10.669  2.0762  0.7662 -3.2860
  676MPD2    H210005   1.519   2.942  10.793 -1.7074  0.8245 -0.1653
  676MPD2    H310006   1.416   2.799  10.611 -1.8425  0.8291  1.3786
  676MPD2     N10007   1.221   2.521  10.906 -0.6393 -0.3639  0.4449
  676MPD2    H510008   1.226   2.447  10.837  0.7197  0.3633 -0.2458
  676MPD2    N110009   1.485   2.893  11.058  0.4918 -0.0065  0.0306
  676MPD2    H710010   1.453   2.866  11.151  2.0630  0.2383  0.6317
  677TMC3    C110011   1.593   3.066  11.186  0.4179 -0.1316  0.7628
  677TMC3    C210012   1.630   2.970  11.283 -0.4188  0.4460  0.0329
  677TMC3    C310013   1.714   3.019  11.381 -0.4583 -0.2237 -0.1591
  677TMC3    C410014   1.633   3.201  11.190 -0.8087  0.1780  0.7521
  677TMC3    C510015   1.713   3.242  11.297 -0.4755 -0.8595 -1.0597
  677TMC3    C610016   1.754   3.149  11.385  0.1835  0.5765 -0.6859
  677TMC3     C10017   1.559   3.009  11.053 -0.6315  0.2374  0.1986
  677TMC3     O10018   1.580   3.089  10.964  0.2140 -0.2156 -0.1601
  677TMC3     H10019   1.612   2.864  11.272 -2.1072  0.8532 -1.0891
  677TMC3    H110020   1.588   3.269  11.119 -1.4892  0.3488  1.3499
  677TMC3    H210021   1.812   3.168  11.475 -1.5353 -0.1306  0.5477
  677TMC3    C710022   1.689   3.378  11.338  0.9647 -0.3859 -0.2888
  677TMC3    C810023   1.756   2.931  11.492 -0.1453 -0.5358  0.0182
  677TMC3    O110024   1.678   3.473  11.256 -0.0110  0.0585  1.2141
  677TMC3    O210025   1.841   2.978  11.563 -0.3020 -0.1782 -0.7244
  678MPD2     C10026   2.471   1.588   1.698  0.1312 -0.5447  0.2381
  678MPD2    C110027   2.483   1.583   1.560  0.5331 -0.2662  0.3316
  678MPD2    C210028   2.376   1.629   1.489 -0.2795  0.8037 -0.3745
  678MPD2    C310029   2.256   1.661   1.551  0.1268  0.2209 -0.0369
  678MPD2    C410030   2.243   1.650   1.692 -0.0517 -0.0200 -0.0644
  678MPD2    C510031   2.351   1.611   1.758 -0.4593 -0.0882  0.2933
  678MPD2     H10032   2.378   1.624   1.381  1.3054 -1.8459 -0.2271
  678MPD2    H110033   2.153   1.669   1.749  0.6001  1.7278  0.4025
  678MPD2    H210034   2.543   1.542   1.765  1.3255  0.4015 -0.4043
  678MPD2    H310035   2.351   1.610   1.866  0.7372 -2.1983  0.2595
  678MPD2     N10036   2.150   1.689   1.464 -0.3294  0.5535  0.2350
  678MPD2    H510037   2.166   1.694   1.364 -0.5752  0.2194  0.1782
  678MPD2    N110038   2.594   1.528   1.494 -0.3030 -0.3389 -0.4005
  678MPD2    H710039   2.598   1.540   1.393 -1.9535 -0.0108 -0.4275
  679TMC3    C110040   2.940   1.263   1.343  0.2708 -0.0482  0.5601
  679TMC3    C210041   2.855   1.299   1.446  1.0740 -0.8293  0.1838
  679TMC3    C310042   2.789   1.415   1.439 -0.4482  0.6329  0.3337
  679TMC3    C410043   2.936   1.337   1.227  0.1858  0.2289 -0.8856
  679TMC3    C510044   2.864   1.454   1.227  0.2964  0.2290  0.2939
  679TMC3    C610045   2.789   1.492   1.330 -0.3911 -0.7802  0.0080
  679TMC3     C10046   3.069   1.200   1.376  0.4642 -0.3090 -0.0635
  679TMC3     O10047   3.160   1.239   1.307  0.1248 -0.4986 -0.0953
  679TMC3     H10048   2.841   1.255   1.545 -1.3506  1.7263  0.9824
  679TMC3    H110049   2.996   1.298   1.145  0.0279 -0.4091 -0.7014
  679TMC3    H210050   2.762   1.597   1.333 -2.7450 -1.4171  0.9800
  679TMC3    C710051   2.852   1.532   1.110  0.0439 -0.0997  0.0618
  679TMC3    C810052   2.694   1.455   1.543  0.0847 -0.4847 -0.1412
  679TMC3    O110053   2.744   1.584   1.098  0.4785  0.0585 -0.0522
  679TMC3    O210054   2.700   1.403   1.654  0.5822 -0.3547 -0.3811
  680MPD2     C10055   3.891   1.473  13.510  0.6375  0.3347 -0.1746
  680MPD2    C110056   3.873   1.407  13.630 -0.1943  0.1843 -0.9528
  680MPD2    C210057   3.799   1.469  13.724 -0.0440 -0.1265  0.0512
  680MPD2    C310058   3.745   1.595  13.705  0.1287  0.8393  0.1117
  680MPD2    C410059   3.774   1.660  13.580  0.5465  0.2548 -0.1675
  680MPD2    C510060   3.844   1.598  13.484 -0.3320  0.6207 -0.5668
  680MPD2     H10061   3.777   1.411  13.813  0.2287 -1.4605 -0.7618
  680MPD2    H110062   3.744   1.762  13.559 -0.1856 -0.0146 -0.4594
  680MPD2    H210063   3.954   1.431  13.432  0.3812  1.6092 -1.0742
  680MPD2    H310064   3.870   1.645  13.391  0.6009 -2.0701 -1.6650
  680MPD2     N10065   3.673   1.670  13.807  0.8364  0.3005  0.0588
  680MPD2    H510066   3.623   1.752  13.775 -1.4170 -1.4278 -0.8826
  680MPD2    N110067   3.922   1.279  13.656 -0.6122 -0.0312 -0.3039
  680MPD2    H710068   3.881   1.225  13.733 -0.1900  2.7333  1.8671
  681TMC3    C110069   4.009   1.070  13.575 -0.5796  0.3447  0.1824
  681TMC3    C210070   3.890   1.023  13.633 -0.1005  0.3993 -0.3747
  681TMC3    C310071   3.818   0.919  13.576  0.4314  0.6569 -1.3610
  681TMC3    C410072   4.052   1.014  13.458  0.3695  0.8164 -0.4911
  681TMC3    C510073   3.978   0.914  13.402  0.6173  0.2047 -0.3137
  681TMC3    C610074   3.859   0.867  13.457  0.3342  0.1563 -0.1747
  681TMC3     C10075   4.011   1.218  13.570  0.1809  0.3658  0.3062
  681TMC3     O10076   4.092   1.266  13.494  0.1134 -0.2166  0.1837
  681TMC3     H10077   3.867   1.048  13.736  0.0898 -2.3843  0.3464
  681TMC3    H110078   4.139   1.054  13.408  0.6012  0.1316 -0.6377
  681TMC3    H210079   3.811   0.777  13.419  1.7168 -1.1429  1.1172
  681TMC3    C710080   4.036   0.854  13.285  0.2656 -1.1148  0.2936
  681TMC3    C810081   3.702   0.864  13.642 -0.1405  0.4778  0.1297
  681TMC3    O110082   4.154   0.822  13.297  0.0645 -0.0880 -0.0540
  681TMC3    O210083   3.655   0.757  13.603  0.3968 -0.7959 -0.6885
  682MPD2     C10084   0.205   3.043  10.319 -0.5021 -0.1943  0.6361
  682MPD2    C110085   0.160   2.923  10.375 -0.0863  0.7973  0.5175
  682MPD2    C210086   0.075   2.933  10.484  0.0121  0.6809 -0.1120
  682MPD2    C310087   0.052   3.057  10.541  0.5922  0.6901  0.2509
  682MPD2    C410088   0.105   3.183  10.490 -0.1371  0.3212  0.3687
  682MPD2    C510089   0.176   3.167  10.377 -0.8874  0.3526 -0.1323
  682MPD2     H10090   0.059   2.842  10.542  1.3275 -0.4695 -1.5512
  682MPD2    H110091   0.068   3.277  10.528 -3.8626 -1.1765  0.4929
  682MPD2    H210092   0.256   3.039  10.223 -2.4907  1.1160 -0.5079
  682MPD2    H310093   0.212   3.259  10.333 -0.0690 -0.6673 -1.5792
  682MPD2     N10094   4.691   3.069  10.649 -0.0788  0.4867 -0.2489
  682MPD2    H510095   4.688   3.155  10.702 -0.2211  0.6520 -0.5219
  682MPD2    N110096   0.193   2.794  10.319  0.1286 -0.5001 -0.3811
  682MPD2    H710097   0.139   2.713  10.348 -1.3240  0.7654  0.4672
  683TMC3    C110098   4.467   3.081  10.998  1.2001  0.7580 -0.2385
  683TMC3    C210099   4.361   2.998  11.013  0.4527  0.6534  0.5544
  683TMC3    C310100   4.339   2.905  10.916 -0.2398  0.1634 -0.1013
  683TMC3    C410101   4.542   3.083  10.883 -0.0753  0.1110  0.5200
  683TMC3    C510102   4.513   2.983  10.791 -0.1151  0.3821 -0.1075
  683TMC3    C610103   4.417   2.887  10.804 -0.5142  0.2036  0.0141
  683TMC3     C10104   4.498   3.195  11.088  0.4989  0.4521  0.0645
  683TMC3     O10105   4.601   3.255  11.062 -0.0472 -0.0328 -0.1840
  683TMC3     H10106   4.295   2.995  11.099 -0.0407  2.1025  0.2327
  683TMC3    H110107   4.628   3.148  10.877 -0.0094  0.1816  2.0346
  683TMC3    H210108   4.391   2.819  10.724 -0.2265 -1.3962  1.2786
  683TMC3    C710109   4.596   2.973  10.671 -0.1070 -0.3816 -0.1029
  683TMC3    C810110   4.259   2.785  10.946  0.5793  0.2592  0.3428
  683TMC3    O110111   4.554   2.885  10.597  0.2632  0.2643  0.0253
  683TMC3    O210112   4.203   2.753  10.841 -0.2611 -0.4070 -0.6979
  684MPD2     C10113   3.074   1.746  16.558  0.1407 -0.0933 -0.5123
  684MPD2    C110114   3.149   1.775  16.442 -0.4884 -0.1214  0.2151
  684MPD2    C210115   3.178   1.903  16.411  0.2903  0.4856  0.3392
  684MPD2    C310116   3.144   2.007  16.494 -0.4137 -0.1560  0.4019
  684MPD2    C410117   3.084   1.981  16.613 -0.9552 -0.1057 -0.6334
  684MPD2    C510118   3.040   1.852  16.641  0.3064  0.2813 -0.1294
  684MPD2     H10119   3.227   1.923  16.316  0.5765  1.0550  0.6110
  684MPD2    H110120   3.050   2.065  16.672 -1.3409 -1.2641  0.7842
  684MPD2    H210121   3.046   1.647  16.592  2.0024 -0.4811 -0.1039
  684MPD2    H310122   2.974   1.840  16.727 -0.6912 -0.8828 -1.0586
  684MPD2     N10123   3.183   2.143  16.468 -0.4077 -0.2944  0.0038
  684MPD2    H510124   3.178   2.213  16.541  2.8551 -1.2917  1.1865
  684MPD2    N110125   3.191   1.674  16.353  0.5730 -0.1909  0.6130
  684MPD2    H710126   3.254   1.699  16.277 -0.5463  0.8172  0.0185
  685TMC3    C110127   3.212   1.474  16.246 -0.0272  0.1161  0.3665
  685TMC3    C210128   3.170   1.498  16.124 -0.3960 -0.5092 -0.3277
  685TMC3    C310129   3.261   1.511  16.022 -0.0772 -0.1640  0.4805
  685TMC3    C410130   3.343   1.466  16.268  0.2557  0.1328 -0.0269
  685TMC3    C510131   3.434   1.486  16.166 -0.8021  0.0197  0.0839
  685TMC3    C610132   3.398   1.510  16.039  0.5929  0.1715 -0.2957
  685TMC3     C10133   3.140   1.549  16.346  0.1962  0.1815 -0.4962
  685TMC3     O10134   3.089   1.481  16.434 -0.3762  0.3197 -0.3761
  685TMC3     H10135   3.063   1.488  16.112 -0.5468 -1.1014  1.5275
  685TMC3    H110136   3.380   1.454  16.369  0.7938 -0.2332 -0.2735
  685TMC3    H210137   3.466   1.537  15.959 -1.2587  3.7276 -0.6734
  685TMC3    C710138   3.575   1.497  16.215  0.2837 -0.2033  0.6184
  685TMC3    C810139   3.219   1.590  15.906  0.7721 -0.4159 -0.1855
  685TMC3    O110140   3.586   1.474  16.332  0.0273 -0.0931  0.2778
  685TMC3    O210141   3.281   1.585  15.800  0.1699 -0.1963 -1.0568
  686MPD2     C10142   4.556   2.126  15.637  0.4373  0.3307 -0.4341
  686MPD2    C110143   4.568   2.010  15.704 -0.2636  0.3232 -0.3579
  686MPD2    C210144   4.680   1.943  15.718  0.3755  0.0280 -0.1359
  686MPD2    C310145   0.067   1.997  15.666  0.2376 -0.1078  0.1289
  686MPD2    C410146   0.061   2.117  15.598  0.1952 -0.3997  0.5249
  686MPD2    C510147   4.664   2.177  15.573 -0.6658 -0.4917  0.2638
  686MPD2     H10148   4.680   1.848  15.771 -1.1988  0.2561  0.2619
  686MPD2    H110149   0.149   2.142  15.539 -0.6189  1.1362 -0.0374
  686MPD2    H210150   4.461   2.175  15.621  0.8849  2.4448  3.2827
  686MPD2    H310151   4.653   2.255  15.500  1.6625  1.4778  2.0130
  686MPD2     N10152   0.185   1.915  15.659  0.3800 -0.3325 -0.1695
  686MPD2    H510153   0.174   1.825  15.706  0.4697 -0.3978 -0.2746
  686MPD2    N110154   4.446   1.959  15.757  0.2169  0.6640  0.1145
  686MPD2    H710155   4.363   2.013  15.733 -0.4948  0.6884  2.6034
  687TMC3    C110156   0.373   1.814  15.556  0.2154  0.1745 -0.0580
  687TMC3    C210157   0.287   1.715  15.537 -0.2690  0.3511  1.1819
  687TMC3    C310158   0.279   1.615  15.625  0.6709 -0.0059  1.0726
  687TMC3    C410159   0.472   1.805  15.652  0.0177 -0.5660 -0.9617
  687TMC3    C510160   0.469   1.695  15.733  0.5534 -0.1825  0.0631
  687TMC3    C610161   0.372   1.607  15.725 -0.2030  0.8276  0.0242
  687TMC3     C10162   0.295   1.937  15.575  0.2293 -0.3869 -0.0010
  687TMC3     O10163   0.335   2.028  15.504  0.5498  0.2019 -0.2993
  687TMC3     H10164   0.205   1.736  15.470 -0.0193 -0.5052  0.5988
  687TMC3    H110165   0.541   1.885  15.676 -1.9262  0.0477  2.6468
  687TMC3    H210166   0.353   1.543  15.811  0.1287 -1.0520 -1.3087
  687TMC3    C710167   0.505   1.745  15.863  0.8127  0.8473 -0.5802
  687TMC3    C810168   0.148   1.593  15.673 -0.2261 -0.4825 -0.0500
  687TMC3    O110169   0.467   1.856  15.893  0.0401 -0.2379  0.8854
  687TMC3    O210170   0.133   1.624  15.791 -0.6388  0.3217  0.1372
  688MPD2     C10171   3.827   0.554  17.214  0.6217  0.7151 -0.3141
  688MPD2    C110172   3.859   0.421  17.235  0.3320  0.1427 -0.7584
  688MPD2    C210173   3.961   0.358  17.159 -0.9266  0.0655 -0.3859
  688MPD2    C310174   4.018   0.432  17.058 -0.2228  0.6254 -0.5612
  688MPD2    C410175   3.987   0.567  17.046  0.3230  0.0672  0.1709
  688MPD2    C510176   3.883   0.627  17.116  0.2871  0.2431  0.2222
  688MPD2     H10177   3.978   0.253  17.177 -0.7858 -0.0160 -0.9923
  688MPD2    H110178   4.045   0.623  16.973 -1.0457  1.3354  0.0633
  688MPD2    H210179   3.738   0.598  17.258 -0.7627  0.5759 -2.9551
  688MPD2    H310180   3.859   0.732  17.104  1.2470  0.7826  2.8603
  688MPD2     N10181   4.109   0.379  16.965  0.4153 -0.1026 -0.2484
  688MPD2    H510182   4.139   0.431  16.883 -1.1474 -2.0626 -2.0912
  688MPD2    N110183   3.786   0.349  17.335 -0.2502  0.4541  0.0749
  688MPD2    H710184   3.814   0.252  17.344  1.8560  0.8762 -2.0707
  689TMC3    C110185   3.628   0.296  17.507  0.1033 -0.1368  0.2564
  689TMC3    C210186   3.552   0.353  17.609 -0.2253  0.2493  1.0897
  689TMC3    C310187   3.480   0.270  17.687  0.2951  0.6003 -1.0534
  689TMC3    C410188   3.619   0.165  17.482  0.2586  0.1586 -0.4405
  689TMC3    C510189   3.546   0.088  17.572  0.4219  0.2050 -0.1259
  689TMC3    C610190   3.486   0.134  17.685 -0.5272 -0.0172  0.6067
  689TMC3     C10191   3.686   0.395  17.422 -0.2309 -0.1091  0.2296
  689TMC3     O10192   3.658   0.510  17.449 -0.0809  0.3166 -0.5133
  689TMC3     H10193   3.558   0.458  17.636 -1.0167  1.1180 -2.0752
  689TMC3    H110194   3.678   0.121  17.402  1.4089 -1.3953  1.2628
  689TMC3    H210195   3.419   0.080   0.048  0.4025  0.3333  1.8611
  689TMC3    C710196   3.547   4.668  17.561 -0.4759  0.2665 -0.5205
  689TMC3    C810197   3.407   0.332   0.098 -0.2300  0.8573 -0.0925
  689TMC3    O110198   3.520   4.609  17.663  0.2380  0.0934  0.3372
  689TMC3    O210199   3.408   0.265   0.197 -0.3046  0.6233  0.3393
  690MPD2     C10200   1.275   2.678  15.787 -0.3376 -0.7249 -0.3051
  690MPD2    C110201   1.238   2.633  15.660  0.0793 -0.1300 -0.3538
  690MPD2    C210202   1.311   2.688  15.553 -0.3785  0.1847  0.5686
  690MPD2    C310203   1.421   2.772  15.568  0.6798  0.0720  0.1871
  690MPD2    C410204   1.452   2.812  15.694  0.9130 -0.6218  0.0351
  690MPD2    C510205   1.375   2.769  15.801 -0.1724  0.7653 -0.0582
  690MPD2     H10206   1.291   2.652  15.453 -1.9771  1.5885  0.3749
  690MPD2    H110207   1.544   2.866  15.713  0.5852 -0.1851  0.3811
  690MPD2    H210208   1.233   2.643  15.881 -0.1033  1.6323  0.6816
  690MPD2    H310209   1.396   2.794  15.905 -0.7669  0.3692  0.1540
  690MPD2     N10210   1.498   2.806  15.456  0.0596  0.2400 -0.5034
  690MPD2    H510211   1.458   2.784  15.366  0.1810  1.2331 -0.8089
  690MPD2    N110212   1.148   2.530  15.631  0.0996  0.0525 -0.2440
  690MPD2    H710213   1.159   2.488  15.539  0.8388  0.3836 -0.3006
  691TMC3    C110214   0.976   2.371  15.660 -0.2275  0.3334 -0.3429
  691TMC3    C210215   0.850   2.367  15.707 -0.4906 -0.3104 -0.1525
  691TMC3    C310216   0.772   2.255  15.692 -0.2227  0.1677 -0.5409
  691TMC3    C410217   1.038   2.259  15.609 -0.0252  0.3714  0.0478
  691TMC3    C510218   0.957   2.147  15.591 -0.2597  0.2909  0.1332
  691TMC3    C610219   0.826   2.146  15.629  1.0939 -0.1576 -0.0118
  691TMC3     C10220   1.057   2.473  15.718 -0.1026  0.1693 -0.2107
  691TMC3     O10221   1.046   2.495  15.835 -0.0442 -0.0080 -0.0791
  691TMC3     H10222   0.813   2.462  15.746  2.0130 -0.1434  1.8113
  691TMC3    H110223   1.142   2.260  15.577  0.4840  0.5400  1.7223
  691TMC3    H210224   0.769   2.054  15.633 -0.1372  0.5964 -0.4441
  691TMC3    C710225   1.011   2.018  15.547 -0.6589  0.4837  0.0672
  691TMC3    C810226   0.645   2.237  15.761  0.1266  0.6489 -0.4501
  691TMC3    O110227   1.126   1.986  15.578 -0.1026 -0.1840 -0.3404
  691TMC3    O210228   0.606   2.123  15.781  0.3950 -0.1439 -0.1750
  692TMC3    C110229   2.991   3.410  15.755 -0.6616 -0.6147 -0.2365
  692TMC3    C210230   3.117   3.459  15.795 -0.7210  0.5963  0.1262
  692TMC3    C310231   3.217   3.373  15.792 -0.0677 -0.2816  0.0819
  692TMC3    C410232   2.959   3.279  15.744  0.5831 -0.7082 -0.5456
  692TMC3    C510233   3.061   3.192  15.773  1.3388 -0.1324 -0.6233
  692TMC3    C610234   3.190   3.238  15.775 -0.3662 -0.4754 -0.2765
  692TMC3     C10235   2.877   3.495  15.789 -0.1771  0.5081 -0.5947
  692TMC3     O10236   2.764   3.453  15.775 -0.2955  0.4472  0.0580
  692TMC3     H10237   3.133   3.566  15.791  1.8799  0.0946 -2.5145
  692TMC3    H110238   2.856   3.247  15.737  1.1705 -1.7510 -4.2565
  692TMC3    H210239   3.269   3.164  15.774  0.7006  0.6529  2.0437
  692TMC3    C710240   3.027   3.057  15.739 -0.0594 -0.0394  0.2639
  692TMC3    C810241   3.320   3.400  15.893 -0.3325 -0.3025  0.1725
  692TMC3    O110242   2.939   3.037  15.661  0.6552  0.3917  0.1913
  692TMC3    O210243   3.394   3.308  15.928  0.2159 -0.1301  0.2161
  693MPD2     C10244   2.079   1.950  10.412 -0.0223 -0.1419  0.4270
  693MPD2    C110245   2.076   1.818  10.442 -0.2334 -0.5787 -0.1305
  693MPD2    C210246   2.178   1.727  10.416 -0.0999 -0.1327 -0.2123
  693MPD2    C310247   2.304   1.778  10.387  0.4353 -1.1622 -0.5145
  693MPD2    C410248   2.317   1.909  10.351 -0.1793  0.4799 -0.0140
  693MPD2    C510249   2.202   1.988  10.360  0.9148  0.5223 -0.3822
  693MPD2     H10250   2.141   1.625  10.417  2.7041 -1.1650 -1.7394
  693MPD2    H110251   2.410   1.951  10.316  0.3610 -1.4680 -0.8900
  693MPD2    H210252   1.990   2.012  10.401 -0.3309 -0.6370  0.1553
  693MPD2    H310253   2.213   2.090  10.324 -0.6015  0.2406 -1.6441
  693MPD2     N10254   2.423   1.703  10.395  0.5110  0.4524 -0.3720
  693MPD2    H510255   2.507   1.759  10.393  0.1411  0.9624 -1.6798
  693MPD2    N110256   1.945   1.772  10.489  0.3998 -0.2606 -0.6057
  693MPD2    H710257   1.876   1.840  10.519 -0.5241 -1.0721 -0.9097
  694TMC3    C110258   1.811   1.637  10.614 -0.6339 -0.2860  0.4140
  694TMC3    C210259   1.728   1.529  10.596  0.7528 -0.1596  0.7981
  694TMC3    C310260   1.675   1.473  10.711 -0.3079 -0.4004  0.3761
  694TMC3    C410261   1.831   1.697  10.735  0.5569 -0.0339  0.2461
  694TMC3    C510262   1.781   1.636  10.846 -0.0855 -0.1402 -0.1488
  694TMC3    C610263   1.701   1.523  10.839 -0.9341  0.2792 -0.8792
  694TMC3     C10264   1.907   1.645  10.509  0.1232  0.2483  0.7691
  694TMC3     O10265   1.925   1.547  10.436  0.6446  0.2201  0.4343
  694TMC3     H10266   1.703   1.492  10.498  1.9151 -1.2231  0.9081
  694TMC3    H110267   1.908   1.771  10.755  2.9516 -1.8276 -2.2146
  694TMC3    H210268   1.667   1.474  10.929 -0.5444  0.0516 -0.8570
  694TMC3    C710269   1.815   1.692  10.979  1.2020  0.1481  0.4091
  694TMC3    C810270   1.553   1.397  10.701  0.2806  0.6735 -0.3411
  694TMC3    O110271   1.887   1.793  10.974 -0.0401  0.0453 -0.3343
  694TMC3    O210272   1.490   1.402  10.804  0.3159  0.0671  0.0685
  695MPD2     C10273   3.295   3.262  13.553  0.4841 -0.4674 -0.1594
  695MPD2    C110274   3.275   3.383  13.627 -0.4473  0.2896  0.4012
  695MPD2    C210275   3.167   3.461  13.598  0.1341 -0.3100  0.0948
  695MPD2    C310276   3.072   3.413  13.507 -0.0588 -0.2836 -0.2093
  695MPD2    C410277   3.094   3.300  13.436 -0.2383  0.5850  0.3170
  695MPD2    C510278   3.204   3.227  13.460 -0.4699  0.2761 -0.2922
  695MPD2     H10279   3.146   3.551  13.654  0.3986 -1.4027  1.9395
  695MPD2    H110280   3.018   3.271  13.365  0.2095  0.1791  0.0079
  695MPD2    H210281   3.383   3.201  13.571  0.6378 -0.1579  0.1293
  695MPD2    H310282   3.229   3.148  13.390  0.9239  0.7132 -0.2911
  695MPD2     N10283   2.949   3.488  13.508 -0.1387 -0.4312 -0.1721
  695MPD2    H510284   2.938   3.558  13.581  0.0378 -0.9714  0.3727
  695MPD2    N110285   3.364   3.430  13.727 -0.6763 -0.1521  0.6400
  695MPD2    H710286   3.343   3.520  13.768 -1.6831 -0.2855  0.4229
  696TMC3    C110287   2.726   3.534  13.489  0.4056  0.1617 -0.0288
  696TMC3    C210288   2.709   3.522  13.626 -0.1017  0.2291  0.2621
  696TMC3    C310289   2.589   3.576  13.674  0.0857  0.5022  0.7036
  696TMC3    C410290   2.636   3.586  13.401 -0.5394 -0.4358  0.5425
  696TMC3    C510291   2.530   3.651  13.464  0.4822  0.1952 -0.3809
  696TMC3    C610292   2.501   3.646  13.595 -0.3284  0.3880  0.2305
  696TMC3     C10293   2.841   3.465  13.435  0.0717 -0.3067  0.5866
  696TMC3     O10294   2.821   3.389  13.341  0.0984 -0.1368 -0.2439
  696TMC3     H10295   2.786   3.507  13.700 -0.9068 -0.0185  1.0545
  696TMC3    H110296   2.662   3.589  13.296  1.1941 -1.4967  0.9351
  696TMC3    H210297   2.423   3.706  13.641  1.7803 -0.1596  4.5023
  696TMC3    C710298   2.514   3.787  13.408  1.0794  1.0531  0.6627
  696TMC3    C810299   2.610   3.655  13.793  0.0594  0.5561 -0.1592
  696TMC3    O110300   2.540   3.807  13.290  0.2896 -0.2327  0.4116
  696TMC3    O210301   2.592   3.772  13.775 -0.8203 -0.5785  0.2498
  697MPD2     C10302   2.232   0.226  15.596 -0.5477 -0.1294  0.1185
  697MPD2    C110303   2.269   0.209  15.466  0.0043 -0.1856  0.3722
  697MPD2    C210304   2.277   0.328  15.385  0.0430 -0.0103 -0.2864
  697MPD2    C310305   2.228   0.452  15.431 -0.2406  0.1714 -0.6471
  697MPD2    C410306   2.172   0.456  15.553  0.6324  0.1265  0.0997
  697MPD2    C510307   2.175   0.345  15.637 -0.5909 -0.0599 -0.4394
  697MPD2     H10308   2.299   0.326  15.279 -0.2522 -1.2548 -0.3166
  697MPD2    H110309   2.140   0.548  15.601  1.6396  0.2250  0.5854
  697MPD2    H210310   2.218   0.138  15.658  1.4366 -1.6839 -1.6452
  697MPD2    H310311   2.130   0.358  15.735 -0.3621 -1.8997 -0.1024
  697MPD2     N10312   2.243   0.567  15.346 -0.0044 -0.1641  0.9910
  697MPD2    H510313   2.289   0.558  15.256 -1.4615 -1.8905  0.4313
  697MPD2    N110314   2.281   0.082  15.409 -0.5029  0.2505  0.2656
  697MPD2    H710315   2.291   0.087  15.308 -0.7960 -0.1786  0.2156
  698TMC3    C110316   2.251   0.799  15.300  0.2438 -0.8250  0.0772
  698TMC3    C210317   2.291   0.908  15.361  0.1824 -0.0235 -0.2064
  698TMC3    C310318   2.386   0.983  15.303 -0.4330  0.2483  0.6610
  698TMC3    C410319   2.300   0.768  15.174  0.6369  0.0090 -0.1283
  698TMC3    C510320   2.398   0.846  15.118 -0.4673  0.6497  0.3061
  698TMC3    C610321   2.436   0.959  15.180 -0.0686  0.4542 -0.4592
  698TMC3     C10322   2.205   0.691  15.385 -0.2457 -0.6070 -0.5588
  698TMC3     O10323   2.154   0.723  15.488 -0.4967 -0.3431 -0.2682
  698TMC3     H10324   2.261   0.936  15.462 -1.1860 -1.1074 -0.3208
  698TMC3    H110325   2.269   0.683  15.114 -0.4154  0.1826  0.1635
  698TMC3    H210326   2.518   1.016  15.138  0.8510  1.9592  3.3778
  698TMC3    C710327   2.417   0.840  14.980 -0.2865 -0.9148  0.1936
  698TMC3    C810328   2.458   1.067  15.390  0.0823  0.0060  0.7336
  698TMC3    O110329   2.317   0.814  14.916  0.0543  0.0268  0.7274
  698TMC3    O210330   2.453   1.048  15.509 -0.2471 -0.1645  0.6312
  699TMC3    C110331   2.599   3.507  12.979 -0.1156 -0.7348 -0.4171
  699TMC3    C210332   2.606   3.398  13.053 -0.7568  0.3015  0.0763
  699TMC3    C310333   2.502   3.377  13.137 -1.2122  0.1863  0.0151
  699TMC3    C410334   2.500   3.602  12.986  0.1907 -0.3015 -0.1607
  699TMC3    C510335   2.397   3.579  13.076  0.9643  0.0982  0.1993
  699TMC3    C610336   2.402   3.469  13.153  0.2953 -0.1365 -0.6179
  699TMC3     C10337   2.689   3.545  12.871  0.3833  0.2049  0.2541
  699TMC3     O10338   2.654   3.633  12.793  0.3082 -0.1190  0.2511
  699TMC3     H10339   2.656   3.309  13.018 -0.1940  1.1419 -1.2538
  699TMC3    H110340   2.513   3.702  12.946  0.7433 -0.0312  0.6718
  699TMC3    H210341   2.335   3.464  13.238  1.9868  0.3493  0.7223
  699TMC3    C710342   2.274   3.660  13.076  0.4205 -0.1161  0.3449
  699TMC3    C810343   2.488   3.255  13.213 -0.4728  0.2040 -0.2258
  699TMC3    O110344   2.195   3.619  13.160  0.0709 -0.2223  0.4874
  699TMC3    O210345   2.381   3.237  13.266  0.1294 -0.2553 -0.0499
  700TMC3    C110346   1.861   0.374  16.842  0.2181 -0.3015 -0.3232
  700TMC3    C210347   1.971   0.312  16.811  0.2811 -0.1246  0.3988
  700TMC3    C310348   2.081   0.316  16.896  0.1784  0.0820 -0.4064
  700TMC3    C410349   1.850   0.434  16.965 -0.3090  0.0738  0.3973
  700TMC3    C510350   1.946   0.419  17.059 -0.3242  0.2285 -0.8860
  700TMC3    C610351   2.068   0.358  17.028  0.4708  0.0459  0.4170
  700TMC3     C10352   1.790   0.429  16.729  0.7698  0.3470  0.2822
  700TMC3     O10353   1.760   0.357  16.635 -0.3378  0.1988  0.6113
  700TMC3     H10354   1.988   0.282  16.708  0.9879  1.7765 -0.0231
  700TMC3    H110355   1.764   0.501  16.973 -1.2563 -0.8452 -1.9886
  700TMC3    H210356   2.147   0.345  17.102  1.4800  1.5350 -0.4014
  700TMC3    C710357   1.927   0.485  17.185 -0.1052  0.7702  0.1013
  700TMC3    C810358   2.204   0.256  16.847  0.3572  0.1588 -0.2291
  700TMC3    O110359   2.028   0.511  17.256  0.4885  0.0258  0.5895
  700TMC3    O210360   2.202   0.167  16.763 -0.0984  0.0884 -0.4949
  701TMC3    C110361   1.777   4.322  15.349 -0.4419 -0.1503  0.4783
  701TMC3    C210362   1.829   4.267  15.229  0.0367 -0.0817 -0.2717
  701TMC3    C310363   1.916   4.346  15.154  0.4299 -0.4975 -0.1368
  701TMC3    C410364   1.819   4.448  15.400 -0.0330 -0.2223 -0.2004
  701TMC3    C510365   1.911   4.515  15.324  0.1571  0.0676  0.2249
  701TMC3    C610366   1.960   4.474  15.201  1.0550 -0.9327 -0.0142
  701TMC3     C10367   1.681   4.251  15.436  0.1480  0.1098 -0.4656
  701TMC3     O10368   1.680   4.285  15.552  0.1204  0.7466 -0.5465
  701TMC3     H10369   1.817   4.162  15.204 -0.7853  0.4212 -2.0134
  701TMC3    H110370   1.764   4.489  15.484  1.2769 -0.0654  0.5821
  701TMC3    H210371   2.033   4.537  15.152 -2.3362  0.5339 -3.1158
  701TMC3    C710372   1.934   4.649  15.354  0.0797  0.1474 -0.8816
  701TMC3    C810373   1.980   4.292  15.034 -0.8372  0.1456 -0.2945
  701TMC3    O110374   1.918   4.724  15.259  0.2532  0.2817 -0.2307
  701TMC3    O210375   2.072   4.356  14.995 -0.0310 -0.0614  0.3206
  702MPD2     C10376   1.338   2.134  10.535 -0.3251 -0.2279  0.0327
  702MPD2    C110377   1.257   2.237  10.578 -0.7087  0.6647 -0.2550
  702MPD2    C210378   1.262   2.353  10.513 -0.6689  0.2485 -0.2647
  702MPD2    C310379   1.350   2.375  10.404  0.7060  0.2747 -0.4085
  702MPD2    C410380   1.432   2.271  10.364 -0.3726  0.5703 -0.0747
  702MPD2    C510381   1.424   2.150  10.426 -0.8729 -0.6850  0.4218
  702MPD2     H10382   1.193   2.432  10.542 -2.0245 -0.8185 -0.5709
  702MPD2    H110383   1.515   2.273  10.295 -1.4667 -0.2748 -1.4190
  702MPD2    H210384   1.338   2.038  10.584  1.5726 -0.5681 -0.6181
  702MPD2    H310385   1.495   2.074  10.393 -0.6449 -0.7983  1.1716
  702MPD2     N10386   1.354   2.499  10.341  0.1518 -0.3930 -0.0547
  702MPD2    H510387   1.418   2.506  10.262 -0.9701  0.9639 -0.8320
  702MPD2    N110388   1.169   2.222  10.686 -0.8808  0.0157  0.4336
  702MPD2    H710389   1.110   2.303  10.698  0.7600  1.2248  0.4111
  703TMC3    C110390   1.296   2.716  10.293  0.6050  0.7287  0.2389
  703TMC3    C210391   1.187   2.795  10.269 -0.3658 -0.2227  0.4553
  703TMC3    C310392   1.219   2.921  10.242  0.0834  0.1851 -0.3450
  703TMC3    C410393   1.426   2.758  10.286  0.0941 -0.4411 -0.6371
  703TMC3    C510394   1.448   2.887  10.248 -0.4978 -0.4297 -0.0307
  703TMC3    C610395   1.346   2.971  10.229 -0.9606  0.0511  0.9920
  703TMC3     C10396   1.262   2.598  10.363 -0.3131  0.2682 -0.7677
  703TMC3     O10397   1.150   2.599  10.411  1.0090 -0.1214 -0.0959
  703TMC3     H10398   1.083   2.764  10.266 -0.0395 -1.1034 -1.5055
  703TMC3    H110399   1.508   2.702  10.328  3.0507  3.3589 -1.3524
  703TMC3    H210400   1.363   3.077  10.219  0.7102 -0.3011  0.0171
  703TMC3    C710401   1.563   2.960  10.295 -1.0751 -0.5648 -0.2869
  703TMC3    C810402   1.110   3.018  10.237  0.5712 -0.1347 -0.5213
  703TMC3    O110403   1.578   3.070  10.243 -0.0272 -0.2246 -0.4684
  703TMC3    O210404   1.126   3.114  10.162  0.4336 -0.3136 -0.2240
  704TMC3    C110405   3.864   0.754  12.222 -0.7416  0.4547 -0.3706
  704TMC3    C210406   3.992   0.741  12.172 -0.3074 -0.2187  0.1257
  704TMC3    C310407   4.095   0.745  12.259  0.3627  0.0195 -0.1259
  704TMC3    C410408   3.844   0.778  12.356 -0.3233  0.9835  0.6785
  704TMC3    C510409   3.951   0.771  12.444  0.7557 -0.1866 -0.3305
  704TMC3    C610410   4.079   0.777  12.394  0.1130  0.1704 -0.3238
  704TMC3     C10411   3.744   0.771  12.140 -0.5291 -0.2236  0.0978
  704TMC3     O10412   3.643   0.793  12.199 -0.2416 -0.7370  0.9565
  704TMC3     H10413   3.999   0.704  12.070  2.0369  0.3075  0.1106
  704TMC3    H110414   3.747   0.801  12.399  0.3469 -0.2304  2.8634
  704TMC3    H210415   4.170   0.779  12.454  0.9879 -0.4498 -1.6216
  704TMC3    C710416   3.948   0.651  12.529  0.3602 -0.4690  0.5350
  704TMC3    C810417   4.226   0.705  12.208  0.9506 -0.7882 -0.6560
  704TMC3    O110418   4.050   0.584  12.543  0.3024  0.4208  1.1208
  704TMC3    O210419   4.219   0.633  12.109 -0.1515  0.3013 -0.3329
  705MPD2     C10420   3.809   3.045  16.481 -0.6566  0.2955 -0.5114
  705MPD2    C110421   3.740   3.114  16.383 -0.1368 -0.7580  0.6771
  705MPD2    C210422   3.603   3.106  16.375  0.2534 -0.1824  0.0136
  705MPD2    C310423   3.526   3.042  16.477  0.7572 -0.0196 -0.3588
  705MPD2    C410424   3.595   2.984  16.584  0.0475 -0.5446  0.9268
  705MPD2    C510425   3.730   2.999  16.585  0.4511 -0.0606  0.1592
  705MPD2     H10426   3.544   3.136  16.290  2.3599  0.3125 -1.2793
  705MPD2    H110427   3.536   2.934  16.659 -2.1760  1.0227  0.2174
  705MPD2    H210428   3.916   3.048  16.497 -0.4062 -0.6356 -2.0468
  705MPD2    H310429   3.788   2.956  16.666 -0.9212  0.7546  1.5731
  705MPD2     N10430   3.386   3.052  16.495  0.4258  0.0018 -0.0939
  705MPD2    H510431   3.334   3.003  16.568  1.0337 -0.1094  0.2608
  705MPD2    N110432   3.814   3.178  16.280  0.0310 -0.3115  0.5369
  705MPD2    H710433   3.755   3.225  16.212 -0.0437 -0.3422  0.5806
  706TMC3    C110434   4.073   3.156  15.906  0.7654 -0.4074  0.3712
  706TMC3    C210435   4.014   3.263  15.846  0.2358  0.6068  0.3730
  706TMC3    C310436   3.927   3.338  15.928  0.1882 -0.8791 -0.3140
  706TMC3    C410437   4.058   3.138  16.039  0.5146  0.2763  0.5553
  706TMC3    C510438   3.983   3.216  16.122 -0.8896 -0.7442 -0.0192
  706TMC3    C610439   3.912   3.312  16.063  0.9757  0.2972 -0.2126
  706TMC3     C10440   4.129   3.047  15.825  0.2080  0.6767 -0.0353
  706TMC3     O10441   4.209   2.974  15.884  0.3839  0.5027 -0.0480
  706TMC3     H10442   4.041   3.283  15.743  1.0900  0.8126  0.6375
  706TMC3    H110443   4.092   3.041  16.073  0.0746 -0.3070 -0.6670
  706TMC3    H210444   3.834   3.365  16.115 -0.3573 -1.3799 -0.4847
  706TMC3    C710445   3.943   3.157  16.250  0.0012 -0.5299 -0.2107
  706TMC3    C810446   3.842   3.435  15.876 -0.2482 -0.7130  0.4647
  706TMC3    O110447   4.015   3.068  16.294 -0.1111 -0.0430  0.2451
  706TMC3    O210448   3.812   3.426  15.758  0.1302 -0.0006  0.5425
  707TMC3    C110449   0.523   1.837   1.112  0.2061  0.0056 -0.4561
  707TMC3    C210450   0.485   1.713   1.159  0.0534  0.1955  0.2886
  707TMC3    C310451   0.351   1.676   1.158 -0.1947 -0.5564 -0.0421
  707TMC3    C410452   0.431   1.923   1.056  0.4477 -0.4989  0.0032
  707TMC3    C510453   0.296   1.883   1.067  0.0620  0.0995  0.4082
  707TMC3    C610454   0.255   1.760   1.113  0.2320 -0.3826 -0.6709
  707TMC3     C10455   0.663   1.850   1.070 -0.3774 -0.2632 -0.3957
  707TMC3     O10456   0.728   1.747   1.070  0.3112 -0.2229  0.6215
  707TMC3     H10457   0.563   1.656   1.209  0.4562  0.1252 -0.4324
  707TMC3    H110458   0.447   2.016   1.002 -1.3667 -0.1697  0.0353
  707TMC3    H210459   0.150   1.735   1.129  0.4237 -1.2618 -0.8173
  707TMC3    C710460   0.188   1.977   1.044 -0.1390 -0.3141  0.4508
  707TMC3    C810461   0.321   1.539   1.132 -0.3915  0.4310  0.0675
  707TMC3    O110462   0.222   2.090   1.048  1.0724  0.7637  0.5970
  707TMC3    O210463   0.203   1.514   1.128 -0.1838 -0.5604  0.4684
  708MPD2     C10464   1.752   2.122  13.688 -0.3533 -0.1933  0.6173
  708MPD2    C110465   1.631   2.095  13.749  0.3168  0.0327  0.8360
  708MPD2    C210466   1.615   1.989  13.836 -0.8047  0.0081  0.7635
  708MPD2    C310467   1.724   1.910  13.873  0.4469  0.1837  0.0637
  708MPD2    C410468   1.839   1.933  13.797 -0.5226  0.2815 -0.9468
  708MPD2    C510469   1.857   2.041  13.717  0.7259  0.8034 -0.5182
  708MPD2     H10470   1.511   1.979  13.866 -0.9494  0.1010  0.2832
  708MPD2    H110471   1.930   1.879  13.819  1.6040  3.5848 -1.5863
  708MPD2    H210472   1.780   2.212  13.635 -0.3920  0.0710  1.0502
  708MPD2    H310473   1.949   2.059  13.663 -1.1969  2.6021 -3.1883
  708MPD2     N10474   1.722   1.799  13.964  0.0674  0.3532 -0.4395
  708MPD2    H510475   1.806   1.748  13.989 -1.2903 -1.5577  0.2077
  708MPD2    N110476   1.518   2.178  13.727 -0.3919  1.3122 -0.3590
  708MPD2    H710477   1.431   2.163  13.776  0.8008 -2.2667  0.6097
  709TMC3    C110478   1.362   2.298  13.608  0.8992 -0.2193 -0.1347
  709TMC3    C210479   1.325   2.208  13.515  0.4114 -0.2657  0.5085
  709TMC3    C310480   1.208   2.139  13.538  0.9842  0.2856  0.2523
  709TMC3    C410481   1.299   2.309  13.722 -0.4732 -0.4334 -0.6335
  709TMC3    C510482   1.182   2.237  13.756  0.9152 -0.8257  0.4303
  709TMC3    C610483   1.131   2.153  13.652 -0.0320 -0.2140 -0.3843
  709TMC3     C10484   1.503   2.274  13.628  0.1940 -0.2682 -0.2876
  709TMC3     O10485   1.575   2.290  13.530 -0.1777  0.1244  0.7924
  709TMC3     H10486   1.381   2.200  13.423 -0.8874 -1.4293 -0.1713
  709TMC3    H110487   1.332   2.377  13.800 -1.4867  0.4202 -0.9490
  709TMC3    H210488   1.041   2.095  13.670  0.1228 -1.1370 -2.5247
  709TMC3    C710489   1.200   2.147  13.863 -0.0005  0.6887 -0.0650
  709TMC3    C810490   1.171   2.039  13.447  0.1968 -0.2891 -0.2162
  709TMC3    O110491   1.318   2.147  13.900 -0.0470  0.2593  0.1249
  709TMC3    O210492   1.113   1.944  13.497  0.5065  0.1486  0.5723
  710TMC3    C110493   2.514   2.224   0.744 -0.1437 -0.5024  0.4371
  710TMC3    C210494   2.583   2.308   0.662  0.7595 -0.2765 -0.3323
  710TMC3    C310495   2.693   2.256   0.593  0.1048  0.0566 -0.2854
  710TMC3    C410496   2.558   2.099   0.775 -0.3102  0.1235 -0.3762
  710TMC3    C510497   2.655   2.046   0.700 -0.2841  0.8644 -0.1075
  710TMC3    C610498   2.723   2.123   0.602  0.8194 -0.1766 -0.2537
  710TMC3     C10499   2.405   2.274   0.810  0.6491  0.5352  0.0949
  710TMC3     O10500   2.332   2.186   0.855  0.3650 -0.6248  0.4216
  710TMC3     H10501   2.537   2.403   0.638  0.1782  0.2842  3.0080
  710TMC3    H110502   2.501   2.037   0.844 -2.7522  2.1436 -0.5627
  710TMC3    H210503   2.799   2.076   0.540  0.4980 -0.5747 -0.3467
  710TMC3    C710504   2.701   1.913   0.744 -0.0797  0.0447  0.9050
  710TMC3    C810505   2.737   2.324   0.483  0.5254 -0.1535  1.0499
  710TMC3    O110506   2.631   1.856   0.825 -0.7415 -0.0092  0.3010
  710TMC3    O210507   2.784   2.257   0.392  0.1396 -1.0171 -0.9091
  711TMC3    C110508   2.529   3.701  14.707 -0.0449  0.3151 -0.6230
  711TMC3    C210509   2.455   3.686  14.821 -0.7120 -0.2257  0.6056
  711TMC3    C310510   2.463   3.788  14.908 -0.5846 -0.0181  0.4024
  711TMC3    C410511   2.622   3.801  14.694 -0.6586 -0.8470 -0.4772
  711TMC3    C510512   2.631   3.901  14.788 -0.1125 -0.5240  0.2220
  711TMC3    C610513   2.546   3.895  14.895 -0.4132 -0.3974  0.1332
  711TMC3     C10514   2.490   3.625  14.590  0.3561  0.3223 -0.0314
  711TMC3     O10515   2.427   3.521  14.611 -0.7640 -0.6705  0.4119
  711TMC3     H10516   2.394   3.598  14.835 -0.7625 -0.4162 -0.7722
  711TMC3    H110517   2.700   3.788  14.620 -0.2764  2.8330 -0.7211
  711TMC3    H210518   2.541   3.975  14.968  0.5098  0.3345 -0.6123
  711TMC3    C710519   2.759   3.924  14.849  0.3254 -0.3441  0.4406
  711TMC3    C810520   2.469   3.736  15.043  0.0929 -0.1282 -0.0417
  711TMC3    O110521   2.769   3.935  14.971  0.0882 -0.4881 -0.6589
  711TMC3    O210522   2.403   3.635  15.066 -0.1730 -0.6394 -0.1558
  712MPD2     C10523   4.662   0.819  13.486 -0.0369 -0.3689 -0.4386
  712MPD2    C110524   4.541   0.833  13.425 -0.1412 -0.0403  0.4562
  712MPD2    C210525   4.532   0.901  13.302  0.0546  0.2743 -0.3586
  712MPD2    C310526   4.645   0.957  13.242 -0.6345  0.3868 -0.2459
  712MPD2    C410527   0.039   0.950  13.311 -0.3498 -0.5376  0.4637
  712MPD2    C510528   0.045   0.877  13.427  0.0066  0.1650 -0.0435
  712MPD2     H10529   4.429   0.910  13.268 -0.5259  0.8520  1.5129
  712MPD2    H110530   0.125   1.000  13.269 -0.9177  0.6436  0.7058
  712MPD2    H210531   4.661   0.763  13.578  1.6247 -0.1532 -0.2946
  712MPD2    H310532   0.142   0.865  13.474 -0.2939 -0.4890  0.4103
  712MPD2     N10533   4.641   1.035  13.118  0.0826  0.3954  0.1428
  712MPD2    H510534   0.004   1.070  13.081 -0.5103  0.2686 -1.3726
  712MPD2    N110535   4.421   0.766  13.478  0.8492  0.7322  0.2743
  712MPD2    H710536   4.334   0.777  13.426  0.1923 -2.5800  0.6712
  713TMC3    C110537   4.555   1.206  12.971 -0.0235  0.0488  0.2377
  713TMC3    C210538   4.671   1.283  12.992  0.1917  0.1004  0.4739
  713TMC3    C310539   4.674   1.401  12.922  0.0025 -0.1459 -0.2174
  713TMC3    C410540   4.453   1.229  12.889 -0.0417 -0.3377 -0.2957
  713TMC3    C510541   4.463   1.349  12.817  0.2429 -0.1275  0.0259
  713TMC3    C610542   4.571   1.434  12.839 -0.6434 -0.0950 -0.4464
  713TMC3     C10543   4.530   1.089  13.057 -0.1157 -0.0961  0.0028
  713TMC3     O10544   4.412   1.054  13.071 -0.4979  0.7364  0.0717
  713TMC3     H10545   0.005   1.254  13.078  0.5656  0.1744  0.2434
  713TMC3    H110546   4.381   1.151  12.865 -0.0544 -0.1865 -0.7496
  713TMC3    H210547   4.570   1.524  12.779 -0.9074  0.9926  1.1728
  713TMC3    C710548   4.341   1.410  12.766  0.0411  0.4907  0.6290
  713TMC3    C810549   0.020   1.516  12.974  0.4874  0.2810  0.1351
  713TMC3    O110550   4.359   1.505  12.690 -0.2096  0.2905 -0.2309
  713TMC3    O210551   0.018   1.628  12.925 -0.0022  0.3767 -0.2132
  714MPD2     C10552   1.105   3.148   1.531  0.1420  0.0925  0.2330
  714MPD2    C110553   1.163   3.273   1.533 -0.1732 -0.1293  0.0453
  714MPD2    C210554   1.090   3.375   1.479 -0.5319 -0.1414  0.3418
  714MPD2    C310555   0.956   3.367   1.448 -0.2002 -0.5331  0.0453
  714MPD2    C410556   0.894   3.248   1.480 -0.0263 -0.1036 -0.4176
  714MPD2    C510557   0.971   3.136   1.504  0.1560 -0.8024  0.0251
  714MPD2     H10558   1.146   3.465   1.456 -0.5604 -0.2494 -0.1561
  714MPD2    H110559   0.793   3.225   1.449 -0.3237  0.3263  0.2306
  714MPD2    H210560   1.155   3.061   1.571 -1.0114 -1.1898 -1.1149
  714MPD2    H310561   0.929   3.037   1.507 -1.4498 -0.1512 -1.0273
  714MPD2     N10562   0.892   3.481   1.390  0.7203 -0.4740 -0.2270
  714MPD2    H510563   0.954   3.555   1.361 -0.2590  0.1086 -0.8293
  714MPD2    N110564   1.300   3.278   1.564 -0.2683  0.4807  0.6489
  714MPD2    H710565   1.340   3.198   1.613  0.5919 -0.4845 -1.6712
  715TMC3    C110566   1.525   3.363   1.595 -0.7802  0.4217 -0.0577
  715TMC3    C210567   1.578   3.242   1.564 -0.2192  0.0980 -0.3881
  715TMC3    C310568   1.715   3.218   1.576  0.1081  0.1399 -0.6919
  715TMC3    C410569   1.606   3.473   1.623 -0.1538 -0.0077 -0.4135
  715TMC3    C510570   1.740   3.445   1.623  0.0800 -0.2323  0.8565
  715TMC3    C610571   1.801   3.320   1.603 -0.2382  0.3455  1.2182
  715TMC3     C10572   1.383   3.389   1.549  0.1157 -0.3343 -0.6618
  715TMC3     O10573   1.341   3.504   1.548 -0.6291  0.2596 -0.2347
  715TMC3     H10574   1.518   3.157   1.534 -0.2423  0.1775 -0.5649
  715TMC3    H110575   1.549   3.561   1.654 -1.1413 -1.0123  0.6077
  715TMC3    H210576   1.908   3.303   1.596 -0.4010 -1.2192  2.5785
  715TMC3    C710577   1.828   3.560   1.628  0.2802 -0.4948 -0.0653
  715TMC3    C810578   1.766   3.087   1.561 -0.2506  0.1313  0.2556
  715TMC3    O110579   1.946   3.538   1.658 -0.1866 -0.4042 -0.1319
  715TMC3    O210580   1.684   3.005   1.523  0.4832  0.6471  0.2022
  716MPD2     C10581   0.999   1.963   9.817 -0.9499  0.6839  0.1973
  716MPD2    C110582   0.934   1.893   9.714  0.1046  0.2683 -0.2704
  716MPD2    C210583   0.966   1.758   9.691  0.0627  0.6007 -0.2102
  716MPD2    C310584   1.069   1.700   9.767  0.3436  0.6107  0.0185
  716MPD2    C410585   1.127   1.767   9.868 -0.5225  0.4386  0.5708
  716MPD2    C510586   1.083   1.891   9.899  0.0659 -0.1949 -0.4772
  716MPD2     H10587   0.931   1.713   9.599 -0.9543 -1.7569  1.3471
  716MPD2    H110588   1.205   1.730   9.935  0.4889 -0.6724 -1.1943
  716MPD2    H210589   0.970   2.065   9.842  0.7623  1.3941 -0.6719
  716MPD2    H310590   1.128   1.943   9.983 -2.1003  2.3715 -0.9194
  716MPD2     N10591   1.107   1.569   9.727  0.0339 -0.2533  0.1368
  716MPD2    H510592   1.050   1.524   9.657 -1.1652 -0.8945  1.5173
  716MPD2    N110593   0.838   1.962   9.641  0.1365  0.5044 -0.5405
  716MPD2    H710594   0.818   2.057   9.672  0.4987  0.3125  0.2697
  717TMC3    C110595   1.210   1.357   9.731  0.2842 -0.4808  0.2757
  717TMC3    C210596   1.109   1.313   9.642  0.3997 -0.5617 -0.3735
  717TMC3    C310597   1.096   1.179   9.626 -0.7614 -0.5481  0.0315
  717TMC3    C410598   1.309   1.276   9.772 -0.8864 -0.0524  0.2689
  717TMC3    C510599   1.291   1.141   9.764  0.4658 -0.6902  0.6634
  717TMC3    C610600   1.181   1.090   9.691 -0.3232 -0.6675  0.8350
  717TMC3     C10601   1.208   1.496   9.779 -0.2602  0.2309 -0.5361
  717TMC3     O10602   1.283   1.529   9.872  0.1652 -0.1695  0.0761
  717TMC3     H10603   1.042   1.383   9.593 -0.1785  0.0001  1.2082
  717TMC3    H110604   1.399   1.306   9.825 -1.2156  2.3339 -0.5406
  717TMC3    H210605   1.156   0.985   9.686  1.3405 -1.1073  1.5989
  717TMC3    C710606   1.367   1.049   9.851 -0.1544  0.1236  0.9147
  717TMC3    C810607   0.971   1.136   9.569 -0.1407  0.8624  0.4524
  717TMC3    O110608   1.426   1.111   9.937  0.3405 -0.1136  0.1783
  717TMC3    O210609   0.889   1.223   9.531  0.6415 -0.4433 -0.2704
  718MPD2     C10610   1.149   0.963  12.798 -0.7399  0.1038  0.3521
  718MPD2    C110611   1.020   0.987  12.770 -0.6857 -0.0702 -0.2611
  718MPD2    C210612   0.942   0.874  12.747  0.0507 -0.1121 -0.4290
  718MPD2    C310613   0.997   0.745  12.738  0.9354  0.2012  0.2097
  718MPD2    C410614   1.132   0.734  12.758 -0.5090  0.1223  0.0700
  718MPD2    C510615   1.208   0.840  12.800  0.0687 -0.0680  0.0351
  718MPD2     H10616   0.839   0.884  12.714 -0.5310 -3.0595  0.4615
  718MPD2    H110617   1.188   0.644  12.737 -1.1646  0.0520 -1.4121
  718MPD2    H210618   1.219   1.044  12.814  0.2536 -1.2336  2.6542
  718MPD2    H310619   1.315   0.834  12.817  0.1058 -0.3954 -0.3206
  718MPD2     N10620   0.916   0.642  12.689 -0.4192  0.4350 -0.3797
  718MPD2    H510621   0.834   0.672  12.638  0.3459  2.3695 -0.4843
  718MPD2    N110622   0.974   1.123  12.756 -0.4164 -0.6186 -0.0269
  718MPD2    H710623   1.040   1.194  12.786 -0.2019 -0.9957  0.3858
  719TMC3    C110624   0.833   1.301  12.669  0.0123 -0.1297 -0.1570
  719TMC3    C210625   0.713   1.321  12.612  0.6642 -0.8360 -0.0087
  719TMC3    C310626   0.715   1.402  12.494 -0.3289 -0.0108  0.4325
  719TMC3    C410627   0.947   1.380  12.655  0.7327  0.3114 -0.0860
  719TMC3    C510628   0.936   1.466  12.554  0.0998  0.3178  0.3285
  719TMC3    C610629   0.824   1.479  12.479  0.1508 -0.7055  0.7361
  719TMC3     C10630   0.845   1.159  12.706  0.1348 -0.7460 -1.5527
  719TMC3     O10631   0.757   1.082  12.669  0.2941 -0.3987 -0.0926
  719TMC3     H10632   0.620   1.268  12.626  0.3705 -0.7329 -1.6166
  719TMC3    H110633   1.042   1.348  12.696  0.8960  1.1757  0.2130
  719TMC3    H210634   0.822   1.558  12.405 -0.4639 -2.2276 -0.8762
  719TMC3    C710635   1.054   1.543  12.513  0.4242  0.6095  0.2035
  719TMC3    C810636   0.713   1.325  12.370  0.0799 -0.2868  0.1124
  719TMC3    O110637   1.055   1.591  12.400 -0.5514 -0.4657 -0.1190
  719TMC3    O210638   0.697   1.373  12.259  0.3406  0.3096  0.6852
  720MPD2     C10639   3.581   2.612  14.102  0.2406  0.0440 -0.1422
  720MPD2    C110640   3.689   2.669  14.030  0.2678  0.3498  0.2127
  720MPD2    C210641   3.818   2.631  14.066 -0.3468  0.7695  0.8467
  720MPD2    C310642   3.844   2.546  14.167 -0.5099  0.1596  0.2602
  720MPD2    C410643   3.742   2.499  14.245 -0.2674 -0.0352  0.2905
  720MPD2    C510644   3.611   2.530  14.209 -0.3641 -0.2801 -1.2856
  720MPD2     H10645   3.900   2.674  14.009  0.2581 -1.6176 -0.1176
  720MPD2    H110646   3.758   2.439  14.334 -0.6424 -0.7619 -0.1335
  720MPD2    H210647   3.475   2.629  14.083 -0.9540 -1.5493  5.0508
  720MPD2    H310648   3.531   2.484  14.266  0.9716 -0.2272  0.6309
  720MPD2     N10649   3.977   2.514  14.187  0.6043  1.0256 -0.8694
  720MPD2    H510650   4.040   2.561  14.123 -0.4636  0.7910 -2.0863
  720MPD2    N110651   3.662   2.762  13.931  0.1969  0.2137 -0.3419
  720MPD2    H710652   3.571   2.805  13.921  0.4588  1.4140  2.5665
  721TMC3    C110653   4.177   2.428  14.252  0.0336  0.5851 -0.5123
  721TMC3    C210654   4.247   2.356  14.350  0.5835  0.0487 -0.3380
  721TMC3    C310655   4.382   2.381  14.363 -0.5531 -0.1167 -0.3019
  721TMC3    C410656   4.242   2.497  14.153  0.1513  0.9519  0.7684
  721TMC3    C510657   4.376   2.504  14.163 -0.7653 -0.5006 -0.1900
  721TMC3    C610658   4.443   2.443  14.265  0.5833 -0.1177  0.6224
  721TMC3     C10659   4.033   2.425  14.274 -0.0272  0.2658 -0.6401
  721TMC3     O10660   3.981   2.340  14.347  0.3269  0.0380  0.7563
  721TMC3     H10661   4.184   2.312  14.426  3.6701 -1.6086  1.2164
  721TMC3    H110662   4.193   2.569  14.088 -0.4458  1.2091  1.4966
  721TMC3    H210663   4.550   2.462  14.254  0.1919  0.3497 -2.4173
  721TMC3    C710664   4.459   2.554  14.048 -0.5387 -0.6704  0.1194
  721TMC3    C810665   4.458   2.309  14.462 -0.1514  0.2919  0.2475
  721TMC3    O110666   4.578   2.579  14.055 -0.6251  0.1063 -0.0208
  721TMC3    O210667   4.578   2.322  14.461 -0.2847  0.1017  0.2589
  722MPD2     C10668   3.489   0.828  13.367 -0.2472 -0.2428 -0.9889
  722MPD2    C110669   3.404   0.933  13.396 -0.5197 -0.4525 -0.6452
  722MPD2    C210670   3.274   0.910  13.431  0.2827 -0.6261 -0.1993
  722MPD2    C310671   3.221   0.783  13.446 -0.6360 -0.3502  0.5828
  722MPD2    C410672   3.309   0.678  13.416 -0.0623 -0.3668 -0.0796
  722MPD2    C510673   3.439   0.701  13.369  0.0617 -0.2386 -0.2720
  722MPD2     H10674   3.222   1.004  13.451 -0.2184 -1.0197  0.3756
  722MPD2    H110675   3.280   0.574  13.414  1.8704 -0.9499  2.6468
  722MPD2    H210676   3.597   0.829  13.351  0.3311 -0.0178  2.9130
  722MPD2    H310677   3.500   0.618  13.336 -0.2490 -0.8232  0.6108
  722MPD2     N10678   3.090   0.776  13.488 -0.1314  0.2589 -0.0944
  722MPD2    H510679   3.052   0.862  13.525 -1.5367  0.6735 -2.4503
  722MPD2    N110680   3.452   1.067  13.404  0.1270 -0.0204 -0.1310
  722MPD2    H710681   3.393   1.143  13.437 -1.4241 -1.2356 -0.0856
  723TMC3    C110682   2.896   0.678  13.577 -0.3852  0.3972  0.4969
  723TMC3    C210683   2.771   0.655  13.518 -0.1283  0.1057 -0.6132
  723TMC3    C310684   2.665   0.735  13.555  0.3522  0.2264 -0.0329
  723TMC3    C410685   2.910   0.766  13.674  0.7188 -1.1073 -0.5831
  723TMC3    C510686   2.804   0.846  13.708 -1.5051  0.2100 -0.3096
  723TMC3    C610687   2.675   0.826  13.658 -1.4239 -0.3499  1.1019
  723TMC3     C10688   3.008   0.670  13.479 -0.1610 -0.5053 -0.1803
  723TMC3     O10689   3.031   0.560  13.425  0.1630 -0.8084  0.1285
  723TMC3     H10690   2.765   0.581  13.439  1.5738  0.2395 -0.8668
  723TMC3    H110691   3.007   0.776  13.721 -0.1958 -0.0864  1.1421
  723TMC3    H210692   2.598   0.899  13.677 -1.6464 -0.5228  0.8647
  723TMC3    C710693   2.824   0.970  13.776 -0.4469 -0.0929  0.3702
  723TMC3    C810694   2.525   0.708  13.525  0.3423 -0.1162  0.7158
  723TMC3    O110695   2.742   1.058  13.768  0.1477  0.0886  0.4886
  723TMC3    O210696   2.443   0.746  13.605  0.7246 -0.5123  0.3894
  724TMC3    C110697   3.823   0.018   9.497  0.0816 -0.5069 -0.3993
  724TMC3    C210698   3.702   0.041   9.560  0.6552 -0.1311  0.3631
  724TMC3    C310699   3.593   4.714   9.496 -0.0116  0.0601 -0.1205
  724TMC3    C410700   3.840   4.685   9.372  0.4317  0.1532  0.0743
  724TMC3    C510701   3.716   4.656   9.308 -0.3428  0.4980 -0.0168
  724TMC3    C610702   3.592   4.657   9.371  0.0374 -0.2495 -0.5018
  724TMC3     C10703   3.947   0.045   9.575 -0.1965 -0.6907  0.0249
  724TMC3     O10704   4.054   0.002   9.531  0.5104 -0.6464 -0.2644
  724TMC3     H10705   3.696   0.065   9.666 -1.0683  2.6174 -0.3395
  724TMC3    H110706   3.938   4.676   9.326  0.3159 -1.9900  0.2459
  724TMC3    H210707   3.509   4.614   9.317 -0.0353  0.3659 -0.8823
  724TMC3    C710708   3.716   4.538   9.226  0.1051  0.1516  0.4562
  724TMC3    C810709   3.464   4.725   9.564  0.0510 -0.8574 -0.8026
  724TMC3    O110710   3.623   4.459   9.230  0.3095  0.1913 -0.5590
  724TMC3    O210711   3.390   4.635   9.537 -0.1372  0.1602  0.2323
  725TMC3    C110712   4.344   3.186  12.750 -0.0491 -0.3149 -0.3905
  725TMC3    C210713   4.293   3.257  12.647 -0.2065  0.4527 -0.2726
  725TMC3    C310714   4.332   3.228  12.514 -0.1063  0.3735  0.1633
  725TMC3    C410715   4.418   3.071  12.727 -0.0128 -0.0876 -0.3744
  725TMC3    C510716   4.456   3.044  12.600  0.2180  0.6361 -0.5482
  725TMC3    C610717   4.410   3.119  12.491  0.0305  0.0147 -0.5506
  725TMC3     C10718   4.373   3.256  12.878 -0.1212 -0.2151 -0.6349
  725TMC3     O10719   4.404   3.376  12.881  0.3853  0.1391 -0.5886
  725TMC3     H10720   4.241   3.349  12.673  1.0047  1.4912 -1.5355
  725TMC3    H110721   4.449   3.010  12.811  1.1671  0.7406 -0.2051
  725TMC3    H210722   4.438   3.081  12.393  0.2400 -1.5166  0.0861
  725TMC3    C710723   4.565   2.946  12.578 -0.3648 -0.1756 -0.6093
  725TMC3    C810724   4.248   3.273  12.409  0.0255 -0.2038 -0.1534
  725TMC3    O110725   4.633   2.958  12.475 -0.4612 -0.1060  0.3238
  725TMC3    O210726   4.238   3.210  12.305  0.3199  0.3367 -1.0025
  726MPD2     C10727   2.180   4.359   9.817  0.0182 -0.5194 -0.1076
  726MPD2    C110728   2.177   4.462   9.915 -0.3943 -0.4534 -0.1625
  726MPD2    C210729   2.085   4.461  10.014  0.3636  0.7536 -0.7738
  726MPD2    C310730   1.992   4.354  10.022  0.0651  0.8286 -0.1823
  726MPD2    C410731   1.990   4.262   9.921  0.3148 -0.0307  0.3248
  726MPD2    C510732   2.081   4.269   9.816 -0.1424  0.1456 -0.6753
  726MPD2     H10733   2.096   4.544  10.083  1.8140 -1.0013  1.1085
  726MPD2    H110734   1.920   4.182   9.942  2.0810 -1.7679 -0.3948
  726MPD2    H210735   2.261   4.347   9.746 -1.8036  1.3900 -2.4762
  726MPD2    H310736   2.091   4.196   9.736 -0.0846  0.0012 -0.5373
  726MPD2     N10737   1.886   4.347  10.114  0.0338 -0.1420 -0.2597
  726MPD2    H510738   1.820   4.271  10.098 -1.4544  0.7317  1.6847
  726MPD2    N110739   2.271   4.570   9.922  0.1508  0.4089 -0.4625
  726MPD2    H710740   2.274   4.630  10.003 -1.4774  1.2126 -1.0106
  727TMC3    C110741   2.419   0.001   9.834  0.1767  0.3758 -0.2215
  727TMC3    C210742   2.416   0.055   9.965 -0.1069  0.3121  0.0829
  727TMC3    C310743   2.411   0.191   9.974  0.3592  0.5255  0.1773
  727TMC3    C410744   2.399   0.080   9.721 -0.0569  0.0266  0.1904
  727TMC3    C510745   2.370   0.213   9.748 -0.0846 -0.3663  0.6866
  727TMC3    C610746   2.391   0.274   9.867  0.2630 -0.3021  0.1142
  727TMC3     C10747   2.350   4.600   9.817 -0.8947 -0.5932 -0.4120
  727TMC3     O10748   2.346   4.551   9.704 -0.3651  0.3683  0.1617
  727TMC3     H10749   2.422   4.713  10.050 -1.9626  1.6130  1.2645
  727TMC3    H110750   2.373   0.042   9.624 -1.9600  1.1547  0.2621
  727TMC3    H210751   2.398   0.382   9.865 -1.8024 -0.1320  3.2194
  727TMC3    C710752   2.256   0.274   9.681  0.2293  0.3572 -0.4683
  727TMC3    C810753   2.476   0.247  10.089 -0.1317 -0.1341  0.7140
  727TMC3    O110754   2.193   0.357   9.742 -0.3969  0.0716  0.5954
  727TMC3    O210755   2.552   0.171  10.147  0.0954  0.0163 -0.1410
  728TMC3    C110756   1.672   2.900  15.333 -0.1243 -0.2835  1.0005
  728TMC3    C210757   1.791   2.955  15.333  0.2037 -0.0516 -0.1116
  728TMC3    C310758   1.840   3.025  15.225 -0.0049 -0.3908 -0.1809
  728TMC3    C410759   1.596   2.896  15.221  0.4271  0.2246  0.0225
  728TMC3    C510760   1.645   2.969  15.111  0.1094  0.2256 -0.0222
  728TMC3    C610761   1.767   3.044  15.118 -0.1794 -0.0673 -0.5848
  728TMC3     C10762   1.630   2.842  15.458 -0.1147 -0.7298  0.6907
  728TMC3     O10763   1.700   2.858  15.557  0.2930  0.0777 -0.2730
  728TMC3     H10764   1.839   2.970  15.429 -1.0661  1.2126  0.3247
  728TMC3    H110765   1.505   2.837  15.215  0.2922  0.2076  2.1524
  728TMC3    H210766   1.804   3.102  15.034 -0.2062 -0.5080 -0.8999
  728TMC3    C710767   1.571   2.932  14.988 -0.6312  0.4294 -0.3587
  728TMC3    C810768   1.969   3.093  15.230  0.5707  0.6605  0.7454
  728TMC3    O110769   1.451   2.912  15.009 -0.2244  0.4952 -0.2505
  728TMC3    O210770   1.969   3.204  15.178 -0.0301  0.3805  0.8581
  729MPD2     C10771   4.128   3.462  16.441  0.3882  0.5229 -0.1691
  729MPD2    C110772   4.221   3.542  16.508 -0.5840  0.1971 -0.2857
  729MPD2    C210773   4.194   3.570  16.640  0.3354 -0.3972 -0.1586
  729MPD2    C310774   4.082   3.527  16.704 -0.5780  0.0288  0.4268
  729MPD2    C410775   3.984   3.457  16.631 -0.7247  0.5070 -0.5644
  729MPD2    C510776   4.011   3.417  16.502  0.0324 -0.0667  0.8635
  729MPD2     H10777   4.262   3.632  16.698  1.4063 -1.7767  0.0706
  729MPD2    H110778   3.886   3.429  16.667 -1.0335 -0.1373 -1.8961
  729MPD2    H210779   4.145   3.442  16.336  2.0467  1.2725 -0.0351
  729MPD2    H310780   3.940   3.370  16.435  2.3304 -1.4596 -0.6174
  729MPD2     N10781   4.077   3.561  16.837 -0.1668  0.1244 -0.0343
  729MPD2    H510782   4.156   3.615  16.873 -0.2063  0.1867 -0.0416
  729MPD2    N110783   4.335   3.583  16.449 -0.0545 -0.2667 -0.1902
  729MPD2    H710784   4.343   3.563  16.349 -0.6569 -0.4918 -0.1949
  730TMC3    C110785   4.012   3.576  17.055 -0.5511  1.1239 -0.4364
  730TMC3    C210786   4.149   3.593  17.075 -0.3949  0.2058 -0.1908
  730TMC3    C310787   4.206   3.699  17.148  0.1048 -0.2548  0.2747
  730TMC3    C410788   3.933   3.669  17.117  0.0070  1.2188  1.0515
  730TMC3    C510789   3.988   3.759  17.210 -0.2238 -0.3966 -0.3851
  730TMC3    C610790   4.123   3.774  17.220 -0.2498 -0.2930 -0.6365
  730TMC3     C10791   3.971   3.531  16.928  0.2362 -0.0097 -0.4083
  730TMC3     O10792   3.862   3.483  16.910  0.5440  0.1468 -0.2344
  730TMC3     H10793   4.222   3.532  17.023 -1.3380 -0.0469 -1.2102
  730TMC3    H110794   3.828   3.676  17.090 -0.2166 -0.8646  1.3097
  730TMC3    H210795   4.164   3.860  17.272 -2.2909  0.3207 -0.0239
  730TMC3    C710796   3.921   3.886  17.198 -0.2723 -0.2722  0.0613
  730TMC3    C810797   4.269   3.782  17.049  0.2370  0.2327  0.5734
  730TMC3    O110798   3.891   3.908  17.080  0.1762 -0.0542  0.0419
  730TMC3    O210799   4.274   3.747  16.931 -0.3813 -0.3377  0.5632
  731MPD2     C10800   4.229   2.824  12.272  0.3302 -0.5959  0.3145
  731MPD2    C110801   4.267   2.696  12.249  0.8424  0.7402  0.3180
  731MPD2    C210802   4.266   2.599  12.359  0.0000  0.6147 -0.2170
  731MPD2    C310803   4.259   2.654  12.486 -0.6732 -0.3368 -0.5374
  731MPD2    C410804   4.249   2.792  12.506  0.4488  0.5154  0.0017
  731MPD2    C510805   4.222   2.878  12.399 -0.2895 -0.9027  0.2015
  731MPD2     H10806   4.295   2.495  12.343  0.6757  0.8399 -0.4849
  731MPD2    H110807   4.263   2.839  12.603  1.8910 -0.2343  0.1628
  731MPD2    H210808   4.222   2.899  12.195 -1.5257  0.6772  1.7221
  731MPD2    H310809   4.211   2.981  12.432 -0.6659 -0.8675 -0.0378
  731MPD2     N10810   4.275   2.569  12.601  0.1866 -0.0798  0.0417
  731MPD2    H510811   4.285   2.470  12.583  1.7877  0.0860 -0.0293
  731MPD2    N110812   4.282   2.664  12.115  0.0737 -0.0185  0.2812
  731MPD2    H710813   4.294   2.750  12.062 -1.4648  0.1580  0.1976
  732TMC3    C110814   4.295   2.552  11.926  0.5177 -0.0019 -0.2959
  732TMC3    C210815   4.195   2.519  11.841  0.7182  0.0128  0.1961
  732TMC3    C310816   4.206   2.568  11.713 -0.4701  0.6684 -0.5015
  732TMC3    C410817   4.405   2.624  11.884 -0.2141  0.1199  0.0244
  732TMC3    C510818   4.417   2.659  11.755  0.1089  0.1030 -0.0637
  732TMC3    C610819   4.315   2.638  11.667 -0.8429 -0.1052  0.0443
  732TMC3     C10820   4.276   2.542  12.062  0.3552  0.2999  0.4664
  732TMC3     O10821   4.233   2.434  12.108  0.3987 -0.0133 -0.4579
  732TMC3     H10822   4.106   2.472  11.882  1.2972  0.3655  1.8652
  732TMC3    H110823   4.477   2.654  11.959  1.2906 -0.8524 -1.0099
  732TMC3    H210824   4.332   2.664  11.563 -0.8126  2.2828  0.6531
  732TMC3    C710825   4.532   2.744  11.716  0.5965  0.7086  0.1233
  732TMC3    C810826   4.109   2.564  11.616  0.6901  0.1664 -0.7213
  732TMC3    O110827   4.531   2.798  11.608 -0.6250  0.8741 -0.3121
  732TMC3    O210828   4.109   2.641  11.522 -0.7611 -0.8033  0.1911
  733TMC3    C110829   0.628   0.386  12.547 -0.6669  0.2828  0.2588
  733TMC3    C210830   0.738   0.397  12.630  0.1007 -0.4151 -0.2605
  733TMC3    C310831   0.846   0.465  12.577 -0.1500 -0.3815  0.6095
  733TMC3    C410832   0.634   0.435  12.418  0.1582  0.0521 -0.0993
  733TMC3    C510833   0.742   0.501  12.373  0.4989  0.5220 -0.1651
  733TMC3    C610834   0.857   0.519  12.451  0.8156 -0.2388  0.1647
  733TMC3     C10835   0.498   0.339  12.593 -0.6646 -0.5812  0.3294
  733TMC3     O10836   0.409   0.339  12.510  0.2711 -0.1339 -0.3841
  733TMC3     H10837   0.741   0.350  12.727  2.7066 -4.7109 -2.4159
  733TMC3    H110838   0.548   0.432  12.351 -1.2065 -0.2644  1.6845
  733TMC3    H210839   0.935   0.589  12.424 -0.7397  1.3974 -0.0283
  733TMC3    C710840   0.729   0.602  12.267 -0.0461 -0.0603  0.3693
  733TMC3    C810841   0.949   0.507  12.662 -0.1348  1.1186 -0.3444
  733TMC3    O110842   0.653   0.577  12.176 -0.0190 -0.3087  0.0612
  733TMC3    O210843   1.049   0.439  12.663 -0.3229  0.2110 -0.0008
  734MPD2     C10844   2.128   3.100  12.537  0.3493 -0.0558  0.2869
  734MPD2    C110845   2.218   3.009  12.492  0.7245  0.3661 -0.7379
  734MPD2    C210846   2.312   3.048  12.397  0.5614  0.5660  0.2572
  734MPD2    C310847   2.315   3.179  12.353  0.5863 -0.4308 -0.0533
  734MPD2    C410848   2.225   3.269  12.400 -0.1602  0.8182  0.0223
  734MPD2    C510849   2.140   3.232  12.494  0.0411 -0.3902 -0.1306
  734MPD2     H10850   2.396   2.987  12.366  0.3476  0.8486 -0.8930
  734MPD2    H110851   2.216   3.372  12.369  0.1534  0.6612 -0.6069
  734MPD2    H210852   2.062   3.070  12.618  1.6778 -0.7893  1.1000
  734MPD2    H310853   2.066   3.298  12.537  1.1477  0.4840  0.4289
  734MPD2     N10854   2.417   3.221  12.264 -0.3291 -0.4863 -0.2215
  734MPD2    H510855   2.497   3.162  12.242 -0.3608 -0.5092 -0.2749
  734MPD2    N110856   2.214   2.879  12.546 -0.5452 -0.2131  0.4083
  734MPD2    H710857   2.139   2.851  12.608 -0.1876 -1.5839  0.2229
  735TMC3    C110858   2.248   2.654  12.571 -0.4127 -0.2523  0.4657
  735TMC3    C210859   2.149   2.607  12.485  0.1793  0.2464 -0.0653
  735TMC3    C310860   2.163   2.483  12.419  0.3185 -0.3671 -0.6453
  735TMC3    C410861   2.362   2.579  12.587  0.7489 -0.4316  0.1547
  735TMC3    C510862   2.367   2.456  12.538 -0.6479 -0.0620  0.7552
  735TMC3    C610863   2.271   2.399  12.453 -0.6314 -0.2290  0.0006
  735TMC3     C10864   2.297   2.774  12.518 -0.1234 -0.1583  0.3372
  735TMC3     O10865   2.397   2.764  12.450  0.2592 -0.0837 -0.1248
  735TMC3     H10866   2.082   2.683  12.447 -0.9417 -0.5930  0.2471
  735TMC3    H110867   2.442   2.611  12.654  0.0076 -0.0647  0.8655
  735TMC3    H210868   2.286   2.304  12.402 -0.9163  0.3719 -1.1871
  735TMC3    C710869   2.505   2.415  12.510 -0.1984  0.1800  0.2629
  735TMC3    C810870   2.151   2.513  12.280  0.1666  0.1517  0.5337
  735TMC3    O110871   2.590   2.502  12.494  0.5795  0.3259  0.1442
  735TMC3    O210872   2.084   2.439  12.208 -0.1572  0.2734  0.1753
  736MPD2     C10873   2.632   2.071  12.493  0.2093 -0.7729  0.1852
  736MPD2    C110874   2.627   2.209  12.463 -0.1229 -0.4130 -0.0825
  736MPD2    C210875   2.713   2.256  12.359  0.4393 -0.6665 -0.8076
  736MPD2    C310876   2.800   2.168  12.299  0.2499  0.2104 -0.0618
  736MPD2    C410877   2.803   2.028  12.347 -0.0572  0.1341  0.8147
  736MPD2    C510878   2.713   1.985  12.431 -0.3631 -0.1648 -0.2296
  736MPD2     H10879   2.705   2.355  12.316  1.5625 -1.2560 -2.3558
  736MPD2    H110880   2.872   1.964  12.294  1.5370  1.5647  1.1618
  736MPD2    H210881   2.566   2.031  12.568  1.3144 -0.3651  1.3729
  736MPD2    H310882   2.708   1.880  12.460 -1.4778  0.0213  0.2730
  736MPD2     N10883   2.850   2.203  12.174  0.0308  0.4379  0.6229
  736MPD2    H510884   2.851   2.303  12.158  0.0272  0.4813  0.8998
  736MPD2    N110885   2.512   2.278  12.507  0.3712  0.2175  0.2497
  736MPD2    H710886   2.430   2.227  12.539  1.4658 -1.3585  0.5561
  737TMC3    C110887   2.947   2.176  11.961  0.4024 -0.3369 -0.8783
  737TMC3    C210888   2.933   2.311  11.948  0.0106 -0.1213 -0.1027
  737TMC3    C310889   3.003   2.358  11.834  0.4747 -0.0075  0.2712
  737TMC3    C410890   3.019   2.091  11.878 -0.5026  0.1326  0.4366
  737TMC3    C510891   3.083   2.144  11.767  0.1788  0.1134 -0.1727
  737TMC3    C610892   3.069   2.284  11.737 -0.9626 -0.4186  0.2459
  737TMC3     C10893   2.909   2.116  12.083  0.6276 -0.1660  0.2364
  737TMC3     O10894   2.931   1.995  12.091 -0.3240  0.8192  0.1539
  737TMC3     H10895   2.856   2.370  11.996 -0.4968 -0.9505  0.1070
  737TMC3    H110896   3.022   1.984  11.898 -0.6373  0.1464  0.5314
  737TMC3    H210897   3.111   2.337  11.652  1.3647 -2.9541 -0.1922
  737TMC3    C710898   3.193   2.061  11.718  0.5253 -0.6690 -0.1879
  737TMC3    C810899   2.998   2.503  11.818  0.8840 -0.9717 -0.0149
  737TMC3    O110900   3.205   1.959  11.784 -0.0322  0.3667  0.3650
  737TMC3    O210901   3.021   2.571  11.915 -0.2215 -0.1903 -0.3693
  738MPD2     C10902   2.613   1.283  15.513 -0.1915 -1.2173 -0.5028
  738MPD2    C110903   2.596   1.275  15.382  1.2659 -0.7731 -0.2781
  738MPD2    C210904   2.650   1.375  15.295 -1.2828  1.1151  0.1278
  738MPD2    C310905   2.731   1.473  15.349  0.2777 -0.2028  0.4021
  738MPD2    C410906   2.755   1.478  15.482  0.0483 -0.4035 -0.1035
  738MPD2    C510907   2.690   1.385  15.567 -0.0321  0.2233 -0.4404
  738MPD2     H10908   2.637   1.362  15.188  0.9088 -1.5194  0.1852
  738MPD2    H110909   2.822   1.545  15.536  0.4971 -1.8134  1.0821
  738MPD2    H210910   2.568   1.219  15.587 -0.0527 -0.5117  0.1928
  738MPD2    H310911   2.700   1.391  15.675  2.4347 -1.4969 -0.5944
  738MPD2     N10912   2.797   1.570  15.268  0.2693  0.4176  0.0080
  738MPD2    H510913   2.869   1.620  15.319  1.0446  0.7470 -1.3995
  738MPD2    N110914   2.530   1.166  15.323 -0.2775 -0.3076  0.7886
  738MPD2    H710915   2.525   1.173  15.222 -1.8389 -0.9777  0.8135
  739TMC3    C110916   2.898   1.688  15.083  0.0764  1.1190  0.3830
  739TMC3    C210917   2.947   1.669  14.955  0.4467 -0.0648 -0.2203
  739TMC3    C310918   3.034   1.767  14.908 -0.0937  0.7009 -0.2644
  739TMC3    C410919   2.937   1.795  15.166 -0.2651  0.7985 -0.5476
  739TMC3    C510920   3.028   1.885  15.115  0.1820 -0.2264  0.3013
  739TMC3    C610921   3.077   1.870  14.988  0.3688  0.1422  0.7591
  739TMC3     C10922   2.803   1.585  15.128 -0.0385  0.0022 -0.5242
  739TMC3     O10923   2.731   1.533  15.041 -0.1846 -0.1792  0.3840
  739TMC3     H10924   2.892   1.601  14.891  1.9626 -0.5617 -1.0029
  739TMC3    H110925   2.902   1.803  15.269 -1.7264 -1.3905 -0.8649
  739TMC3    H210926   3.160   1.927  14.948 -0.4232 -0.2617 -1.4720
  739TMC3    C710927   3.067   1.999  15.198  0.0104 -0.8204  0.2880
  739TMC3    C810928   3.128   1.737  14.798 -0.4594 -0.8590 -0.6073
  739TMC3    O110929   3.015   2.014  15.306 -0.1399 -0.1638 -0.2365
  739TMC3    O210930   3.209   1.825  14.764  0.1293  0.0960 -0.3362
  740TMC3    C110931   3.817   2.794  14.424 -0.0891 -0.3117 -0.8119
  740TMC3    C210932   3.874   2.719  14.522 -0.6353 -0.4367 -0.0212
  740TMC3    C310933   4.006   2.710  14.517  0.3994 -0.1176  0.3284
  740TMC3    C410934   3.884   2.833  14.310 -0.0958  0.5070  0.1038
  740TMC3    C510935   4.021   2.829  14.311  0.4797 -0.7845  0.7187
  740TMC3    C610936   4.083   2.761  14.412 -0.4223  0.0942  0.0140
  740TMC3     C10937   3.689   2.866  14.450 -0.0859 -0.4601  0.9714
  740TMC3     O10938   3.673   2.967  14.383  0.0449 -0.3552  0.2831
  740TMC3     H10939   3.826   2.692  14.615  0.1413  1.1438  0.8349
  740TMC3    H110940   3.835   2.890  14.232  1.6080  1.8524  0.0279
  740TMC3    H210941   4.191   2.769  14.420 -0.3735 -0.4527 -0.1438
  740TMC3    C710942   4.108   2.863  14.201 -0.2697 -0.8276 -1.1710
  740TMC3    C810943   4.064   2.631  14.613  0.3136  0.1212  0.1402
  740TMC3    O110944   4.211   2.800  14.211 -0.4937  0.3610 -0.2174
  740TMC3    O210945   3.988   2.557  14.676  0.2117  0.2199  0.2173
  741TMC3    C110946   3.163   2.379  14.553 -0.3037  0.3860  0.8923
  741TMC3    C210947   3.095   2.301  14.466  0.1807  0.4679 -0.5914
  741TMC3    C310948   3.097   2.168  14.481  0.0934  0.4774 -0.0400
  741TMC3    C410949   3.242   2.316  14.642 -0.0746  0.0927 -0.0439
  741TMC3    C510950   3.263   2.184  14.631  0.0742  0.1622 -0.2218
  741TMC3    C610951   3.188   2.103  14.560 -0.1194  0.0264  0.6682
  741TMC3     C10952   3.240   2.471  14.476 -0.3895  0.0165 -0.7076
  741TMC3     O10953   3.357   2.439  14.449  0.2974  0.1954  0.1001
  741TMC3     H10954   3.019   2.346  14.402 -0.5097  0.3095  0.1173
  741TMC3    H110955   3.315   2.379  14.692 -2.0136  1.1532  1.4418
  741TMC3    H210956   3.187   1.996  14.576  2.9514 -0.0521  0.1943
  741TMC3    C710957   3.380   2.133  14.707  0.1225 -0.2318  0.2400
  741TMC3    C810958   2.988   2.093  14.432 -0.2202  0.3179 -0.2474
  741TMC3    O110959   3.421   2.202  14.794  0.2104 -0.2270 -0.3264
  741TMC3    O210960   2.891   2.158  14.390 -0.5015 -0.4639  0.0562
  742TMC3    C110961   3.012   0.667  15.514  0.4889  0.1693 -0.3932
  742TMC3    C210962   2.945   0.629  15.397  0.2458 -0.8368 -0.7243
  742TMC3    C310963   3.033   0.613  15.293 -0.8521 -0.2458 -0.4781
  742TMC3    C410964   3.147   0.664  15.536  0.8486  0.3813 -0.2913
  742TMC3    C510965   3.228   0.633  15.425  0.0831 -0.1757  0.0983
  742TMC3    C610966   3.168   0.612  15.305  1.1327 -0.4557  0.2938
  742TMC3     C10967   2.925   0.681  15.630  0.2195 -0.3151 -0.7517
  742TMC3     O10968   2.811   0.646  15.607  0.1173  0.1716 -0.4452
  742TMC3     H10969   2.839   0.645  15.377 -0.0364  0.4399  1.9055
  742TMC3    H110970   3.190   0.690  15.632 -0.2363 -1.5199  0.7157
  742TMC3    H210971   3.229   0.586  15.219  0.1494  2.3794 -1.2478
  742TMC3    C710972   3.370   0.635  15.439  0.1136 -0.0353  0.2150
  742TMC3    C810973   2.980   0.601  15.162  0.1540 -0.1154  0.1467
  742TMC3    O110974   3.408   0.712  15.526  0.4177 -0.4155 -0.0578
  742TMC3    O210975   2.879   0.541  15.132  0.4441  0.1285 -0.0498
  743MPD2     C10976   1.362   1.287   1.500 -0.2965  0.1892 -0.2796
  743MPD2    C110977   1.399   1.179   1.427 -0.3518 -0.1129  0.3054
  743MPD2    C210978   1.525   1.117   1.455 -0.4076 -0.1220 -0.6360
  743MPD2    C310979   1.605   1.159   1.559  0.2810 -0.8805  0.0507
  743MPD2    C410980   1.569   1.276   1.628 -0.0187  0.6236 -0.9916
  743MPD2    C510981   1.448   1.342   1.590  0.5441  0.2972 -0.1727
  743MPD2     H10982   1.548   1.029   1.396 -0.0022 -2.1823  2.5840
  743MPD2    H110983   1.632   1.326   1.700 -1.4214  0.3171  0.4490
  743MPD2    H210984   1.271   1.340   1.474 -0.8760 -0.2728  0.8287
  743MPD2    H310985   1.435   1.434   1.646  0.7616 -0.2001  0.6906
  743MPD2     N10986   1.729   1.092   1.565  0.1207 -0.0397  0.2252
  743MPD2    H510987   1.731   1.013   1.500 -0.3791 -1.1252  1.5191
  743MPD2    N110988   1.307   1.137   1.333 -0.1580  0.1264  0.3551
  743MPD2    H710989   1.217   1.184   1.343 -2.3205 -3.0227 -4.0008
  744TMC3    C110990   1.187   1.004   1.175 -0.5552  0.0019 -0.2406
  744TMC3    C210991   1.073   1.077   1.196 -0.4691  0.3625  0.4148
  744TMC3    C310992   0.964   1.064   1.109  0.5794  0.4477 -0.2124
  744TMC3    C410993   1.199   0.929   1.062  0.2225  0.0341  0.3003
  744TMC3    C510994   1.095   0.933   0.969 -0.2545 -0.6529  0.1965
  744TMC3    C610995   0.976   0.996   0.989  0.1598  0.0504 -0.8645
  744TMC3     C10996   1.313   1.030   1.249 -0.9450 -0.1055  0.3335
  744TMC3     O10997   1.413   0.962   1.228 -0.7385  0.2725 -0.3926
  744TMC3     H10998   1.061   1.123   1.294 -0.4023  1.3214 -0.0272
  744TMC3    H110999   1.294   0.884   1.035  0.4079 -0.9226  2.5963
  744TMC3    H211000   0.888   0.993   0.927 -0.5114  0.6042  0.0729
  744TMC3    C711001   1.121   0.890   0.834 -0.0727  0.3615  0.8652
  744TMC3    C811002   0.846   1.137   1.145 -0.6128 -0.4875  0.1129
  744TMC3    O111003   1.042   0.932   0.749  0.3819  0.3380  0.2186
  744TMC3    O211004   0.862   1.239   1.208 -1.0114 -0.2253 -0.4741
  745TMC3    C111005   4.265   0.668  13.626 -0.5206 -0.1823  0.0214
  745TMC3    C211006   4.219   0.665  13.749  0.5981 -0.2482  0.4427
  745TMC3    C311007   4.089   0.628  13.765  0.5131  0.0510 -0.4502
  745TMC3    C411008   4.192   0.635  13.510  0.5092  0.3288 -0.0304
  745TMC3    C511009   4.069   0.577  13.531 -0.1077 -0.4985  0.1970
  745TMC3    C611010   4.010   0.583  13.655  0.1771  0.4329 -0.2436
  745TMC3     C11011   4.402   0.717  13.608  0.4065  0.5120 -0.2485
  745TMC3     O11012   4.481   0.702  13.703  0.2625 -0.5964  0.6939
  745TMC3     H11013   4.283   0.703  13.827  1.8250  2.0699 -1.6780
  745TMC3    H111014   4.236   0.624  13.412 -1.0878 -0.0552 -0.6859
  745TMC3    H211015   3.904   0.563  13.670  0.5565 -0.8586  0.6921
  745TMC3    C711016   3.980   0.536  13.422 -0.5229 -0.0231  0.1405
  745TMC3    C811017   4.006   0.706  13.859 -0.2475  0.1255  0.6505
  745TMC3    O111018   3.857   0.547  13.442 -0.4846  0.3478 -0.1853
  745TMC3    O211019   3.902   0.655  13.903 -0.7273 -0.3357 -0.5408
  746TMC3    C111020   1.107   2.372  11.030  0.2098  0.6090 -0.4455
  746TMC3    C211021   1.181   2.280  10.971  0.3682  0.3499 -1.2098
  746TMC3    C311022   1.120   2.175  10.910  0.0813 -0.1004 -0.0540
  746TMC3    C411023   0.968   2.356  11.037 -0.3096  0.2478  0.6641
  746TMC3    C511024   0.913   2.245  10.982  0.8003  0.5166 -0.2160
  746TMC3    C611025   0.986   2.157  10.910  0.3052  0.1160 -0.2518
  746TMC3     C11026   1.152   2.503  11.020 -0.5547 -0.0866  0.0117
  746TMC3     O11027   1.110   2.591  11.095 -0.4497 -0.0791 -0.0713
  746TMC3     H11028   1.288   2.297  10.974  0.0128  2.2074  1.0683
  746TMC3    H111029   0.911   2.436  11.082  0.4619  1.5134 -0.6149
  746TMC3    H211030   0.936   2.086  10.845  0.9280 -1.0464  0.5530
  746TMC3    C711031   0.773   2.216  10.994  0.3531  0.8393  0.0080
  746TMC3    C811032   1.189   2.132  10.794  0.1006  0.2481 -1.0510
  746TMC3    O111033   0.737   2.102  10.972  0.2050  0.3987  0.0258
  746TMC3    O211034   1.281   2.052  10.810 -0.0511 -0.0614  0.0911
  747TMC3    C111035   3.828   2.173  10.878 -0.0508 -0.0406 -0.3462
  747TMC3    C211036   3.764   2.082  10.953 -0.3925  1.0013 -0.3747
  747TMC3    C311037   3.723   2.116  11.076  0.1952 -0.7232  0.1527
  747TMC3    C411038   3.853   2.301  10.921  0.8623 -0.7866 -0.3155
  747TMC3    C511039   3.798   2.335  11.041  0.2258 -0.0209 -0.0725
  747TMC3    C611040   3.746   2.245  11.125  0.4995 -0.1907 -0.5379
  747TMC3     C11041   3.907   2.130  10.767 -0.8568 -0.3869  0.0279
  747TMC3     O11042   4.015   2.185  10.761  0.8774  0.1050 -1.4139
  747TMC3     H11043   3.752   1.979  10.919  2.8777  0.3796  0.3320
  747TMC3    H111044   3.908   2.372  10.860 -0.5259 -0.0836 -0.7568
  747TMC3    H211045   3.703   2.280  11.218 -0.8849  0.1190 -1.3016
  747TMC3    C711046   3.838   2.457  11.111  0.4655  0.6683 -0.1394
  747TMC3    C811047   3.674   2.014  11.162  0.4296 -0.4629  0.7886
  747TMC3    O111048   3.867   2.436  11.227  0.5075 -1.0193  0.0495
  747TMC3    O211049   3.721   1.899  11.166 -0.3325  0.5441 -0.4804
  748MPD2     C11050   0.373   1.783   1.490  0.3586  0.3186 -0.4822
  748MPD2    C111051   0.491   1.702   1.480  0.1290  0.0840 -0.4240
  748MPD2    C211052   0.610   1.772   1.460  0.2122  0.2731 -0.6814
  748MPD2    C311053   0.607   1.913   1.447  0.3567  0.1330  0.1414
  748MPD2    C411054   0.489   1.978   1.436  0.0139 -0.0956 -0.2351
  748MPD2    C511055   0.378   1.915   1.467 -0.3502 -0.4479  0.2660
  748MPD2     H11056   0.702   1.719   1.441  1.3907  2.0807 -0.0428
  748MPD2    H111057   0.488   2.084   1.411  3.3621 -0.3351 -1.3995
  748MPD2    H211058   0.278   1.739   1.516 -1.1781  2.7703 -1.9464
  748MPD2    H311059   0.293   1.982   1.477 -1.1006 -1.6488  1.8012
  748MPD2     N11060   0.736   1.968   1.430  0.2657 -0.3036 -0.4970
  748MPD2    H511061   0.809   1.907   1.396 -1.0730 -2.8040  1.0579
  748MPD2    N111062   0.475   1.563   1.494  0.1734  0.8097  0.3893
  748MPD2    H711063   0.380   1.533   1.517 -0.0426  0.2267 -1.2952
  749TMC3    C111064   0.897   2.136   1.363 -0.5150  0.3143 -0.3135
  749TMC3    C211065   0.989   2.094   1.463 -0.0235 -0.1525 -0.3979
  749TMC3    C311066   1.074   2.188   1.519 -0.4443  0.1008  0.0495
  749TMC3    C411067   0.902   2.264   1.316  0.2632 -0.4368  0.2833
  749TMC3    C511068   0.991   2.353   1.371  0.0623 -0.1391  0.1471
  749TMC3    C611069   1.084   2.314   1.463 -0.1325 -0.2952 -0.4021
  749TMC3     C11070   0.761   2.100   1.395 -0.7844  0.3221 -0.8108
  749TMC3     O11071   0.682   2.195   1.397  0.1127  0.5724 -0.1912
  749TMC3     H11072   0.972   1.995   1.503  1.5496 -0.5021 -0.5987
  749TMC3    H111073   0.834   2.293   1.237  1.6210 -2.9591 -1.8314
  749TMC3    H211074   1.160   2.383   1.498 -1.5823  1.7492 -1.3110
  749TMC3    C711075   0.953   2.492   1.387 -0.2070 -0.1311  0.0178
  749TMC3    C811076   1.198   2.148   1.580 -0.3161 -0.1378  0.3214
  749TMC3    O111077   1.042   2.570   1.418 -0.2639 -0.4661 -0.0230
  749TMC3    O211078   1.250   2.212   1.665 -0.3841 -0.4810 -0.3788
  750MPD2     C11079   1.447   4.007  11.164  0.0067 -0.4830 -0.6681
  750MPD2    C111080   1.363   4.029  11.277 -0.2584  0.1728 -0.4775
  750MPD2    C211081   1.326   3.927  11.363 -0.0149  0.0440 -0.6614
  750MPD2    C311082   1.371   3.802  11.326  0.1572  0.2583  0.1717
  750MPD2    C411083   1.457   3.780  11.224 -0.5379 -0.0971 -0.4726
  750MPD2    C511084   1.496   3.885  11.146 -0.1915 -0.5041 -0.0451
  750MPD2     H11085   1.255   3.957  11.439 -1.6662 -0.4134 -2.0515
  750MPD2    H111086   1.500   3.681  11.213 -0.6332 -0.2109  0.1639
  750MPD2    H211087   1.471   4.086  11.094 -0.9354 -0.8262 -1.3679
  750MPD2    H311088   1.560   3.872  11.059  0.9076  2.6476  0.2922
  750MPD2     N11089   1.328   3.677  11.385  0.1198 -1.0391 -0.7433
  750MPD2    H511090   1.368   3.596  11.338 -3.1209 -3.0175 -0.0505
  750MPD2    N111091   1.291   4.155  11.289  0.1263 -0.4648 -0.7969
  750MPD2    H711092   1.212   4.155  11.353  1.9813 -0.3439  1.5108
  751TMC3    C111093   1.180   3.528  11.503  1.1048 -0.4102 -0.1806
  751TMC3    C211094   1.052   3.513  11.531  0.5116  0.6376  0.0049
  751TMC3    C311095   0.995   3.390  11.510  0.3076 -0.1229  0.5488
  751TMC3    C411096   1.257   3.422  11.465 -0.1015 -0.4275  0.8651
  751TMC3    C511097   1.210   3.295  11.461 -0.4562 -0.5282  0.2555
  751TMC3    C611098   1.074   3.278  11.496 -0.2048 -0.3955 -0.1658
  751TMC3     C11099   1.226   3.668  11.477 -0.1610  0.0323 -0.0212
  751TMC3     O11100   1.164   3.760  11.529 -0.2467 -0.3050  0.3272
  751TMC3     H11101   0.997   3.598  11.569  0.0621  1.6128 -2.7905
  751TMC3    H111102   1.364   3.441  11.453 -0.4789  0.3416 -1.3483
  751TMC3    H211103   1.030   3.179  11.490 -1.2909 -0.0213  1.6333
  751TMC3    C711104   1.256   3.226  11.347 -0.5348  0.4683 -0.3457
  751TMC3    C811105   0.849   3.372  11.487  0.8833  0.0453 -0.7189
  751TMC3    O111106   1.362   3.273  11.302  0.0165 -0.0960  0.4861
  751TMC3    O211107   0.811   3.257  11.463 -0.4151 -0.1303  0.1935
  752TMC3    C111108   0.328   4.154  17.195  0.0364 -0.0248 -0.0950
  752TMC3    C211109   0.209   4.107  17.240  0.6439  0.0366 -0.5793
  752TMC3    C311110   0.174   4.106  17.372 -0.4497 -0.2183  0.2678
  752TMC3    C411111   0.419   4.201  17.287  0.3660 -0.0006 -0.1468
  752TMC3    C511112   0.375   4.208  17.421  0.3969 -0.0127 -0.4689
  752TMC3    C611113   0.252   4.167  17.468 -0.3515  0.3234 -0.4318
  752TMC3     C11114   0.346   4.190  17.053 -0.2741  0.6803  0.0644
  752TMC3     O11115   0.436   4.267  17.030  0.1635  0.2586  0.6585
  752TMC3     H11116   0.132   4.071  17.172 -0.0425  2.3031 -0.9939
  752TMC3    H111117   0.524   4.220  17.270  1.2820 -2.6122  2.5269
  752TMC3    H211118   0.227   4.196  17.569  0.8420  2.2443 -0.7004
  752TMC3    C711119   0.460   4.275  17.519  0.4816  0.6337 -0.0280
  752TMC3    C811120   0.035   4.138  17.382  0.1389 -0.2556  0.4291
  752TMC3    O111121   0.443   4.243  17.635 -0.0832 -0.5271 -0.3176
  752TMC3    O211122   4.705   4.200  17.292  0.8143 -0.3069 -0.1153
  753TMC3    C111123   2.095   0.165  13.419 -0.2224 -0.4306 -0.1583
  753TMC3    C211124   2.204   0.215  13.482  0.2070  0.1894  0.0520
  753TMC3    C311125   2.321   0.145  13.465  0.0483  0.2393 -0.3371
  753TMC3    C411126   2.101   0.057  13.336  0.3408 -0.1155 -0.3855
  753TMC3    C511127   2.217   4.718  13.327  0.0060 -0.1173 -0.2627
  753TMC3    C611128   2.334   0.036  13.391  0.5678  0.2933 -0.1557
  753TMC3     C11129   1.977   0.244  13.423  0.2361 -0.4875  0.6202
  753TMC3     O11130   1.906   0.251  13.324 -0.0995 -0.6185  0.4387
  753TMC3     H11131   2.194   0.317  13.517  2.9734  0.7481 -0.7645
  753TMC3    H111132   2.012   0.023  13.284 -0.0235 -1.2360  0.9804
  753TMC3    H211133   2.429   4.711  13.381  1.4597  1.8166  0.7493
  753TMC3    C711134   2.230   4.588  13.277 -0.3564 -0.2690 -0.2281
  753TMC3    C811135   2.438   0.197  13.538  0.1345 -0.6452  0.4548
  753TMC3    O111136   2.335   4.531  13.315  0.3186  0.3606  0.0534
  753TMC3    O211137   2.545   0.150  13.493 -0.0310  0.1726  0.6039
  754MPD2     C11138   0.737   3.914  12.545  0.9181  0.1995  0.3099
  754MPD2    C111139   0.757   3.782  12.582 -0.1019 -0.0750  0.6259
  754MPD2    C211140   0.650   3.720  12.658 -0.2721  0.9278 -0.0633
  754MPD2    C311141   0.553   3.794  12.720  0.1130  0.4884 -0.0796
  754MPD2    C411142   0.550   3.926  12.693  0.0762 -0.4909  0.3233
  754MPD2    C511143   0.640   3.988  12.614 -0.2018  0.1448 -0.5344
  754MPD2     H11144   0.636   3.613  12.669  0.3314  1.0185  1.5160
  754MPD2    H111145   0.470   3.992  12.726  0.6108  0.9184 -1.2551
  754MPD2    H211146   0.807   3.973  12.488 -0.6357  3.3016  1.5929
  754MPD2    H311147   0.631   4.096  12.601 -0.0084  0.2284  0.0118
  754MPD2     N11148   0.455   3.747  12.809  0.6426  0.6620 -0.4471
  754MPD2    H511149   0.388   3.813  12.846 -2.8708 -2.7016 -0.8678
  754MPD2    N111150   0.880   3.712  12.548 -0.3327 -0.0010  1.0547
  754MPD2    H711151   0.945   3.763  12.490  0.9421 -1.5686  1.0960
  755MPD2     C11152   4.590   4.216  13.153 -0.1544 -0.3668  1.0492
  755MPD2    C111153   4.668   4.176  13.261  0.5102  0.0236 -0.6963
  755MPD2    C211154   0.042   4.080  13.245  0.0005  0.5034 -0.1521
  755MPD2    C311155   0.050   4.014  13.123 -0.1805 -0.2886  0.5014
  755MPD2    C411156   4.685   4.043  13.021  0.3029 -0.0966  0.6768
  755MPD2    C511157   4.589   4.140  13.040  0.3203  0.4658  1.0211
  755MPD2     H11158   0.108   4.055  13.327 -2.4552  0.7740  1.9429
  755MPD2    H111159   4.695   3.988  12.928 -1.1976  0.1800  0.3508
  755MPD2    H211160   4.523   4.301  13.153  0.4297  0.0893  0.5637
  755MPD2    H311161   4.527   4.161  12.954 -0.0416  0.3188  1.2482
  755MPD2     N11162   0.127   3.898  13.108 -0.4535  0.1764  1.5815
  755MPD2    H511163   0.152   3.870  13.014 -0.3949 -0.5969  1.8304
  755MPD2    N111164   4.673   4.240  13.387  0.2070  0.0530  0.4821
  755MPD2    H711165   4.721   4.179  13.453  0.4738 -1.8861 -1.4816
  756MPD2     C11166   0.680   0.361   9.289 -0.2002 -0.4029 -0.2398
  756MPD2    C111167   0.680   0.253   9.369 -0.8332 -0.9297 -0.2920
  756MPD2    C211168   0.593   0.153   9.334  0.5226 -0.4114  0.3611
  756MPD2    C311169   0.523   0.157   9.221 -0.0484 -0.3692 -0.3006
  756MPD2    C411170   0.528   0.267   9.141 -0.1438  0.2344 -0.6673
  756MPD2    C511171   0.607   0.368   9.180  0.1800  0.1990  0.4996
  756MPD2     H11172   0.573   0.065   9.395 -1.4722  0.0755  0.4179
  756MPD2    H111173   0.487   0.281   9.042 -0.5178 -1.0767 -0.6905
  756MPD2    H211174   0.737   0.446   9.324 -1.0985 -1.2763  3.2957
  756MPD2    H311175   0.617   0.458   9.121 -0.6066 -1.0044 -1.4625
  756MPD2     N11176   0.446   0.044   9.186  0.0782 -0.1239  0.3385
  756MPD2    H511177   0.448   4.686   9.244  2.0054  0.1078  0.5968
  756MPD2    N111178   0.755   0.238   9.484 -0.2522  0.2765 -0.2701
  756MPD2    H711179   0.732   0.158   9.541 -1.2376 -0.0738 -1.1565
  757MPD2     C11180   0.361   4.099   9.664 -0.1437  0.4947  0.4250
  757MPD2    C111181   0.371   4.235   9.688 -0.4291 -0.0877  0.1378
  757MPD2    C211182   0.336   4.319   9.586  0.1332 -0.5375 -0.1429
  757MPD2    C311183   0.284   4.272   9.465  0.4616  0.0738 -0.7350
  757MPD2    C411184   0.257   4.136   9.460 -0.0466  0.0210 -0.4130
  757MPD2    C511185   0.288   4.052   9.561  0.7723  1.3512 -0.1268
  757MPD2     H11186   0.359   4.425   9.589  0.4001 -0.7027  3.1109
  757MPD2    H111187   0.190   4.089   9.388  0.1860 -1.0409  0.0552
  757MPD2    H211188   0.406   4.027   9.732 -0.8274  0.3097  0.6794
  757MPD2    H311189   0.276   3.944   9.562 -1.2074  1.5596 -1.7671
  757MPD2     N11190   0.258   4.366   9.362 -0.5062  0.3347 -0.2931
  757MPD2    H511191   0.270   4.463   9.389 -1.9085  1.1591 -2.6799
  757MPD2    N111192   0.434   4.271   9.812 -0.2745  0.3460  0.5943
  757MPD2    H711193   0.477   4.204   9.875 -0.2991  0.4549  0.7271
  758MPD2     C11194   0.932   3.000  16.249  0.1104 -0.4339 -0.2089
  758MPD2    C111195   1.016   2.985  16.361  0.0030 -0.5901  0.5462
  758MPD2    C211196   0.969   3.045  16.480  0.7328 -0.1135 -0.5986
  758MPD2    C311197   0.857   3.129  16.478  0.2642  0.0266  0.4511
  758MPD2    C411198   0.776   3.140  16.365  0.5009 -0.7819  0.3457
  758MPD2    C511199   0.821   3.071  16.255  0.2702  0.1039  0.0684
  758MPD2     H11200   1.028   3.040  16.571 -0.5965 -1.8064  0.1626
  758MPD2    H111201   0.686   3.200  16.353  0.2608 -1.5480 -1.7882
  758MPD2    H211202   0.963   2.963  16.152 -1.9075 -1.4073 -0.4850
  758MPD2    H311203   0.766   3.093  16.164 -1.0209  2.4382  1.4171
  758MPD2     N11204   0.812   3.201  16.592  0.2778  0.3278  0.1990
  758MPD2    H511205   0.717   3.236  16.584 -0.0035  0.1879  2.6528
  758MPD2    N111206   1.137   2.910  16.340 -0.1868 -0.4585  0.0585
  758MPD2    H711207   1.144   2.858  16.253 -2.1713 -0.2603 -0.2187
  759MPD2     C11208   0.342   2.226   9.850  0.3832 -0.0240 -0.1279
  759MPD2    C111209   0.269   2.112   9.827  0.4088  0.2570 -0.3519
  759MPD2    C211210   0.180   2.104   9.720 -0.5887 -0.5175  0.0499
  759MPD2    C311211   0.173   2.202   9.624  0.4491 -0.2685  0.5115
  759MPD2    C411212   0.250   2.316   9.647  0.4820  0.6054 -0.7052
  759MPD2    C511213   0.335   2.319   9.751 -1.2961 -0.5673 -0.1538
  759MPD2     H11214   0.124   2.012   9.716 -1.5521  0.1764 -2.6485
  759MPD2    H111215   0.239   2.408   9.592 -0.8518  0.8416 -0.0428
  759MPD2    H211216   0.399   2.235   9.942  0.7321 -0.9637 -0.2455
  759MPD2    H311217   0.392   2.410   9.764 -1.6272 -0.1534 -1.6033
  759MPD2     N11218   0.082   2.187   9.516  0.4054 -0.0848  0.7385
  759MPD2    H511219   0.040   2.095   9.505  1.4614 -0.7754  2.4665
  759MPD2    N111220   0.259   2.012   9.924  0.6507 -0.0122  0.3778
  759MPD2    H711221   0.183   1.945   9.911  0.9427 -0.0359 -1.2435
  760MPD2     C11222   3.763   4.560  11.810 -0.0147 -0.1890  0.6186
  760MPD2    C111223   3.891   4.516  11.825  0.3603  0.0090 -0.7611
  760MPD2    C211224   3.928   4.439  11.931 -0.0541  0.0653  0.1449
  760MPD2    C311225   3.835   4.399  12.031  0.2225  0.1784  0.3704
  760MPD2    C411226   3.709   4.454  12.020 -1.1082  0.5204  0.1920
  760MPD2    C511227   3.673   4.531  11.909  0.6359  0.3072 -0.4488
  760MPD2     H11228   4.031   4.405  11.933 -0.6048 -1.5583  1.2789
  760MPD2    H111229   3.631   4.440  12.094 -0.5519 -0.3544  0.6210
  760MPD2    H211230   3.735   4.633  11.734 -3.5835 -0.4911  1.6319
  760MPD2    H311231   3.580   4.587  11.914  0.5717  0.2817 -1.4283
  760MPD2     N11232   3.868   4.318  12.141  0.0150  0.1717  0.1246
  760MPD2    H511233   3.792   4.305  12.206  0.5371  0.7011  0.8533
  760MPD2    N111234   3.987   4.541  11.729 -0.2564  0.0058 -0.0109
  760MPD2    H711235   4.081   4.510  11.749  0.0007  2.1749  2.0173
  761MPD2     C11236   0.420   3.530  11.299 -0.9798  0.2719  0.9513
  761MPD2    C111237   0.504   3.426  11.256 -0.7524 -0.0237 -0.0146
  761MPD2    C211238   0.625   3.428  11.311  0.1812 -0.3966 -0.0930
  761MPD2    C311239   0.667   3.513  11.402  0.1607  0.3696  0.0192
  761MPD2    C411240   0.590   3.622  11.437 -0.3826 -0.4294 -0.0940
  761MPD2    C511241   0.461   3.624  11.384 -0.8835 -0.8960 -0.3150
  761MPD2     H11242   0.701   3.358  11.278  2.2627  1.8992 -0.1597
  761MPD2    H111243   0.628   3.691  11.511  2.9961 -1.1290 -1.2072
  761MPD2    H211244   0.318   3.529  11.263 -0.6339 -1.8256  0.0523
  761MPD2    H311245   0.391   3.706  11.392  0.8971  0.6790 -0.9930
  761MPD2     N11246   0.787   3.495  11.474  0.4342  1.1990 -0.5157
  761MPD2    H511247   0.825   3.576  11.522 -0.0553  0.7244  0.6768
  761MPD2    N111248   0.460   3.347  11.154 -0.0324  0.3044 -0.9069
  761MPD2    H711249   0.359   3.352  11.147  0.0038 -0.3742 -1.8709
  762MPD2     C11250   0.662   3.182  10.408  0.2462  0.8558  0.1373
  762MPD2    C111251   0.713   3.098  10.503 -0.6721  0.0524  0.3609
  762MPD2    C211252   0.839   3.040  10.480 -0.6976  0.5716  0.0300
  762MPD2    C311253   0.915   3.078  10.369  0.4652  0.1101 -0.3419
  762MPD2    C411254   0.866   3.170  10.284  0.0032 -0.2103  0.0977
  762MPD2    C511255   0.739   3.219  10.303 -0.4278  0.5578 -0.2389
  762MPD2     H11256   0.873   2.957  10.541 -1.4483  2.5142  3.1263
  762MPD2    H111257   0.927   3.207  10.203  0.4483  1.2750  1.1252
  762MPD2    H211258   0.563   3.224  10.423  0.3717  1.0408  0.4288
  762MPD2    H311259   0.710   3.301  10.239  1.7315  0.7072 -1.0101
  762MPD2     N11260   1.028   3.006  10.344 -0.0366 -0.0889 -0.1130
  762MPD2    H511261   1.055   2.935  10.411  2.9526  0.5841 -0.6128
  762MPD2    N111262   0.634   3.074  10.620  0.0209 -0.0581  0.3210
  762MPD2    H711263   0.542   3.114  10.636 -0.1389  0.0632 -0.8887
  763MPD2     C11264   3.023   3.293  16.148 -0.4597  0.3408  0.3567
  763MPD2    C111265   2.900   3.354  16.145 -0.0247 -0.1194 -0.1743
  763MPD2    C211266   2.890   3.477  16.206 -0.5129 -0.1337 -0.2682
  763MPD2    C311267   2.995   3.535  16.273 -0.8300 -0.3999  0.2276
  763MPD2    C411268   3.116   3.477  16.278  0.2800  0.1372  0.4703
  763MPD2    C511269   3.122   3.349  16.225 -0.7000  0.2855  0.0920
  763MPD2     H11270   2.794   3.526  16.197 -0.1948  0.0285 -2.7429
  763MPD2    H111271   3.203   3.511  16.332  0.5623 -0.3722  0.3339
  763MPD2    H211272   3.041   3.199  16.099  1.7737  1.1245 -0.3311
  763MPD2    H311273   3.218   3.300  16.237  0.6104  2.4170 -1.6650
  763MPD2     N11274   2.994   3.660  16.333  0.6232 -0.8095 -0.4445
  763MPD2    H511275   3.087   3.690  16.360 -0.1786 -0.5385  2.0007
  763MPD2    N111276   2.788   3.307  16.065 -0.1774 -0.1062  0.0322
  763MPD2    H711277   2.708   3.369  16.064 -1.0938 -1.3067  0.3077
  764MPD2     C11278   0.793   0.416   0.101 -0.7340 -0.3405 -0.0846
  764MPD2    C111279   0.753   0.316   0.016 -0.9417 -0.1194 -0.2598
  764MPD2    C211280   0.739   0.188   0.063  0.0074  1.0882 -0.0250
  764MPD2    C311281   0.760   0.165   0.198 -0.2308  0.4516 -0.1413
  764MPD2    C411282   0.796   0.273   0.283 -0.1246 -0.1235 -0.2702
  764MPD2    C511283   0.813   0.396   0.232 -0.2439 -0.5530  0.4207
  764MPD2     H11284   0.703   0.114  17.695 -0.2297 -0.1453  1.3849
  764MPD2    H111285   0.811   0.265   0.390 -1.4495 -0.2967 -0.1071
  764MPD2    H211286   0.814   0.515   0.062 -0.9978 -0.3663 -0.2975
  764MPD2    H311287   0.844   0.477   0.297  1.9217 -2.4932  1.8258
  764MPD2     N11288   0.723   0.044   0.247  0.1084  0.4910 -0.5804
  764MPD2    H511289   0.669   4.712   0.183  0.5152 -2.9442  2.1058
  764MPD2    N111290   0.727   0.336  17.581 -0.8101  0.1781  0.1875
  764MPD2    H711291   0.721   0.254  17.522 -1.1845  0.4494 -0.1520
  765MPD2     C11292   0.200   2.432  15.907 -0.8105 -0.3549 -0.7144
  765MPD2    C111293   0.280   2.536  15.867  0.3659  0.2295  0.4861
  765MPD2    C211294   0.410   2.504  15.847  0.3636 -0.5854 -0.0505
  765MPD2    C311295   0.463   2.374  15.853  0.0500  0.2711  0.2943
  765MPD2    C411296   0.377   2.275  15.895  0.1525  0.4401 -0.0173
  765MPD2    C511297   0.247   2.303  15.924 -0.3471  0.6187 -0.6829
  765MPD2     H11298   0.481   2.576  15.807 -0.5441 -0.6568 -1.8199
  765MPD2    H111299   0.406   2.172  15.910 -1.7817  0.0596  1.1133
  765MPD2    H211300   0.096   2.454  15.930 -0.4645  0.0988  0.4109
  765MPD2    H311301   0.185   2.226  15.970 -0.0190  1.2945  0.8655
  765MPD2     N11302   0.584   2.351  15.780  0.0871 -0.4002 -0.0913
  765MPD2    H511303   0.618   2.434  15.733 -1.3618  0.4749  0.3915
  765MPD2    N111304   0.216   2.657  15.843 -0.0538  0.4923 -0.1779
  765MPD2    H711305   0.119   2.667  15.869 -0.1286 -0.5537 -0.0374
  766MPD2     C11306   4.642   2.582  15.295 -0.2144 -0.2373  0.1460
  766MPD2    C111307   4.717   2.694  15.310 -0.0108  0.0856 -0.8626
  766MPD2    C211308   0.075   2.741  15.202  0.6630 -0.5819 -0.8271
  766MPD2    C311309   0.078   2.671  15.086  0.3075 -0.2926 -0.3598
  766MPD2    C411310   4.724   2.557  15.073 -0.4964 -0.0013  0.7712
  766MPD2    C511311   4.649   2.509  15.180  0.4547  0.4498  0.1933
  766MPD2     H11312   0.145   2.822  15.217 -0.5255  0.2409  0.2452
  766MPD2    H111313   4.722   2.495  14.985 -0.6782  0.7585  0.2385
  766MPD2    H211314   4.578   2.541  15.373 -1.5213  1.1751 -0.2138
  766MPD2    H311315   4.594   2.418  15.165  0.2467  0.4961  0.7084
  766MPD2     N11316   0.150   2.730  14.979 -0.3376 -0.2579 -0.8910
  766MPD2    H511317   0.195   2.818  15.003  0.2523 -1.2819  1.7992
  766MPD2    N111318   4.715   2.754  15.440  0.5125  0.4017 -0.8356
  766MPD2    H711319   4.689   2.692  15.517  0.1956  0.6571 -0.7416
  767MPD2     C11320   4.579   2.967  15.070 -0.7460 -0.5964  0.0031
  767MPD2    C111321   4.671   3.038  15.001 -0.4199 -0.4292  0.2816
  767MPD2    C211322   4.654   3.066  14.864  0.5988  0.0071 -0.2091
  767MPD2    C311323   4.549   3.007  14.799 -0.1845  0.3135 -0.2169
  767MPD2    C411324   4.454   2.933  14.870 -0.3753 -0.1907 -0.4602
  767MPD2    C511325   4.471   2.915  15.003  0.4553 -0.4430  0.1672
  767MPD2     H11326   4.723   3.129  14.809  1.1602 -0.4834 -0.0556
  767MPD2    H111327   4.377   2.875  14.821 -0.1275 -0.4881 -0.4980
  767MPD2    H211328   4.592   2.947  15.176  0.1707 -0.5238 -0.0968
  767MPD2    H311329   4.403   2.848  15.053  0.6530 -0.1229  0.8716
  767MPD2     N11330   4.529   3.011  14.655 -0.1076 -0.0144 -0.7443
  767MPD2    H511331   4.602   3.054  14.599 -1.4696  0.3737 -2.2421
  767MPD2    N111332   0.055   3.097  15.074 -0.7177 -0.0110 -0.0431
  767MPD2    H711333   0.053   3.091  15.175 -2.7032 -2.0031 -0.2074
  768MPD2     C11334   0.564   1.795  10.720 -0.3618 -0.0618 -0.2858
  768MPD2    C111335   0.515   1.762  10.849  0.8244 -0.1440 -0.6181
  768MPD2    C211336   0.601   1.757  10.952 -0.0128 -0.2926 -0.5079
  768MPD2    C311337   0.742   1.766  10.924  0.3953 -0.0025 -0.0339
  768MPD2    C411338   0.785   1.809  10.801 -0.3540 -0.5196 -0.1131
  768MPD2    C511339   0.699   1.818  10.699  0.1099 -0.3145  0.3317
  768MPD2     H11340   0.566   1.737  11.053  1.3754  0.1729  0.0645
  768MPD2    H111341   0.887   1.833  10.773 -0.2132  0.4184  1.1958
  768MPD2    H211342   0.498   1.809  10.635 -0.5704 -0.5000 -0.1939
  768MPD2    H311343   0.725   1.852  10.599  0.6169 -3.8963 -0.7644
  768MPD2     N11344   0.843   1.753  11.025  0.5312 -0.4552  0.4558
  768MPD2    H511345   0.935   1.786  10.998 -0.0281  0.2389 -0.5971
  768MPD2    N111346   0.378   1.752  10.882 -0.4560 -0.0353 -0.1622
  768MPD2    H711347   0.361   1.743  10.982 -1.3402  2.1227 -0.1143
  769MPD2     C11348   1.982   4.138  14.554  0.1520  0.6895  0.6468
  769MPD2    C111349   1.874   4.083  14.612 -0.0608  0.2247 -0.2130
  769MPD2    C211350   1.856   4.096  14.749 -0.3051  0.2034 -0.2328
  769MPD2    C311351   1.950   4.169  14.819 -0.0418  0.6436  0.1912
  769MPD2    C411352   2.066   4.212  14.755  0.0257  0.2919 -0.1265
  769MPD2    C511353   2.086   4.196  14.620  1.3456  0.0768  0.0245
  769MPD2     H11354   1.763   4.066  14.797  0.0599  0.4315  0.6184
  769MPD2    H111355   2.151   4.259  14.804 -1.0164  1.0689  0.9431
  769MPD2    H211356   1.992   4.131  14.446 -3.4762 -0.6620  0.3695
  769MPD2    H311357   2.167   4.237  14.561  0.6868 -0.3844 -1.2036
  769MPD2     N11358   1.911   4.195  14.952 -0.6814  0.1560 -0.4909
  769MPD2    H511359   1.817   4.168  14.979 -0.0535  0.3967  1.9440
  769MPD2    N111360   1.782   4.026  14.528  0.6400 -0.0634 -0.2066
  769MPD2    H711361   1.806   4.010  14.430 -0.6109  0.3130 -0.5746
  770MPD2     C11362   1.094   3.341  14.800 -0.3584  0.5356  0.0255
  770MPD2    C111363   1.221   3.367  14.845  0.1683  0.1560  0.4606
  770MPD2    C211364   1.313   3.436  14.769 -0.2598 -0.7257 -0.0748
  770MPD2    C311365   1.274   3.484  14.643 -0.1590  0.6297 -0.3068
  770MPD2    C411366   1.149   3.447  14.599 -0.2503  0.2865  0.2012
  770MPD2    C511367   1.057   3.375  14.667 -0.0315 -0.1201  0.0214
  770MPD2     H11368   1.412   3.458  14.808 -0.2333  0.7364 -0.9709
  770MPD2    H111369   1.117   3.460  14.496  0.9349  2.4781  0.1127
  770MPD2    H211370   1.023   3.281  14.855 -1.8095  0.6371 -1.7185
  770MPD2    H311371   0.963   3.350  14.620  0.8958 -0.3359 -1.7325
  770MPD2     N11372   1.366   3.569  14.579 -0.4903  0.6377 -0.0567
  770MPD2    H511373   1.456   3.569  14.626 -0.2887 -1.2207 -0.4237
  770MPD2    N111374   1.251   3.321  14.982  0.0348  0.0971 -0.0612
  770MPD2    H711375   1.172   3.293  15.039 -0.3603  2.0133  0.3523
  771MPD2     C11376   2.242   2.053  13.790 -0.0140  0.2651  0.6709
  771MPD2    C111377   2.339   2.145  13.813 -0.0778 -0.7511  0.3689
  771MPD2    C211378   2.473   2.090  13.825 -0.2058  0.4099 -0.3339
  771MPD2    C311379   2.499   1.955  13.837 -0.7277  0.3847 -0.0105
  771MPD2    C411380   2.394   1.867  13.826 -0.2385 -0.1305 -0.6833
  771MPD2    C511381   2.271   1.918  13.799 -0.0575 -0.7246 -0.0354
  771MPD2     H11382   2.557   2.157  13.837  0.5541 -0.7258  0.6286
  771MPD2    H111383   2.390   1.759  13.815  1.5321 -0.3819  1.2502
  771MPD2    H211384   2.139   2.082  13.774 -0.1616  0.0424  1.2103
  771MPD2    H311385   2.196   1.843  13.778 -0.4072 -0.3002 -0.2991
  771MPD2     N11386   2.628   1.926  13.876 -0.1546 -0.0373  0.2310
  771MPD2    H511387   2.696   2.001  13.872 -0.5351  0.1408 -3.0626
  771MPD2    N111388   2.323   2.282  13.822 -0.1527  0.4112  0.2144
  771MPD2    H711389   2.405   2.335  13.848 -0.7969  1.9815 -0.9692
  772MPD2     C11390   1.843   3.003  13.836 -0.2340 -0.7144  0.0554
  772MPD2    C111391   1.826   2.875  13.787  0.5804 -0.5897  0.6746
  772MPD2    C211392   1.699   2.820  13.778 -0.0633 -0.7869 -0.5730
  772MPD2    C311393   1.583   2.895  13.801 -0.7686  0.7652  0.3929
  772MPD2    C411394   1.601   3.026  13.850 -0.9886  0.5213 -0.1748
  772MPD2    C511395   1.730   3.079  13.862  0.4922  0.0644  0.0364
  772MPD2     H11396   1.697   2.715  13.751 -1.5153 -0.6444 -1.0254
  772MPD2    H111397   1.524   3.099  13.870 -0.4081  0.5979  1.7497
  772MPD2    H211398   1.942   3.037  13.863 -0.9028  2.0784 -1.0327
  772MPD2    H311399   1.746   3.185  13.881  1.3468  0.1683 -1.2229
  772MPD2     N11400   1.454   2.844  13.788 -0.1602  0.6630  0.4087
  772MPD2    H511401   1.376   2.904  13.813 -0.8986 -0.5853  1.0724
  772MPD2    N111402   1.933   2.782  13.764  0.0909 -0.3338 -0.7197
  772MPD2    H711403   1.897   2.690  13.741  1.4136 -1.3189  1.1662
  773MPD2     C11404   1.071   3.729   0.166 -0.3189 -0.1248 -0.3194
  773MPD2    C111405   1.001   3.674   0.270  0.3870 -0.2172 -0.1047
  773MPD2    C211406   1.055   3.652   0.390 -0.1663 -0.1873 -0.4742
  773MPD2    C311407   1.188   3.675   0.406  0.0219 -0.1760  1.0594
  773MPD2    C411408   1.268   3.709   0.299 -0.4154  0.8173 -0.1310
  773MPD2    C511409   1.207   3.733   0.174 -0.5373 -0.4247 -0.0788
  773MPD2     H11410   0.991   3.614   0.469 -0.4058 -0.0957 -0.6229
  773MPD2    H111411   1.375   3.725   0.301 -0.2857 -0.2888  2.0006
  773MPD2    H211412   1.035   3.750   0.066  1.4283 -0.2844 -1.0007
  773MPD2    H311413   1.264   3.773   0.090  1.0220 -3.6369 -0.5542
  773MPD2     N11414   1.250   3.651   0.532 -0.1584 -0.4581  0.0166
  773MPD2    H511415   1.189   3.603   0.597  0.4502  0.7535  1.4995
  773MPD2    N111416   0.865   3.647   0.257 -0.3156  0.0487  0.0066
  773MPD2    H711417   0.831   3.619   0.349  0.6790 -1.8508 -0.1955
  774MPD2     C11418   0.275   2.976  12.903  0.4286 -0.7271  0.1468
  774MPD2    C111419   0.312   3.061  13.002  0.0001  0.3419 -0.4203
  774MPD2    C211420   0.415   3.153  12.981  0.7469 -1.1401  0.2611
  774MPD2    C311421   0.485   3.148  12.862 -0.2213 -0.0361  0.3011
  774MPD2    C411422   0.435   3.063  12.762 -0.0325 -0.0022  0.2048
  774MPD2    C511423   0.335   2.973  12.788 -0.0326  0.3586  0.2424
  774MPD2     H11424   0.436   3.226  13.058  0.4333  0.1926 -0.9304
  774MPD2    H111425   0.482   3.052  12.665 -0.6303  0.5127 -0.1430
  774MPD2    H211426   0.198   2.901  12.918  0.8509 -1.3759 -0.8903
  774MPD2    H311427   0.321   2.897  12.711  0.4744 -0.1713  0.6752
  774MPD2     N11428   0.600   3.226  12.851 -0.1991  0.5909  0.5687
  774MPD2    H511429   0.604   3.290  12.929  0.5618  0.7007  0.4438
  774MPD2    N111430   0.248   3.039  13.123 -0.5471  0.0732  0.0890
  774MPD2    H711431   0.166   2.980  13.119  0.0532 -0.7545 -0.1129
  775MPD2     C11432   1.918   3.797  15.345 -0.1533  0.0753 -0.6667
  775MPD2    C111433   1.903   3.914  15.420  0.5377  0.0263  0.6700
  775MPD2    C211434   1.997   4.014  15.399 -0.9385 -0.1229  0.4566
  775MPD2    C311435   2.105   4.005  15.315  0.3003 -0.0846  0.1995
  775MPD2    C411436   2.117   3.893  15.236  0.5064 -0.0392  0.5201
  775MPD2    C511437   2.026   3.790  15.265  0.6528 -0.8153 -0.3813
  775MPD2     H11438   1.969   4.113  15.431  1.5548  0.9531 -0.6764
  775MPD2    H111439   2.202   3.879  15.171 -0.0012 -1.8058  0.2337
  775MPD2    H211440   1.856   3.713  15.374  0.1094  0.1367  0.0601
  775MPD2    H311441   2.045   3.701  15.205 -2.2879 -3.4012  2.5616
  775MPD2     N11442   2.188   4.120  15.293  0.3912  0.8869 -0.2999
  775MPD2    H511443   2.237   4.136  15.206  0.2942 -1.9514 -0.8722
  775MPD2    N111444   1.819   3.939  15.529 -0.5756 -0.5115  0.6187
  775MPD2    H711445   1.846   4.016  15.588  1.3835  0.3045 -1.3434
  776MPD2     C11446   1.576   0.104  11.409  0.0164 -0.3200 -0.3564
  776MPD2    C111447   1.450   0.126  11.365  0.2556  0.5297  0.8043
  776MPD2    C211448   1.393   0.252  11.375 -0.5596  0.0185 -0.2624
  776MPD2    C311449   1.471   0.352  11.432  0.0376  0.1682  0.2938
  776MPD2    C411450   1.600   0.326  11.470  0.1181  0.3433  0.0161
  776MPD2    C511451   1.650   0.204  11.465 -0.0475 -0.5325 -0.7312
  776MPD2     H11452   1.299   0.273  11.326 -1.0836 -0.7120  0.4358
  776MPD2    H111453   1.653   0.401  11.528  0.2419  0.0769  0.2475
  776MPD2    H211454   1.628   0.011  11.394 -2.8098 -1.8109 -0.9762
  776MPD2    H311455   1.755   0.191  11.491 -0.4568 -1.0932  0.6771
  776MPD2     N11456   1.423   0.483  11.451 -0.0657 -0.3887  0.1897
  776MPD2    H511457   1.485   0.548  11.499 -0.0877 -0.6924  0.6239
  776MPD2    N111458   1.380   0.018  11.312  0.4251  0.0314  0.6099
  776MPD2    H711459   1.423   4.651  11.309 -0.1931 -0.2544  0.6752
  777MPD2     C11460   1.557   1.719   0.728  0.1440 -0.5497 -0.0886
  777MPD2    C111461   1.620   1.604   0.756 -0.5536 -0.0581 -0.5665
  777MPD2    C211462   1.643   1.515   0.648  0.0910  0.1338 -0.1178
  777MPD2    C311463   1.594   1.537   0.522 -0.8160  0.1942  0.1948
  777MPD2    C411464   1.516   1.654   0.506 -0.4577 -0.5248 -0.1212
  777MPD2    C511465   1.498   1.746   0.609 -0.4197 -0.6693  0.1885
  777MPD2     H11466   1.704   1.428   0.667  0.1793 -0.1605 -1.8061
  777MPD2    H111467   1.477   1.670   0.407  2.2086 -0.8998 -1.2378
  777MPD2    H211468   1.546   1.798   0.801  1.5985 -0.4454  0.0313
  777MPD2    H311469   1.447   1.840   0.591  1.7770  0.2888 -1.0944
  777MPD2     N11470   1.632   1.446   0.425  0.5600 -0.1724 -0.2402
  777MPD2    H511471   1.673   1.364   0.470  0.2961  0.1013  0.5106
  777MPD2    N111472   1.643   1.571   0.890 -0.7399  0.2201 -0.6190
  777MPD2    H711473   1.618   1.640   0.960  0.9451 -0.7393  0.9228
  778MPD2     C11474   2.528   2.532  15.131 -0.0917  0.4943  0.0913
  778MPD2    C111475   2.538   2.460  15.019 -0.2992  0.0745  0.2764
  778MPD2    C211476   2.599   2.518  14.902  0.6633  0.0471  0.1663
  778MPD2    C311477   2.656   2.642  14.899 -0.1023 -0.1382 -0.1576
  778MPD2    C411478   2.650   2.708  15.015  0.5074 -0.1295  0.5030
  778MPD2    C511479   2.579   2.660  15.123 -0.1009 -0.6082  0.2860
  778MPD2     H11480   2.601   2.463  14.809 -1.5161 -0.0902  0.1971
  778MPD2    H111481   2.694   2.806  15.032  0.0041 -0.3370  3.0757
  778MPD2    H211482   2.489   2.494  15.225  0.0833 -2.4291 -1.0236
  778MPD2    H311483   2.589   2.726  15.209 -0.5563 -2.6115  1.8775
  778MPD2     N11484   2.721   2.685  14.780  0.0991  0.2223  0.8633
  778MPD2    H511485   2.734   2.617  14.706 -1.2756  1.8078 -0.8409
  778MPD2    N111486   2.492   2.329  15.008  0.2877 -0.2538  0.6389
  778MPD2    H711487   2.491   2.288  14.915  0.9389 -0.9320  0.9297
  779MPD2     C11488   1.960   1.298  14.043 -0.1570  0.0002 -0.4393
  779MPD2    C111489   2.091   1.295  14.080 -1.0564  0.8983 -0.3333
  779MPD2    C211490   2.144   1.421  14.097 -0.9217 -0.9817 -0.3581
  779MPD2    C311491   2.077   1.539  14.075 -0.9469  0.0770 -0.2529
  779MPD2    C411492   1.941   1.532  14.051  0.0816  0.2036  0.4444
  779MPD2    C511493   1.886   1.414  14.014  0.6359 -0.1063 -1.5136
  779MPD2     H11494   2.250   1.426  14.120 -0.7127 -1.0249 -1.3421
  779MPD2    H111495   1.870   1.614  14.041 -1.1112 -1.0178 -1.1369
  779MPD2    H211496   1.904   1.207  14.029 -1.2084  0.6038 -0.1261
  779MPD2    H311497   1.781   1.402  13.993  0.0597  0.1608  1.1991
  779MPD2     N11498   2.156   1.656  14.100  0.4717 -0.3515 -0.0667
  779MPD2    H511499   2.256   1.642  14.108  0.1498 -2.7572 -0.2960
  779MPD2    N111500   2.171   1.178  14.110 -0.3779  0.0123  0.3949
  779MPD2    H711501   2.270   1.196  14.125 -0.0802  0.6429 -2.2112
  780MPD2     C11502   2.408   0.443   0.631  0.1474 -0.6643 -0.7486
  780MPD2    C111503   2.321   0.543   0.661 -0.4144 -0.8193  0.5174
  780MPD2    C211504   2.263   0.599   0.555 -0.8178  0.3996 -0.3934
  780MPD2    C311505   2.287   0.562   0.425 -0.0921 -0.2326 -0.0068
  780MPD2    C411506   2.378   0.462   0.400 -0.0934 -0.0999 -0.5087
  780MPD2    C511507   2.444   0.407   0.507 -0.1295 -0.1366 -0.2956
  780MPD2     H11508   2.182   0.671   0.569  0.1988  1.5932 -0.6473
  780MPD2    H111509   2.414   0.432   0.302  1.1192  1.0062 -0.3963
  780MPD2    H211510   2.455   0.390   0.714  1.2249  0.3511 -0.7086
  780MPD2    H311511   2.529   0.344   0.484 -0.9694 -1.3757 -0.0395
  780MPD2     N11512   2.206   0.629   0.328  0.5173  0.8526  0.3116
  780MPD2    H511513   2.148   0.703   0.366  0.9562  2.3126 -1.8572
  780MPD2    N111514   2.295   0.572   0.798 -0.0076  0.2101 -0.0225
  780MPD2    H711515   2.350   0.521   0.865  1.9224  1.2350 -0.8350
  781MPD2     C11516   3.786   2.609  12.067  0.1924  0.7471 -0.4346
  781MPD2    C111517   3.889   2.686  12.128 -0.4418 -0.0700  0.6108
  781MPD2    C211518   3.954   2.783  12.050 -0.0584 -0.0351  0.0041
  781MPD2    C311519   3.932   2.794  11.917  0.3548  0.0060  0.0524
  781MPD2    C411520   3.828   2.730  11.862 -0.0233 -0.5250 -0.4442
  781MPD2    C511521   3.762   2.635  11.934 -1.1172  0.0248  0.1833
  781MPD2     H11522   4.017   2.853  12.104  2.8841 -0.4669 -2.8789
  781MPD2    H111523   3.812   2.753  11.757 -0.5779 -0.8271 -0.4217
  781MPD2    H211524   3.732   2.528  12.114  2.0111 -0.9286 -1.2471
  781MPD2    H311525   3.674   2.593  11.886 -0.6372  0.8454 -1.4044
  781MPD2     N11526   4.002   2.875  11.826  0.3770  0.3802 -0.1731
  781MPD2    H511527   3.955   2.895  11.739  0.8480 -0.9916 -0.7393
  781MPD2    N111528   3.927   2.673  12.264  0.3500 -0.0964  0.2946
  781MPD2    H711529   4.013   2.716  12.297  0.3506  0.0917  0.0522
  782MPD2     C11530   1.222   3.721  10.286  0.3975 -0.0250  0.9373
  782MPD2    C111531   1.338   3.708  10.356  0.2798  0.2598 -0.5890
  782MPD2    C211532   1.417   3.820  10.384 -0.0688  0.2117  1.1974
  782MPD2    C311533   1.381   3.944  10.328 -0.4748  0.1573 -0.1957
  782MPD2    C411534   1.266   3.955  10.256 -0.2867  0.1102 -0.2053
  782MPD2    C511535   1.186   3.845  10.243 -0.1511  0.4097  0.2345
  782MPD2     H11536   1.506   3.805  10.445  1.0088  0.0041 -0.4377
  782MPD2    H111537   1.244   4.056  10.223 -0.9679  0.9778  2.9180
  782MPD2    H211538   1.153   3.639  10.270 -0.6179  0.9137  0.4460
  782MPD2    H311539   1.087   3.857  10.200  0.5152  0.8433 -1.1592
  782MPD2     N11540   1.481   4.043  10.340 -0.5866  0.3235 -0.5189
  782MPD2    H511541   1.567   4.016  10.386 -0.3302 -1.5263 -2.0852
  782MPD2    N111542   1.374   3.576  10.391 -0.1892 -0.2502  0.2169
  782MPD2    H711543   1.301   3.506  10.392 -0.4048 -0.0060  1.4729
  783MPD2     C11544   1.050   3.019  11.108  1.3141 -0.2159 -0.1751
  783MPD2    C111545   1.150   3.105  11.151  0.3701  0.6896 -0.7585
  783MPD2    C211546   1.235   3.163  11.056  0.3152  0.5725 -0.5331
  783MPD2    C311547   1.221   3.135  10.922  0.0077 -0.7191  0.3667
  783MPD2    C411548   1.120   3.050  10.886  0.2108 -0.0859  0.4711
  783MPD2    C511549   1.040   2.987  10.975 -0.2291 -0.0034 -0.4065
  783MPD2     H11550   1.322   3.221  11.085  0.6585 -0.5066  0.6050
  783MPD2    H111551   1.119   3.013  10.784 -3.3412  0.6059  0.2400
  783MPD2    H211552   0.976   2.971  11.172  1.4437 -0.9258 -0.5638
  783MPD2    H311553   0.964   2.914  10.947  0.9775 -1.6979  0.7086
  783MPD2     N11554   1.318   3.189  10.841 -0.1429  0.5289 -0.3562
  783MPD2    H511555   1.399   3.222  10.893 -0.5713  0.2394  0.5038
  783MPD2    N111556   1.157   3.144  11.287  0.9202 -0.4245 -0.1092
  783MPD2    H711557   1.104   3.090  11.354  2.8990 -1.2793  0.7852
  784MPD2     C11558   3.686   3.453   1.217  0.4037 -0.3459  0.3380
  784MPD2    C111559   3.682   3.541   1.109 -0.5147 -0.7288 -0.3446
  784MPD2    C211560   3.568   3.602   1.082 -0.1964  0.1212 -0.8429
  784MPD2    C311561   3.455   3.592   1.165  0.4206  0.0505 -0.2048
  784MPD2    C411562   3.464   3.496   1.265 -0.0029  0.0909 -0.2638
  784MPD2    C511563   3.577   3.423   1.287  1.0208 -0.0245  0.5177
  784MPD2     H11564   3.562   3.684   1.012  0.2930  1.4778  0.7066
  784MPD2    H111565   3.385   3.499   1.339 -0.3075  0.7967 -0.6205
  784MPD2    H211566   3.775   3.398   1.244  1.3202  1.0117  0.0529
  784MPD2    H311567   3.580   3.356   1.372 -1.9859  1.0280  1.4250
  784MPD2     N11568   3.348   3.681   1.145 -0.2936  0.4392  0.0041
  784MPD2    H511569   3.355   3.739   1.062  0.1194  2.1648  1.2330
  784MPD2    N111570   3.787   3.569   1.026  0.1186 -0.0451 -0.4808
  784MPD2    H711571   3.771   3.638   0.953 -1.1405  0.4909  0.3168
  785MPD2     C11572   4.214   2.456  10.065  0.5624  0.2251  0.5883
  785MPD2    C111573   4.133   2.538   9.994  0.8250 -0.3302 -0.5247
  785MPD2    C211574   4.156   2.568   9.858  0.0997 -0.4607  0.1329
  785MPD2    C311575   4.265   2.520   9.790  0.1441 -0.1459  0.2047
  785MPD2    C411576   4.340   2.428   9.857 -0.2949 -0.3784  0.1148
  785MPD2    C511577   4.323   2.410   9.993  0.4681 -0.8522 -0.7074
  785MPD2     H11578   4.093   2.637   9.803 -0.1962 -1.4644 -0.7767
  785MPD2    H111579   4.421   2.372   9.812 -1.0040 -0.9012 -0.5176
  785MPD2    H211580   4.222   2.430  10.169 -1.9237 -1.4705  0.3579
  785MPD2    H311581   4.392   2.344  10.045  3.5212 -0.5752 -4.4676
  785MPD2     N11582   4.279   2.552   9.652 -0.5418  0.1940 -0.2140
  785MPD2    H511583   4.213   2.620   9.618  1.2804  1.3500 -1.4285
  785MPD2    N111584   4.022   2.604  10.049  0.0303 -0.5087  0.5454
  785MPD2    H711585   3.971   2.659   9.981 -0.5695 -0.3600  1.1058
  786MPD2     C11586   3.100   0.660  14.660 -0.1428  0.2376 -0.3745
  786MPD2    C111587   3.017   0.561  14.716 -0.5558  0.0716  0.0851
  786MPD2    C211588   2.996   0.563  14.855 -0.6472  0.1350 -0.2270
  786MPD2    C311589   3.074   0.651  14.935 -0.2614  0.4304  0.6328
  786MPD2    C411590   3.148   0.755  14.876 -0.2193  0.3287 -0.6217
  786MPD2    C511591   3.169   0.749  14.741 -0.0535  0.5563  0.3197
  786MPD2     H11592   2.928   0.493  14.903  1.0039 -0.4901  1.2172
  786MPD2    H111593   3.197   0.834  14.931  1.1166 -0.9284 -0.0263
  786MPD2    H211594   3.135   0.668  14.558 -1.8868  1.0783 -0.8998
  786MPD2    H311595   3.238   0.815  14.689  0.1263 -1.2110 -1.6644
  786MPD2     N11596   3.070   0.659  15.074  0.4740  0.0932 -0.1737
  786MPD2    H511597   3.139   0.719  15.118  2.4590 -0.1244 -2.9512
  786MPD2    N111598   2.967   0.459  14.640  0.1042  0.9818 -0.0553
  786MPD2    H711599   2.908   0.389  14.684  1.2996  0.5157  0.8018
  787MPD2     C11600   2.822   4.594  14.828 -0.3556 -0.4781 -0.0590
  787MPD2    C111601   2.911   4.602  14.722  0.5137 -0.0795  0.1802
  787MPD2    C211602   3.021   4.518  14.714  0.2830  0.7215 -0.4796
  787MPD2    C311603   3.056   4.440  14.823 -0.2501  0.6537  0.8904
  787MPD2    C411604   2.975   4.445  14.930  0.4662 -0.6220  0.1876
  787MPD2    C511605   2.862   4.520  14.935  0.8693  0.6179  0.2236
  787MPD2     H11606   3.086   4.523  14.628  0.2672 -0.1711 -0.5345
  787MPD2    H111607   2.989   4.387  15.021  2.8873  1.2522  1.0074
  787MPD2    H211608   2.725   4.642  14.829 -0.2137 -0.1589 -1.8558
  787MPD2    H311609   2.794   4.512  15.019  0.8364  1.8183  0.3081
  787MPD2     N11610   3.172   4.354  14.814 -0.5934  0.2073 -0.1621
  787MPD2    H511611   3.233   4.354  14.733  0.2172 -2.9007  0.4474
  787MPD2    N111612   2.874   4.695  14.620  0.0256 -0.2557 -0.2342
  787MPD2    H711613   2.790   0.027  14.627 -0.0664 -0.0622 -2.6695
  788MPD2     C11614   0.276   2.671   0.933  0.3799 -0.7396 -0.3885
  788MPD2    C111615   0.228   2.630   0.812 -0.1090  0.3060  0.4423
  788MPD2    C211616   0.195   2.725   0.719 -0.0550 -0.4282 -0.6429
  788MPD2    C311617   0.187   2.864   0.748  0.4713 -0.0817  0.3768
  788MPD2    C411618   0.219   2.898   0.881  0.2007 -0.1228  0.2666
  788MPD2    C511619   0.257   2.801   0.972  0.3576  0.1823 -0.1032
  788MPD2     H11620   0.161   2.689   0.622  1.2111 -1.8029 -0.5880
  788MPD2    H111621   0.220   3.002   0.912  1.1029 -0.0115 -0.1565
  788MPD2    H211622   0.317   2.604   1.007  1.0179 -0.9304 -0.9083
  788MPD2    H311623   0.287   2.831   1.072  0.5070  1.1197 -0.4229
  788MPD2     N11624   0.178   2.971   0.659  0.1083  0.5583 -0.1176
  788MPD2    H511625   0.164   3.065   0.696 -1.2032 -0.2244  1.3650
  788MPD2    N111626   0.235   2.498   0.766  0.2519 -0.0579  0.4204
  788MPD2    H711627   0.207   2.482   0.669  1.3628 -2.0126  0.4159
  789MPD2     C11628   0.575   2.720  16.545  0.6345 -0.4790 -0.4568
  789MPD2    C111629   0.509   2.731  16.663  0.7637 -0.3339 -0.2813
  789MPD2    C211630   0.463   2.854  16.700 -0.2039 -0.0167 -0.4751
  789MPD2    C311631   0.485   2.968  16.618  0.4152 -0.1905 -0.6198
  789MPD2    C411632   0.541   2.955  16.492  0.4228  0.1980  0.2196
  789MPD2    C511633   0.593   2.831  16.465  0.1137  0.1370 -0.4185
  789MPD2     H11634   0.414   2.872  16.795  0.5569 -0.8547  0.0697
  789MPD2    H111635   0.545   3.039  16.425 -0.2031  0.6201  0.7093
  789MPD2    H211636   0.596   2.622  16.503  1.0227 -1.6158  2.3502
  789MPD2    H311637   0.630   2.818  16.364  1.5539  2.1245 -0.1328
  789MPD2     N11638   0.418   3.085  16.666  0.2111  0.1301  0.2955
  789MPD2    H511639   0.391   3.097  16.764 -1.8372 -2.0319  0.0105
  789MPD2    N111640   0.498   2.616  16.741 -0.1094  0.6154  0.1071
  789MPD2    H711641   0.437   2.635  16.819 -2.4895  2.4977 -2.2113
  790MPD2     C11642   1.296   4.417  13.465 -0.4722 -0.3354 -0.2312
  790MPD2    C111643   1.361   4.531  13.432 -0.4204 -0.0682  0.5575
  790MPD2    C211644   1.369   4.575  13.302  0.4184  0.1798  0.7698
  790MPD2    C311645   1.302   4.502  13.204  0.4208 -0.3034 -0.4087
  790MPD2    C411646   1.240   4.382  13.239 -0.0835  0.0325  0.0689
  790MPD2    C511647   1.236   4.343  13.375 -0.0405 -0.4659  0.2964
  790MPD2     H11648   1.423   4.660  13.263 -1.1577  1.7481  2.0025
  790MPD2    H111649   1.195   4.317  13.165  0.9283  1.3855 -1.7214
  790MPD2    H211650   1.287   4.378  13.566  0.4375  0.0172 -0.0170
  790MPD2    H311651   1.171   4.259  13.400 -0.7107  0.3265  1.1889
  790MPD2     N11652   1.293   4.553  13.069  0.3474 -0.3423 -0.1845
  790MPD2    H511653   1.350   4.634  13.049  2.7654 -1.9432  0.3154
  790MPD2    N111654   1.425   4.593  13.540  0.5864 -0.2596 -0.3246
  790MPD2    H711655   1.416   4.548  13.630  1.4952 -2.2098 -1.2148
  791MPD2     C11656   0.820   0.123  12.304 -0.7173  0.0269 -0.4111
  791MPD2    C111657   0.830   0.031  12.411 -0.0048  0.6244 -0.5140
  791MPD2    C211658   0.729   4.667  12.407 -0.1270  0.5858 -0.4596
  791MPD2    C311659   0.620   4.670  12.319 -0.3055 -0.2339 -0.1214
  791MPD2    C411660   0.599   0.050  12.236  0.0780 -0.6450  0.0334
  791MPD2    C511661   0.708   0.139  12.229 -0.2255  0.2358 -0.4640
  791MPD2     H11662   0.741   4.580  12.471  0.7371 -0.6655 -2.2927
  791MPD2    H111663   0.512   0.077  12.176  0.9956 -0.1360 -1.0637
  791MPD2    H211664   0.897   0.199  12.301  0.3752 -1.1199 -1.1993
  791MPD2    H311665   0.701   0.227  12.166 -1.1685  1.2286  1.0309
  791MPD2     N11666   0.530   4.568  12.342 -0.0050  0.0728  0.0926
  791MPD2    H511667   0.549   4.494  12.408  0.1042  1.1115  1.2092
  791MPD2    N111668   0.944   0.020  12.493 -0.2446  0.3164 -0.5312
  791MPD2    H711669   1.012   0.093  12.476  0.0050 -0.1172 -1.4290
  792MPD2     C11670   1.739   0.018  11.120  0.6797 -0.5007  0.5406
  792MPD2    C111671   1.636   0.082  11.044 -0.0376 -0.2554 -0.2591
  792MPD2    C211672   1.559   4.725  10.960  0.2795  0.4764 -0.6259
  792MPD2    C311673   1.588   4.589  10.946  0.2674 -0.2640 -0.1772
  792MPD2    C411674   1.697   4.538  11.013 -0.4914  0.2744  0.2258
  792MPD2    C511675   1.780   4.610  11.097  0.3190  0.3826  0.0068
  792MPD2     H11676   1.467   0.037  10.916 -0.3446 -1.2985 -0.8508
  792MPD2    H111677   1.710   4.431  11.021  1.1276  0.4129 -0.4385
  792MPD2    H211678   1.781   0.075  11.202  0.7542  0.4180 -0.1431
  792MPD2    H311679   1.845   4.568  11.173  0.8604  0.9463 -0.1440
  792MPD2     N11680   1.499   4.503  10.878 -0.8388  0.6478  0.3242
  792MPD2    H511681   1.525   4.405  10.875 -0.3353  0.7466  1.7554
  792MPD2    N111682   1.622   0.218  11.059 -0.5795 -0.2451 -0.0035
  792MPD2    H711683   1.690   0.270  11.114 -0.3969 -0.9598  0.4394
  793MPD2     C11684   0.894   4.457  10.003 -0.5099  0.7809 -0.1133
  793MPD2    C111685   0.981   4.555  10.031  0.2568 -0.6924  0.2175
  793MPD2    C211686   1.058   4.545  10.150  0.1712 -0.6445  0.7280
  793MPD2    C311687   1.055   4.438  10.236  0.3528 -0.2847  0.6398
  793MPD2    C411688   0.957   4.342  10.205  0.3148 -0.0802 -0.3275
  793MPD2    C511689   0.875   4.357  10.094 -0.3058 -0.2006  0.1596
  793MPD2     H11690   1.124   4.629  10.168 -0.5602 -0.2307  1.4881
  793MPD2    H111691   0.937   4.249  10.258  0.5767  2.1830  3.7626
  793MPD2    H211692   0.831   4.455   9.915  0.5048 -0.8583 -0.8014
  793MPD2    H311693   0.795   4.287  10.073 -1.8213  1.9006 -1.0479
  793MPD2     N11694   1.129   4.439  10.358  0.4095  0.2649  0.0095
  793MPD2    H511695   1.186   4.522  10.376  2.2958 -1.1086  0.3785
  793MPD2    N111696   0.987   4.675   9.957 -0.0073 -0.1038 -0.1901
  793MPD2    H711697   1.066   0.012   9.969 -1.0574  1.7754 -2.8952
  794MPD2     C11698   0.299   3.697  17.347  0.4740  0.0450  0.3645
  794MPD2    C111699   0.412   3.747  17.407 -0.4920  0.3837 -0.7847
  794MPD2    C211700   0.503   3.818  17.332 -0.5971  0.1691 -0.3249
  794MPD2    C311701   0.483   3.829  17.193  0.2263 -0.4439  0.2833
  794MPD2    C411702   0.366   3.775  17.136  0.4829 -0.2046 -0.5116
  794MPD2    C511703   0.279   3.709  17.220  0.7214 -0.7887  0.5052
  794MPD2     H11704   0.589   3.858  17.385  0.4141 -0.7256 -1.2908
  794MPD2    H111705   0.332   3.792  17.035  0.8305 -0.1648 -0.6234
  794MPD2    H211706   0.217   3.658  17.407 -0.3194  2.2153  0.6763
  794MPD2    H311707   0.186   3.671  17.181  0.9814  0.1529 -1.0670
  794MPD2     N11708   0.570   3.904  17.103  0.5851 -0.4148 -0.4344
  794MPD2    H511709   0.552   3.909  17.004  2.2867 -1.0531 -0.7773
  794MPD2    N111710   0.438   3.733  17.546 -0.3046 -0.0978 -1.0535
  794MPD2    H711711   0.508   3.802  17.572 -1.7189  0.0403  2.3250
  795MPD2     C11712   3.865   1.591  12.888  0.6441  1.0020  0.1718
  795MPD2    C111713   3.903   1.491  12.981 -0.1130 -0.2217 -0.8002
  795MPD2    C211714   4.024   1.422  12.956  0.6600 -0.2276 -0.0208
  795MPD2    C311715   4.108   1.449  12.852 -0.1061  0.0178 -0.2585
  795MPD2    C411716   4.069   1.551  12.767  0.4895  0.0118  0.0112
  795MPD2    C511717   3.950   1.617  12.782  0.2017 -0.1820  0.3907
  795MPD2     H11718   4.065   1.349  13.026 -1.6047 -0.4392  1.1133
  795MPD2    H111719   4.135   1.594  12.693  2.5550 -0.1834  1.7443
  795MPD2    H211720   3.782   1.658  12.908  0.3143  0.3640  0.9227
  795MPD2    H311721   3.935   1.705  12.720 -2.0937 -1.1887 -0.4865
  795MPD2     N11722   4.234   1.388  12.851 -0.0595  0.0115  0.3016
  795MPD2    H511723   4.250   1.313  12.918  4.0294 -0.2720 -0.9243
  795MPD2    N111724   3.830   1.461  13.099  0.2210 -0.2310  0.1912
  795MPD2    H711725   3.858   1.383  13.158 -0.5697  0.5269  1.5590
  796MPD2     C11726   3.088   2.549  15.836  0.2020  0.5155  0.2842
  796MPD2    C111727   3.158   2.617  15.928  0.3001  0.0569  0.2111
  796MPD2    C211728   3.149   2.756  15.922 -0.3904  0.0022 -0.3796
  796MPD2    C311729   3.091   2.831  15.825  0.2265 -0.3404  0.5476
  796MPD2    C411730   3.014   2.754  15.735  0.1302 -0.6457  0.4358
  796MPD2    C511731   3.022   2.619  15.741  0.0477  0.3852  0.8507
  796MPD2     H11732   3.198   2.825  15.991 -0.3307  0.3390 -0.7545
  796MPD2    H111733   2.962   2.792  15.648 -0.4196 -0.5906  0.7933
  796MPD2    H211734   3.099   2.441  15.841  0.1570  0.5027  0.0737
  796MPD2    H311735   2.965   2.571  15.661 -0.1839 -0.3859  1.4804
  796MPD2     N11736   3.091   2.970  15.825  0.6007  0.0437  0.0644
  796MPD2    H511737   3.145   3.002  15.905  2.8866 -0.1001 -1.4327
  796MPD2    N111738   3.224   2.542  16.031  0.0153 -0.6139  0.0400
  796MPD2    H711739   3.228   2.442  16.015  1.0996 -0.5703  0.0655
  797MPD2     C11740   4.351   1.776  17.177  0.2472 -0.2090 -0.3664
  797MPD2    C111741   4.395   1.893  17.229 -0.7577 -0.5051 -0.1761
  797MPD2    C211742   4.310   2.000  17.238  0.0850  0.3852 -0.0285
  797MPD2    C311743   4.182   2.005  17.186 -0.3150  0.4466  0.0958
  797MPD2    C411744   4.141   1.886  17.133 -0.6923  0.5204 -0.2266
  797MPD2    C511745   4.225   1.777  17.119 -0.0314  0.3511  0.5563
  797MPD2     H11746   4.346   2.092  17.283 -0.3498 -0.5063  2.1303
  797MPD2    H111747   4.035   1.880  17.113 -0.8178 -0.9746  0.9411
  797MPD2    H211748   4.404   1.682  17.168  2.2506  1.1845 -3.1216
  797MPD2    H311749   4.179   1.692  17.070 -0.6358  1.6241 -1.1261
  797MPD2     N11750   4.110   2.122  17.211 -1.0143 -0.7080 -0.3443
  797MPD2    H511751   4.163   2.197  17.256  0.2093 -2.3170  0.9058
  797MPD2    N111752   4.531   1.916  17.268 -0.1682 -0.6398  0.7164
  797MPD2    H711753   4.558   2.011  17.293  1.0582 -0.2574 -2.1339
  798MPD2     C11754   4.512   2.639  17.453 -0.6298 -0.3312  0.1777
  798MPD2    C111755   4.435   2.529  17.429  0.4802 -0.0631 -0.0394
  798MPD2    C211756   4.501   2.402  17.418 -0.2801  0.8039  0.3854
  798MPD2    C311757   4.636   2.399  17.441  0.3332 -0.5046 -0.7150
  798MPD2    C411758   4.705   2.507  17.478  0.1885 -1.4028  0.3481
  798MPD2    C511759   4.647   2.626  17.463 -0.1035 -0.6116 -0.6083
  798MPD2     H11760   4.447   2.312  17.391  1.9455 -0.0067 -1.3097
  798MPD2    H111761   0.087   2.509  17.489  0.2163 -0.8940  0.0018
  798MPD2    H211762   4.465   2.736  17.463 -1.8657 -0.8905 -0.2559
  798MPD2    H311763   4.707   2.715  17.479 -1.5230  0.2850 -0.2644
  798MPD2     N11764   4.699   2.277  17.423 -0.2118  0.3181 -0.5012
  798MPD2    H511765   4.636   2.213  17.375  0.9074  0.3164 -1.9696
  798MPD2    N111766   4.295   2.545  17.401 -0.5750  0.0437  0.4737
  798MPD2    H711767   4.249   2.635  17.410  1.7644  1.2936 -0.0382
  799MPD2     C11768   3.407   4.215  14.435 -0.4488 -0.8237  0.2575
  799MPD2    C111769   3.313   4.129  14.383  0.4116  0.3429 -0.6381
  799MPD2    C211770   3.185   4.167  14.375 -0.7369  0.5043  0.8922
  799MPD2    C311771   3.156   4.301  14.387  1.3979  0.4327 -0.1796
  799MPD2    C411772   3.247   4.386  14.444  0.2730  0.5503 -0.3480
  799MPD2    C511773   3.373   4.341  14.459  0.5983 -0.2097  0.2274
  799MPD2     H11774   3.116   4.094  14.334  1.5175 -0.0772 -1.7933
  799MPD2    H111775   3.225   4.492  14.450  1.1252  0.5386  3.3497
  799MPD2    H211776   3.507   4.179  14.455 -0.2319 -0.4387 -0.1357
  799MPD2    H311777   3.449   4.413  14.489 -0.4476  0.8699  0.2660
  799MPD2     N11778   3.037   4.356  14.349 -0.0467  0.0942 -0.0587
  799MPD2    H511779   3.026   4.456  14.363 -3.0155 -0.2953  0.3312
  799MPD2    N111780   3.343   3.999  14.344 -0.2063  0.3863 -0.0600
  799MPD2    H711781   3.273   3.942  14.297 -1.0984 -0.4072  2.2250
  800MPD2     C11782   3.938   1.120  14.163  0.3252  0.4006  0.5449
  800MPD2    C111783   4.042   1.139  14.083  0.4663 -0.7392 -0.1242
  800MPD2    C211784   4.078   1.042  13.986 -0.1959  0.1428  0.1132
  800MPD2    C311785   4.010   0.923  13.970  1.0501 -0.7183 -0.0891
  800MPD2    C411786   3.907   0.905  14.062  0.0248 -0.8789 -0.7695
  800MPD2    C511787   3.877   1.000  14.156  0.2224  0.5187 -0.6177
  800MPD2     H11788   4.158   1.064  13.916 -1.2492 -1.8272 -1.6978
  800MPD2    H111789   3.844   0.816  14.061  0.4733 -1.1945 -3.0436
  800MPD2    H211790   3.906   1.192  14.237 -0.4586  0.4221  0.1834
  800MPD2    H311791   3.793   0.985  14.223  1.7078 -1.6040  0.7737
  800MPD2     N11792   4.062   0.831  13.875  0.0844  0.2035 -0.9788
  800MPD2    H511793   4.140   0.857  13.816 -1.3209  1.5242 -2.2712
  800MPD2    N111794   4.116   1.263  14.101  0.5199  0.0450 -0.3200
  800MPD2    H711795   4.087   1.329  14.173  0.5756 -0.4972  0.2061
  801MPD2     C11796   4.050   1.559  14.655  0.5654 -0.2776  0.4366
  801MPD2    C111797   4.031   1.505  14.536  0.1784 -0.1440  0.0033
  801MPD2    C211798   3.913   1.436  14.516 -0.3810 -0.3633  0.2766
  801MPD2    C311799   3.835   1.407  14.625  0.3716  0.0673  0.3377
  801MPD2    C411800   3.850   1.464  14.752 -0.0149  0.4955 -0.1393
  801MPD2    C511801   3.968   1.539  14.762  0.1902 -0.0719  0.5431
  801MPD2     H11802   3.892   1.398  14.417 -0.5955 -1.9517  0.9285
  801MPD2    H111803   3.788   1.435  14.836 -0.4738  1.7249 -0.0529
  801MPD2    H211804   4.142   1.612  14.676  0.4035 -0.4131  1.4545
  801MPD2    H311805   3.997   1.557  14.865  1.6002  0.6079  0.0350
  801MPD2     N11806   3.719   1.332  14.599 -0.2720  0.4570  0.1087
  801MPD2    H511807   3.668   1.299  14.679 -0.2125 -1.9264 -0.8410
  801MPD2    N111808   4.124   1.514  14.433  0.1009 -0.5291 -0.8480
  801MPD2    H711809   4.094   1.502  14.336  1.8930  0.4863 -1.5259
  802MPD2     C11810   3.127   1.245   0.296 -0.7969  0.1692 -0.0389
  802MPD2    C111811   3.011   1.254   0.229  0.3527 -0.8881  1.2619
  802MPD2    C211812   3.010   1.218   0.093  0.4489  0.6138  0.4429
  802MPD2    C311813   3.111   1.141   0.039 -0.2359 -0.6319 -0.7073
  802MPD2    C411814   3.221   1.107   0.119 -0.4133  0.2690 -0.4001
  802MPD2    C511815   3.228   1.164   0.245 -0.1520  0.4073  0.1070
  802MPD2     H11816   2.919   1.227   0.036  1.3209  0.2322 -0.9887
  802MPD2    H111817   3.305   1.048   0.086 -1.5130 -2.8646  2.3780
  802MPD2    H211818   3.132   1.265   0.403  2.0642 -0.7267 -0.0013
  802MPD2    H311819   3.313   1.132   0.303  0.4109  0.4238 -0.7111
  802MPD2     N11820   3.096   1.093  17.610 -0.4202 -0.0100 -0.0011
  802MPD2    H511821   3.019   1.120  17.550 -2.1254 -1.3864  1.5507
  802MPD2    N111822   2.894   1.312   0.276 -0.3071 -0.5390 -0.0423
  802MPD2    H711823   2.818   1.309   0.210 -0.3795  0.2563 -0.0019
  803MPD2     C11824   4.129   0.319  11.537 -0.0589 -0.1745  0.2003
  803MPD2    C111825   4.218   0.301  11.643 -0.0609  0.0916  0.2576
  803MPD2    C211826   4.159   0.238  11.755  0.1735  0.1881 -0.2547
  803MPD2    C311827   4.030   0.189  11.766  0.9650 -0.7192 -0.0146
  803MPD2    C411828   3.945   0.213  11.655 -0.0570  0.0265  0.0765
  803MPD2    C511829   3.994   0.280  11.543 -0.3745 -0.0650 -0.0687
  803MPD2     H11830   4.230   0.215  11.833  1.2556  1.8602 -0.7200
  803MPD2    H111831   3.840   0.185  11.651  0.2970 -1.1394 -1.3859
  803MPD2    H211832   4.152   0.378  11.449  0.7010 -1.0211 -0.1670
  803MPD2    H311833   3.923   0.303  11.464 -0.7622 -1.2368 -0.0673
  803MPD2     N11834   3.977   0.121  11.876 -0.1331  0.0176 -0.0687
  803MPD2    H511835   3.877   0.104  11.877 -0.1898  0.4230  1.5773
  803MPD2    N111836   4.345   0.355  11.648  0.0580 -0.5260  0.3539
  803MPD2    H711837   4.398   0.350  11.734  0.0925  2.6380  0.5037
  804MPD2     C11838   3.411   0.908  17.054  0.2582 -0.4784  0.7336
  804MPD2    C111839   3.436   0.847  17.179  0.1963  0.3269 -0.0281
  804MPD2    C211840   3.475   0.932  17.283 -0.0674 -0.5860 -0.0742
  804MPD2    C311841   3.496   1.072  17.269 -0.0490  0.7064 -0.1356
  804MPD2    C411842   3.473   1.121  17.143 -0.0753  0.1461  0.7367
  804MPD2    C511843   3.430   1.043  17.035 -0.4981 -0.5267 -0.1908
  804MPD2     H11844   3.491   0.886  17.380 -2.0620 -2.1468 -0.4778
  804MPD2    H111845   3.513   1.216  17.109 -1.6871  0.4252 -0.3682
  804MPD2    H211846   3.372   0.846  16.973  0.2408  0.0003  0.3773
  804MPD2    H311847   3.417   1.087  16.936  0.6149  0.6941  0.2017
  804MPD2     N11848   3.566   1.144  17.374  0.2019 -0.0298  0.2253
  804MPD2    H511849   3.588   1.088  17.456 -2.5468 -0.7375  0.4870
  804MPD2    N111850   3.423   0.710  17.210 -0.0496  0.6069  0.2687
  804MPD2    H711851   3.428   0.686  17.309  0.8189 -0.9226 -0.1406
  805MPD2     C11852   2.560   3.653  15.307 -0.0043  0.0487  0.2443
  805MPD2    C111853   2.621   3.747  15.230  0.5840  0.3120  0.5603
  805MPD2    C211854   2.739   3.804  15.265 -0.3407  0.0586 -0.4516
  805MPD2    C311855   2.814   3.744  15.365  0.2861  0.2192  0.2470
  805MPD2    C411856   2.762   3.639  15.443 -0.9535  0.2826  0.5836
  805MPD2    C511857   2.627   3.602  15.414  0.0068 -0.1347 -0.2263
  805MPD2     H11858   2.781   3.883  15.204  0.7469 -0.6208 -0.5913
  805MPD2    H111859   2.798   3.591  15.533 -3.3214  0.2735  1.5321
  805MPD2    H211860   2.458   3.625  15.284  0.1369  0.6035 -1.0419
  805MPD2    H311861   2.576   3.529  15.477 -1.0853  3.0353  2.5243
  805MPD2     N11862   2.942   3.795  15.392 -0.1340  0.2799 -0.3348
  805MPD2    H511863   2.959   3.877  15.334  1.4208 -0.7378 -1.3111
  805MPD2    N111864   2.558   3.798  15.113 -0.2905 -0.2291  0.7662
  805MPD2    H711865   2.622   3.860  15.066  0.2385  0.4140  2.3326
  806MPD2     C11866   3.143   2.430   0.188  0.4385  0.0141 -0.7702
  806MPD2    C111867   3.161   2.548   0.260 -0.7810 -0.0445  1.1456
  806MPD2    C211868   3.218   2.659   0.198  0.9404  0.0617  0.0596
  806MPD2    C311869   3.247   2.658   0.068 -0.1434  0.6679 -0.1918
  806MPD2    C411870   3.223   2.541  17.699 -0.6869  0.0665  0.0256
  806MPD2    C511871   3.170   2.426   0.055  0.3449 -0.3094 -0.1512
  806MPD2     H11872   3.257   2.749   0.245  2.0243  1.1970 -2.9967
  806MPD2    H111873   3.267   2.543  17.600 -0.9484 -0.8695 -0.1150
  806MPD2    H211874   3.105   2.342   0.238 -0.6598  0.9258  0.0205
  806MPD2    H311875   3.155   2.334   0.000  3.3084 -2.1658  2.1058
  806MPD2     N11876   3.316   2.771   0.015 -0.5689  0.0655  0.0078
  806MPD2    H511877   3.336   2.843   0.083  2.1135 -0.5011 -0.2054
  806MPD2    N111878   3.143   2.543   0.398  0.1433  1.1517 -0.4449
  806MPD2    H711879   3.121   2.451   0.436  3.0702  1.3291  1.6612
  807MPD2     C11880   2.913   2.099   0.965 -1.0965  0.2482 -0.1400
  807MPD2    C111881   3.053   2.109   0.949 -0.3055 -0.4254 -0.0527
  807MPD2    C211882   3.130   2.011   1.014 -0.0881 -0.3276  0.4271
  807MPD2    C311883   3.070   1.915   1.094  1.2577  0.0722 -0.0844
  807MPD2    C411884   2.932   1.905   1.109  0.1869 -0.3588  0.5433
  807MPD2    C511885   2.858   1.998   1.040  0.4083  0.2862 -0.2708
  807MPD2     H11886   3.238   2.012   1.020 -0.1797  0.3715  1.9719
  807MPD2    H111887   2.880   1.825   1.161  0.0336  0.1408  1.1449
  807MPD2    H211888   2.849   2.164   0.906  1.2266  0.8442 -2.0264
  807MPD2    H311889   2.751   1.986   1.050  0.7251 -1.2155  1.3773
  807MPD2     N11890   3.163   1.836   1.163 -0.1989  0.4581 -0.4880
  807MPD2    H511891   3.262   1.853   1.148 -0.2511  0.4665 -0.8316
  807MPD2    N111892   3.108   2.215   0.879 -0.1291 -0.2941 -0.7856
  807MPD2    H711893   3.209   2.219   0.874 -0.0212 -3.0768 -0.8638
  808MPD2     C11894   3.629   1.018  10.468 -0.0799  0.3787 -0.8162
  808MPD2    C111895   3.607   0.998  10.331 -0.5513  0.4237 -0.4008
  808MPD2    C211896   3.669   1.080  10.242  0.2565 -0.0862  0.9672
  808MPD2    C311897   3.750   1.183  10.282 -0.1083 -0.5926 -0.0814
  808MPD2    C411898   3.747   1.216  10.416  0.0720 -0.1323  0.2914
  808MPD2    C511899   3.691   1.129  10.507 -0.2737  0.2390  0.4933
  808MPD2     H11900   3.686   1.059  10.137  0.1780 -2.1696  1.3677
  808MPD2    H111901   3.812   1.294  10.454 -1.4851  1.0731  0.4597
  808MPD2    H211902   3.578   0.952  10.538  1.3109  1.1574  0.9498
  808MPD2    H311903   3.707   1.142  10.614  0.5830 -0.1665  0.4136
  808MPD2     N11904   3.829   1.246  10.182  0.8712 -0.4693  0.7990
  808MPD2    H511905   3.816   1.215  10.086 -0.3996  0.6224  0.6238
  808MPD2    N111906   3.518   0.892  10.292 -0.0729 -0.4493  0.4014
  808MPD2    H711907   3.456   0.843  10.356 -0.9527 -1.3850 -1.1989
  809MPD2     C11908   3.912   1.109   9.319  0.3130 -0.6874 -0.0212
  809MPD2    C111909   4.017   1.055   9.384  0.2541 -0.3453 -0.0622
  809MPD2    C211910   4.039   1.086   9.521  0.4157  0.4449  0.1390
  809MPD2    C311911   3.971   1.192   9.576 -0.0968  0.2088  0.0200
  809MPD2    C411912   3.868   1.247   9.510  0.2590  0.6786  0.2432
  809MPD2    C511913   3.845   1.206   9.384  0.3537 -0.4229 -0.2282
  809MPD2     H11914   4.122   1.040   9.574 -2.0762 -3.6375  0.5046
  809MPD2    H111915   3.816   1.328   9.561 -0.4154 -0.5276  1.4702
  809MPD2    H211916   3.888   1.093   9.214  1.3147 -0.4404 -0.2859
  809MPD2    H311917   3.769   1.257   9.326 -0.0343 -1.6927 -0.8562
  809MPD2     N11918   3.994   1.239   9.705 -0.4047 -0.2821 -0.5344
  809MPD2    H511919   3.914   1.290   9.740 -0.0432 -0.4660  0.5579
  809MPD2    N111920   4.093   0.954   9.317  0.3649  0.0233  0.0890
  809MPD2    H711921   4.158   0.912   9.383 -0.3068  0.0439  0.7608
  810MPD2     C11922   3.203   0.055  10.090 -0.5071 -0.7211 -0.2513
  810MPD2    C111923   3.157   4.714  10.200  0.6652 -0.1511  0.3939
  810MPD2    C211924   3.181   0.047  10.327 -0.2944  0.0331  0.2034
  810MPD2    C311925   3.230   0.179  10.325 -0.1882  0.6267 -0.0659
  810MPD2    C411926   3.279   0.242  10.212  0.0798 -0.5374  0.8617
  810MPD2    C511927   3.262   0.181  10.092 -0.0281  0.9462  0.5530
  810MPD2     H11928   3.141   4.720  10.414  1.0692  0.9224  1.3674
  810MPD2    H111929   3.328   0.338  10.223 -2.5515  0.9074 -0.0295
  810MPD2    H211930   3.186   0.015   9.991 -1.4353  0.7376 -0.6887
  810MPD2    H311931   3.290   0.236  10.004  1.6859 -0.3434  0.2873
  810MPD2     N11932   3.232   0.249  10.445  0.0126  0.0072  0.2007
  810MPD2    H511933   3.261   0.346  10.446  0.5019 -0.1499  1.1944
  810MPD2    N111934   3.079   4.599  10.180 -0.3977 -0.1311  0.0498
  810MPD2    H711935   3.071   4.564  10.085  0.6455 -0.6095  0.1366
  811MPD2     C11936   2.716   4.471   9.637 -0.0085  0.3236  0.2894
  811MPD2    C111937   2.717   4.562   9.738 -0.4611 -0.2240 -0.6238
  811MPD2    C211938   2.746   4.701   9.723  0.4291 -0.0969  0.2153
  811MPD2    C311939   2.753   0.025   9.600  0.1376 -0.4750 -0.0963
  811MPD2    C411940   2.758   4.659   9.492  0.0001  0.6605  0.1537
  811MPD2    C511941   2.747   4.523   9.517 -0.5725  0.2378  0.8219
  811MPD2     H11942   2.738   0.030   9.817 -2.3165  0.2003 -0.2009
  811MPD2    H111943   2.788   4.688   9.392  2.3452 -3.4617 -0.3168
  811MPD2    H211944   2.720   4.363   9.633 -0.1670  0.3248  0.1167
  811MPD2    H311945   2.772   4.456   9.436 -0.8601  0.7875  0.2788
  811MPD2     N11946   2.754   0.164   9.578 -0.2441 -0.0392  0.2307
  811MPD2    H511947   2.745   0.217   9.663  0.7564  0.3069  0.1168
  811MPD2    N111948   2.732   4.518   9.874  0.2559  0.1222 -0.6189
  811MPD2    H711949   2.756   4.589   9.942 -0.2738 -1.0146  0.7339
  812MPD2     C11950   2.203   0.226  11.962  0.2453  0.3522  0.0536
  812MPD2    C111951   2.170   0.294  12.074 -0.9460  0.4143 -0.5279
  812MPD2    C211952   2.168   0.224  12.196  0.2444  0.0020 -0.9798
  812MPD2    C311953   2.201   0.088  12.201  0.2043  0.0005 -0.5412
  812MPD2    C411954   2.230   0.027  12.081 -0.3364 -0.0330 -0.6941
  812MPD2    C511955   2.231   0.092  11.965  0.4431  0.4133  1.0817
  812MPD2     H11956   2.144   0.274  12.288 -0.6983  2.8522 -2.7839
  812MPD2    H111957   2.260   4.649  12.077 -0.8005 -0.1962 -0.0332
  812MPD2    H211958   2.212   0.289  11.873 -0.7367 -0.5980 -0.7178
  812MPD2    H311959   2.249   0.041  11.871 -2.9371 -1.3631  1.4067
  812MPD2     N11960   2.197   0.018  12.324 -0.0881  0.3590 -0.2786
  812MPD2    H511961   2.196   0.071  12.411  1.1063  2.0207 -1.2884
  812MPD2    N111962   2.141   0.432  12.064 -0.5179 -0.5001  0.4178
  812MPD2    H711963   2.145   0.469  11.970  0.1103 -1.2341  0.1471
  813MPD2     C11964   0.944   1.886  12.469  0.2212 -0.5320 -0.1999
  813MPD2    C111965   1.016   2.002  12.489 -0.4556 -0.2563  0.1284
  813MPD2    C211966   0.992   2.074  12.603 -0.1062  0.7913  0.8864
  813MPD2    C311967   0.920   2.022  12.709  0.5859 -0.1575  0.2725
  813MPD2    C411968   0.856   1.898  12.690 -1.0841  0.1704  0.5121
  813MPD2    C511969   0.868   1.832  12.567  0.1469  0.6130  0.7322
  813MPD2     H11970   1.035   2.173  12.607  0.4798  0.5097  1.6719
  813MPD2    H111971   0.813   1.844  12.774  2.4125 -0.5858  1.7888
  813MPD2    H211972   0.948   1.830  12.375  1.0066 -0.1648 -0.3785
  813MPD2    H311973   0.840   1.728  12.559  0.5299  0.5396  0.3453
  813MPD2     N11974   0.918   2.094  12.825 -0.3743 -0.4061  0.0954
  813MPD2    H511975   0.980   2.174  12.816 -0.4563 -0.4748 -1.1675
  813MPD2    N111976   1.101   2.047  12.373 -0.1961 -0.2628 -0.2139
  813MPD2    H711977   1.095   1.990  12.289 -0.2970  1.7916 -1.6261
  814MPD2     C11978   1.806   3.414  12.522 -0.4675  0.0071  0.4649
  814MPD2    C111979   1.850   3.409  12.392 -0.7470 -0.1203 -0.3381
  814MPD2    C211980   1.885   3.529  12.331  0.4572 -0.2681 -0.4597
  814MPD2    C311981   1.875   3.648  12.395  0.6826  0.0368 -0.0751
  814MPD2    C411982   1.826   3.651  12.528 -0.4461  0.6049  0.4638
  814MPD2    C511983   1.803   3.533  12.595  0.0365  0.0369 -0.1727
  814MPD2     H11984   1.909   3.524  12.226  0.1188  2.0197 -0.6639
  814MPD2    H111985   1.819   3.744  12.583 -1.4932  0.4969  0.5115
  814MPD2    H211986   1.779   3.323  12.575  0.0729 -0.2028  0.3773
  814MPD2    H311987   1.762   3.529  12.695 -1.8623 -0.4415 -0.9782
  814MPD2     N11988   1.937   3.767  12.346 -0.1640 -0.4446 -0.0245
  814MPD2    H511989   1.927   3.851  12.402 -4.2975 -0.2377 -1.0796
  814MPD2    N111990   1.862   3.299  12.310  0.2352 -0.2934  0.1023
  814MPD2    H711991   1.885   3.312  12.212  1.6896 -2.0819  0.2258
  815MPD2     C11992   2.257   2.079  11.782  0.7177 -1.0497  0.0341
  815MPD2    C111993   2.179   1.968  11.758  0.1003  0.1954  0.0251
  815MPD2    C211994   2.064   1.945  11.835 -0.3499  1.6860 -0.4029
  815MPD2    C311995   2.020   2.039  11.930 -0.3319  0.5105  1.0813
  815MPD2    C411996   2.097   2.154  11.946 -0.2089 -0.1535  0.0720
  815MPD2    C511997   2.216   2.172  11.874 -0.5862 -0.2286  0.7769
  815MPD2     H11998   1.994   1.863  11.825  1.0782  0.3423  0.4975
  815MPD2    H111999   2.066   2.228  12.020 -0.1225 -0.8708  0.8281
  815MPD2    H212000   2.349   2.103  11.730 -1.4671  3.5368 -1.7553
  815MPD2    H312001   2.267   2.267  11.886  0.7654 -0.7795 -0.6706
  815MPD2     N12002   1.900   2.000  11.990 -0.4142  0.2909  0.2110
  815MPD2    H512003   1.847   1.919  11.959  0.6151  0.4875 -2.0431
  815MPD2    N112004   2.229   1.867  11.667  1.2298 -0.6086 -0.3222
  815MPD2    H712005   2.317   1.890  11.621 -0.7233  1.1253 -3.1964
  816MPD2     C12006   2.546   0.363  16.958  0.2603 -0.7791 -0.3858
  816MPD2    C112007   2.449   0.303  16.876  0.1503 -0.9335  0.3888
  816MPD2    C212008   2.484   0.235  16.759  0.5304  0.2209  0.0030
  816MPD2    C312009   2.614   0.226  16.722 -0.1415 -0.5130  0.4691
  816MPD2    C412010   2.710   0.290  16.800 -0.0136 -0.0597 -0.4686
  816MPD2    C512011   2.677   0.354  16.915 -0.0280 -0.2690  0.0308
  816MPD2     H12012   2.416   0.191  16.687  1.9003 -0.3989 -0.9154
  816MPD2    H112013   2.811   0.302  16.763 -0.7880  1.2474 -2.1239
  816MPD2    H212014   2.525   0.398  17.059  0.8115  0.2965 -0.6412
  816MPD2    H312015   2.759   0.395  16.973  1.3924  0.3531 -2.4408
  816MPD2     N12016   2.642   0.172  16.598 -0.0771 -0.0866 -0.3743
  816MPD2    H512017   2.565   0.134  16.544  0.8534 -1.3665 -0.8036
  816MPD2    N112018   2.315   0.316  16.910  0.0695  0.4249  0.2372
  816MPD2    H712019   2.284   0.383  16.979 -0.6843  1.5363 -1.1921
  817MPD2     C12020   1.196   2.289   9.879 -0.2064 -1.0685 -0.1276
  817MPD2    C112021   1.194   2.234   9.752 -0.3144  0.6874 -0.4060
  817MPD2    C212022   1.116   2.300   9.658 -0.3804 -0.0423 -0.3695
  817MPD2    C312023   1.040   2.408   9.683 -0.1711  0.0888 -0.1372
  817MPD2    C412024   1.024   2.445   9.819 -0.3288 -0.3280 -0.4156
  817MPD2    C512025   1.106   2.387   9.913 -0.0305  0.0796  0.3184
  817MPD2     H12026   1.104   2.263   9.556 -0.1701  1.8041 -1.0577
  817MPD2    H112027   0.963   2.529   9.851  0.8243  0.6240 -0.7070
  817MPD2    H212028   1.257   2.237   9.952 -0.7701  0.2087  1.2518
  817MPD2    H312029   1.116   2.430  10.013 -0.3359  0.6745  0.0950
  817MPD2     N12030   0.987   2.479   9.573 -0.2929 -0.5554 -0.5395
  817MPD2    H512031   0.988   2.428   9.485 -2.7126 -1.6395  0.0503
  817MPD2    N112032   1.269   2.122   9.707  0.4674 -0.2979  0.4110
  817MPD2    H712033   1.260   2.105   9.607  0.9645  0.3117  0.2560
  818MPD2     C12034   0.860   2.294  10.233 -0.1535 -0.7900 -0.4828
  818MPD2    C112035   0.754   2.221  10.193  0.3160  0.0839  0.5068
  818MPD2    C212036   0.766   2.082  10.177  0.3601 -0.3266  0.0561
  818MPD2    C312037   0.882   2.020  10.214 -0.3253 -0.3828 -0.5618
  818MPD2    C412038   0.990   2.098  10.256 -0.2323 -0.5621  0.2230
  818MPD2    C512039   0.978   2.235  10.266 -0.1962 -0.0638 -0.1422
  818MPD2     H12040   0.679   2.022  10.156 -0.1073  0.0792  0.8420
  818MPD2    H112041   1.082   2.048  10.285  1.0413  0.7415 -1.6254
  818MPD2    H212042   0.855   2.398  10.263  1.1974 -1.3777  1.8679
  818MPD2    H312043   1.063   2.288  10.307 -0.2282 -1.7900  2.1461
  818MPD2     N12044   0.905   1.881  10.212 -0.3437  0.4222 -0.0960
  818MPD2    H512045   0.997   1.852  10.245 -1.2405 -0.7102  1.4271
  818MPD2    N112046   0.625   2.281  10.172  0.1592 -0.8411 -0.5066
  818MPD2    H712047   0.555   2.209  10.163 -2.0908  1.2528  0.3582
  819MPD2     C12048   3.725   3.923  15.399 -0.3979 -0.2543 -0.5887
  819MPD2    C112049   3.682   3.797  15.445  0.2184  0.5174  0.1714
  819MPD2    C212050   3.761   3.722  15.531 -0.0524 -0.0854 -0.1628
  819MPD2    C312051   3.876   3.781  15.574 -0.3037 -0.2323 -0.3184
  819MPD2    C412052   3.912   3.907  15.535  1.1030 -0.5384 -0.3999
  819MPD2    C512053   3.838   3.982  15.453  0.3582 -0.2629 -0.7525
  819MPD2     H12054   3.743   3.621  15.563 -0.8654 -0.4198 -1.6679
  819MPD2    H112055   4.000   3.957  15.573  2.4849 -2.1302 -1.4861
  819MPD2    H212056   3.683   3.976  15.314 -2.5024  1.2091  1.3708
  819MPD2    H312057   3.878   4.080  15.429  0.7217  0.0427  1.1190
  819MPD2     N12058   3.950   3.708  15.665  0.0148 -0.1211  0.5923
  819MPD2    H512059   3.937   3.611  15.689 -1.2458  0.2917  1.5930
  819MPD2    N112060   3.564   3.749  15.388 -0.0509  0.1183 -0.1705
  819MPD2    H712061   3.527   3.802  15.309 -0.4627  0.8461  0.5030
  820MPD2     C12062   3.083   3.934  14.674 -0.5903 -0.8101  0.2636
  820MPD2    C112063   2.993   3.903  14.776 -0.7619 -0.2011  0.3863
  820MPD2    C212064   3.041   3.854  14.894  0.6364 -0.2394  0.1445
  820MPD2    C312065   3.173   3.807  14.903 -0.0269  0.2687  0.6813
  820MPD2    C412066   3.263   3.839  14.804  0.2888  0.1392  0.2922
  820MPD2    C512067   3.222   3.914  14.700 -0.3722  0.3028  0.3449
  820MPD2     H12068   2.964   3.837  14.968  0.6936 -1.3677 -0.0508
  820MPD2    H112069   3.363   3.796  14.807  1.4173  2.8593  1.0042
  820MPD2    H212070   3.051   3.985  14.584 -0.9066 -0.6600  0.4581
  820MPD2    H312071   3.289   3.946  14.621  1.2614 -0.5940  1.3590
  820MPD2     N12072   3.215   3.737  15.016  0.4765 -0.2575  0.2299
  820MPD2    H512073   3.314   3.712  15.015  0.5079 -0.1323  0.2544
  820MPD2    N112074   2.854   3.920  14.754  0.0497  0.1755 -0.5191
  820MPD2    H712075   2.828   3.934  14.657 -1.8989  0.8433  0.0974
  821MPD2     C12076   3.869   0.560  13.150  0.0129  0.0934 -0.3687
  821MPD2    C112077   3.994   0.510  13.169 -0.4027 -1.1032  0.2265
  821MPD2    C212078   4.077   0.481  13.066  0.9612  0.9002 -0.3983
  821MPD2    C312079   4.046   0.510  12.939  1.0616  0.0870 -0.3893
  821MPD2    C412080   3.921   0.562  12.916  0.4011 -0.0625 -0.0640
  821MPD2    C512081   3.833   0.588  13.021  0.5410 -0.6841 -0.6189
  821MPD2     H12082   4.173   0.439  13.091  0.4861 -0.9790 -1.7454
  821MPD2    H112083   3.889   0.578  12.814  0.1896  0.0812  0.0240
  821MPD2    H212084   3.803   0.589  13.231  1.4285 -2.5240  1.7046
  821MPD2    H312085   3.738   0.631  12.994  0.1782 -0.3209  1.2076
  821MPD2     N12086   4.132   0.501  12.829 -0.5417  0.3497 -0.2437
  821MPD2    H512087   4.100   0.542  12.741 -3.2924  2.0974  1.5470
  821MPD2    N112088   4.046   0.499  13.308 -0.7513 -0.0813 -0.0658
  821MPD2    H712089   4.143   0.472  13.324 -0.6081  0.6296  0.2713
  822MPD2     C12090   4.088   0.386  15.573 -0.6428  0.3770 -0.1703
  822MPD2    C112091   4.112   0.322  15.695 -0.0311 -0.3578 -0.4003
  822MPD2    C212092   4.051   0.359  15.811 -0.1520  0.2581  0.3680
  822MPD2    C312093   3.977   0.474  15.810  1.0074 -0.4774 -0.9682
  822MPD2    C412094   3.979   0.547  15.695 -0.8247  0.3915 -0.7739
  822MPD2    C512095   4.026   0.507  15.578 -0.1300 -0.5904 -0.2795
  822MPD2     H12096   4.068   0.307  15.905 -1.3441  1.1453  1.0764
  822MPD2    H112097   3.920   0.637  15.694  0.9272  1.5545  0.4749
  822MPD2    H212098   4.126   0.340  15.483  0.8555  0.0928  0.6125
  822MPD2    H312099   4.017   0.571  15.491  1.1875 -2.7682 -2.0063
  822MPD2     N12100   3.920   0.520  15.935  0.3853 -0.7520 -0.1635
  822MPD2    H512101   3.914   0.458  16.015 -0.0762  0.2194  0.5474
  822MPD2    N112102   4.201   0.210  15.706 -0.1449 -0.4361  0.1197
  822MPD2    H712103   4.209   0.164  15.796 -1.5271 -1.8090 -0.4512
  823MPD2     C12104   3.660   0.564  16.765  0.1816  0.2594 -0.2477
  823MPD2    C112105   3.695   0.508  16.644 -0.5222 -0.3326  0.2174
  823MPD2    C212106   3.763   0.388  16.650 -0.3095  0.0057 -0.3386
  823MPD2    C312107   3.790   0.327  16.770 -0.0563  0.5124 -0.1327
  823MPD2    C412108   3.748   0.379  16.889  0.2715  0.6348  0.1348
  823MPD2    C512109   3.676   0.499  16.887  0.2762 -0.1009  0.2365
  823MPD2     H12110   3.808   0.346  16.561 -0.0125  2.0023 -1.1202
  823MPD2    H112111   3.755   0.324  16.982  1.4317 -0.7687 -0.7768
  823MPD2    H212112   3.595   0.650  16.766  1.0038  0.8675  0.2045
  823MPD2    H312113   3.648   0.552  16.977  2.3120  0.7427  0.3612
  823MPD2     N12114   3.863   0.208  16.782 -0.0632  0.1219 -0.2761
  823MPD2    H512115   3.874   0.172  16.877  2.1377 -2.7686 -1.6259
  823MPD2    N112116   3.678   0.580  16.523  0.1802  0.2817 -0.6521
  823MPD2    H712117   3.639   0.674  16.528 -1.2533 -0.2775 -1.1063
  824MPD2     C12118   4.579   4.196  15.455 -0.8755  0.6568 -0.2812
  824MPD2    C112119   4.677   4.290  15.504  0.6179 -0.1648  0.4978
  824MPD2    C212120   0.077   4.242  15.517  0.0876  0.0862  0.9771
  824MPD2    C312121   0.116   4.111  15.498  0.2987 -0.3757 -0.6721
  824MPD2    C412122   0.014   4.023  15.459  0.4093 -0.5801 -0.2761
  824MPD2    C512123   4.612   4.065  15.434  0.3853  0.9602  0.1875
  824MPD2     H12124   0.154   4.318  15.530  0.6987 -0.7279  2.1465
  824MPD2    H112125   0.022   3.915  15.453 -1.0725 -0.7269  0.2530
  824MPD2    H212126   4.478   4.219  15.425 -1.6259 -1.4945  0.5862
  824MPD2    H312127   4.537   3.994  15.400 -0.4240  1.4240  0.9819
  824MPD2     N12128   0.255   4.075  15.496  0.4711  0.2365  0.3165
  824MPD2    H512129   0.322   4.147  15.519 -0.8294  1.9736 -1.2651
  824MPD2    N112130   4.640   4.418  15.557 -0.4678  0.1370 -0.6454
  824MPD2    H712131   4.715   4.471  15.599  1.0207 -1.2509 -1.5354
  825MPD2     C12132   1.073   4.062  15.246  0.0722 -0.1383 -0.5141
  825MPD2    C112133   0.975   4.143  15.293  0.4272  0.5287 -0.0442
  825MPD2    C212134   0.971   4.276  15.260  0.2238 -0.2891 -0.5331
  825MPD2    C312135   1.062   4.328  15.175  0.6247 -0.2288 -0.0131
  825MPD2    C412136   1.164   4.249  15.128  0.4221  0.1287  0.0856
  825MPD2    C512137   1.171   4.118  15.168 -0.3777  0.0347  0.4293
  825MPD2     H12138   0.895   4.341  15.301  1.1079  0.2309  0.2568
  825MPD2    H112139   1.237   4.285  15.056 -0.9086  1.8876 -0.3922
  825MPD2    H212140   1.082   3.958  15.274  1.5618  0.6798  2.1216
  825MPD2    H312141   1.247   4.059  15.118 -0.1170  0.3904  0.4047
  825MPD2     N12142   1.046   4.463  15.140 -0.9301 -0.0620  0.0712
  825MPD2    H512143   0.991   4.521  15.202 -0.0545 -1.3730  2.0570
  825MPD2    N112144   0.886   4.076  15.379 -0.3730  0.4752  0.3050
  825MPD2    H712145   0.903   3.976  15.378 -1.9347  0.2027  1.5350
  826MPD2     C12146   0.305   4.423  13.651 -0.0814 -0.0266  0.2254
  826MPD2    C112147   0.236   4.483  13.545  0.3933  0.4081 -0.0858
  826MPD2    C212148   0.132   4.578  13.562  0.2419  0.1434 -0.2079
  826MPD2    C312149   0.110   4.613  13.694 -0.8875 -0.0457  0.5835
  826MPD2    C412150   0.187   4.560  13.796  0.0884  0.1738  0.3110
  826MPD2    C512151   0.288   4.470  13.779  0.0654  0.5412  0.2575
  826MPD2     H12152   0.084   4.628  13.478 -0.2650 -0.3149 -0.1882
  826MPD2    H112153   0.160   4.590  13.897 -0.2908  0.6855  0.0497
  826MPD2    H212154   0.374   4.343  13.629 -0.5950 -0.5328  0.4440
  826MPD2    H312155   0.354   4.429  13.854 -1.4887 -2.4525  0.0006
  826MPD2     N12156   0.007   4.707  13.730 -0.2555 -0.4549 -0.4508
  826MPD2    H512157   0.002   0.017  13.825 -0.2756 -0.8544 -0.3024
  826MPD2    N112158   0.259   4.425  13.419 -0.1180 -0.4404  0.2010
  826MPD2    H712159   0.316   4.341  13.416  0.4589  0.0790 -3.5247
  827MPD2     C12160   0.692   1.020  10.357  0.0369  0.7407  0.6395
  827MPD2    C112161   0.617   1.073  10.460 -0.0410 -0.3065 -0.1552
  827MPD2    C212162   0.497   1.129  10.433 -0.0460  0.1221 -0.2263
  827MPD2    C312163   0.446   1.129  10.309 -0.2151 -0.0004  0.4002
  827MPD2    C412164   0.523   1.087  10.202  1.1304 -0.2570 -0.2513
  827MPD2    C512165   0.643   1.034  10.229  0.5189  0.0358  0.3176
  827MPD2     H12166   0.436   1.146  10.521 -3.0539  0.0202 -2.2831
  827MPD2    H112167   0.487   1.088  10.100  2.6756  1.7625 -0.7868
  827MPD2    H212168   0.795   0.988  10.368  0.3096  1.1897 -0.6936
  827MPD2    H312169   0.704   0.997  10.147  0.1313 -0.5317  0.2843
  827MPD2     N12170   0.312   1.165  10.298 -0.0554  0.5397 -0.0397
  827MPD2    H512171   0.271   1.196  10.386  1.6250 -0.9504  1.2868
  827MPD2    N112172   0.673   1.063  10.586 -0.2299  0.3977 -0.5005
  827MPD2    H712173   0.774   1.056  10.583 -0.2987 -0.6081 -0.3278
  828MPD2     C12174   4.321   1.079  12.128  0.0781 -0.7350  0.1471
  828MPD2    C112175   4.247   1.028  12.022  0.7621  0.0251 -0.4315
  828MPD2    C212176   4.318   0.982  11.911  1.0929 -0.0700  0.2300
  828MPD2    C312177   4.455   0.980  11.904  0.2724 -0.0352  0.5485
  828MPD2    C412178   4.525   1.027  12.017 -1.0199  0.4605 -0.5595
  828MPD2    C512179   4.457   1.088  12.121 -0.4440 -0.2121 -0.3689
  828MPD2     H12180   4.269   0.947  11.821  1.3942  2.4227 -0.9043
  828MPD2    H112181   4.631   1.046  12.021 -1.2991  1.6696  1.1353
  828MPD2    H212182   4.273   1.117  12.218 -0.5822  0.7345 -0.8174
  828MPD2    H312183   4.509   1.123  12.210 -1.4717  1.2361 -0.3305
  828MPD2     N12184   4.529   0.941  11.786 -0.2082 -0.1636  0.6298
  828MPD2    H512185   4.623   0.911  11.810 -0.9256 -0.4503  3.0357
  828MPD2    N112186   4.105   1.029  12.016  0.5482 -0.0923  0.5863
  828MPD2    H712187   4.063   1.001  11.928  0.0554  0.1091  0.7528
  829MPD2     C12188   3.307   1.101  11.431  0.1332 -0.0522 -0.4509
  829MPD2    C112189   3.435   1.146  11.424 -0.0161 -0.1516 -0.3377
  829MPD2    C212190   3.517   1.149  11.536  0.3119 -0.0596 -0.5008
  829MPD2    C312191   3.455   1.111  11.659 -0.2637  0.4139 -0.7367
  829MPD2    C412192   3.324   1.080  11.665  0.0153 -0.5001 -0.3716
  829MPD2    C512193   3.252   1.063  11.553  0.1778  0.5661  0.3915
  829MPD2     H12194   3.620   1.183  11.529  0.8679 -1.3620  1.2375
  829MPD2    H112195   3.271   1.068  11.759 -0.9119 -0.7538 -0.9257
  829MPD2    H212196   3.247   1.086  11.343  0.9930 -1.7197 -0.7489
  829MPD2    H312197   3.147   1.034  11.559 -0.0380  0.9909 -1.3927
  829MPD2     N12198   3.520   1.106  11.785  0.1482 -0.0303  0.3564
  829MPD2    H512199   3.473   1.075  11.869  0.5891  0.6736  0.8655
  829MPD2    N112200   3.475   1.188  11.298  0.0937  0.1832 -0.5460
  829MPD2    H712201   3.403   1.208  11.229 -0.7504 -3.8352 -0.8117
  830MPD2     C12202   0.022   3.476  15.521 -0.0449  0.9459  0.5848
  830MPD2    C112203   4.618   3.515  15.496 -0.7622  0.3755  0.0078
  830MPD2    C212204   4.603   3.602  15.388 -0.0009  0.1933 -0.1833
  830MPD2    C312205   4.708   3.656  15.308 -0.1574  0.4371 -0.2334
  830MPD2    C412206   0.110   3.628  15.346  0.6698 -0.2448  0.4440
  830MPD2    C512207   0.129   3.536  15.454  0.2419  1.0522  0.1464
  830MPD2     H12208   4.503   3.636  15.362  0.4581 -0.9529 -3.4974
  830MPD2    H112209   0.199   3.665  15.297  0.2130  1.0031  0.5577
  830MPD2    H212210   0.035   3.399  15.596  0.3061 -0.8969 -1.3447
  830MPD2    H312211   0.230   3.513  15.486  0.5091 -1.3017 -2.3718
  830MPD2     N12212   4.702   3.767  15.211  0.1145 -0.0786  0.0733
  830MPD2    H512213   0.061   3.800  15.166  1.4176 -1.7426  1.3092
  830MPD2    N112214   4.514   3.476  15.585 -0.6229 -0.0609  0.7242
  830MPD2    H712215   4.548   3.435  15.672 -0.2360 -3.0343 -0.8272
  831MPD2     C12216   4.233   0.588  16.298  0.1235  0.0027 -0.4882
  831MPD2    C112217   4.219   0.515  16.191  0.6255 -0.1004 -0.3678
  831MPD2    C212218   4.123   0.416  16.185 -0.2210  0.7592 -0.4717
  831MPD2    C312219   4.050   0.377  16.302  0.5991  0.5058 -0.4682
  831MPD2    C412220   4.081   0.448  16.414 -0.6155  0.3501 -0.3088
  831MPD2    C512221   4.159   0.558  16.409 -0.1199 -0.3651  0.2733
  831MPD2     H12222   4.108   0.367  16.089  0.0138  1.0277 -0.6468
  831MPD2    H112223   4.035   0.422  16.509  1.5487  0.0525  0.6475
  831MPD2    H212224   4.309   0.663  16.314  0.8489 -0.1424 -3.2300
  831MPD2    H312225   4.180   0.609  16.503  0.8783 -0.4750  0.1134
  831MPD2     N12226   3.967   0.263  16.312  0.0397  0.7256 -0.6600
  831MPD2    H512227   3.947   0.224  16.404  0.5315  3.3778  0.5867
  831MPD2    N112228   4.300   0.555  16.079  0.2400  0.4923  0.0349
  831MPD2    H712229   4.361   0.636  16.082  0.0828  0.6747 -1.5213
  832MPD2     C12230   2.398   1.197  17.251 -0.7724  0.7519 -0.3557
  832MPD2    C112231   2.378   1.326  17.217  0.2676  0.2175  0.3320
  832MPD2    C212232   2.255   1.355  17.149  0.0404 -0.0811  0.7613
  832MPD2    C312233   2.160   1.253  17.127  0.0587 -0.1761 -0.6743
  832MPD2    C412234   2.195   1.122  17.153 -0.7572 -0.4561 -0.5754
  832MPD2    C512235   2.311   1.100  17.218 -0.1533  0.2720  0.1005
  832MPD2     H12236   2.236   1.461  17.136  0.9746  0.1055  0.9694
  832MPD2    H112237   2.135   1.038  17.120 -0.7529 -0.4424 -0.6180
  832MPD2    H212238   2.491   1.163  17.297 -0.3576 -0.7505 -2.3255
  832MPD2    H312239   2.336   0.998  17.243 -1.6011  0.1873  1.2665
  832MPD2     N12240   2.040   1.276  17.063 -0.4908 -0.6203 -0.1891
  832MPD2    H512241   1.983   1.194  17.043 -1.5340  0.0917 -0.1612
  832MPD2    N112242   2.467   1.428  17.266  0.1018 -0.6303 -0.0251
  832MPD2    H712243   2.549   1.398  17.318 -0.1995 -1.6395 -0.1221
  833MPD2     C12244   0.304   3.213  12.187 -0.1159  0.4723 -0.3442
  833MPD2    C112245   0.179   3.264  12.166  0.0378 -0.3673  0.2742
  833MPD2    C212246   0.148   3.321  12.046  0.1054  0.1963 -0.2750
  833MPD2    C312247   0.244   3.330  11.947 -0.5671  0.2401 -0.7781
  833MPD2    C412248   0.369   3.283  11.967  0.4345  0.0841 -1.1050
  833MPD2    C512249   0.392   3.212  12.082  0.3374  0.9068  0.1985
  833MPD2     H12250   0.046   3.339  12.018  0.0662 -0.4143 -0.5373
  833MPD2    H112251   0.449   3.274  11.894  0.3215 -1.0854 -1.0778
  833MPD2    H212252   0.343   3.163  12.275  0.7593 -2.7394 -2.5653
  833MPD2    H312253   0.483   3.155  12.096  1.0430  1.9551 -0.1654
  833MPD2     N12254   0.210   3.388  11.819 -0.2058  0.5953  0.1774
  833MPD2    H512255   0.117   3.428  11.815 -1.3072 -2.0876 -1.1708
  833MPD2    N112256   0.097   3.275  12.282  0.0248 -0.4365  0.5208
  833MPD2    H712257   0.128   3.222  12.362  1.1847 -0.9516 -0.2721
  834MPD2     C12258   4.288   3.348  11.348  0.4887  0.0408 -0.0460
  834MPD2    C112259   4.401   3.321  11.281 -0.3483 -0.1826 -0.2215
  834MPD2    C212260   4.518   3.396  11.307  0.1456  0.1106 -0.2175
  834MPD2    C312261   4.511   3.498  11.407 -0.4129 -0.3991  0.2570
  834MPD2    C412262   4.388   3.521  11.466 -0.3032 -0.6497 -0.0232
  834MPD2    C512263   4.277   3.449  11.439 -0.2937  0.6000 -0.5742
  834MPD2     H12264   4.618   3.375  11.269  0.6770  1.1831  0.6020
  834MPD2    H112265   4.374   3.585  11.552  0.1897  2.2285 -2.1141
  834MPD2    H212266   4.196   3.294  11.330  0.4480  0.0085  0.2483
  834MPD2    H312267   4.186   3.472  11.492 -0.8158 -0.8566 -0.8336
  834MPD2     N12268   4.636   3.552  11.458  0.0527 -0.0472  0.2707
  834MPD2    H512269   4.715   3.494  11.430 -0.2706  0.0538 -0.8534
  834MPD2    N112270   4.400   3.214  11.189  0.7308  0.3065 -0.0226
  834MPD2    H712271   4.320   3.153  11.194  1.2713 -0.3596  0.4990
  835MPD2     C12272   0.130   0.879  10.921  0.2038  0.3297  0.1570
  835MPD2    C112273   0.055   0.962  11.000  0.2265  0.1038  0.2064
  835MPD2    C212274   0.126   1.039  11.097  0.6675 -0.8492  1.1963
  835MPD2    C312275   0.270   1.033  11.103  0.0521 -0.2571 -0.2142
  835MPD2    C412276   0.341   0.942  11.022  0.4649 -0.5731 -0.2922
  835MPD2    C512277   0.267   0.864  10.937  0.5536  0.2392 -0.0850
  835MPD2     H12278   0.062   1.106  11.154  1.3509  2.4838 -1.9047
  835MPD2    H112279   0.449   0.938  11.032  0.5602  0.1742 -0.9792
  835MPD2    H212280   0.081   0.811  10.852 -1.7570  0.5591  1.3074
  835MPD2    H312281   0.315   0.793  10.871  1.6395 -1.2433  2.3076
  835MPD2     N12282   0.337   1.101  11.202  0.2389  0.5245  0.0135
  835MPD2    H512283   0.436   1.081  11.203  0.5536  2.1028  0.2177
  835MPD2    N112284   4.641   0.977  11.003  0.1013  0.0571 -0.5221
  835MPD2    H712285   4.595   1.018  11.083  1.3645 -2.1989  1.3444
  836MPD2     C12286   4.645   1.282  11.569  0.2212  0.4317 -0.3426
  836MPD2    C112287   0.019   1.349  11.647  0.7989 -0.1141 -0.0156
  836MPD2    C212288   4.705   1.415  11.761 -0.5148  0.1230  0.0962
  836MPD2    C312289   4.573   1.412  11.797 -0.7207  0.2934  0.5480
  836MPD2    C412290   4.480   1.344  11.724 -0.2090 -0.5717 -0.1215
  836MPD2    C512291   4.516   1.279  11.612  0.1042 -0.4065 -0.4754
  836MPD2     H12292   0.052   1.475  11.815  2.0589 -0.1399 -3.0744
  836MPD2    H112293   4.376   1.355  11.753 -0.1592  0.0978 -0.2032
  836MPD2    H212294   4.674   1.236  11.475  2.1480 -0.0135  0.4761
  836MPD2    H312295   4.439   1.231  11.552 -0.8353  1.1381 -0.5259
  836MPD2     N12296   4.532   1.467  11.922 -0.6043  0.4511  0.8298
  836MPD2    H512297   4.432   1.465  11.940 -0.6055 -1.5368  0.6367
  836MPD2    N112298   0.154   1.330  11.607 -0.3412 -0.1297  0.5758
  836MPD2    H712299   0.163   1.280  11.519 -1.3767 -0.4547  0.6470
  837MPD2     C12300   3.223   0.860   9.677 -0.3684  0.0008  0.0762
  837MPD2    C112301   3.091   0.835   9.711 -0.1321  0.1986 -0.7440
  837MPD2    C212302   3.024   0.920   9.793  0.3553 -0.6192 -0.1500
  837MPD2    C312303   3.088   1.030   9.840 -0.7621  0.0169  0.0758
  837MPD2    C412304   3.216   1.052   9.809 -0.4955 -0.1554  0.1365
  837MPD2    C512305   3.285   0.970   9.725 -0.2565  0.2674  0.5299
  837MPD2     H12306   2.917   0.909   9.811  0.3574 -1.0363 -0.3890
  837MPD2    H112307   3.272   1.124   9.867 -0.7676 -0.4060  0.7168
  837MPD2    H212308   3.291   0.796   9.622  2.6579  0.7715  2.9043
  837MPD2    H312309   3.393   0.968   9.713 -0.0450 -0.7315  2.6803
  837MPD2     N12310   3.009   1.122   9.909  0.1719 -0.4152  0.6051
  837MPD2    H512311   2.919   1.087   9.940  0.4905 -1.2384  0.5938
  837MPD2    N112312   3.020   0.724   9.667 -0.9126 -0.0631  0.2158
  837MPD2    H712313   2.943   0.699   9.729 -0.7271  1.7188  1.1518
  838MPD2     C12314   1.287   4.504  11.646 -0.1275  0.4213  0.3646
  838MPD2    C112315   1.338   4.381  11.687 -0.2173 -0.5158  0.3236
  838MPD2    C212316   1.265   4.294  11.767  0.9038 -0.0229  0.2771
  838MPD2    C312317   1.136   4.328  11.801 -0.1627 -0.1597 -0.2355
  838MPD2    C412318   1.093   4.457  11.773  0.0021  0.5458  0.2321
  838MPD2    C512319   1.168   4.549  11.699 -0.0495 -0.0471 -0.2989
  838MPD2     H12320   1.300   4.193  11.781  0.3677 -0.4066 -1.1637
  838MPD2    H112321   0.989   4.487  11.786  0.2796  1.8169 -0.4154
  838MPD2    H212322   1.334   4.570  11.575  1.2988  0.7697  1.6488
  838MPD2    H312323   1.130   4.647  11.674  2.8412  1.7072  2.2330
  838MPD2     N12324   1.061   4.225  11.866 -0.2082  0.4335 -0.5199
  838MPD2    H512325   1.108   4.136  11.877  0.1483  0.8350  1.2759
  838MPD2    N112326   1.454   4.317  11.633 -0.5873  0.4118  0.1032
  838MPD2    H712327   1.479   4.229  11.678  1.1411 -0.2227 -2.1243
  839MPD2     C12328   1.576   3.470  11.674 -0.1479  0.2440  0.2002
  839MPD2    C112329   1.628   3.492  11.551 -0.6614  0.4320  0.4914
  839MPD2    C212330   1.644   3.623  11.509 -0.4377  0.1198  0.7725
  839MPD2    C312331   1.593   3.729  11.585  0.2845  0.4968  0.1560
  839MPD2    C412332   1.531   3.699  11.702  0.4162  0.2140 -0.5915
  839MPD2    C512333   1.525   3.574  11.747 -0.3327  0.4406  0.4312
  839MPD2     H12334   1.681   3.639  11.409 -0.3405  0.8986  0.9305
  839MPD2    H112335   1.493   3.777  11.767  0.7304 -0.3609  0.2744
  839MPD2    H212336   1.556   3.370  11.711  0.9859 -0.0480  0.0364
  839MPD2    H312337   1.481   3.543  11.841 -1.7078 -0.3074 -0.4593
  839MPD2     N12338   1.611   3.870  11.551 -0.1136 -0.5930 -0.4645
  839MPD2    H512339   1.570   3.945  11.606 -1.5250 -0.9846 -0.9906
  839MPD2    N112340   1.651   3.377  11.467  0.1678  0.0739 -0.1705
  839MPD2    H712341   1.619   3.291  11.512  3.0825 -1.2980 -0.7709
  840MPD2     C12342   1.203   1.104  10.456  0.2529  0.8512  0.3756
  840MPD2    C112343   1.205   1.165  10.582  0.9900  0.1498 -0.1629
  840MPD2    C212344   1.304   1.245  10.620  0.1870 -0.1011  0.2910
  840MPD2    C312345   1.419   1.260  10.535 -0.5521 -0.2104 -0.4466
  840MPD2    C412346   1.412   1.210  10.410 -0.2791  0.0315 -0.8948
  840MPD2    C512347   1.307   1.129  10.368 -1.2096  0.8950  0.2918
  840MPD2     H12348   1.312   1.293  10.717 -0.5357  1.5802 -0.4755
  840MPD2    H112349   1.491   1.223  10.337 -1.2372 -1.3053 -2.1681
  840MPD2    H212350   1.118   1.044  10.429 -0.7979  2.5229 -0.0418
  840MPD2    H312351   1.312   1.087  10.268 -0.8697 -0.5433  0.9101
  840MPD2     N12352   1.530   1.341  10.573  0.2108 -0.0486  0.5080
  840MPD2    H512353   1.606   1.348  10.506  1.0432 -0.0736  1.4470
  840MPD2    N112354   1.103   1.131  10.675 -0.1377 -0.1032  0.1067
  840MPD2    H712355   1.034   1.063  10.642  1.5215 -1.5211 -0.4322
  841MPD2     C12356   1.192   1.146  14.674 -0.4433  0.0684 -0.3107
  841MPD2    C112357   1.211   1.078  14.558 -0.2597 -0.4417  0.1680
  841MPD2    C212358   1.290   1.131  14.459 -0.3622  0.3293  0.2948
  841MPD2    C312359   1.365   1.248  14.486 -0.8483  0.2846 -0.2517
  841MPD2    C412360   1.345   1.319  14.605 -0.3759 -0.2608 -0.6541
  841MPD2    C512361   1.262   1.264  14.696 -0.0648 -0.0577 -0.2151
  841MPD2     H12362   1.297   1.075  14.366 -1.7189  2.3097 -1.0132
  841MPD2    H112363   1.400   1.406  14.637  2.4178 -0.9981 -3.4261
  841MPD2    H212364   1.119   1.113  14.746  0.7201 -0.2210  0.7324
  841MPD2    H312365   1.237   1.318  14.787 -0.0395 -0.4523  0.0243
  841MPD2     N12366   1.461   1.276  14.386 -0.6341 -0.4827 -0.0997
  841MPD2    H512367   1.463   1.230  14.296 -0.5816  0.4383 -0.5715
  841MPD2    N112368   1.149   0.953  14.529  0.7985  0.5527  0.3340
  841MPD2    H712369   1.194   0.899  14.456 -2.1608 -1.3490 -0.0561
  842MPD2     C12370   1.619   2.345  16.458 -0.9996 -0.0726  0.1892
  842MPD2    C112371   1.582   2.221  16.421  0.5873  0.3587 -0.1527
  842MPD2    C212372   1.609   2.116  16.507  0.3946 -0.5682  0.1501
  842MPD2    C312373   1.672   2.138  16.630  0.4657  0.4074  0.1804
  842MPD2    C412374   1.711   2.262  16.659 -0.3019 -0.7652 -0.2191
  842MPD2    C512375   1.672   2.365  16.578  0.1671  0.4148  0.1909
  842MPD2     H12376   1.582   2.022  16.461 -0.9239  0.9450 -2.1774
  842MPD2    H112377   1.765   2.276  16.752  0.4530  0.9777 -0.9213
  842MPD2    H212378   1.597   2.430  16.395  1.7369  0.3628 -0.1860
  842MPD2    H312379   1.693   2.465  16.615  0.3334  1.0080 -1.5260
  842MPD2     N12380   1.710   2.038  16.718 -0.1066  0.0647 -0.1943
  842MPD2    H512381   1.767   2.062  16.799  0.3109 -0.2074 -0.4083
  842MPD2    N112382   1.509   2.211  16.304 -0.2200 -0.0463  0.2753
  842MPD2    H712383   1.508   2.293  16.244  0.2723 -0.8037 -0.7830
  843MPD2     C12384   3.999   1.792  17.660 -0.2703  0.5205  0.3625
  843MPD2    C112385   4.001   1.859   0.081 -0.3966  0.0178 -0.3227
  843MPD2    C212386   4.075   1.975   0.096 -0.2690  0.1538  0.2834
  843MPD2    C312387   4.156   2.021  17.695 -0.1643  0.1286 -0.2123
  843MPD2    C412388   4.164   1.952  17.578  0.3196  0.9553  0.4960
  843MPD2    C512389   4.085   1.837  17.557  0.3131 -0.0970 -0.1597
  843MPD2     H12390   4.062   2.040   0.182  1.1120  0.5273  0.1973
  843MPD2    H112391   4.222   1.980  17.491  1.4296 -2.0331  0.2703
  843MPD2    H212392   3.941   1.701  17.655 -1.1292  1.0394  0.6871
  843MPD2    H312393   4.093   1.781  17.464  1.8233  1.3648 -0.9239
  843MPD2     N12394   4.235   2.136   0.017  0.1107 -0.4087  0.1846
  843MPD2    H512395   4.213   2.189   0.100  0.3896 -1.3724  0.8710
  843MPD2    N112396   3.925   1.809   0.189 -0.0038  0.3485 -0.2263
  843MPD2    H712397   3.870   1.727   0.166 -0.9807  0.7863  0.5470
  844MPD2     C12398   2.075   0.838  16.451 -0.7158  0.5398 -0.1406
  844MPD2    C112399   2.107   0.944  16.369 -0.3237 -0.1407  0.1347
  844MPD2    C212400   2.138   1.069  16.431  0.0926  0.3156  0.1235
  844MPD2    C312401   2.168   1.073  16.565  0.4143 -0.4452 -0.3124
  844MPD2    C412402   2.151   0.963  16.634  0.4468  0.0063 -0.4188
  844MPD2    C512403   2.089   0.849  16.583 -0.1392 -0.3755 -0.1636
  844MPD2     H12404   2.161   1.155  16.369  0.7539 -0.2783 -0.4592
  844MPD2    H112405   2.168   0.960  16.741  0.7698 -1.5938 -0.5121
  844MPD2    H212406   2.020   0.756  16.406 -0.0709  0.6762 -1.1879
  844MPD2    H312407   2.056   0.766  16.645 -1.5220 -0.8163 -1.4755
  844MPD2     N12408   2.230   1.180  16.632 -0.2606  0.2215  0.4716
  844MPD2    H512409   2.277   1.157  16.719 -1.3476 -1.6971  0.5535
  844MPD2    N112410   2.113   0.940  16.236  0.1757  0.2956  0.0317
  844MPD2    H712411   2.140   1.025  16.188  3.6882 -2.2553 -2.4947
  845MPD2     C12412   2.135   2.160  17.078  0.2253 -0.4300  0.7261
  845MPD2    C112413   2.213   2.083  17.158 -0.5643 -0.4617  0.1885
  845MPD2    C212414   2.250   1.955  17.125 -0.5962  0.1149 -0.0500
  845MPD2    C312415   2.212   1.905  16.999  0.3631  0.2903  1.1296
  845MPD2    C412416   2.143   1.986  16.910  0.2047  0.1856 -0.3339
  845MPD2    C512417   2.118   2.113  16.955  0.1704 -0.4384  0.1494
  845MPD2     H12418   2.306   1.890  17.191  1.5955  0.0061 -1.9816
  845MPD2    H112419   2.111   1.956  16.810  0.4248 -2.0985  0.2826
  845MPD2    H212420   2.110   2.263  17.098 -3.7485 -1.0072 -1.1132
  845MPD2    H312421   2.063   2.178  16.888 -0.8653 -0.1024  1.3252
  845MPD2     N12422   2.248   1.772  16.956  0.1065 -0.1346 -0.9882
  845MPD2    H512423   2.308   1.718  17.016  0.1144  0.1889 -0.7027
  845MPD2    N112424   2.243   2.144  17.283  0.2615  0.1920  0.1594
  845MPD2    H712425   2.203   2.236  17.299  0.9445  0.7720 -1.4300
  846MPD2     C12426   4.281   3.045  13.763  1.0400  0.1554  0.2984
  846MPD2    C112427   4.148   3.091  13.774 -0.5150  0.1481  0.3493
  846MPD2    C212428   4.072   3.056  13.885  0.0846 -0.0025  0.2784
  846MPD2    C312429   4.130   2.977  13.985  0.1710  0.2576 -0.7156
  846MPD2    C412430   4.267   2.954  13.979 -0.4001  0.2023 -0.2504
  846MPD2    C512431   4.333   2.966  13.862  0.1999  0.2571  0.5321
  846MPD2     H12432   3.972   3.097  13.890  0.0542  0.1232 -1.5404
  846MPD2    H112433   4.323   2.914  14.063 -0.5566  0.5343  0.0122
  846MPD2    H212434   4.357   3.073  13.691  1.7586  0.2962  1.1078
  846MPD2    H312435   4.438   2.942  13.856  0.7074  2.7357 -0.5873
  846MPD2     N12436   4.060   2.932  14.099 -0.1766  0.5851 -0.3493
  846MPD2    H512437   3.964   2.966  14.103 -0.1934  0.4521  0.3173
  846MPD2    N112438   4.087   3.167  13.679  0.2906 -0.4066 -0.5736
  846MPD2    H712439   3.990   3.190  13.699  0.3226 -0.5602 -0.2395
  847MPD2     C12440   4.252   3.810  14.311 -0.2127  0.2677  0.1064
  847MPD2    C112441   4.373   3.875  14.327  0.1221  0.0604  0.5507
  847MPD2    C212442   4.479   3.794  14.376 -0.4096 -0.2044  0.1867
  847MPD2    C312443   4.463   3.662  14.426  0.7572 -0.1309 -0.1609
  847MPD2    C412444   4.334   3.610  14.427 -0.9937 -0.3951  0.0515
  847MPD2    C512445   4.240   3.683  14.356  0.0076  0.2656 -0.2352
  847MPD2     H12446   4.579   3.836  14.379  0.0306 -1.2046 -0.5941
  847MPD2    H112447   4.304   3.509  14.454 -2.3289 -0.4783 -1.7399
  847MPD2    H212448   4.167   3.860  14.266 -0.6658 -1.8545 -1.4039
  847MPD2    H312449   4.141   3.640  14.346  0.4410 -0.6078 -0.8296
  847MPD2     N12450   4.572   3.594  14.483 -0.0673  0.1376 -0.6672
  847MPD2    H512451   4.652   3.655  14.491 -1.6898  2.3652 -1.4769
  847MPD2    N112452   4.407   4.012  14.301  0.2761 -0.2659  0.3257
  847MPD2    H712453   4.503   4.031  14.325 -0.2981  1.3598  1.3589
  848MPD2     C12454   1.819   1.752  16.372  0.3319 -0.1684 -0.6231
  848MPD2    C112455   1.897   1.761  16.482 -0.9274  0.7222 -0.7407
  848MPD2    C212456   1.966   1.885  16.502 -0.3113  0.2869  0.0882
  848MPD2    C312457   1.942   1.987  16.409 -0.0520 -0.3091  0.1820
  848MPD2    C412458   1.860   1.973  16.297  0.7116 -0.0172  0.2391
  848MPD2    C512459   1.803   1.847  16.277  0.3833  0.3257 -0.4387
  848MPD2     H12460   2.007   1.906  16.600  0.1498 -0.5179  0.0595
  848MPD2    H112461   1.846   2.050  16.222 -1.0519 -0.7775 -0.2023
  848MPD2    H212462   1.761   1.664  16.349 -1.4578  0.8566 -0.0214
  848MPD2    H312463   1.748   1.827  16.186  0.1583  1.4551 -0.5512
  848MPD2     N12464   1.983   2.121  16.427  0.1006 -0.3277  0.3508
  848MPD2    H512465   1.970   2.189  16.353  0.0658 -3.8282 -2.8699
  848MPD2    N112466   1.899   1.652  16.582  0.0411 -0.0459 -0.1771
  848MPD2    H712467   1.961   1.670  16.660  0.8976 -3.0303 -0.1569
  849MPD2     C12468   0.963   1.972  14.082 -0.0330 -0.2378 -0.4129
  849MPD2    C112469   1.083   2.001  14.021 -0.7810  0.4889 -0.0183
  849MPD2    C212470   1.197   1.928  14.048  0.0668  0.7606  0.0951
  849MPD2    C312471   1.193   1.845  14.158 -0.2328 -0.4060  0.4069
  849MPD2    C412472   1.079   1.826  14.234  0.3260 -1.2311 -0.3300
  849MPD2    C512473   0.964   1.875  14.182 -0.2646  1.0720  0.8339
  849MPD2     H12474   1.284   1.950  13.988  0.1292  0.2685  0.0059
  849MPD2    H112475   1.074   1.763  14.322  2.5736 -0.2981  0.4607
  849MPD2    H212476   0.870   2.018  14.051 -0.8353 -1.3538  0.3243
  849MPD2    H312477   0.866   1.855  14.224 -0.0684  0.2641  0.8994
  849MPD2     N12478   1.314   1.785  14.202  0.3277  0.2691 -0.5239
  849MPD2    H512479   1.390   1.790  14.135  0.3848  0.2105 -0.4636
  849MPD2    N112480   1.082   2.092  13.920 -0.6522  0.6621  0.2629
  849MPD2    H712481   0.991   2.120  13.885 -0.9837  2.6119  2.6975
  850MPD2     C12482   4.058   4.395  14.779  0.1850  0.1322  0.5472
  850MPD2    C112483   4.036   4.532  14.780  0.2626 -0.4775 -0.2980
  850MPD2    C212484   4.137   4.621  14.748  0.2366  0.2778 -0.4399
  850MPD2    C312485   4.266   4.575  14.732 -0.4813 -0.3594  0.0575
  850MPD2    C412486   4.289   4.437  14.725 -0.0229  0.1566  0.4545
  850MPD2    C512487   4.182   4.350  14.747  0.7273 -0.3498 -0.0439
  850MPD2     H12488   4.119   0.002  14.737  0.2712  0.3117 -0.1470
  850MPD2    H112489   4.389   4.412  14.691 -0.3825 -0.6766  0.0266
  850MPD2    H212490   3.979   4.323  14.794  1.0545 -0.7351  0.9541
  850MPD2    H312491   4.195   4.243  14.732  2.8753 -0.0452 -0.4792
  850MPD2     N12492   4.382   4.656  14.709  0.4174  0.1078  0.0321
  850MPD2    H512493   4.473   4.615  14.693 -0.1465 -0.4313 -1.7649
  850MPD2    N112494   3.901   4.572  14.819  0.6071 -0.6066 -0.3248
  850MPD2    H712495   3.840   4.492  14.807  1.1066 -0.8913 -0.9510
  851MPD2     C12496   4.573   0.006  15.265 -0.5037  0.5187 -0.3885
  851MPD2    C112497   4.463   4.666  15.218  0.4361  0.6195  0.6131
  851MPD2    C212498   4.480   4.532  15.192 -0.4897 -0.3079  0.8926
  851MPD2    C312499   4.598   4.465  15.201  0.0009  0.4702  0.3348
  851MPD2    C412500   4.704   4.537  15.247  0.0107  0.6730  0.0853
  851MPD2    C512501   4.688   4.668  15.282  0.6352 -0.4086  0.7162
  851MPD2     H12502   4.401   4.476  15.143  0.6108 -0.5943 -0.5591
  851MPD2    H112503   0.072   4.484  15.259  0.1118  0.7363 -0.4141
  851MPD2    H212504   4.571   0.105  15.310 -1.7970 -0.2393  1.2049
  851MPD2    H312505   0.047   4.718  15.328  0.7755 -1.1927  1.3235
  851MPD2     N12506   4.608   4.340  15.142  0.5201 -0.1637 -0.8984
  851MPD2    H512507   4.519   4.297  15.120  0.0237  1.5124 -2.1125
  851MPD2    N112508   4.344   0.013  15.199 -0.2191  0.2093 -0.5959
  851MPD2    H712509   4.350   0.114  15.199 -0.7846  0.2387 -0.0244
  852MPD2     C12510   0.124   2.862   9.754 -0.7503 -0.5604 -0.2195
  852MPD2    C112511   0.022   2.935   9.703 -0.3594 -0.1881  0.6432
  852MPD2    C212512   4.722   3.061   9.754 -0.0398 -0.4371 -0.8691
  852MPD2    C312513   0.077   3.105   9.853 -0.4202 -0.2253  0.3225
  852MPD2    C412514   0.195   3.043   9.882 -0.4215  0.1172 -0.1352
  852MPD2    C512515   0.219   2.925   9.827 -0.3869  0.6374  0.3280
  852MPD2     H12516   4.628   3.108   9.728  1.2432  2.7322  0.2192
  852MPD2    H112517   0.268   3.081   9.952 -0.6724 -0.0184  0.2032
  852MPD2    H212518   0.144   2.759   9.729  2.4777 -0.0142  0.1084
  852MPD2    H312519   0.293   2.861   9.874 -0.4566  0.4062  0.1246
  852MPD2     N12520   0.038   3.229   9.919  0.0493  0.3965 -0.1953
  852MPD2    H512521   4.670   3.268   9.912  0.5118  0.9417 -3.2893
  852MPD2    N112522   4.669   2.874   9.598 -0.6735  0.4365 -0.1785
  852MPD2    H712523   4.707   2.784   9.570 -1.3062 -0.2815  1.2793
  853MPD2     C12524   1.410   2.475  12.155 -0.1925 -0.2046  0.3100
  853MPD2    C112525   1.301   2.550  12.120 -0.0615  0.6481 -0.0726
  853MPD2    C212526   1.239   2.525  11.995 -0.2649 -0.1036  0.1367
  853MPD2    C312527   1.290   2.428  11.910  0.3641  0.4717 -0.4669
  853MPD2    C412528   1.402   2.356  11.946  0.4091  0.6685 -0.1381
  853MPD2    C512529   1.460   2.379  12.066  0.1318  0.4414 -0.0744
  853MPD2     H12530   1.145   2.574  11.969  0.0620  0.5897  0.2641
  853MPD2    H112531   1.447   2.282  11.881  1.5893  2.5335 -1.4537
  853MPD2    H212532   1.462   2.502  12.246  2.0081 -1.2407 -0.6202
  853MPD2    H312533   1.543   2.315  12.093  0.1763  0.1198 -0.9857
  853MPD2     N12534   1.237   2.396  11.776  0.1673 -0.0561  0.6197
  853MPD2    H512535   1.274   2.325  11.713  0.2753 -1.0952  1.8566
  853MPD2    N112536   1.243   2.634  12.222  0.4216 -0.7113  0.5472
  853MPD2    H712537   1.290   2.639  12.311  1.5060 -1.7456  0.0364
  854MPD2     C12538   2.628   2.593  13.155 -0.4414  0.1338 -0.1412
  854MPD2    C112539   2.714   2.619  13.054 -0.2873 -0.4086  0.3378
  854MPD2    C212540   2.838   2.562  13.064  0.1613 -0.4115 -0.1786
  854MPD2    C312541   2.863   2.462  13.156  0.1292  0.0912 -0.3210
  854MPD2    C412542   2.770   2.424  13.245  0.5402 -0.1171 -0.0191
  854MPD2    C512543   2.655   2.499  13.245 -0.1103  0.4310 -0.0180
  854MPD2     H12544   2.920   2.584  12.997 -2.0705  0.2278 -2.6854
  854MPD2    H112545   2.791   2.340  13.310  0.0608  0.0038  0.2941
  854MPD2    H212546   2.531   2.639  13.167  0.2994  1.8666 -0.7419
  854MPD2    H312547   2.575   2.474  13.314 -0.5058 -2.0805 -1.3534
  854MPD2     N12548   2.983   2.391  13.163  0.4794 -0.0062  0.0836
  854MPD2    H512549   2.998   2.330  13.242  2.0241  0.6826  0.3322
  854MPD2    N112550   2.682   2.719  12.963  0.1205  0.8982  0.2832
  854MPD2    H712551   2.594   2.764  12.986 -0.3229 -0.2575  0.8612
  855MPD2     C12552   3.465   2.353  13.862  0.7943 -0.8906  0.4000
  855MPD2    C112553   3.468   2.227  13.802  0.3663  0.1162 -0.0227
  855MPD2    C212554   3.435   2.225  13.667  0.0112 -0.2621 -0.4018
  855MPD2    C312555   3.426   2.337  13.585  1.0924 -0.9196  0.3442
  855MPD2    C412556   3.430   2.460  13.644  0.5834  0.1205  0.9593
  855MPD2    C512557   3.445   2.463  13.778 -0.3134 -0.6459 -0.4470
  855MPD2     H12558   3.397   2.126  13.642  2.2714 -0.8506 -1.5837
  855MPD2    H112559   3.418   2.553  13.590  1.3947  0.4021  1.2595
  855MPD2    H212560   3.505   2.367  13.962  0.7523  1.5208  0.0900
  855MPD2    H312561   3.462   2.563  13.817 -4.0992  0.3148 -1.2520
  855MPD2     N12562   3.411   2.329  13.445  0.5031  0.5386  0.3091
  855MPD2    H512563   3.394   2.413  13.391 -4.2999 -0.3810  0.3624
  855MPD2    N112564   3.491   2.108  13.873 -0.2409 -0.9803 -0.2978
  855MPD2    H712565   3.481   2.022  13.821 -0.2946 -0.6140 -0.8967
  856MPD2     C12566   4.686   3.144  13.764 -0.0952  0.3370  0.1598
  856MPD2    C112567   0.056   3.204  13.850 -0.6383 -0.1642  0.3423
  856MPD2    C212568   0.056   3.343  13.865  0.0511  0.1276  0.2404
  856MPD2    C312569   4.683   3.419  13.808 -1.5221  0.7552  0.1386
  856MPD2    C412570   4.594   3.351  13.727 -0.1958  0.6948 -1.0359
  856MPD2    C512571   4.588   3.220  13.720  0.0155  0.2719  0.2164
  856MPD2     H12572   0.133   3.376  13.933  1.0417 -1.9773  0.1575
  856MPD2    H112573   4.510   3.400  13.679 -1.5881 -0.9662 -0.2463
  856MPD2    H212574   4.674   3.036  13.758  0.1286  0.3458 -0.4317
  856MPD2    H312575   4.509   3.173  13.662  0.1431  0.8189 -0.4144
  856MPD2     N12576   4.665   3.556  13.803  0.4741  0.1962  0.1332
  856MPD2    H512577   4.584   3.591  13.754  1.4941  1.2076 -0.8297
  856MPD2    N112578   0.167   3.137  13.914 -0.8933 -0.3032 -0.1233
  856MPD2    H712579   0.241   3.189  13.961 -0.7076 -1.3893  0.8031
  857MPD2     C12580   2.127   0.548  13.276 -1.0015 -0.5743  0.4032
  857MPD2    C112581   2.229   0.570  13.184 -0.2486 -0.2151 -0.0699
  857MPD2    C212582   2.358   0.590  13.229 -0.5349  0.7125 -0.0113
  857MPD2    C312583   2.374   0.597  13.364 -0.3831  0.1246  0.3008
  857MPD2    C412584   2.272   0.578  13.453 -0.4769 -0.5034 -0.3304
  857MPD2    C512585   2.147   0.544  13.407  0.2311 -0.5377 -0.3681
  857MPD2     H12586   2.443   0.612  13.166  0.3742  0.4487  1.1276
  857MPD2    H112587   2.276   0.572  13.561 -1.8903 -1.1775 -0.3084
  857MPD2    H212588   2.024   0.528  13.246 -0.0005 -2.3806 -1.8784
  857MPD2    H312589   2.066   0.531  13.477 -0.8881  0.1578 -1.5223
  857MPD2     N12590   2.502   0.644  13.406 -0.0904 -0.1401 -0.3921
  857MPD2    H512591   2.573   0.650  13.334  0.3681  0.0174  0.0780
  857MPD2    N112592   2.191   0.566  13.047  0.1197  0.1573  0.4954
  857MPD2    H712593   2.101   0.526  13.022  1.0911 -1.0373 -1.0386
  858MPD2     C12594   2.673   4.428  16.294  0.8758 -0.0371  0.3409
  858MPD2    C112595   2.781   4.373  16.370 -0.5399 -0.1177 -0.0292
  858MPD2    C212596   2.820   4.430  16.491 -0.4404 -0.0494 -0.2387
  858MPD2    C312597   2.740   4.519  16.552 -0.1871  0.0738  0.1591
  858MPD2    C412598   2.629   4.562  16.485 -0.3732 -0.6370  0.1927
  858MPD2    C512599   2.597   4.518  16.360 -0.1190  0.6248  0.0062
  858MPD2     H12600   2.917   4.399  16.529 -1.4370 -2.3263  0.4387
  858MPD2    H112601   2.573   4.645  16.527  0.0424 -0.3735  0.2218
  858MPD2    H212602   2.635   4.399  16.196  2.2102 -0.3598 -0.0768
  858MPD2    H312603   2.504   4.545  16.311 -0.3584 -1.4846 -0.7060
  858MPD2     N12604   2.759   4.573  16.678  0.0296 -0.3925  0.1286
  858MPD2    H512605   2.686   4.639  16.699  0.1532  0.6209 -2.6050
  858MPD2    N112606   2.862   4.278  16.314  0.0406  0.1224 -0.5751
  858MPD2    H712607   2.939   4.251  16.374 -0.6007 -0.6565 -0.1103
  859MPD2     C12608   0.972   1.761  15.021  0.5599  0.0664 -0.6646
  859MPD2    C112609   1.092   1.734  15.072  0.2714  0.1691  0.5847
  859MPD2    C212610   1.130   1.596  15.094 -0.4818 -0.0173 -0.5452
  859MPD2    C312611   1.039   1.491  15.068  0.8905 -0.6682 -0.1950
  859MPD2    C412612   0.912   1.527  15.028  0.0855  0.1752 -0.0110
  859MPD2    C512613   0.880   1.658  14.994  0.4141 -0.2874 -0.3444
  859MPD2     H12614   1.226   1.569  15.138 -0.8696  1.3591  1.1644
  859MPD2    H112615   0.829   1.459  15.026 -0.2273  0.4942  1.8505
  859MPD2    H212616   0.938   1.863  15.010 -0.6484  0.0402  2.9491
  859MPD2    H312617   0.776   1.681  14.973  0.4876 -0.0500 -0.4488
  859MPD2     N12618   1.069   1.355  15.088  0.1467 -0.4034 -0.3507
  859MPD2    H512619   0.993   1.294  15.060 -0.8687  0.5364  0.3664
  859MPD2    N112620   1.177   1.839  15.110  0.1071 -0.5059 -0.6043
  859MPD2    H712621   1.156   1.932  15.074  1.7407 -0.1495 -0.6323
  860MPD2     C12622   3.816   2.584  11.518  0.1134  0.3149 -0.2400
  860MPD2    C112623   3.864   2.493  11.611  0.8525  0.5571 -0.2218
  860MPD2    C212624   3.772   2.413  11.682 -0.2715  0.8536  0.0123
  860MPD2    C312625   3.635   2.435  11.667 -0.2558  0.0806  0.6157
  860MPD2    C412626   3.594   2.540  11.581  0.5038  0.1959  0.9607
  860MPD2    C512627   3.683   2.615  11.509 -0.0973 -0.4767  0.4397
  860MPD2     H12628   3.817   2.357  11.764 -1.7619 -1.6021 -0.8600
  860MPD2    H112629   3.490   2.569  11.568  1.2054  0.7336 -3.4748
  860MPD2    H212630   3.887   2.636  11.455  0.7647  0.1494  0.3558
  860MPD2    H312631   3.651   2.695  11.443 -0.4759 -0.5994  0.4780
  860MPD2     N12632   3.543   2.367  11.752 -0.4794 -0.0236 -0.0562
  860MPD2    H512633   3.448   2.404  11.750 -0.9634 -1.3046 -1.1603
  860MPD2    N112634   4.001   2.489  11.658  0.0963  0.0719 -0.4550
  860MPD2    H712635   4.031   2.420  11.727 -0.5771 -1.2431 -1.4823
  861MPD2     C12636   1.989   0.378  11.037 -0.6012 -0.5516  0.3412
  861MPD2    C112637   2.070   0.490  11.064 -0.0212  0.3388  0.2290
  861MPD2    C212638   2.052   0.607  10.989  0.4207  0.2900 -0.5168
  861MPD2    C312639   1.945   0.611  10.903  0.0177 -0.9017 -0.2105
  861MPD2    C412640   1.865   0.500  10.872  0.1195 -0.0246 -0.1177
  861MPD2    C512641   1.894   0.378  10.935 -0.0832  0.8066 -0.2287
  861MPD2     H12642   2.092   0.702  11.020  3.3537 -0.8795 -0.7161
  861MPD2    H112643   1.787   0.495  10.797  1.3746  0.8632 -1.5049
  861MPD2    H212644   2.007   0.283  11.085 -0.8546 -0.8331 -0.1166
  861MPD2    H312645   1.837   0.289  10.910  0.9018 -0.1825  1.0569
  861MPD2     N12646   1.912   0.739  10.858  0.2735  0.3647 -0.0267
  861MPD2    H512647   1.974   0.809  10.896 -0.0499  1.4938 -1.5914
  861MPD2    N112648   2.168   0.496  11.164  0.1191  0.3159  0.0205
  861MPD2    H712649   2.219   0.584  11.169 -0.7479  0.7888  0.4551
  862MPD2     C12650   1.709   0.969  10.147 -0.4533 -0.0339  0.3519
  862MPD2    C112651   1.739   0.886  10.254 -0.2436  0.3154 -0.9430
  862MPD2    C212652   1.768   0.754  10.226 -0.2237  0.1092 -0.9953
  862MPD2    C312653   1.782   0.706  10.095  0.2906 -0.6766 -0.4663
  862MPD2    C412654   1.762   0.793   9.986 -0.5960 -0.2201 -0.2508
  862MPD2    C512655   1.724   0.934  10.022 -0.1303 -0.6165  0.0687
  862MPD2     H12656   1.792   0.691  10.311 -0.8889  0.1161 -0.8082
  862MPD2    H112657   1.779   0.761   9.884 -2.3272 -3.2253  0.3957
  862MPD2    H212658   1.686   1.074  10.156  1.8790  0.5605 -0.6334
  862MPD2    H312659   1.714   1.001   9.937 -0.7061  1.2211  1.5799
  862MPD2     N12660   1.832   0.576  10.073 -0.0933  1.2763  0.1432
  862MPD2    H512661   1.831   0.557   9.973  0.5011  1.3063  0.1318
  862MPD2    N112662   1.734   0.926  10.389  0.1476 -0.9284 -0.5134
  862MPD2    H712663   1.737   0.863  10.468 -0.4670  0.3025  0.5106
  863MPD2     C12664   0.672   3.458  17.480  0.5330 -0.0744 -0.4489
  863MPD2    C112665   0.783   3.444  17.397  0.0907 -0.1935  1.0336
  863MPD2    C212666   0.910   3.420  17.453  0.6772 -0.3219 -0.2889
  863MPD2    C312667   0.926   3.412  17.588  0.0257 -0.4030 -0.0313
  863MPD2    C412668   0.814   3.411  17.667 -0.1992 -0.4463  0.8728
  863MPD2    C512669   0.688   3.433  17.613 -0.2995  1.0152 -0.1269
  863MPD2     H12670   0.995   3.409  17.385  0.4953 -1.6665 -0.2867
  863MPD2    H112671   0.814   3.394   0.071  1.2356  4.2479  1.6218
  863MPD2    H212672   0.572   3.473  17.439 -0.0927  0.8112  1.4072
  863MPD2    H312673   0.597   3.435  17.672 -0.1041  0.8489  0.1813
  863MPD2     N12674   1.052   3.409  17.653  0.4625  0.3336  0.3710
  863MPD2    H512675   1.058   3.398   0.051  0.4490 -0.0597  0.3298
  863MPD2    N112676   0.757   3.431  17.254 -0.6248 -0.2054 -0.5291
  863MPD2    H712677   0.659   3.434  17.229 -0.8686 -1.0512  0.3217
  864MPD2     C12678   1.299   0.001  16.935 -0.2216 -0.7038 -0.8900
  864MPD2    C112679   1.349   4.631  16.847 -0.4476  0.2182 -0.5701
  864MPD2    C212680   1.464   4.659  16.769  0.0712  0.2210  0.4569
  864MPD2    C312681   1.528   0.055  16.779 -0.0165 -0.4343  0.3179
  864MPD2    C412682   1.470   0.158  16.854  0.2488 -0.2867 -0.5165
  864MPD2    C512683   1.358   0.127  16.927 -0.0547 -0.2393  0.4661
  864MPD2     H12684   1.507   4.577  16.712  2.7901  0.6869  1.8327
  864MPD2    H112685   1.508   0.258  16.871 -0.1328  0.0067 -1.4091
  864MPD2    H212686   1.208   4.709  16.991  1.3030  1.7113  2.2953
  864MPD2    H312687   1.311   0.202  16.990 -3.0660 -1.2703 -0.5543
  864MPD2     N12688   1.649   0.079  16.707  0.5628 -0.2743  0.6847
  864MPD2    H512689   1.668   0.178  16.691 -1.1760  0.0417  0.5753
  864MPD2    N112690   1.291   4.505  16.856  0.3382  0.2584  0.1091
  864MPD2    H712691   1.226   4.488  16.932  0.2222 -1.7909 -0.4758
  865MPD2     C12692   1.661   4.508  15.792  0.8566 -0.0927 -0.6070
  865MPD2    C112693   1.703   4.409  15.884 -0.4706  0.3668 -0.6718
  865MPD2    C212694   1.748   4.453  16.008 -0.2620  0.9332  0.0733
  865MPD2    C312695   1.750   4.592  16.039 -0.7689  1.2156 -0.2996
  865MPD2    C412696   1.702   4.688  15.949 -0.0445 -0.1444 -0.6886
  865MPD2    C512697   1.665   4.645  15.825  0.3179  0.4383 -0.1251
  865MPD2     H12698   1.774   4.381  16.085  1.5054  1.9650  0.4432
  865MPD2    H112699   1.711   0.070  15.963  0.4734  0.0662 -2.6966
  865MPD2    H212700   1.620   4.473  15.698  0.9537  2.4023 -1.5687
  865MPD2    H312701   1.642   4.720  15.750 -0.8199 -0.5972 -0.8024
  865MPD2     N12702   1.794   4.624  16.170  0.2837 -0.4276 -0.5089
  865MPD2    H512703   1.832   4.549  16.229 -0.7037  0.6763  1.5306
  865MPD2    N112704   1.698   4.271  15.855  0.2624  0.6053  1.1013
  865MPD2    H712705   1.637   4.244  15.778 -0.2856  2.6756  0.8043
  866MPD2     C12706   3.009   1.041  11.207  0.5493 -0.4944  0.6260
  866MPD2    C112707   2.982   1.008  11.075  0.4449 -0.1816 -0.1850
  866MPD2    C212708   2.905   1.091  10.998 -0.5544  0.2897 -0.1287
  866MPD2    C312709   2.824   1.182  11.065  1.0291  0.0950 -0.3914
  866MPD2    C412710   2.847   1.211  11.201 -0.0848  0.2744 -0.4917
  866MPD2    C512711   2.946   1.141  11.264 -0.3919 -0.0381  0.2894
  866MPD2     H12712   2.900   1.091  10.890  0.4320  1.0120 -0.1645
  866MPD2    H112713   2.785   1.284  11.252  0.2840  0.4701 -0.3185
  866MPD2    H212714   3.065   0.975  11.273  1.0075  0.9455  1.6688
  866MPD2    H312715   2.961   1.161  11.370  0.0626  1.0776  0.0147
  866MPD2     N12716   2.716   1.253  11.000  0.9227 -1.0168 -0.6506
  866MPD2    H512717   2.656   1.303  11.065 -0.1032 -0.9796 -1.6238
  866MPD2    N112718   3.053   0.909  11.009  0.0903 -0.4531 -0.7040
  866MPD2    H712719   3.041   0.904  10.908 -0.1734 -0.7048 -0.6615
  867MPD2     C12720   0.974   4.627  16.740 -0.0638  0.7290  0.1956
  867MPD2    C112721   0.898   4.593  16.852 -0.8119  0.0857  0.7185
  867MPD2    C212722   0.882   4.692  16.949  0.4337 -0.1686  1.0210
  867MPD2    C312723   0.935   0.090  16.936 -1.0201  0.2883 -0.0856
  867MPD2    C412724   1.010   0.120  16.824 -0.0349  0.3296  0.3901
  867MPD2    C512725   1.028   0.027  16.728 -0.4215  0.8908 -0.1985
  867MPD2     H12726   0.818   4.671  17.034 -0.4676 -0.7310  0.2018
  867MPD2    H112727   1.051   0.219  16.810  0.5090  0.2989  1.7472
  867MPD2    H212728   0.994   4.553  16.663  1.7221  2.4781 -1.0085
  867MPD2    H312729   1.073   0.054  16.633  0.5839 -2.0154 -0.5601
  867MPD2     N12730   0.921   0.202  17.027  0.0923  0.3680 -0.1797
  867MPD2    H512731   0.958   0.291  16.995  2.6262  0.2121  2.2386
  867MPD2    N112732   0.846   4.457  16.851 -0.0566 -0.6718  0.2477
  867MPD2    H712733   0.864   4.411  16.763 -0.3038  1.6021 -0.9947
  868MPD2     C12734   2.140   3.883  12.804 -0.5312  0.2937  0.6679
  868MPD2    C112735   2.132   3.807  12.918  0.1471  0.1876 -0.0597
  868MPD2    C212736   2.013   3.764  12.966 -0.4279 -0.2957 -0.1048
  868MPD2    C312737   1.892   3.808  12.902 -0.2957  0.6320 -0.1338
  868MPD2    C412738   1.904   3.888  12.793 -0.0217 -0.2347  1.3048
  868MPD2    C512739   2.024   3.922  12.746 -0.1253 -0.2037  0.4068
  868MPD2     H12740   2.001   3.703  13.054 -2.7917  0.9995  0.4640
  868MPD2    H112741   1.824   3.925  12.730  0.1913  1.1574  1.8556
  868MPD2    H212742   2.236   3.891  12.754 -1.3539  3.3502 -0.4165
  868MPD2    H312743   2.020   3.980  12.654  2.6803  1.1785  1.1625
  868MPD2     N12744   1.767   3.777  12.959 -0.3280  0.5264 -0.1261
  868MPD2    H512745   1.755   3.741  13.053  0.7872 -2.5032 -1.1445
  868MPD2    N112746   2.257   3.754  12.970  0.5505  1.2392  0.0482
  868MPD2    H712747   2.330   3.798  12.915  1.3626  0.0803  0.2047
  869MPD2     C12748   4.340   0.477   1.169 -0.5836  0.0758 -0.6800
  869MPD2    C112749   4.218   0.451   1.228 -0.8346  0.1058  0.1745
  869MPD2    C212750   4.101   0.506   1.180  0.5069 -0.3407  0.7171
  869MPD2    C312751   4.110   0.606   1.080  0.1314  0.4438 -0.2726
  869MPD2    C412752   4.234   0.631   1.019  0.4604 -0.0033  0.0160
  869MPD2    C512753   4.346   0.568   1.066  0.6655  0.5090  0.1080
  869MPD2     H12754   4.005   0.475   1.218 -0.4619 -0.6860 -1.9660
  869MPD2    H112755   4.246   0.709   0.946  1.8292 -1.2125 -1.0499
  869MPD2    H212756   4.433   0.439   1.210 -0.9385 -0.5989 -0.5007
  869MPD2    H312757   4.445   0.591   1.029  0.8581 -1.3213 -0.5423
  869MPD2     N12758   3.996   0.680   1.038  0.1404  0.2947 -0.2283
  869MPD2    H512759   4.010   0.736   0.954 -3.1577  1.0132 -0.3000
  869MPD2    N112760   4.225   0.365   1.346 -0.3220  0.1894 -1.0439
  869MPD2    H712761   4.316   0.342   1.386 -1.1817 -0.5387  0.4747
  870MPD2     C12762   3.089   4.618   1.876  0.0587  0.2732 -0.4014
  870MPD2    C112763   3.154   4.664   1.766 -0.6966  0.1409 -0.0447
  870MPD2    C212764   3.096   0.050   1.703 -0.5294  0.1929  0.7934
  870MPD2    C312765   2.965   0.095   1.742  0.5416  0.6998  0.3774
  870MPD2    C412766   2.905   0.045   1.853  0.5096 -0.6064  0.7489
  870MPD2    C512767   2.975   4.673   1.920 -0.3384  1.0281 -0.1943
  870MPD2     H12768   3.142   0.079   1.609 -0.5243 -1.4213  0.3029
  870MPD2    H112769   2.812   0.081   1.897  0.1247  0.6164 -1.0514
  870MPD2    H212770   3.133   4.546   1.944 -0.9871  1.2218  1.2868
  870MPD2    H312771   2.936   4.641   2.016 -0.4758 -0.4700 -0.7465
  870MPD2     N12772   2.904   0.197   1.660  0.1730 -0.0832 -0.0127
  870MPD2    H512773   2.965   0.239   1.590  0.0838 -0.1393 -0.1248
  870MPD2    N112774   3.270   4.602   1.731 -0.4126  0.1254 -0.5667
  870MPD2    H712775   3.289   4.508   1.764 -1.3550  0.0287 -0.3054
  871MPD2     C12776   4.028   4.375  16.241  0.2033 -0.3608  0.9380
  871MPD2    C112777   4.110   4.370  16.354 -1.3460  0.0582 -0.6715
  871MPD2    C212778   4.205   4.273  16.366  0.5699 -0.7913  0.2563
  871MPD2    C312779   4.233   4.193  16.255  0.3919 -0.0733 -0.5973
  871MPD2    C412780   4.155   4.199  16.145  0.2539 -0.1386  0.7845
  871MPD2    C512781   4.051   4.286  16.134  0.1018  0.2324  0.0426
  871MPD2     H12782   4.262   4.257  16.456  1.9064  1.1970 -0.2655
  871MPD2    H112783   4.166   4.130  16.061 -3.2598 -0.2322  0.3889
  871MPD2    H212784   3.956   4.456  16.233  1.4364  0.5373 -1.0981
  871MPD2    H312785   3.995   4.298  16.042 -0.2987  0.2214  0.2884
  871MPD2     N12786   4.334   4.089  16.273  0.1926 -0.1100 -0.1482
  871MPD2    H512787   4.387   4.089  16.359  1.7130 -0.0804 -1.0786
  871MPD2    N112788   4.076   4.454  16.465 -0.1492 -0.0884  0.3486
  871MPD2    H712789   4.033   4.544  16.445  1.1836  0.5939  0.5333
  872MPD2     C12790   4.533   2.569  13.539  0.1802 -0.5820 -0.2505
  872MPD2    C112791   4.590   2.652  13.639  0.3215  0.4401  0.2290
  872MPD2    C212792   4.564   2.638  13.773  0.5643  0.7701 -0.3151
  872MPD2    C312793   4.456   2.550  13.800  1.4074  0.1842 -0.8150
  872MPD2    C412794   4.397   2.484  13.697  0.1611  0.4369 -0.1478
  872MPD2    C512795   4.435   2.484  13.571 -0.5012 -0.2726  0.0072
  872MPD2     H12796   4.618   2.700  13.844  1.4529 -1.3339  0.8257
  872MPD2    H112797   4.308   2.426  13.722  0.7075  0.9223  2.8729
  872MPD2    H212798   4.552   2.574  13.433  0.6946  0.6858 -0.0957
  872MPD2    H312799   4.376   2.424  13.503 -1.8795  0.9515  0.1461
  872MPD2     N12800   4.396   2.527  13.930 -0.6164  0.1881 -0.0223
  872MPD2    H512801   4.307   2.477  13.931 -0.9474  0.7933  0.3859
  872MPD2    N112802   4.676   2.758  13.598 -0.5937  0.1755 -0.1513
  872MPD2    H712803   4.722   2.804  13.676 -0.7848 -0.6827  0.4612
  873MPD2     C12804   1.892   1.818   0.705  0.2718 -0.9496 -0.0991
  873MPD2    C112805   1.949   1.739   0.796  0.4791 -0.2714  0.7668
  873MPD2    C212806   2.017   1.617   0.758 -0.3049 -0.4035  0.6144
  873MPD2    C312807   2.010   1.568   0.627 -0.6652 -0.7833  1.1140
  873MPD2    C412808   1.938   1.647   0.538  0.6966  0.8671 -0.5240
  873MPD2    C512809   1.887   1.771   0.572  0.2471 -0.3302 -0.4417
  873MPD2     H12810   2.072   1.565   0.835  0.2712 -0.1259  0.3910
  873MPD2    H112811   1.914   1.610   0.439 -3.6343  2.9466 -0.2499
  873MPD2    H212812   1.851   1.914   0.734  0.8004 -0.9307  0.5901
  873MPD2    H312813   1.834   1.829   0.498  1.1181  0.9131 -0.0994
  873MPD2     N12814   2.067   1.446   0.583  0.5632 -0.6109 -0.4709
  873MPD2    H512815   2.042   1.408   0.492 -0.5786  0.8301 -0.7581
  873MPD2    N112816   1.931   1.780   0.926 -0.1646 -0.7334  0.0076
  873MPD2    H712817   1.880   1.866   0.943 -0.4703 -0.7881 -0.6380
  874MPD2     C12818   1.705   2.671  15.908  0.3839  0.5836 -0.4810
  874MPD2    C112819   1.648   2.593  16.003  0.3236  0.2743  1.0488
  874MPD2    C212820   1.719   2.561  16.110 -0.3186  0.2726  0.2702
  874MPD2    C312821   1.843   2.607  16.141 -0.6005 -0.1306 -0.2218
  874MPD2    C412822   1.891   2.706  16.062  0.1015  0.0023 -0.2548
  874MPD2    C512823   1.823   2.734  15.947  0.7149  0.3208  0.8311
  874MPD2     H12824   1.683   2.485  16.179 -0.4668 -1.6596 -1.9239
  874MPD2    H112825   1.982   2.763  16.080  0.4765 -1.4309  2.3467
  874MPD2    H212826   1.656   2.705  15.817 -0.5719 -0.8103 -0.4821
  874MPD2    H312827   1.868   2.813  15.888 -1.8594  1.3589  0.2627
  874MPD2     N12828   1.914   2.560  16.255 -0.3246 -0.3404 -0.2668
  874MPD2    H512829   1.879   2.476  16.300  0.7403  0.1571  1.4627
  874MPD2    N112830   1.535   2.519  15.970 -0.3183  0.9432 -0.2395
  874MPD2    H712831   1.503   2.507  15.875 -0.1553 -0.5146 -0.1221
  875MPD2     C12832   2.701   0.874  14.558 -0.2484  0.3250  0.0777
  875MPD2    C112833   2.566   0.901  14.577 -0.2885 -0.5603  0.3397
  875MPD2    C212834   2.512   0.877  14.702 -0.7341  0.4679  0.1297
  875MPD2    C312835   2.589   0.839  14.811  0.2123  0.0028 -0.0549
  875MPD2    C412836   2.721   0.808  14.790 -0.0621 -0.0931  0.3697
  875MPD2    C512837   2.775   0.822  14.665  0.0771 -0.1100  0.4861
  875MPD2     H12838   2.407   0.902  14.715 -0.1369  2.4216  1.1475
  875MPD2    H112839   2.791   0.785  14.869  0.7558  4.2083  0.9192
  875MPD2    H212840   2.751   0.894  14.465 -0.1357  1.8929  0.4786
  875MPD2    H312841   2.883   0.816  14.654 -0.0573  0.2583 -1.0260
  875MPD2     N12842   2.546   0.845  14.945  0.2780 -0.6410  0.1807
  875MPD2    H512843   2.618   0.843  15.016  2.0591 -0.7028 -1.6126
  875MPD2    N112844   2.481   0.926  14.465  0.3445  0.7066  0.1019
  875MPD2    H712845   2.383   0.938  14.485 -0.3324 -2.5793 -1.1478
  876MPD2     C12846   1.436   2.063  15.792 -0.2309 -0.4715 -0.2076
  876MPD2    C112847   1.571   2.056  15.828 -0.6977 -0.5336  0.0636
  876MPD2    C212848   1.610   1.946  15.901  0.0206  0.0063  0.1081
  876MPD2    C312849   1.520   1.847  15.943 -0.0341 -0.9606 -0.4187
  876MPD2    C412850   1.381   1.869  15.917  0.2664  0.5917  0.7513
  876MPD2    C512851   1.341   1.975  15.844 -0.0998  0.0577  0.1270
  876MPD2     H12852   1.715   1.933  15.921 -0.2480 -3.4380 -0.5688
  876MPD2    H112853   1.305   1.799  15.949  0.3801 -0.1113 -0.5136
  876MPD2    H212854   1.402   2.142  15.726 -0.8152 -1.1025 -0.6668
  876MPD2    H312855   1.243   1.995  15.804 -0.5342 -0.1620  1.0979
  876MPD2     N12856   1.577   1.737  16.010  0.0053 -0.6036  0.0492
  876MPD2    H512857   1.678   1.733  16.013  0.0264  1.2501  2.2843
  876MPD2    N112858   1.655   2.159  15.777 -0.0581 -0.0967 -0.4819
  876MPD2    H712859   1.616   2.213  15.700 -0.1915 -0.9335 -1.0092
  877MPD2     C12860   1.530   2.470  15.218  0.3137 -0.0435 -0.7448
  877MPD2    C112861   1.647   2.538  15.226 -0.2463 -0.2967 -0.1192
  877MPD2    C212862   1.709   2.573  15.109 -1.0802 -0.4158  0.2727
  877MPD2    C312863   1.650   2.546  14.982 -0.0836  0.5595  0.2663
  877MPD2    C412864   1.523   2.497  14.985 -0.1032 -0.1759 -0.2359
  877MPD2    C512865   1.461   2.458  15.099  0.3118  0.2832 -0.4152
  877MPD2     H12866   1.813   2.603  15.108 -1.4252  0.7000 -2.0801
  877MPD2    H112867   1.475   2.483  14.888 -2.4752 -1.3896  1.0864
  877MPD2    H212868   1.473   2.446  15.307  0.2045 -1.4706 -1.1967
  877MPD2    H312869   1.355   2.434  15.104  0.5406 -0.7153 -0.3934
  877MPD2     N12870   1.707   2.574  14.853  0.3316 -0.7365 -0.1474
  877MPD2    H512871   1.655   2.560  14.767  1.6729  0.2520 -1.1350
  877MPD2    N112872   1.721   2.539  15.343  0.7376 -0.6024  0.3129
  877MPD2    H712873   1.819   2.562  15.335  0.0889  2.6868  1.5317
  878MPD2     C12874   1.143   1.870  12.965 -0.2882  0.1904 -0.2537
  878MPD2    C112875   1.217   1.986  12.964  0.0579  0.7908  0.0700
  878MPD2    C212876   1.237   2.052  13.086  0.8306  0.5569 -0.9996
  878MPD2    C312877   1.182   2.005  13.202  0.3815 -0.3417 -0.9608
  878MPD2    C412878   1.109   1.889  13.205  1.2133 -0.2454  0.2819
  878MPD2    C512879   1.087   1.827  13.082 -0.0861 -0.0954 -0.8919
  878MPD2     H12880   1.298   2.142  13.085  0.5666  0.7454  0.2590
  878MPD2    H112881   1.059   1.853  13.294  1.8016 -1.0603  0.2842
  878MPD2    H212882   1.117   1.809  12.880  1.4923 -0.6751 -0.1871
  878MPD2    H312883   1.021   1.741  13.078 -0.0978  0.0463 -3.7634
  878MPD2     N12884   1.210   2.077  13.320  0.3300  0.2302  0.1135
  878MPD2    H512885   1.260   2.165  13.314  1.0594 -0.0886  1.4548
  878MPD2    N112886   1.257   2.037  12.842 -0.6540 -0.5988 -0.3272
  878MPD2    H712887   1.214   1.991  12.763  0.5892 -1.8832 -0.2685
  879MPD2     C12888   2.442   3.275  17.450 -0.1005  0.2669 -0.3739
  879MPD2    C112889   2.358   3.249  17.550  0.2673 -0.4001 -0.2602
  879MPD2    C212890   2.254   3.159  17.530 -0.3673 -0.6260 -0.0027
  879MPD2    C312891   2.254   3.085  17.413 -0.8571 -0.4581 -0.0326
  879MPD2    C412892   2.346   3.108  17.313 -0.5074  0.3247  0.0481
  879MPD2    C512893   2.443   3.198  17.335  0.5400  0.1421  0.3139
  879MPD2     H12894   2.179   3.142  17.606  0.6915 -0.8371  0.9954
  879MPD2    H112895   2.351   3.066  17.213  2.2438  2.6297 -0.7810
  879MPD2    H212896   2.525   3.342  17.470  0.4785 -0.2568 -1.0455
  879MPD2    H312897   2.518   3.198  17.257  0.7006 -2.3356  0.4705
  879MPD2     N12898   2.156   2.992  17.370  0.0201 -0.0578  0.3049
  879MPD2    H512899   2.166   2.946  17.280 -0.6846 -2.6391  1.5405
  879MPD2    N112900   2.386   3.318  17.670  0.5949  0.0604  0.0371
  879MPD2    H712901   2.470   3.374  17.656 -0.4981  2.1465  1.8994
  880MPD2     C12902   3.135   4.271   0.424  0.5876  0.9203  0.7483
  880MPD2    C112903   3.133   4.343   0.535 -0.0823 -0.1172  0.1662
  880MPD2    C212904   3.152   4.286   0.656  0.0599  0.6685 -0.2727
  880MPD2    C312905   3.153   4.148   0.673 -0.5831 -0.1260 -0.1241
  880MPD2    C412906   3.154   4.076   0.561 -1.1177 -0.0952  0.6429
  880MPD2    C512907   3.147   4.131   0.437 -0.6137  0.1413  0.1753
  880MPD2     H12908   3.146   4.343   0.748 -0.6306 -1.5463  1.0433
  880MPD2    H112909   3.141   3.969   0.574 -0.5226 -0.3226 -0.6204
  880MPD2    H212910   3.109   4.311   0.327  1.4022  0.0427  0.1718
  880MPD2    H312911   3.139   4.061   0.354 -2.1577 -0.7615  1.0888
  880MPD2     N12912   3.162   4.098   0.806  0.9478 -0.8569  0.3176
  880MPD2    H512913   3.158   4.175   0.872 -0.7049 -0.4970 -0.1916
  880MPD2    N112914   3.114   4.479   0.517 -0.4255 -0.1540  0.2534
  880MPD2    H712915   3.085   4.511   0.424  4.0199  0.9389 -0.7620
  881MPD2     C12916   2.910   0.498  17.589  0.2189 -0.4244 -0.6676
  881MPD2    C112917   3.022   0.420  17.592 -0.3588 -0.1593  0.8752
  881MPD2    C212918   3.038   0.346   0.006  0.4949  0.2334 -0.1192
  881MPD2    C312919   2.958   0.359   0.121  0.4328 -0.8579 -0.7909
  881MPD2    C412920   2.858   0.451   0.109 -0.1726 -0.1900 -0.0620
  881MPD2    C512921   2.830   0.507  17.695  0.4385 -0.7421 -0.1126
  881MPD2     H12922   3.114   0.269   0.017  0.2956  0.3450  2.1414
  881MPD2    H112923   2.789   0.477   0.188  2.2289 -0.9956  2.2881
  881MPD2    H212924   2.880   0.525  17.489 -4.9767  0.8881  1.2366
  881MPD2    H312925   2.746   0.576  17.687  0.9936 -0.1547 -0.8623
  881MPD2     N12926   2.965   0.282   0.240  0.2238  0.6100  0.4274
  881MPD2    H512927   2.910   0.324   0.314  0.4311  0.5780  0.6014
  881MPD2    N112928   3.099   0.397  17.472  0.7802  0.1977  0.1608
  881MPD2    H712929   3.082   0.469  17.402 -1.2478 -1.2124 -0.7936
  882MPD2     C12930   1.723   2.219  14.202  1.1227 -0.4423  1.0257
  882MPD2    C112931   1.655   2.326  14.262 -0.5227  1.1118 -0.1783
  882MPD2    C212932   1.518   2.310  14.277 -0.5304  0.3120  0.0307
  882MPD2    C312933   1.454   2.205  14.211  0.7809 -0.0507 -0.3495
  882MPD2    C412934   1.527   2.099  14.161 -0.4095  0.3466 -0.0007
  882MPD2    C512935   1.661   2.109  14.157 -0.5551  0.2171  0.5464
  882MPD2     H12936   1.467   2.397  14.317 -0.0807  1.0234 -0.9311
  882MPD2    H112937   1.483   2.009  14.119  0.4928 -0.5778  1.0369
  882MPD2    H212938   1.831   2.228  14.198  1.1173 -0.3878  0.9954
  882MPD2    H312939   1.734   2.033  14.130  1.3008  2.4355 -0.6900
  882MPD2     N12940   1.306   2.197  14.229  0.1934 -0.5906 -0.3516
  882MPD2    H512941   1.256   2.111  14.209 -2.0812  1.1161 -2.1196
  882MPD2    N112942   1.729   2.433  14.316  0.4495 -0.0781  0.0937
  882MPD2    H712943   1.829   2.417  14.305  0.2071 -0.5209 -1.6126
  883MPD2     C12944   3.527   1.890  16.354  0.1209  0.0272  0.2554
  883MPD2    C112945   3.546   1.983  16.257  0.0680 -0.0444  0.2350
  883MPD2    C212946   3.634   2.087  16.275  0.1696  0.0600  0.1078
  883MPD2    C312947   3.692   2.104  16.394  0.3973  0.0525  0.4640
  883MPD2    C412948   3.663   2.013  16.500 -0.3608 -0.3361 -0.0650
  883MPD2    C512949   3.583   1.908  16.475 -0.3404 -0.6778  0.1070
  883MPD2     H12950   3.668   2.144  16.189 -0.2682  0.0250 -0.0855
  883MPD2    H112951   3.703   2.014  16.601 -0.8079  1.8031  0.1027
  883MPD2    H212952   3.464   1.803  16.340 -1.7914  1.2920  0.9595
  883MPD2    H312953   3.560   1.844  16.559 -1.4524 -1.3321 -0.6987
  883MPD2     N12954   3.798   2.199  16.404  0.5150 -0.7808  0.2167
  883MPD2    H512955   3.840   2.236  16.320  2.9491  0.6465  2.0679
  883MPD2    N112956   3.496   1.958  16.122  0.1795 -0.4209  0.7354
  883MPD2    H712957   3.546   2.007  16.048  2.5163 -1.9265  1.3260
  884MPD2     C12958   0.905   2.883  15.439 -0.0351 -0.5147 -0.2475
  884MPD2    C112959   0.916   3.005  15.381  0.2982 -0.0406 -0.5842
  884MPD2    C212960   0.800   3.076  15.344 -1.0897 -0.1121 -0.2353
  884MPD2    C312961   0.677   3.030  15.392  0.9373  0.2694 -0.9613
  884MPD2    C412962   0.661   2.913  15.462  0.0606 -0.0988  0.5145
  884MPD2    C512963   0.778   2.840  15.477  0.7585  0.4031 -0.0060
  884MPD2     H12964   0.816   3.177  15.307 -2.2930 -0.2570 -1.1845
  884MPD2    H112965   0.564   2.875  15.493  0.2307  0.0220  1.2099
  884MPD2    H212966   0.989   2.818  15.461 -0.9748 -1.5059  0.4025
  884MPD2    H312967   0.778   2.740  15.518  0.3279  0.4665  0.1459
  884MPD2     N12968   0.565   3.108  15.356  0.5718 -0.2601 -0.0812
  884MPD2    H512969   0.587   3.195  15.309  0.4197 -0.7499 -1.0629
  884MPD2    N112970   1.035   3.052  15.315  0.1337  0.0942 -0.3771
  884MPD2    H712971   1.020   3.127  15.248 -0.3467  1.8744  1.7361
  885MPD2     C12972   3.717   2.557  17.519  0.7285  0.4328 -0.0346
  885MPD2    C112973   3.797   2.655  17.566 -0.4087  0.1009  0.1772
  885MPD2    C212974   3.827   2.750  17.471 -0.3951 -0.6271  0.3486
  885MPD2    C312975   3.768   2.755  17.342 -0.0854  0.4422  0.4294
  885MPD2    C412976   3.681   2.653  17.303  0.0590 -0.1497  0.5113
  885MPD2    C512977   3.665   2.549  17.395 -0.5168 -0.0918  0.3337
  885MPD2     H12978   3.899   2.827  17.498 -1.5819 -0.7531  3.9098
  885MPD2    H112979   3.649   2.632  17.201  0.5662  1.1044  0.0862
  885MPD2    H212980   3.698   2.468  17.578 -0.8349 -1.1092 -2.9027
  885MPD2    H312981   3.617   2.459  17.358  2.2530 -0.9335 -1.2353
  885MPD2     N12982   3.792   2.854  17.250 -0.3897 -0.3204  0.5463
  885MPD2    H512983   3.876   2.908  17.264 -2.0095  2.3876 -0.1321
  885MPD2    N112984   3.859   2.638  17.692  0.2475  0.5457 -0.0982
  885MPD2    H712985   3.846   2.550   0.039 -3.1551 -0.6187 -3.0328
  886MPD2     C12986   0.087   1.744  15.099  0.0569  0.3105 -0.2960
  886MPD2    C112987   0.217   1.711  15.078 -0.2645  0.5246  0.5425
  886MPD2    C212988   0.275   1.767  14.970 -0.0552  0.2647  0.1452
  886MPD2    C312989   0.233   1.896  14.931  0.0421  0.3117 -0.3668
  886MPD2    C412990   0.109   1.942  14.970 -0.0729 -0.1882 -0.5882
  886MPD2    C512991   0.033   1.859  15.049 -0.7431 -0.6342  0.1890
  886MPD2     H12992   0.373   1.733  14.938  0.5899  1.9412  0.3374
  886MPD2    H112993   0.076   2.040  14.935 -1.3856 -0.9865 -1.5890
  886MPD2    H212994   0.023   1.702  15.176  1.7990  0.8359  1.4738
  886MPD2    H312995   4.655   1.888  15.067 -0.3373  0.7558  0.2559
  886MPD2     N12996   0.308   1.983  14.854 -0.2023 -0.0272 -0.2548
  886MPD2    H512997   0.265   2.068  14.820 -0.6993 -0.5523 -0.9599
  886MPD2    N112998   0.281   1.606  15.146  0.4844  0.2688  0.1274
  886MPD2    H712999   0.373   1.585  15.108  0.0194 -1.1752 -0.1763
  887MPD2     C13000   0.950   1.540  15.383  0.2672  0.6095 -0.0627
  887MPD2    C113001   0.836   1.604  15.369  0.0251  0.4033 -0.4874
  887MPD2    C213002   0.831   1.743  15.395 -0.3610 -0.4255  0.0933
  887MPD2    C313003   0.933   1.805  15.461 -0.2173  0.4342 -0.1029
  887MPD2    C413004   1.053   1.734  15.466  0.4869  0.4702  0.4922
  887MPD2    C513005   1.058   1.605  15.432 -0.0394  0.2103  0.2027
  887MPD2     H13006   0.739   1.798  15.377  0.3483  0.7316  0.0208
  887MPD2    H113007   1.147   1.775  15.500  0.9241 -0.9537  0.9887
  887MPD2    H213008   0.964   1.436  15.354 -0.9600  0.7098 -1.0157
  887MPD2    H313009   1.157   1.562  15.432 -1.2394 -2.5066  1.5612
  887MPD2     N13010   0.916   1.940  15.485 -0.0666  0.8404  1.0416
  887MPD2    H513011   0.830   1.988  15.462  0.2671  1.6028  1.3811
  887MPD2    N113012   0.713   1.548  15.335 -0.3096 -0.1194 -0.6505
  887MPD2    H713013   0.633   1.610  15.329  0.3592  0.6770 -1.4179
  888MPD2     C13014   2.695   1.870  14.869  0.0029  0.3546 -0.3769
  888MPD2    C113015   2.665   1.927  14.995 -0.0360 -0.1672 -1.0426
  888MPD2    C213016   2.717   2.050  15.030 -0.8508  0.1225  0.1212
  888MPD2    C313017   2.807   2.112  14.945 -0.3296  0.7928  1.0635
  888MPD2    C413018   2.838   2.052  14.829 -0.0801  0.1410  0.4293
  888MPD2    C513019   2.791   1.927  14.789 -0.7121 -0.3948  0.3110
  888MPD2     H13020   2.705   2.091  15.130  0.6342 -2.6699  1.4442
  888MPD2    H113021   2.892   2.097  14.746  1.4626 -0.5762  1.0484
  888MPD2    H213022   2.660   1.772  14.838 -2.0114  0.5810  1.1824
  888MPD2    H313023   2.826   1.876  14.700 -0.2198  0.2398  0.1452
  888MPD2     N13024   2.863   2.232  14.983  0.0624  0.4133  0.0516
  888MPD2    H513025   2.853   2.254  15.081  2.2837  2.1775 -0.1194
  888MPD2    N113026   2.577   1.863  15.095  0.4788 -0.5886  0.4524
  888MPD2    H713027   2.574   1.901  15.188  0.4320 -0.2990  0.3320
  889MPD2     C13028   3.039   1.044  14.058  0.3161 -0.0255  0.0603
  889MPD2    C113029   2.964   1.070  13.946  0.5257  0.2268 -0.0326
  889MPD2    C213030   2.976   1.198  13.891  0.0580 -0.2574 -0.0842
  889MPD2    C313031   3.019   1.302  13.979 -0.2827 -0.0003  0.7400
  889MPD2    C413032   3.066   1.275  14.106 -0.4016  0.4151 -1.1726
  889MPD2    C513033   3.086   1.142  14.141 -0.4563 -0.5303 -0.9274
  889MPD2     H13034   2.928   1.225  13.798 -1.0846  1.7660  1.0818
  889MPD2    H113035   3.110   1.353  14.167 -0.4026 -0.3037 -0.2454
  889MPD2    H213036   3.046   0.939  14.084 -0.8901 -0.2504 -0.5326
  889MPD2    H313037   3.135   1.121  14.235 -0.8720 -2.6815 -1.1981
  889MPD2     N13038   3.003   1.431  13.925 -0.4306 -0.5153  0.2329
  889MPD2    H513039   2.950   1.454  13.841  0.2833 -1.3854 -0.4670
  889MPD2    N113040   2.921   0.961  13.869 -0.7523 -0.2491  0.3049
  889MPD2    H713041   2.939   0.869  13.909 -0.4607  0.1288  1.0449
  890MPD2     C13042   1.517   2.908  14.466 -0.0105 -0.1315 -0.6552
  890MPD2    C113043   1.649   2.944  14.502 -0.0705 -0.0771 -0.4743
  890MPD2    C213044   1.696   2.955  14.634 -0.2014 -0.5066 -0.0485
  890MPD2    C313045   1.609   2.939  14.741  0.0728  0.3437  0.0163
  890MPD2    C413046   1.482   2.895  14.709  0.1663  0.1862  0.7284
  890MPD2    C513047   1.442   2.885  14.575  0.2059  0.4513  0.6222
  890MPD2     H13048   1.788   3.008  14.655 -1.2893  1.8040 -1.1218
  890MPD2    H113049   1.407   2.883  14.786 -1.3796  0.8116 -0.6802
  890MPD2    H213050   1.480   2.901  14.364 -1.1659  1.7172 -0.3582
  890MPD2    H313051   1.336   2.861  14.570  0.1410  0.7594  0.5098
  890MPD2     N13052   1.652   2.947  14.877 -0.7101 -0.2259 -0.1521
  890MPD2    H513053   1.747   2.979  14.890 -0.7887  0.3537 -0.9260
  890MPD2    N113054   1.732   2.972  14.387  0.1830 -0.4626  0.2618
  890MPD2    H713055   1.686   2.978  14.297  1.9090 -0.4192 -0.6119
  891MPD2     C13056   4.065   1.103  16.873 -0.3079 -0.2202 -0.0136
  891MPD2    C113057   4.154   1.210  16.877 -0.0615 -0.0307  0.0295
  891MPD2    C213058   4.278   1.188  16.927  0.2363 -0.0917 -0.2874
  891MPD2    C313059   4.316   1.067  16.969  0.1094  0.0985  0.4404
  891MPD2    C413060   4.226   0.959  16.961  0.0726  0.3618  0.1959
  891MPD2    C513061   4.099   0.982  16.914  0.2661  1.5742 -0.0219
  891MPD2     H13062   4.351   1.267  16.942 -1.3274  1.7608 -2.5543
  891MPD2    H113063   4.246   0.861  17.002  2.5289  0.6322 -0.2990
  891MPD2    H213064   3.965   1.120  16.836 -0.3195  1.3012  0.6946
  891MPD2    H313065   4.026   0.903  16.917  0.7261  1.1280 -0.7834
  891MPD2     N13066   4.447   1.051  17.022 -0.2118 -0.2197 -0.2247
  891MPD2    H513067   4.508   1.130  17.041 -0.7741 -0.2759  1.9277
  891MPD2    N113068   4.098   1.331  16.833 -0.5092  0.1643  0.0693
  891MPD2    H713069   4.006   1.337  16.791 -0.1109 -0.3065 -0.8738
  892MPD2     C13070   0.806   2.962  14.670 -0.4903 -0.5069 -0.4636
  892MPD2    C113071   0.730   2.852  14.699  0.0710  0.4166 -0.0902
  892MPD2    C213072   0.789   2.730  14.656  0.4571 -0.1364  0.0344
  892MPD2    C313073   0.908   2.723  14.586  0.8345 -0.2178 -0.6995
  892MPD2    C413074   0.987   2.835  14.573  0.0157 -0.5089  0.2848
  892MPD2    C513075   0.929   2.955  14.610  0.5419  0.2012  0.5001
  892MPD2     H13076   0.729   2.640  14.670  0.7983 -0.0992  1.7792
  892MPD2    H113077   1.075   2.833  14.510 -0.9826  0.3294 -1.1421
  892MPD2    H213078   0.774   3.062  14.698 -0.1758 -0.2154 -1.1295
  892MPD2    H313079   0.990   3.044  14.597  1.1417 -0.0622  1.5146
  892MPD2     N13080   0.948   2.604  14.524  0.1411  0.6101 -0.7926
  892MPD2    H513081   1.045   2.605  14.493  0.6780 -1.8373  0.7912
  892MPD2    N113082   0.600   2.856  14.755 -0.2528 -0.6956  0.2221
  892MPD2    H713083   0.553   2.772  14.787 -0.1365 -1.8764 -2.6531
  893MPD2     C13084   2.595   0.348   2.274  0.9104  0.5931 -0.6028
  893MPD2    C113085   2.707   0.263   2.249  0.1818 -0.8156 -0.1874
  893MPD2    C213086   2.704   0.132   2.297 -0.3743  0.1933 -0.2329
  893MPD2    C313087   2.592   0.090   2.367  0.1020  0.2443 -0.2361
  893MPD2    C413088   2.489   0.183   2.387 -0.5059 -0.2013  0.0487
  893MPD2    C513089   2.490   0.312   2.348 -0.5222 -0.1124  0.0914
  893MPD2     H13090   2.778   0.057   2.272  0.0396  0.1031  1.2921
  893MPD2    H113091   2.390   0.156   2.424 -0.0670 -1.0620  0.5764
  893MPD2    H213092   2.593   0.453   2.248 -0.3779  0.7590  0.2140
  893MPD2    H313093   2.414   0.388   2.365  1.1330  1.4387  0.5522
  893MPD2     N13094   2.577   4.680   2.397  0.4473 -0.6343  0.4161
  893MPD2    H513095   2.481   4.651   2.413 -0.2274  1.1740 -0.2880
  893MPD2    N113096   2.810   0.319   2.164  0.0661  0.3846  0.2575
  893MPD2    H713097   2.783   0.408   2.122 -1.5209 -1.0203 -1.7066
  894MPD2     C13098   0.054   3.781   0.746  0.4283  0.1915 -0.2634
  894MPD2    C113099   0.175   3.770   0.673  0.3635 -1.1171  0.7136
  894MPD2    C213100   0.293   3.768   0.748  0.1608 -1.1727 -0.3033
  894MPD2    C313101   0.293   3.758   0.891 -0.2002 -0.2338 -0.3855
  894MPD2    C413102   0.172   3.764   0.957  0.6334  0.4161 -0.3727
  894MPD2    C513103   0.057   3.781   0.881  0.4989 -0.8262 -0.5241
  894MPD2     H13104   0.391   3.748   0.707  1.6929  0.4482  2.5987
  894MPD2    H113105   0.153   3.753   1.063  0.9398 -1.9206 -0.5517
  894MPD2    H213106   4.678   3.796   0.710 -0.4047 -0.8405  1.5948
  894MPD2    H313107   4.688   3.786   0.934  0.5772  2.6543 -0.7369
  894MPD2     N13108   0.412   3.751   0.961 -0.3081  0.4294 -0.4540
  894MPD2    H513109   0.498   3.757   0.907  0.7502  1.0587  1.2894
  894MPD2    N113110   0.184   3.760   0.532  0.3347  0.3182 -0.2653
  894MPD2    H713111   0.273   3.754   0.484  0.2564 -1.6826 -0.1688
  895MPD2     C13112   4.317   2.139  14.026 -0.0133 -0.2201  0.7997
  895MPD2    C113113   4.286   2.190  13.904 -0.2900 -1.0965 -0.5257
  895MPD2    C213114   4.387   2.196  13.820  0.1941  0.1580  0.1889
  895MPD2    C313115   4.515   2.153  13.843 -0.0265  0.2006 -0.8553
  895MPD2    C413116   4.541   2.102  13.969  0.1559  0.0349  0.8668
  895MPD2    C513117   4.444   2.104  14.063  0.0474 -0.1822  0.3838
  895MPD2     H13118   4.351   2.211  13.719  0.3375  2.2882  0.4466
  895MPD2    H113119   4.640   2.071  14.000  1.3732  1.0493 -1.9648
  895MPD2    H213120   4.240   2.140  14.102 -1.5585  2.2590 -0.7808
  895MPD2    H313121   4.471   2.078  14.165 -1.6079 -0.6656  0.6988
  895MPD2     N13122   4.607   2.158  13.739 -0.1991  0.1392 -0.3470
  895MPD2    H513123   4.574   2.198  13.652  0.0970  0.6407 -0.2327
  895MPD2    N113124   4.158   2.217  13.853 -0.8206  0.0939 -0.7094
  895MPD2    H713125   4.157   2.240  13.754 -0.5869  1.1762 -0.4649
  896MPD2     C13126   2.523   4.184   1.384 -0.1662 -0.2653 -0.2122
  896MPD2    C113127   2.508   4.046   1.357 -0.5460 -0.5063  0.1550
  896MPD2    C213128   2.399   3.999   1.287  0.4752  0.2709  0.1988
  896MPD2    C313129   2.294   4.082   1.259  0.1497  1.0029  0.1516
  896MPD2    C413130   2.321   4.224   1.277 -0.2635  0.0054  0.7567
  896MPD2    C513131   2.425   4.271   1.348  0.4481 -0.1767 -0.7536
  896MPD2     H13132   2.394   3.895   1.256 -1.0867  0.8800 -1.6442
  896MPD2    H113133   2.248   4.296   1.240 -1.2999 -2.6078 -2.2533
  896MPD2    H213134   2.604   4.214   1.448  0.8991 -0.2456 -1.5623
  896MPD2    H313135   2.421   4.376   1.373 -0.4123 -0.6770  1.2245
  896MPD2     N13136   2.174   4.028   1.212 -0.3204  0.1491  0.1060
  896MPD2    H513137   2.183   3.927   1.205  1.5884  0.3129  0.1015
  896MPD2    N113138   2.611   3.963   1.401  0.0020 -0.2320 -0.6845
  896MPD2    H713139   2.690   4.012   1.441 -0.7073  0.2289  0.1620
  897MPD2     C13140   3.236   1.109  10.169  0.1084  0.2490 -0.1487
  897MPD2    C113141   3.264   1.235  10.217  0.4551 -0.5314  0.6177
  897MPD2    C213142   3.163   1.288  10.296 -0.1156  1.0091  0.0002
  897MPD2    C313143   3.047   1.227  10.325 -0.1614 -0.2822  0.2088
  897MPD2    C413144   3.046   1.096  10.302 -0.2162 -0.7100 -0.1048
  897MPD2    C513145   3.129   1.043  10.214  0.5127  1.0682  0.0674
  897MPD2     H13146   3.176   1.389  10.333  1.8171  0.7579 -0.0117
  897MPD2    H113147   2.959   1.034  10.321 -0.0804 -1.1100 -0.7710
  897MPD2    H213148   3.294   1.061  10.091 -0.9714  2.5826 -2.4075
  897MPD2    H313149   3.100   0.944  10.182 -2.2264  1.6016  0.9302
  897MPD2     N13150   2.938   1.297  10.385 -0.2131  0.6982  0.0761
  897MPD2    H513151   2.957   1.394  10.408 -0.3817  0.6512  0.4219
  897MPD2    N113152   3.363   1.309  10.166  0.0013  0.4835 -0.3404
  897MPD2    H713153   3.412   1.275  10.084 -0.6189 -2.6692  0.5895
  898MPD2     C13154   0.821   1.953   0.043  0.4133 -0.6952 -0.1675
  898MPD2    C113155   0.852   1.977  17.612 -0.1154 -0.2155 -0.8015
  898MPD2    C213156   0.822   2.106  17.566  0.6822  0.4027 -0.3625
  898MPD2    C313157   0.761   2.206  17.636 -0.5492 -0.0471  0.0982
  898MPD2    C413158   0.732   2.176   0.066  0.4185  0.4155 -0.0392
  898MPD2    C513159   0.768   2.052   0.117 -0.3620 -0.1935  0.2007
  898MPD2     H13160   0.845   2.132  17.463 -1.3700 -1.1477 -1.1995
  898MPD2    H113161   0.681   2.247   0.130  1.3017  2.7113 -1.8588
  898MPD2    H213162   0.844   1.856   0.084  1.5572 -1.4827 -2.6434
  898MPD2    H313163   0.744   2.024   0.219  0.7098  0.7206  0.7045
  898MPD2     N13164   0.742   2.337  17.578 -0.0971 -0.1208  0.2673
  898MPD2    H513165   0.754   2.348  17.478 -0.0662  3.8308  0.6755
  898MPD2    N113166   0.918   1.883  17.522  0.0089 -0.2960 -0.1906
  898MPD2    H713167   0.963   1.918  17.438 -0.8866  0.7191 -0.2544
  899MPD2     C13168   1.606   2.993   0.397  0.2399  0.4417  0.2101
  899MPD2    C113169   1.497   3.081   0.397  0.2260  0.0458  0.0654
  899MPD2    C213170   1.397   3.060   0.494 -0.4327 -0.4264  0.3700
  899MPD2    C313171   1.409   2.950   0.582  0.3638 -0.5202 -0.5255
  899MPD2    C413172   1.528   2.878   0.582  0.2378 -0.3248 -0.2635
  899MPD2    C513173   1.622   2.897   0.488  0.1402 -1.0557  0.0564
  899MPD2     H13174   1.312   3.125   0.505 -0.0876 -0.1183  1.2046
  899MPD2    H113175   1.542   2.796   0.651 -0.6558 -0.6269 -0.4479
  899MPD2    H213176   1.685   3.021   0.328  0.2615  1.8671  0.8051
  899MPD2    H313177   1.713   2.837   0.489  0.9856  0.2631  1.5436
  899MPD2     N13178   1.308   2.925   0.677 -0.8945 -0.3068 -0.1380
  899MPD2    H513179   1.329   2.865   0.756  1.6056 -2.0275 -2.0886
  899MPD2    N113180   1.483   3.179   0.302 -0.0792 -0.0808 -0.2285
  899MPD2    H713181   1.565   3.194   0.244 -1.3274 -2.5446 -2.6194
  900MPD2     C13182   1.073   0.251  12.111  0.1257  0.7041  0.5499
  900MPD2    C113183   1.018   0.139  12.052  0.8020 -0.0860  0.4298
  900MPD2    C213184   0.920   0.157  11.958  0.2977 -0.1620  0.1290
  900MPD2    C313185   0.878   0.278  11.922  0.0993 -0.3387 -0.5255
  900MPD2    C413186   0.929   0.388  11.982  0.0746 -0.8232  0.3864
  900MPD2    C513187   1.028   0.375  12.080 -0.9268 -0.4135  0.0924
  900MPD2     H13188   0.865   0.074  11.916 -0.4765 -0.7641  2.3325
  900MPD2    H113189   0.893   0.487  11.954  1.8573  0.0917  1.3247
  900MPD2    H213190   1.152   0.248  12.184 -0.1927  1.4227  0.9239
  900MPD2    H313191   1.072   0.457  12.135  1.7836 -2.6372  1.2736
  900MPD2     N13192   0.774   0.268  11.830  0.4033  0.5482 -0.5249
  900MPD2    H513193   0.749   0.175  11.797  1.2651  0.2276 -0.2536
  900MPD2    N113194   1.068   0.014  12.095 -0.1058 -0.2575  0.1233
  900MPD2    H713195   1.151   0.008  12.155 -2.4055 -0.9021  3.2448
  901MPD2     C13196   1.052   3.657  12.263 -0.6050  0.4918 -0.6259
  901MPD2    C113197   1.179   3.703  12.295 -0.0569  0.2547 -0.5172
  901MPD2    C213198   1.204   3.841  12.309  0.6409 -0.9258  0.0470
  901MPD2    C313199   1.103   3.931  12.291  0.7263 -0.1458 -1.1766
  901MPD2    C413200   0.982   3.883  12.252 -0.3253 -0.2706  0.0024
  901MPD2    C513201   0.954   3.752  12.239 -0.3154  0.1317  0.4820
  901MPD2     H13202   1.300   3.878  12.342  0.6830  0.0952 -1.2137
  901MPD2    H113203   0.893   3.945  12.247 -1.0494 -1.3717 -0.8721
  901MPD2    H213204   1.027   3.552  12.270  1.1373  0.1668  0.7382
  901MPD2    H313205   0.849   3.727  12.225 -0.6724  0.2469  2.9508
  901MPD2     N13206   1.131   4.074  12.302 -0.5928 -0.0165  0.1078
  901MPD2    H513207   1.203   4.100  12.369  1.1838 -2.3589 -0.9042
  901MPD2    N113208   1.276   3.602  12.307 -0.2032 -0.4137 -0.6436
  901MPD2    H713209   1.246   3.506  12.294  2.1491 -1.1265 -0.6582
  902MPD2     C13210   4.659   2.671  12.815  0.4336 -0.2561  0.0864
  902MPD2    C113211   4.676   2.760  12.707  0.3067  0.5789 -0.2480
  902MPD2    C213212   0.067   2.766  12.633 -0.7989  0.8509 -0.6550
  902MPD2    C313213   0.153   2.665  12.653 -0.0051 -0.1369 -0.1315
  902MPD2    C413214   0.129   2.565  12.750  0.0051  0.3149 -0.3217
  902MPD2    C513215   0.027   2.578  12.842  0.2755  0.4481  1.1118
  902MPD2     H13216   0.081   2.853  12.569 -0.0768  1.4003  0.2460
  902MPD2    H113217   0.189   2.479  12.777 -0.0047  0.4932  0.2704
  902MPD2    H213218   4.564   2.671  12.867  0.6082  0.8050  0.4141
  902MPD2    H313219   0.015   2.505  12.921 -0.3659 -1.5716 -0.8585
  902MPD2     N13220   0.266   2.647  12.569  0.1783 -0.0438  0.3393
  902MPD2    H513221   0.317   2.560  12.575 -1.4561 -1.0875 -0.6812
  902MPD2    N113222   4.566   2.847  12.673  0.6320 -0.1815 -0.5945
  902MPD2    H713223   4.482   2.837  12.729 -0.3672  1.8838 -1.7352
  903MPD2     C13224   0.269   2.930  11.812  0.4286 -0.0414  0.0220
  903MPD2    C113225   0.255   2.828  11.900  0.3061  0.9567  0.7353
  903MPD2    C213226   0.135   2.759  11.892  0.5817 -0.4434 -0.1305
  903MPD2    C313227   0.037   2.786  11.796 -0.2410  0.2995  0.2662
  903MPD2    C413228   0.062   2.895  11.705 -0.1861 -0.3157 -0.4133
  903MPD2    C513229   0.177   2.961  11.716  0.8988 -0.2464  0.4757
  903MPD2     H13230   0.108   2.687  11.968  0.1279 -0.1936 -0.0547
  903MPD2    H113231   4.721   2.921  11.623 -1.7822 -1.2530  0.5819
  903MPD2    H213232   0.365   2.981  11.815 -0.2458  1.1296  1.5858
  903MPD2    H313233   0.221   3.024  11.640  1.5612 -3.1254 -1.5445
  903MPD2     N13234   4.641   2.712  11.794 -0.1940 -0.6401 -0.2891
  903MPD2    H513235   4.627   2.654  11.876 -0.7472 -0.4795 -0.2695
  903MPD2    N113236   0.364   2.797  11.986  0.0700 -0.6122  0.4360
  903MPD2    H713237   0.446   2.855  11.999 -0.0786 -0.2924 -0.0815
  904MPD2     C13238   4.580   1.460  13.507 -0.3901 -0.0202 -0.3704
  904MPD2    C113239   4.531   1.514  13.623  0.2163  0.5324  0.4669
  904MPD2    C213240   4.607   1.572  13.723  0.5982  0.4771 -0.0571
  904MPD2    C313241   0.019   1.583  13.707  0.4411  0.1054  0.1502
  904MPD2    C413242   0.073   1.528  13.594 -0.5567 -0.4090 -0.4838
  904MPD2    C513243   4.720   1.462  13.502 -0.1708  0.3554  0.1173
  904MPD2     H13244   4.568   1.624  13.809  0.1838  1.2304 -0.7021
  904MPD2    H113245   0.180   1.537  13.579 -0.7367 -0.9615 -2.1983
  904MPD2    H213246   4.527   1.398  13.435 -2.9508  2.0027 -0.2413
  904MPD2    H313247   0.045   1.412  13.420 -1.7877  1.6582 -1.6832
  904MPD2     N13248   0.091   1.663  13.799  0.0059  0.0273  0.2898
  904MPD2    H513249   0.038   1.701  13.876 -0.2935 -0.8422  0.5080
  904MPD2    N113250   4.390   1.520  13.640  0.0363 -0.3299  0.0263
  904MPD2    H713251   4.337   1.487  13.560 -2.0637 -1.2389  1.7961
  905MPD2     C13252   4.234   1.872  13.155 -0.0595  0.6070 -0.1882
  905MPD2    C113253   4.241   1.920  13.285  0.2672 -0.1420  0.9599
  905MPD2    C213254   4.348   1.996  13.322  0.2466 -0.0266  0.2476
  905MPD2    C313255   4.432   2.058  13.225  0.3869 -0.4465 -0.7331
  905MPD2    C413256   4.418   2.007  13.098  0.2032  0.5524  0.3188
  905MPD2    C513257   4.324   1.914  13.066 -0.0285 -0.5063  0.5480
  905MPD2     H13258   4.365   2.011  13.428  1.2937 -1.3070  0.2482
  905MPD2    H113259   4.490   2.033  13.021 -1.1884 -0.8995 -1.4842
  905MPD2    H213260   4.160   1.797  13.132 -1.0216  1.5546 -0.1750
  905MPD2    H313261   4.328   1.882  12.963 -0.1622 -1.1283  0.7352
  905MPD2     N13262   4.547   2.131  13.260 -0.0826 -0.0408 -0.5708
  905MPD2    H513263   4.619   2.142  13.189 -0.3039  0.5353 -0.7050
  905MPD2    N113264   4.153   1.868  13.387 -0.3483 -0.0403 -0.0910
  905MPD2    H713265   4.098   1.790  13.355 -0.1757 -0.4367  0.5858
  906MPD2     C13266   1.901   1.724  11.256 -0.7116 -0.5522 -0.4278
  906MPD2    C113267   1.805   1.638  11.218  0.2282  0.7354  0.0192
  906MPD2    C213268   1.734   1.566  11.316  0.1521  0.7619  0.1275
  906MPD2    C313269   1.749   1.601  11.445 -0.0652  0.0430  0.2022
  906MPD2    C413270   1.852   1.686  11.489  0.4059 -0.0137 -0.5119
  906MPD2    C513271   1.925   1.750  11.393  0.6335  0.1601  0.2441
  906MPD2     H13272   1.654   1.502  11.280 -1.8149  3.1362  0.2764
  906MPD2    H113273   1.854   1.713  11.594  0.3370  1.6958 -0.9460
  906MPD2    H213274   1.961   1.780  11.185 -1.5831  1.6355  0.5758
  906MPD2    H313275   1.993   1.826  11.430  1.3034  0.2334 -1.1458
  906MPD2     N13276   1.657   1.542  11.532 -0.4936 -0.4388 -0.1502
  906MPD2    H513277   1.580   1.490  11.491 -0.6812  0.5548 -1.0314
  906MPD2    N113278   1.759   1.622  11.082  0.7693  0.2220 -0.6164
  906MPD2    H713279   1.699   1.545  11.056  3.4854 -1.5951 -1.4194
  907MPD2     C13280   1.124   0.388  15.436 -0.0818  0.4476 -0.4057
  907MPD2    C113281   1.155   0.256  15.418 -0.4497 -0.3101 -0.3787
  907MPD2    C213282   1.227   0.192  15.522  0.1771  0.3961 -0.4215
  907MPD2    C313283   1.276   0.255  15.631  0.3560 -0.0393  0.4435
  907MPD2    C413284   1.242   0.390  15.645  0.4906 -0.2156  0.5434
  907MPD2    C513285   1.167   0.453  15.550 -0.6314  0.0267 -0.4308
  907MPD2     H13286   1.249   0.087  15.511 -0.6357  0.0413  1.3824
  907MPD2    H113287   1.274   0.447  15.731 -1.1087  1.3606  0.0874
  907MPD2    H213288   1.070   0.447  15.363  0.4014  0.7891 -0.4890
  907MPD2    H313289   1.137   0.554  15.573 -1.8662 -0.1715 -1.1976
  907MPD2     N13290   1.337   0.187  15.739 -0.0906 -0.7435  0.3278
  907MPD2    H513291   1.348   0.086  15.728  0.6217 -0.4893 -1.2361
  907MPD2    N113292   1.097   0.177  15.318  0.7175 -0.2911  0.0608
  907MPD2    H713293   1.088   0.077  15.332 -0.1194 -0.5043 -2.0150
  908MPD2     C13294   3.516   1.047   9.494 -0.1079 -0.5240 -0.2120
  908MPD2    C113295   3.605   1.045   9.596 -0.2712 -0.0110 -0.0810
  908MPD2    C213296   3.623   1.158   9.673  0.4898  0.2215 -0.3640
  908MPD2    C313297   3.538   1.265   9.661  0.0202 -0.1380 -0.4275
  908MPD2    C413298   3.434   1.256   9.572 -0.0632 -0.3503 -0.6173
  908MPD2    C513299   3.432   1.152   9.481 -0.4763  0.8435  0.5387
  908MPD2     H13300   3.700   1.166   9.749 -0.6274  0.2777  0.7584
  908MPD2    H113301   3.365   1.337   9.554  0.3376  0.0739 -0.2734
  908MPD2    H213302   3.494   0.962   9.430 -2.2352 -0.2918  0.1926
  908MPD2    H313303   3.355   1.147   9.404  0.9224 -0.1215 -0.7975
  908MPD2     N13304   3.552   1.383   9.738  0.6592 -0.0823 -0.4503
  908MPD2    H513305   3.473   1.446   9.730  0.9194  0.2051 -0.7515
  908MPD2    N113306   3.658   0.922   9.632 -0.1668 -0.4754  0.3746
  908MPD2    H713307   3.654   0.851   9.559 -0.4386 -1.2902  1.1905
  909MPD2     C13308   3.585   4.130  12.005 -0.3027  0.6788  0.1333
  909MPD2    C113309   3.557   4.213  11.906 -0.4738  0.3357 -0.1932
  909MPD2    C213310   3.445   4.295  11.910  0.9334 -0.6431 -0.3382
  909MPD2    C313311   3.358   4.298  12.019  0.0131 -0.2453  0.4500
  909MPD2    C413312   3.400   4.228  12.131 -0.2914 -0.1411  0.2149
  909MPD2    C513313   3.516   4.150  12.127 -0.0440  0.1226  0.7476
  909MPD2     H13314   3.425   4.349  11.818  0.5587  0.3342  0.3108
  909MPD2    H113315   3.343   4.224  12.223  0.6785  2.0913  0.8985
  909MPD2    H213316   3.674   4.070  12.016 -2.5431 -2.8420 -0.9767
  909MPD2    H313317   3.538   4.087  12.212  1.1219  0.2817  0.5610
  909MPD2     N13318   3.239   4.375  12.010 -0.0489  0.8349 -0.0059
  909MPD2    H513319   3.223   4.411  11.916 -0.3378  0.9411  0.0833
  909MPD2    N113320   3.648   4.217  11.794  1.0965 -0.4782  0.2713
  909MPD2    H713321   3.611   4.283  11.725  0.8680 -0.9714 -0.0788
  910MPD2     C13322   4.530   1.129  16.164  0.4071  0.9592 -0.9381
  910MPD2    C113323   4.602   1.085  16.052  0.3725 -0.1244  1.0171
  910MPD2    C213324   4.552   1.103  15.927  0.0853  0.2186 -0.1129
  910MPD2    C313325   4.427   1.160  15.912 -0.4414 -0.0398 -0.1435
  910MPD2    C413326   4.353   1.206  16.021  0.1003 -0.3326 -0.4201
  910MPD2    C513327   4.405   1.178  16.145 -0.4593 -0.1780 -0.3206
  910MPD2     H13328   4.606   1.073  15.839 -0.7551  1.2648 -0.9899
  910MPD2    H113329   4.258   1.256  16.007  0.1870  0.0882  0.5194
  910MPD2    H213330   4.564   1.109  16.265 -0.2383 -2.1033 -1.3161
  910MPD2    H313331   4.353   1.219  16.231  0.8280  1.4888 -0.3431
  910MPD2     N13332   4.379   1.195  15.782 -0.6482  0.2561 -0.6861
  910MPD2    H513333   4.298   1.257  15.778  1.0548  2.4780 -1.1355
  910MPD2    N113334   0.006   1.028  16.060  0.1782 -0.1178 -0.3742
  910MPD2    H713335   0.036   0.985  15.974 -1.0341 -0.2118 -0.7447
  911MPD2     C13336   2.561   1.227  16.442  0.1392 -0.0491  0.0884
  911MPD2    C113337   2.624   1.339  16.493 -0.0965  0.5609  0.9245
  911MPD2    C213338   2.583   1.471  16.460 -0.2899  0.2698  0.2769
  911MPD2    C313339   2.475   1.485  16.373  0.3880  0.3148  0.0506
  911MPD2    C413340   2.407   1.375  16.328 -0.7854 -0.8223  0.3549
  911MPD2    C513341   2.448   1.249  16.363  0.1776 -0.0958  0.1922
  911MPD2     H13342   2.643   1.553  16.498  0.3042 -0.5338  1.0931
  911MPD2    H113343   2.329   1.391  16.255 -2.3468  0.2078  2.2584
  911MPD2    H213344   2.597   1.126  16.459 -1.5071 -1.1537 -3.0214
  911MPD2    H313345   2.391   1.166  16.321  0.5257  0.3895 -1.2330
  911MPD2     N13346   2.435   1.607  16.315  0.5271 -0.2188  0.1617
  911MPD2    H513347   2.367   1.599  16.240  0.3497 -1.0099  0.4061
  911MPD2    N113348   2.738   1.308  16.571 -0.4138 -0.1827 -0.5068
  911MPD2    H713349   2.764   1.211  16.586  2.2729  0.1325 -2.9650
  912MPD2     C13350   2.063   1.608  15.722  0.5650  0.4064 -0.6060
  912MPD2    C113351   2.115   1.578  15.847 -0.4238  0.4747 -0.2079
  912MPD2    C213352   2.132   1.450  15.882 -0.4313 -0.0604 -0.2850
  912MPD2    C313353   2.104   1.346  15.792 -0.3088  0.4293 -0.5293
  912MPD2    C413354   2.049   1.378  15.669  0.0612  0.3372 -0.1641
  912MPD2    C513355   2.033   1.510  15.636  0.3874 -0.1614  0.3013
  912MPD2     H13356   2.166   1.427  15.982 -1.0144 -0.5142 -0.1928
  912MPD2    H113357   2.019   1.296  15.606 -2.2823 -0.2699  1.7214
  912MPD2    H213358   2.048   1.713  15.698  0.3469  0.5879  0.3262
  912MPD2    H313359   1.993   1.544  15.541  0.6232 -0.3517  0.1361
  912MPD2     N13360   2.139   1.213  15.829 -0.0146 -0.1682 -0.1879
  912MPD2    H513361   2.158   1.191  15.926 -2.0467  0.9731  0.4692
  912MPD2    N113362   2.157   1.694  15.923 -0.1524 -0.4369 -0.1539
  912MPD2    H713363   2.143   1.791  15.896  1.7864 -0.3406 -0.7943
  913MPD2     C13364   2.597   2.665  10.955 -0.1774  0.4465 -0.9026
  913MPD2    C113365   2.719   2.730  10.957  0.7602  0.6179  0.1235
  913MPD2    C213366   2.727   2.842  10.885  0.4985  0.2942 -0.2568
  913MPD2    C313367   2.610   2.898  10.819  0.4077 -0.4874  0.3303
  913MPD2    C413368   2.496   2.823  10.825  0.0728 -0.3684 -0.2706
  913MPD2    C513369   2.484   2.712  10.902 -0.7362 -0.0632  0.0677
  913MPD2     H13370   2.820   2.897  10.890  1.0361 -0.7308  1.0181
  913MPD2    H113371   2.408   2.862  10.776  0.6405  1.3308  0.0587
  913MPD2    H213372   2.579   2.571  11.007  0.1406  1.3596  0.8683
  913MPD2    H313373   2.393   2.654  10.908 -0.1624 -0.8256  1.4169
  913MPD2     N13374   2.608   3.015  10.739 -0.2844 -0.2693 -0.1264
  913MPD2    H513375   2.514   3.042  10.713 -0.7070 -1.2654  0.3583
  913MPD2    N113376   2.823   2.676  11.038  0.4831 -0.1461  0.0208
  913MPD2    H713377   2.805   2.588  11.086 -0.1096 -0.5148 -0.8913
  914MPD2     C13378   0.929   3.384  11.831  0.8855 -0.5682  0.7391
  914MPD2    C113379   0.985   3.501  11.880  0.3225  0.1911 -0.3003
  914MPD2    C213380   1.107   3.482  11.938  0.4363 -0.2036  0.4406
  914MPD2    C313381   1.171   3.362  11.961 -0.1643 -0.4505 -0.8742
  914MPD2    C413382   1.112   3.249  11.914 -0.2506  0.2555  0.0908
  914MPD2    C513383   0.991   3.267  11.847  0.5043 -0.1872 -0.2961
  914MPD2     H13384   1.154   3.574  11.973 -1.1231  0.1618  1.5353
  914MPD2    H113385   1.150   3.149  11.930  0.8782  0.6036 -0.4052
  914MPD2    H213386   0.831   3.395  11.785  0.8477  0.7577  1.1390
  914MPD2    H313387   0.941   3.183  11.800 -2.0667  0.2170  1.6973
  914MPD2     N13388   1.293   3.367  12.038  0.8150 -0.2421 -0.1539
  914MPD2    H513389   1.324   3.459  12.069 -2.8033  0.9056  0.0210
  914MPD2    N113390   0.917   3.621  11.872  0.1362 -0.4371 -0.4334
  914MPD2    H713391   0.821   3.600  11.844  0.3285  0.1456 -1.5278
  915MPD2     C13392   4.223   2.788  15.399  0.3928 -0.7610  0.5741
  915MPD2    C113393   4.110   2.869  15.377 -0.4926  0.4578  0.4023
  915MPD2    C213394   4.068   2.954  15.480  0.4122  0.2861 -0.2630
  915MPD2    C313395   4.135   2.960  15.598  0.0405  0.1684 -0.2032
  915MPD2    C413396   4.255   2.895  15.612  0.0641 -0.2606  0.1821
  915MPD2    C513397   4.305   2.824  15.505 -0.0665 -0.6184  0.6821
  915MPD2     H13398   3.973   3.004  15.467  0.6062  0.1060 -2.3968
  915MPD2    H113399   4.319   2.909  15.698 -0.4938  0.9980  0.3911
  915MPD2    H213400   4.270   2.718  15.331  1.6756  1.5520 -0.9439
  915MPD2    H313401   4.409   2.797  15.514  0.5541  1.5567  0.0186
  915MPD2     N13402   4.080   3.043  15.694 -0.8235  0.3514  0.1877
  915MPD2    H513403   3.998   3.094  15.663  0.0484  1.0269 -0.9982
  915MPD2    N113404   4.031   2.869  15.261  0.2903 -0.5593 -0.1060
  915MPD2    H713405   3.952   2.933  15.264 -0.3011 -1.3504  1.1679
  916MPD2     C13406   1.710   1.355  15.575  0.3824 -0.7166 -0.2616
  916MPD2    C113407   1.715   1.268  15.682  0.5913 -0.5929  0.0498
  916MPD2    C213408   1.697   1.133  15.648 -0.0510  0.1153 -0.4140
  916MPD2    C313409   1.666   1.089  15.523  0.1391 -0.2271  0.1593
  916MPD2    C413410   1.657   1.186  15.421  0.1726 -0.5752 -0.4073
  916MPD2    C513411   1.691   1.313  15.447 -0.0983  0.1346  0.1067
  916MPD2     H13412   1.692   1.061  15.728 -0.9640 -0.9354 -1.4059
  916MPD2    H113413   1.629   1.157  15.321 -0.3822 -1.2107 -0.0704
  916MPD2    H213414   1.726   1.459  15.601 -0.0044 -0.7912  0.2772
  916MPD2    H313415   1.701   1.381  15.363 -2.2290 -0.6452 -0.7816
  916MPD2     N13416   1.640   0.954  15.499 -0.1632  0.2407  0.4967
  916MPD2    H513417   1.669   0.883  15.566 -1.1144 -0.4605  0.1648
  916MPD2    N113418   1.715   1.331  15.803 -0.0516 -0.1140  0.8372
  916MPD2    H713419   1.694   1.431  15.809 -1.0500 -0.3464  1.1449
  917MPD2     C13420   2.024   3.900  11.091 -0.6725  0.1449  0.3049
  917MPD2    C113421   2.114   3.977  11.165 -0.3133 -0.5719  0.6970
  917MPD2    C213422   2.196   4.062  11.097  0.6226  0.0369  0.4660
  917MPD2    C313423   2.189   4.071  10.957  0.6485  0.1330  0.2284
  917MPD2    C413424   2.098   3.995  10.888 -0.3495  0.1220  0.1482
  917MPD2    C513425   2.008   3.909  10.959 -0.0063  0.2468  0.3883
  917MPD2     H13426   2.281   4.100  11.152  0.8583 -1.8030  1.3841
  917MPD2    H113427   2.096   3.997  10.780  1.0851 -0.5802  0.1050
  917MPD2    H213428   1.962   3.836  11.152 -1.0704  0.8094  0.6048
  917MPD2    H313429   1.939   3.844  10.907 -0.1878 -0.9538  2.1438
  917MPD2     N13430   2.278   4.142  10.876 -0.1552 -0.0019  0.0033
  917MPD2    H513431   2.258   4.148  10.776 -1.8338 -1.6908  0.2310
  917MPD2    N113432   2.117   3.954  11.309 -0.5283  0.7492 -0.7947
  917MPD2    H713433   2.089   3.865  11.350  0.6382  0.3137 -0.9636
  918MPD2     C13434   2.551   4.332  12.195  0.9600 -0.1763 -0.1350
  918MPD2    C113435   2.596   4.204  12.154 -0.1302  0.5404 -0.7205
  918MPD2    C213436   2.509   4.134  12.063  0.4473  0.0841  0.1984
  918MPD2    C313437   2.388   4.190  12.028 -0.0136  0.3638 -0.5044
  918MPD2    C413438   2.353   4.317  12.069  0.3828  0.2198 -0.0718
  918MPD2    C513439   2.436   4.386  12.155 -0.1746 -0.2970 -0.4712
  918MPD2     H13440   2.539   4.034  12.036 -2.0233 -0.4734 -0.5514
  918MPD2    H113441   2.265   4.370  12.035  0.1243  0.0432  0.3138
  918MPD2    H213442   2.609   4.387  12.268 -1.1079  0.9362  0.6755
  918MPD2    H313443   2.413   4.486  12.189  0.1410 -1.0542  1.9434
  918MPD2     N13444   2.297   4.112  11.951  0.0887  0.2738  0.8098
  918MPD2    H513445   2.333   4.021  11.924 -0.1039  0.2422  0.6492
  918MPD2    N113446   2.720   4.146  12.181  0.1549 -0.4145  0.3617
  918MPD2    H713447   2.738   4.058  12.133 -1.9836 -0.4001 -0.4448
  919MPD2     C13448   3.020   2.780  11.725  0.0801  0.6828 -0.2760
  919MPD2    C113449   2.954   2.681  11.654 -0.8343  0.2122  0.3344
  919MPD2    C213450   2.875   2.727  11.549 -0.1697  0.3873  0.0531
  919MPD2    C313451   2.862   2.864  11.511 -0.1925  0.2065  0.0836
  919MPD2    C413452   2.938   2.955  11.580 -0.4511  0.5584 -0.6706
  919MPD2    C513453   3.015   2.910  11.682 -0.2043 -0.0643  0.6021
  919MPD2     H13454   2.818   2.649  11.500 -1.8274 -0.0742  2.7316
  919MPD2    H113455   2.940   3.062  11.559  0.5803  0.3127 -1.7968
  919MPD2    H213456   3.089   2.771  11.809  0.3297 -2.6165 -0.8386
  919MPD2    H313457   3.061   2.985  11.746 -3.1405 -0.1266  2.7968
  919MPD2     N13458   2.789   2.921  11.403  0.1369  0.0228  0.5162
  919MPD2    H513459   2.789   3.021  11.388  0.4002  0.1377  1.2914
  919MPD2    N113460   2.952   2.545  11.697  0.8929 -0.5359 -0.1514
  919MPD2    H713461   2.905   2.478  11.637  0.1387 -0.3290  0.2113
  920MPD2     C13462   2.607   3.587  10.675 -0.1358  0.4062  0.3217
  920MPD2    C113463   2.490   3.508  10.678  0.4657 -0.3783 -0.7238
  920MPD2    C213464   2.479   3.422  10.778 -0.0536 -0.0819 -0.3220
  920MPD2    C313465   2.584   3.393  10.861 -0.2738  0.2783  0.5462
  920MPD2    C413466   2.708   3.446  10.848 -0.0577  0.0271 -0.0482
  920MPD2    C513467   2.710   3.549  10.755 -0.0670 -0.5352 -0.3738
  920MPD2     H13468   2.384   3.372  10.784  1.7247 -3.8539 -3.2465
  920MPD2    H113469   2.797   3.426  10.906 -1.1132 -3.0657  0.4723
  920MPD2    H213470   2.625   3.661  10.598 -4.3653  1.7932  0.6557
  920MPD2    H313471   2.811   3.587  10.745  0.1438 -1.3267 -1.2980
  920MPD2     N13472   2.556   3.297  10.954 -0.7176 -0.0315 -0.6112
  920MPD2    H513473   2.463   3.256  10.947  0.0626 -1.8863  0.1478
  920MPD2    N113474   2.385   3.512  10.584 -0.0893 -0.0536  0.1843
  920MPD2    H713475   2.300   3.458  10.600  0.1498 -0.3677  0.4022
  921MPD2     C13476   3.455   1.912  16.854  0.0890 -0.2701 -0.3508
  921MPD2    C113477   3.517   1.787  16.855  0.2309 -0.3384 -0.5905
  921MPD2    C213478   3.433   1.683  16.857  0.3545 -0.0432 -0.6813
  921MPD2    C313479   3.297   1.690  16.882  0.0987  0.2839 -0.4909
  921MPD2    C413480   3.236   1.813  16.883  0.1961  0.0372  0.1040
  921MPD2    C513481   3.319   1.922  16.853 -0.6354 -0.2675  0.4908
  921MPD2     H13482   3.471   1.582  16.844 -1.0473 -0.7943  1.1181
  921MPD2    H113483   3.129   1.822  16.901 -0.4205 -3.3526 -1.7622
  921MPD2    H213484   3.512   2.003  16.841  2.1969 -1.7048 -1.1802
  921MPD2    H313485   3.265   2.015  16.841 -0.5394 -0.2427  0.2417
  921MPD2     N13486   3.212   1.576  16.879  0.2835 -0.5117 -0.4893
  921MPD2    H513487   3.113   1.599  16.879 -0.2365 -2.7575  2.0445
  921MPD2    N113488   3.660   1.784  16.850 -0.3397  0.3520 -0.1808
  921MPD2    H713489   3.709   1.871  16.835  1.5779 -0.8447 -0.9924
  922MPD2     C13490   4.447   4.229  16.892  0.1309 -0.3851 -0.1595
  922MPD2    C113491   4.502   4.207  17.017  0.3032 -0.2405  0.5469
  922MPD2    C213492   4.455   4.098  17.090  0.4895 -0.4930 -0.2908
  922MPD2    C313493   4.353   4.019  17.043 -0.0011 -0.7495  0.3484
  922MPD2    C413494   4.299   4.044  16.921 -0.2330 -0.4234 -0.4651
  922MPD2    C513495   4.349   4.151  16.845  0.0302  0.1607  0.0596
  922MPD2     H13496   4.505   4.090  17.186 -0.2757  1.7777  0.2933
  922MPD2    H113497   4.217   3.993  16.870 -0.5496 -0.5384  0.1642
  922MPD2    H213498   4.475   4.320  16.840 -0.5568  0.7296  1.4368
  922MPD2    H313499   4.306   4.185  16.752  0.0619  1.0231  0.3543
  922MPD2     N13500   4.326   3.897  17.109 -0.2982 -0.4554 -0.6876
  922MPD2    H513501   4.364   3.891  17.203  0.1467  0.7597 -0.7929
  922MPD2    N113502   4.597   4.300  17.073  0.2326  0.4321 -0.5686
  922MPD2    H713503   4.626   4.280  17.168 -0.8697 -0.0361 -0.3382
  923MPD2     C13504   0.624   0.784   9.403  0.3635 -0.3340 -0.4671
  923MPD2    C113505   0.605   0.926   9.407  0.4920 -0.1654  1.2785
  923MPD2    C213506   0.712   1.000   9.467 -0.2603  0.1718  0.2050
  923MPD2    C313507   0.837   0.940   9.498 -0.0799 -0.6884 -0.2633
  923MPD2    C413508   0.848   0.805   9.489  0.2864 -1.1008  0.3690
  923MPD2    C513509   0.744   0.733   9.444  0.1910  0.0935  1.1775
  923MPD2     H13510   0.711   1.108   9.464  1.6514  0.2196  1.0108
  923MPD2    H113511   0.938   0.747   9.500  1.6887  0.8645 -0.6796
  923MPD2    H213512   0.553   0.713   9.363  2.5325 -1.7678 -1.7832
  923MPD2    H313513   0.750   0.626   9.427  1.7931  0.2517  0.7205
  923MPD2     N13514   0.959   1.004   9.542  0.2790  0.2806 -0.2208
  923MPD2    H513515   1.037   0.940   9.549 -0.8912 -0.9116  2.0485
  923MPD2    N113516   0.500   0.979   9.338  0.0843  0.0451 -0.3768
  923MPD2    H713517   0.429   0.923   9.291  0.8265 -1.2495  0.0767
  924MPD2     C13518   0.877   4.311  15.672 -0.4056  0.4077  0.0701
  924MPD2    C113519   0.859   4.378  15.791 -0.1146 -0.6915  0.2291
  924MPD2    C213520   0.974   4.420  15.854 -0.1602 -0.4140 -0.2040
  924MPD2    C313521   1.101   4.417  15.803  0.4112  0.6707 -0.0426
  924MPD2    C413522   1.115   4.361  15.676 -0.3050 -0.2805 -0.0636
  924MPD2    C513523   1.004   4.299  15.623  0.2282 -0.6275  0.6536
  924MPD2     H13524   0.959   4.480  15.943 -0.4658 -1.2003  0.2684
  924MPD2    H113525   1.211   4.362  15.626 -0.5528 -1.2781 -0.5470
  924MPD2    H213526   0.793   4.272  15.616 -0.1888  0.2596 -0.1518
  924MPD2    H313527   1.026   4.249  15.530 -0.5522  0.5774 -0.1742
  924MPD2     N13528   1.213   4.480  15.860 -0.2728  0.3688 -0.0045
  924MPD2    H513529   1.291   4.481  15.796  0.0172  3.8623  0.4183
  924MPD2    N113530   0.736   4.410  15.852 -0.0064 -0.2069  0.1877
  924MPD2    H713531   0.747   4.456  15.942  0.7046  0.9640 -0.4972
  925MPD2     C13532   4.591   2.080  14.625 -0.0252  0.3523 -0.3127
  925MPD2    C113533   4.458   2.101  14.602  0.4826 -0.3673  0.0059
  925MPD2    C213534   4.369   2.044  14.694 -0.4397  0.2928 -0.0329
  925MPD2    C313535   4.409   1.956  14.796  0.5782 -0.3719  0.4137
  925MPD2    C413536   4.544   1.933  14.804  0.3456  0.2097 -0.3866
  925MPD2    C513537   4.631   2.000  14.727  0.0075 -0.0431  0.2094
  925MPD2     H13538   4.267   2.079  14.683 -1.2335 -2.1216 -0.3628
  925MPD2    H113539   4.576   1.862  14.879 -1.9684 -0.8601 -0.3993
  925MPD2    H213540   4.663   2.138  14.568 -0.3305  0.9834 -0.0476
  925MPD2    H313541   0.011   1.990  14.749  0.0944 -0.9061 -0.6110
  925MPD2     N13542   4.328   1.890  14.888  0.3957 -0.0461 -0.1923
  925MPD2    H513543   4.378   1.825  14.947 -0.6934 -0.7839 -0.0800
  925MPD2    N113544   4.398   2.201  14.513  0.1966  0.5122  0.0231
  925MPD2    H713545   4.296   2.200  14.514  0.1776  2.6507 -0.2508
  926MPD2     C13546   4.135   0.882  13.004  0.0798  0.0234 -0.5596
  926MPD2    C113547   4.019   0.931  13.054 -0.6407 -0.5334 -0.5827
  926MPD2    C213548   3.948   1.029  12.986 -0.6794  0.2345 -0.2078
  926MPD2    C313549   3.978   1.064  12.857 -0.5199  0.8187  0.1724
  926MPD2    C413550   4.090   1.008  12.800  0.5126  0.1485 -0.2799
  926MPD2    C513551   4.169   0.930  12.879 -0.9026 -0.1692 -0.6719
  926MPD2     H13552   3.856   1.065  13.030 -0.7281 -2.2308  1.6812
  926MPD2    H113553   4.115   1.033  12.697  0.2776  0.3059 -0.2972
  926MPD2    H213554   4.194   0.811  13.060 -1.4118 -1.4995 -0.9305
  926MPD2    H313555   4.262   0.902  12.833 -1.4084 -0.8858 -1.2579
  926MPD2     N13556   3.903   1.161  12.780  0.1540 -0.0391 -0.0551
  926MPD2    H513557   3.942   1.190  12.690 -0.5376  0.6982 -0.1192
  926MPD2    N113558   3.965   0.906  13.179 -0.3650 -1.1063 -0.1666
  926MPD2    H713559   3.874   0.945  13.201 -0.0318 -1.0442  1.0659
  927MPD2     C13560   2.764   2.688   0.442  0.4221  0.1433 -0.1631
  927MPD2    C113561   2.754   2.559   0.397  0.6070 -0.3360 -0.5853
  927MPD2    C213562   2.778   2.532   0.264 -0.1402 -0.3492  0.4311
  927MPD2    C313563   2.816   2.637   0.185 -0.2383  0.3659  0.3977
  927MPD2    C413564   2.811   2.768   0.230 -0.1469  0.8764  0.2020
  927MPD2    C513565   2.790   2.787   0.357  0.1942 -0.1556 -0.3433
  927MPD2     H13566   2.761   2.429   0.234  1.7926 -0.9550  1.4299
  927MPD2    H113567   2.834   2.856   0.171  4.0244 -0.7660 -0.6204
  927MPD2    H213568   2.742   2.710   0.546  1.8615 -0.5257  0.2847
  927MPD2    H313569   2.786   2.890   0.391  0.8512  0.2687 -1.5353
  927MPD2     N13570   2.851   2.607   0.050 -0.3855  0.1066  0.0861
  927MPD2    H513571   2.845   2.510   0.020 -1.4648 -0.3430  1.7445
  927MPD2    N113572   2.730   2.459   0.493 -0.3897  0.1004  0.8706
  927MPD2    H713573   2.709   2.495   0.586 -1.3697 -0.1881  0.7605
  928MPD2     C13574   1.322   0.637   0.659  0.0667 -0.1931  0.0618
  928MPD2    C113575   1.271   0.760   0.685  0.1455  0.5519  0.0412
  928MPD2    C213576   1.282   0.857   0.589  0.8309 -0.2183  0.4890
  928MPD2    C313577   1.341   0.817   0.469  0.5180  0.2071 -0.3369
  928MPD2    C413578   1.350   0.685   0.441 -0.3505  0.7101  0.6450
  928MPD2    C513579   1.352   0.592   0.538 -0.8142 -0.1509 -0.1795
  928MPD2     H13580   1.271   0.961   0.618  1.9260 -0.0724  0.3888
  928MPD2    H113581   1.380   0.656   0.341 -0.7340  1.1196  0.4106
  928MPD2    H213582   1.328   0.575   0.747  0.8279 -0.3188 -0.0789
  928MPD2    H313583   1.394   0.497   0.505  0.6666  0.6253 -0.5268
  928MPD2     N13584   1.379   0.912   0.372  0.2146 -0.9938 -0.3325
  928MPD2    H513585   1.411   0.877   0.282  1.8911 -1.4033  0.4164
  928MPD2    N113586   1.224   0.795   0.818 -0.1790 -0.0060  0.6553
  928MPD2    H713587   1.257   0.741   0.897  1.0658  0.6067  0.5616
  929MPD2     C13588   0.651   1.426  10.951 -0.2980 -0.4184  0.0243
  929MPD2    C113589   0.566   1.417  10.840  0.5912  0.2071 -0.4137
  929MPD2    C213590   0.619   1.438  10.714  0.1082  0.4767 -0.4656
  929MPD2    C313591   0.754   1.464  10.691 -0.2383  0.1488  0.8948
  929MPD2    C413592   0.838   1.468  10.799 -0.3469  0.4250  0.0247
  929MPD2    C513593   0.787   1.441  10.920 -0.6560  0.1287 -0.5329
  929MPD2     H13594   0.551   1.437  10.630  1.2884 -1.4734 -1.3939
  929MPD2    H113595   0.944   1.489  10.789  0.1148 -1.8363  0.1825
  929MPD2    H213596   0.625   1.398  11.052  0.6763  0.8523  0.6324
  929MPD2    H313597   0.869   1.431  10.991  0.0849  0.8102 -1.2866
  929MPD2     N13598   0.794   1.494  10.555 -0.0338 -0.0454 -0.0261
  929MPD2    H513599   0.718   1.506  10.489 -0.6458 -1.9609  0.3205
  929MPD2    N113600   0.429   1.402  10.857  0.3436  0.0711  0.7308
  929MPD2    H713601   0.374   1.391  10.773 -1.3644  1.4291  1.6576
  930MPD2     C13602   2.950   3.765  14.141  0.0538 -0.0356  0.2715
  930MPD2    C113603   2.897   3.847  14.044 -0.5904  0.2777 -0.0546
  930MPD2    C213604   2.803   3.789  13.964 -0.0817 -0.1190 -0.1438
  930MPD2    C313605   2.746   3.668  13.992 -0.4051  0.0027 -0.9493
  930MPD2    C413606   2.778   3.608  14.105  0.2240  0.2523  0.1039
  930MPD2    C513607   2.888   3.648  14.179 -0.0841 -0.3219 -0.0755
  930MPD2     H13608   2.780   3.854  13.880 -1.2079 -2.9985 -2.0443
  930MPD2    H113609   2.718   3.522  14.131  1.8252 -0.6097  0.9214
  930MPD2    H213610   3.037   3.788  14.201  0.9251 -0.3789 -0.8664
  930MPD2    H313611   2.927   3.595  14.266 -0.2646 -1.9292 -0.9729
  930MPD2     N13612   2.670   3.596  13.900  0.0265  0.2035  0.6542
  930MPD2    H513613   2.652   3.497  13.912  0.2278 -0.0036 -0.7623
  930MPD2    N113614   2.954   3.970  14.001  0.1577 -0.2533 -0.7683
  930MPD2    H713615   2.902   4.017  13.928 -0.6789 -0.6488 -0.4230
  931MPD2     C13616   3.013   1.737   0.657  0.9163  0.5813  0.0523
  931MPD2    C113617   2.900   1.764   0.740 -0.2067 -0.3796  0.0920
  931MPD2    C213618   2.870   1.690   0.853 -0.7792 -0.1726 -0.1799
  931MPD2    C313619   2.969   1.606   0.898 -0.2186  0.0397 -0.1015
  931MPD2    C413620   3.084   1.590   0.825  0.3327 -0.1625 -0.2480
  931MPD2    C513621   3.106   1.651   0.702  0.1024  0.2286  0.1308
  931MPD2     H13622   2.783   1.723   0.909  0.8223  2.8067  0.5333
  931MPD2    H113623   3.168   1.527   0.851 -0.7816 -2.1109 -1.4122
  931MPD2    H213624   3.044   1.798   0.573 -1.9371  2.3910  0.3174
  931MPD2    H313625   3.201   1.646   0.651 -1.7602  0.7366 -3.3753
  931MPD2     N13626   2.961   1.531   1.026 -0.0195  0.7513 -0.0270
  931MPD2    H513627   3.042   1.485   1.066 -1.9202 -0.9163  1.9400
  931MPD2    N113628   2.826   1.876   0.703 -0.2361 -0.3277  0.3038
  931MPD2    H713629   2.865   1.936   0.631  0.5922  0.5456  1.4827
  932MPD2     C13630   4.207   2.498  11.013 -0.6318  0.2485  0.3637
  932MPD2    C113631   4.281   2.587  11.089 -0.4575 -0.1502 -0.2291
  932MPD2    C213632   4.325   2.540  11.213  0.2744  0.0190  0.6933
  932MPD2    C313633   4.304   2.404  11.252  0.4565  1.3942  0.1703
  932MPD2    C413634   4.223   2.326  11.179  0.2218  0.1000 -0.2156
  932MPD2    C513635   4.181   2.369  11.056  0.0529  0.3641  0.8409
  932MPD2     H13636   4.371   2.616  11.276 -2.5012  2.4639 -0.2436
  932MPD2    H113637   4.192   2.226  11.208  0.9896 -0.4146 -1.1536
  932MPD2    H213638   4.168   2.518  10.914 -5.0714 -0.8382  1.8957
  932MPD2    H313639   4.125   2.304  10.990  1.9930  0.0848 -0.5168
  932MPD2     N13640   4.352   2.349  11.374 -0.1956 -0.6643  0.6533
  932MPD2    H513641   4.312   2.262  11.408 -4.2480  0.0068 -2.4360
  932MPD2    N113642   4.305   2.725  11.055  0.4357  0.0188 -0.4599
  932MPD2    H713643   4.374   2.777  11.106 -0.5221 -0.0635  0.9133
  933MPD2     C13644   0.496   1.067   1.058  0.7065 -0.7393  0.4413
  933MPD2    C113645   0.599   1.146   1.092 -0.5062 -0.2710  0.3183
  933MPD2    C213646   0.569   1.275   1.141 -0.0528  0.1579  0.4385
  933MPD2    C313647   0.440   1.322   1.121  0.2029  0.6988  0.6025
  933MPD2    C413648   0.339   1.239   1.079 -0.6153 -0.3692  0.0253
  933MPD2    C513649   0.366   1.110   1.065  0.1196  0.0473 -0.2268
  933MPD2     H13650   0.656   1.335   1.166 -0.2479  0.9389 -0.7766
  933MPD2    H113651   0.234   1.268   1.076 -1.0244 -2.1780 -3.0236
  933MPD2    H213652   0.509   0.960   1.044  0.7756 -0.9717  2.2703
  933MPD2    H313653   0.283   1.044   1.046 -0.2796  0.0625  1.5514
  933MPD2     N13654   0.431   1.464   1.143  0.0397  0.3474 -0.2550
  933MPD2    H513655   0.519   1.509   1.166 -0.4326  0.6388  0.9860
  933MPD2    N113656   0.728   1.084   1.093 -0.1578  0.4956  0.3479
  933MPD2    H713657   0.731   0.991   1.053 -2.0967  2.1614 -3.6094
  934MPD2     C13658   1.950   4.064   1.587 -0.0657 -0.1740  0.5743
  934MPD2    C113659   2.034   3.955   1.620 -0.0890 -0.6765  0.3859
  934MPD2    C213660   1.978   3.830   1.618  0.4235 -0.4861  0.3454
  934MPD2    C313661   1.846   3.809   1.578 -0.1019 -0.0885 -0.3543
  934MPD2    C413662   1.771   3.913   1.539 -0.6850 -0.3710  0.1376
  934MPD2    C513663   1.821   4.036   1.536  0.0285  0.3975  0.1846
  934MPD2     H13664   2.041   3.746   1.643  0.0498 -1.2153 -1.1333
  934MPD2    H113665   1.670   3.886   1.510 -0.5093  1.5583 -2.2776
  934MPD2    H213666   1.986   4.167   1.590 -0.1426 -0.1441  0.4695
  934MPD2    H313667   1.752   4.114   1.506  1.8378  1.7154 -0.5873
  934MPD2     N13668   1.781   3.684   1.584 -0.0452  0.1811 -0.1025
  934MPD2    H513669   1.684   3.690   1.555 -0.1327  0.8646  0.3291
  934MPD2    N113670   2.174   3.957   1.658 -0.1142  0.4953  0.3910
  934MPD2    H713671   2.213   3.868   1.686 -3.0265 -0.6979  0.6273
  935MPD2     C13672   2.144   2.742   1.460  0.5298  0.3843 -0.3206
  935MPD2    C113673   2.010   2.738   1.442  0.1606 -0.6203 -0.0602
  935MPD2    C213674   1.934   2.850   1.473 -0.2534  0.1018  0.5522
  935MPD2    C313675   1.981   2.955   1.543 -0.0309  0.2970  0.2848
  935MPD2    C413676   2.117   2.953   1.560 -0.3801 -0.2535 -0.1141
  935MPD2    C513677   2.195   2.848   1.520 -0.3918  0.4800  0.9542
  935MPD2     H13678   1.828   2.843   1.455 -0.1753  0.0607  0.0845
  935MPD2    H113679   2.169   3.034   1.610  0.6538 -0.5585 -0.7113
  935MPD2    H213680   2.215   2.665   1.432  1.1877  0.2741  1.6446
  935MPD2    H313681   2.303   2.853   1.530 -0.2844 -0.4904  0.2947
  935MPD2     N13682   1.908   3.069   1.576  0.2839  0.3407  0.1282
  935MPD2    H513683   1.955   3.149   1.617 -1.2051  0.1781  2.1123
  935MPD2    N113684   1.938   2.626   1.395  0.8072  0.0343  0.5671
  935MPD2    H713685   1.842   2.643   1.370  0.9478 -0.4146 -0.2817
  936MPD2     C13686   0.738   0.875  12.125  0.2241  0.2613 -0.3789
  936MPD2    C113687   0.734   0.848  12.257 -0.6556 -0.0681 -0.0375
  936MPD2    C213688   0.721   0.952  12.349 -0.5629 -0.0611  0.1070
  936MPD2    C313689   0.716   1.083  12.300 -0.3659  1.0861 -0.4023
  936MPD2    C413690   0.713   1.100  12.165 -0.7104 -0.3135  0.1298
  936MPD2    C513691   0.720   0.997  12.072  0.1453  0.4076 -0.0989
  936MPD2     H13692   0.723   0.927  12.454 -1.7746  0.1153  0.1778
  936MPD2    H113693   0.723   1.200  12.123  0.3890 -1.0467 -1.3744
  936MPD2    H213694   0.750   0.791  12.057 -1.9326 -0.9114  0.6893
  936MPD2    H313695   0.702   1.006  11.965 -0.1395 -1.4033 -0.1995
  936MPD2     N13696   0.707   1.190  12.396 -0.6786  0.6370 -0.3621
  936MPD2    H513697   0.691   1.155  12.490  0.7398 -0.3560 -0.4971
  936MPD2    N113698   0.758   0.726  12.320 -0.4272 -0.6352 -0.0740
  936MPD2    H713699   0.754   0.728  12.421 -1.2502 -0.4275 -0.1160
  937MPD2     C13700   3.434   1.932  11.609  0.4865 -0.0474  0.3945
  937MPD2    C113701   3.362   2.033  11.543 -0.6900 -0.0811 -0.7436
  937MPD2    C213702   3.417   2.083  11.425  0.5086  0.6172  0.0091
  937MPD2    C313703   3.524   2.014  11.358  0.7365  0.2767 -0.9023
  937MPD2    C413704   3.582   1.906  11.422 -0.9448 -0.2551 -0.2446
  937MPD2    C513705   3.543   1.872  11.547  0.6910 -0.0588  0.0049
  937MPD2     H13706   3.392   2.177  11.377  3.3604  1.6183  0.4493
  937MPD2    H113707   3.663   1.848  11.379 -1.2808 -0.6728 -0.3163
  937MPD2    H213708   3.407   1.896  11.707 -1.2385 -0.8412 -0.3604
  937MPD2    H313709   3.603   1.791  11.587  0.7521  0.6499  1.3693
  937MPD2     N13710   3.578   2.071  11.238 -0.1079 -0.8660 -0.7849
  937MPD2    H513711   3.535   2.154  11.200 -0.3273 -0.6180 -0.0006
  937MPD2    N113712   3.265   2.111  11.612  0.4223  0.1487  0.8810
  937MPD2    H713713   3.235   2.192  11.558 -0.6491 -1.7087 -1.2886
  938MPD2     C13714   0.637   2.872   1.264 -0.1496  0.0822  0.2519
  938MPD2    C113715   0.769   2.868   1.250  0.5907  0.4390 -0.1981
  938MPD2    C213716   0.832   2.744   1.281  1.2245  0.9940  1.2146
  938MPD2    C313717   0.760   2.635   1.311 -0.1689  0.0993  0.5965
  938MPD2    C413718   0.627   2.650   1.317  0.1528  0.3858  0.0394
  938MPD2    C513719   0.558   2.765   1.289 -0.0013  0.0601  0.4448
  938MPD2     H13720   0.936   2.719   1.259  0.2256 -2.3748  0.3232
  938MPD2    H113721   0.558   2.568   1.335 -3.2232  3.2615  0.2364
  938MPD2    H213722   0.594   2.972   1.262  1.6157  0.8372 -0.5925
  938MPD2    H313723   0.452   2.772   1.307 -0.0588  0.3512  0.0128
  938MPD2     N13724   0.820   2.520   1.351 -0.0981  0.0507  0.4387
  938MPD2    H513725   0.763   2.437   1.364 -0.6580  0.3897  0.1786
  938MPD2    N113726   0.839   2.984   1.214 -0.4825  0.3627  0.6161
  938MPD2    H713727   0.790   3.070   1.192 -1.0790 -0.2133 -0.2880
  939MPD2     C13728   2.812   4.067   1.106  0.0737  0.2757  0.0201
  939MPD2    C113729   2.785   4.200   1.071 -0.2981  0.1948 -0.4007
  939MPD2    C213730   2.774   4.231   0.939  0.0448  0.9633 -0.3189
  939MPD2    C313731   2.788   4.134   0.842  0.0912  0.2789  0.0789
  939MPD2    C413732   2.813   4.000   0.880 -0.0787 -0.0435  0.0625
  939MPD2    C513733   2.825   3.973   1.014  0.1690  0.3102 -0.4013
  939MPD2     H13734   2.758   4.330   0.898  0.8471  1.5698  0.8109
  939MPD2    H113735   2.827   3.914   0.815 -0.5007 -1.5771  2.0303
  939MPD2    H213736   2.819   4.043   1.211 -0.7307  1.6024  0.3823
  939MPD2    H313737   2.836   3.873   1.056 -1.0595 -0.0951 -1.0342
  939MPD2     N13738   2.785   4.172   0.710 -0.1349  0.0404  0.0268
  939MPD2    H513739   2.776   4.273   0.698  1.7319  0.2602  0.5953
  939MPD2    N113740   2.781   4.292   1.184  0.0085  0.3089  0.3637
  939MPD2    H713741   2.824   4.259   1.270  0.6949 -1.3271 -0.6161
  940MPD2     C13742   0.960   0.089  13.074  0.1229 -0.0059 -0.5427
  940MPD2    C113743   1.077   0.134  13.130 -0.5100  0.3148  0.4109
  940MPD2    C213744   1.169   0.197  13.049  0.8621 -0.1131  0.5104
  940MPD2    C313745   1.138   0.237  12.918 -0.4996 -0.1429  0.2665
  940MPD2    C413746   1.011   0.208  12.875 -0.2157 -0.3335 -0.0339
  940MPD2    C513747   0.925   0.135  12.953  0.0561 -0.3041  0.7176
  940MPD2     H13748   1.264   0.215  13.098  1.7960 -0.4884 -1.1804
  940MPD2    H113749   0.976   0.239  12.777 -2.2507  0.9607  1.0994
  940MPD2    H213750   0.882   0.050  13.139  1.4750 -1.3427  0.2628
  940MPD2    H313751   0.836   0.095  12.907  0.8628  0.4691 -1.5158
  940MPD2     N13752   1.225   0.307  12.832  0.4276 -0.1213 -0.0103
  940MPD2    H513753   1.187   0.342  12.744  0.2684 -1.8482 -0.6302
  940MPD2    N113754   1.114   0.102  13.260 -0.1963  0.3273  0.0207
  940MPD2    H713755   1.200   0.136  13.302  0.8420 -0.3163 -1.5442
  941MPD2     C13756   4.630   0.028   9.122 -0.5481  0.0945 -0.1080
  941MPD2    C113757   4.712   0.020   9.234  0.2962 -0.2889 -0.3128
  941MPD2    C213758   4.716   4.638   9.317 -0.4195  0.2089  0.1050
  941MPD2    C313759   4.633   4.529   9.289 -0.0680  0.0749 -0.4458
  941MPD2    C413760   4.553   4.541   9.174  0.6193 -0.0231 -0.1155
  941MPD2    C513761   4.544   4.650   9.093  0.0751 -0.0088  0.2875
  941MPD2     H13762   0.064   4.634   9.396  0.8674  0.9421 -1.0463
  941MPD2    H113763   4.482   4.461   9.157 -0.0670  0.6606 -0.4618
  941MPD2    H213764   4.629   0.117   9.059 -2.2834  0.1176 -0.0580
  941MPD2    H313765   4.470   4.658   9.014 -0.4425  1.2173  0.8965
  941MPD2     N13766   4.628   4.407   9.369  0.2779  0.2257  0.4839
  941MPD2    H513767   4.562   4.337   9.337 -0.1682  1.5135 -1.4212
  941MPD2    N113768   0.078   0.125   9.271  0.1401  0.0570  0.8636
  941MPD2    H713769   0.125   0.105   9.358 -0.5487 -0.3304  1.1523
  942MPD2     C13770   3.244   0.989   8.873 -0.5287  0.0104 -0.0611
  942MPD2    C113771   3.309   0.977   8.993 -0.8509 -0.7184 -0.3776
  942MPD2    C213772   3.338   1.090   9.057 -0.5819 -0.6904 -0.1676
  942MPD2    C313773   3.299   1.217   9.005  0.1934 -0.6062  0.6099
  942MPD2    C413774   3.224   1.216   8.894  0.3816  0.4589  0.3291
  942MPD2    C513775   3.193   1.105   8.821 -0.8463  0.3456 -0.0023
  942MPD2     H13776   3.379   1.085   9.157 -0.4571 -4.9565 -0.4141
  942MPD2    H113777   3.176   1.307   8.862  0.8074  0.3671 -0.5798
  942MPD2    H213778   3.210   0.896   8.828  1.8545 -0.7031 -0.4163
  942MPD2    H313779   3.119   1.094   8.743  0.5596 -2.9100 -0.9215
  942MPD2     N13780   3.320   1.335   9.073 -0.5792  0.6114  0.1788
  942MPD2    H513781   3.276   1.421   9.043  0.1396  0.7441 -0.4822
  942MPD2    N113782   3.365   0.859   9.043  0.8903  0.3215 -0.0629
  942MPD2    H713783   3.430   0.873   9.119  0.4449 -0.2084  0.4101
  943MPD2     C13784   3.123   3.676   9.601  0.4540  0.6335  0.2343
  943MPD2    C113785   3.245   3.734   9.617  0.0141 -0.0648  0.1028
  943MPD2    C213786   3.319   3.747   9.501  0.4098 -0.4834  0.0828
  943MPD2    C313787   3.264   3.710   9.378 -0.0578  0.0515 -0.5906
  943MPD2    C413788   3.149   3.641   9.375 -0.1802 -0.1997 -0.0726
  943MPD2    C513789   3.070   3.628   9.483  0.2923 -0.1189 -0.0714
  943MPD2     H13790   3.405   3.812   9.500  2.2107 -2.7997  3.3057
  943MPD2    H113791   3.112   3.615   9.276 -1.4521  0.8428  0.1315
  943MPD2    H213792   3.047   3.672   9.678  1.7128 -1.2263  1.3933
  943MPD2    H313793   2.976   3.575   9.490  0.2786 -0.1344 -0.3644
  943MPD2     N13794   3.327   3.719   9.252 -0.2736  0.6198 -0.3959
  943MPD2    H513795   3.260   3.707   9.176 -1.2064  0.9057  0.3784
  943MPD2    N113796   3.286   3.785   9.744  0.6503 -0.7053  0.2581
  943MPD2    H713797   3.226   3.766   9.823  0.5456 -1.8175 -0.0888
  944MPD2     C13798   3.794   3.249  11.201  0.1294  0.2667  0.3209
  944MPD2    C113799   3.711   3.358  11.198  0.6000 -0.4397  0.1160
  944MPD2    C213800   3.714   3.442  11.306  0.0874 -0.1595  0.0805
  944MPD2    C313801   3.799   3.417  11.411  0.5005 -0.5228  0.5437
  944MPD2    C413802   3.871   3.303  11.421 -0.4398 -0.2033  0.0907
  944MPD2    C513803   3.878   3.222  11.308 -0.2250  0.1062 -0.1362
  944MPD2     H13804   3.651   3.529  11.315 -0.9398 -0.9024  0.0699
  944MPD2    H113805   3.934   3.271  11.503  0.2634 -0.5559 -0.5812
  944MPD2    H213806   3.792   3.185  11.113  0.2725  0.9717 -0.1985
  944MPD2    H313807   3.948   3.138  11.310 -0.9534 -0.5038 -0.0995
  944MPD2     N13808   3.790   3.510  11.516  0.0046 -0.6422 -0.1788
  944MPD2    H513809   3.734   3.593  11.500  1.7546  0.5328 -0.2460
  944MPD2    N113810   3.638   3.401  11.080  0.4185 -0.3034  0.1213
  944MPD2    H713811   3.656   3.344  10.998 -2.3732 -1.3458  0.2355
    1TCq1    O113812   2.065   4.284  13.797  0.2375  0.2278 -0.6172
    1TCq1    C113813   2.022   4.386  13.877  0.2667 -0.5987  1.0657
    1TCq1    O213814   1.913   4.441  13.856  0.2069 -0.0608  0.3615
    1TCq1    C213815   2.099   4.393  13.995 -0.0264  0.7955  0.1541
    1TCq1    C313816   2.123   4.275  14.060 -0.0126 -0.8960 -0.7060
    1TCq1    C413817   2.159   4.269  14.196  0.0639 -0.8329  0.4262
    1TCq1    C513818   2.173   4.386  14.264  0.2252  0.7195 -0.1335
    1TCq1    C613819   2.130   4.505  14.203  0.4456  0.3012  0.0002
    1TCq1    C713820   2.085   4.508  14.071 -0.3424  0.2885 -0.4570
    1TCq1    C813821   2.133   4.623  14.288 -1.1481  0.3522  0.1242
    1TCq1    O413822   2.171   4.611  14.405 -0.1137 -0.3897 -0.0911
    1TCq1    C913823   2.192   4.139  14.261  0.6219 -0.8643 -0.5465
    1TCq1    O513824   2.146   4.034  14.203  0.3795  0.1946  0.3990
    1TCq1    O613825   2.287   4.139  14.340  0.4367  0.3664  0.2662
    1TCq1    H113826   2.163   4.273  13.789  0.6887  2.2067  2.1825
    1TCq1    H213827   2.108   4.180  14.012  0.5905 -1.4807  0.2686
    1TCq1    H313828   2.202   4.383  14.368  0.7217 -1.5247 -0.3392
    1TCq1    H413829   2.067   4.602  14.019 -0.3130  1.8765  2.3991
    2MPD2     C13830   1.980   0.383  14.399 -0.3983  0.6182  0.3812
    2MPD2    C113831   1.990   0.367  14.261 -0.0521 -0.4042  0.1704
    2MPD2    C213832   2.018   0.239  14.211  0.1740 -0.2748 -0.0914
    2MPD2    C313833   2.046   0.131  14.294 -0.2020  0.3288 -0.1542
    2MPD2    C413834   2.050   0.160  14.430 -0.2843 -0.2571  0.2159
    2MPD2    C513835   2.013   0.286  14.478  0.1691  0.0772  0.7760
    2MPD2     H13836   2.018   0.233  14.102 -1.5199 -0.4349 -0.0858
    2MPD2    H113837   2.075   0.083  14.502  2.2925  2.1014  1.8780
    2MPD2    H213838   1.960   0.474  14.455 -1.3616  0.0875  0.8989
    2MPD2    H313839   2.021   0.307  14.584  0.1794  0.8810  0.6109
    2MPD2     N13840   2.086   0.012  14.232  0.1707  1.1544  0.8043
    2MPD2    H513841   2.075   0.018  14.131  0.8219 -0.8329  0.6026
    2MPD2    N113842   1.972   0.480  14.178  0.0176 -0.5420  0.0931
    2MPD2    H713843   1.933   0.554  14.236 -0.6443  0.0306 -1.0855
    3TMC2    C113844   1.923   0.612  13.988 -0.2133 -0.3850 -0.7021
    3TMC2    C213845   1.836   0.689  14.060 -0.5851 -0.7810 -0.1921
    3TMC2    C313846   1.793   0.811  14.004  0.6990 -0.4863 -0.9254
    3TMC2    C413847   1.962   0.641  13.862  0.2443 -0.8936 -0.0471
    3TMC2    C513848   1.913   0.756  13.813  0.8295 -0.0737  0.2671
    3TMC2    C613849   1.833   0.847  13.878  1.5311  0.5954  0.0551
    3TMC2     C13850   1.984   0.495  14.046 -0.4136 -0.4468 -0.2000
    3TMC2     O13851   2.033   0.415  13.964 -0.1346  0.1595  1.1000
    3TMC2     H13852   1.803   0.663  14.160  2.0191  2.3410  1.4803
    3TMC2    H113853   2.030   0.573  13.811  1.2776 -0.1795  0.3644
    3TMC2    H213854   1.800   0.942  13.837  0.0819 -1.0443 -2.5562
    3TMC2    C713855   1.934   0.778  13.671 -0.2902  0.4429  0.0030
    3TMC2    C813856   1.695   0.888  14.086  1.0309  0.3578 -0.2495
    3TMC2    O113857   2.025   0.711  13.619 -0.1666  0.4678 -0.0624
    3TMC2    O213858   1.696   0.892  14.210 -0.5634  0.1782 -0.4520
    3TMC2    O513859   1.636   0.975  13.998  0.0182 -0.1626  0.0913
    3TMC2    H513860   1.635   0.948  13.903 -1.4690  2.2705 -0.5697
    4MPD2     C13861   0.759   1.782  13.386 -0.6054  0.3829 -0.1836
    4MPD2    C113862   0.734   1.705  13.273  0.0223  0.2145  0.7238
    4MPD2    C213863   0.824   1.599  13.263  0.3919  0.2751  0.0729
    4MPD2    C313864   0.931   1.572  13.349 -0.0670 -0.5102  0.2357
    4MPD2    C413865   0.948   1.655  13.455 -0.5481  0.2640 -0.3671
    4MPD2    C513866   0.866   1.761  13.474  0.3828  0.0439  0.8976
    4MPD2     H13867   0.809   1.534  13.177 -0.8212  0.0533  0.4534
    4MPD2    H113868   1.033   1.654  13.523 -0.9004 -2.3659  0.0236
    4MPD2    H213869   0.697   1.870  13.399 -2.7261 -1.1753  0.0858
    4MPD2    H313870   0.883   1.830  13.556  1.8294 -2.2181  2.4812
    4MPD2     N13871   1.027   1.466  13.311  0.6502 -0.4291 -0.0729
    4MPD2    H513872   1.014   1.428  13.218 -0.8589 -1.4208  0.5534
    4MPD2    N113873   0.624   1.734  13.182  0.2208  0.2944  0.4134
    4MPD2    H713874   0.573   1.821  13.179  1.9300  1.3224  1.2857
    5TCq2    C113875   1.142   1.436  13.380 -0.2018 -0.1759 -0.1217
    5TCq2    O213876   1.171   1.473  13.492  0.0235  0.0421 -0.1177
    5TCq2    C213877   1.236   1.388  13.285 -0.2393 -0.5861  0.0857
    5TCq2    C313878   1.214   1.388  13.149 -0.0786 -0.2117  0.1384
    5TCq2    C413879   1.301   1.314  13.073  0.3196  0.1413 -0.3421
    5TCq2    C513880   1.415   1.254  13.127  0.3923  0.5682 -0.0293
    5TCq2    C613881   1.433   1.261  13.263 -0.2144 -0.1007  0.6206
    5TCq2    C713882   1.347   1.333  13.337  0.3281  0.1833 -0.5037
    5TCq2    C813883   1.527   1.174  13.336  0.0209  0.1901 -0.3315
    5TCq2    O413884   1.534   1.196  13.457 -0.5782 -0.4337 -0.1810
    5TCq2    C913885   1.273   1.305  12.932  0.1824 -0.2555  0.4865
    5TCq2    O513886   1.363   1.263  12.857 -0.1038 -0.4901  0.1504
    5TCq2    O613887   1.150   1.301  12.901 -0.1369  0.3573  0.6954
    5TCq2    H213888   1.121   1.418  13.103  2.0319  1.0929 -3.3219
    5TCq2    H313889   1.480   1.201  13.057 -1.3174 -0.0593 -1.1289
    5TCq2    H413890   1.350   1.328  13.445 -0.4123  1.0318 -0.4456
    6MPD1     C13891   0.721   3.011  11.860  0.4570 -0.7483 -0.0446
    6MPD1    C113892   0.736   2.896  11.779 -0.1564 -0.0514  0.4795
    6MPD1    C213893   0.765   2.773  11.838 -0.0182  0.3366 -0.1320
    6MPD1    C313894   0.776   2.766  11.978  0.3910  0.0127  0.3625
    6MPD1    C413895   0.757   2.885  12.054  0.1478 -0.1791  0.2414
    6MPD1    C513896   0.726   3.004  11.999  0.2997 -0.1849  0.2826
    6MPD1     H13897   0.779   2.682  11.781 -1.4423  0.3531 -0.5227
    6MPD1    H113898   0.777   2.892  12.160 -1.5557 -2.1540  0.6929
    6MPD1    H213899   0.704   3.105  11.809 -1.2720 -0.1985  1.5548
    6MPD1    H313900   0.727   3.082  12.073  2.0621 -0.3700  0.4401
    6MPD1     N13901   0.803   2.650  12.056 -0.7233  0.0596  0.6645
    6MPD1    H513902   0.793   2.664  12.156  0.1118 -0.7428  0.8606
    6MPD1    N113903   0.740   2.908  11.641  0.3603 -0.0124  0.0441
    6MPD1    H613904   0.686   2.986  11.604  3.3148  2.4553  1.0061
    6MPD1    H713905   0.697   2.834  11.586  0.7227 -0.1275 -0.0842
    7MPD2     C13906   0.750   2.448  12.749  0.1824 -0.5137  0.4670
    7MPD2    C113907   0.704   2.350  12.659  0.5340 -0.2602  0.0127
    7MPD2    C213908   0.610   2.253  12.704  0.2071  0.2204 -0.4404
    7MPD2    C313909   0.569   2.243  12.834  0.0864 -0.0496 -0.3215
    7MPD2    C413910   0.626   2.333  12.922 -0.2456  0.5004 -0.1782
    7MPD2    C513911   0.702   2.440  12.880 -0.1666  0.0210 -0.0475
    7MPD2     H13912   0.578   2.178  12.633 -0.6830  2.1375 -2.0839
    7MPD2    H113913   0.597   2.338  13.027 -0.7534  1.8445 -0.3742
    7MPD2    H213914   0.826   2.521  12.724 -0.1523 -0.2603  0.1765
    7MPD2    H313915   0.736   2.513  12.954 -0.4676 -1.3086  1.4131
    7MPD2     N13916   0.503   2.135  12.890 -0.0036 -0.2026  0.2567
    7MPD2    H513917   0.506   2.124  12.991  0.2310  0.4661  0.3172
    7MPD2    N113918   0.738   2.354  12.520 -0.3018 -0.0896 -0.0632
    7MPD2    H713919   0.705   2.273  12.468 -0.1107 -2.0974  2.9021
    8TMC3    C113920   0.400   1.917  12.896  0.5208 -0.7974 -0.1470
    8TMC3    C213921   0.483   1.866  12.989 -0.3538  0.8556  0.3028
    8TMC3    C313922   0.498   1.726  12.987 -0.5260 -0.8925 -0.5469
    8TMC3    C413923   0.332   1.834  12.813  0.4890 -0.0733  0.1998
    8TMC3    C513924   0.360   1.704  12.801 -0.8027  0.4160 -1.0952
    8TMC3    C613925   0.441   1.643  12.895 -0.5594 -0.3398  0.0560
    8TMC3     C13926   0.439   2.035  12.820  0.2893  0.6893 -0.6416
    8TMC3     O13927   0.411   2.035  12.700 -0.0079  0.3158  0.4031
    8TMC3     H13928   0.550   1.925  13.051 -0.1156  0.3731  0.4994
    8TMC3    H113929   0.259   1.888  12.754  0.1665 -0.0830  0.5902
    8TMC3    H213930   0.461   1.537  12.905  1.3718 -0.1298 -1.5968
    8TMC3    C713931   0.400   1.656  12.674 -0.5542 -0.1211 -0.0516
    8TMC3    C813932   0.602   1.662  13.071  0.0002 -0.1996  0.3836
    8TMC3    O113933   0.412   1.536  12.657  0.3066 -0.1297 -0.6216
    8TMC3    O213934   0.646   1.554  13.031  0.0288 -0.0024  0.5441
    9TMC3    C113935   0.857   2.425  12.111  0.4220  0.5983  0.5134
    9TMC3    C213936   0.815   2.294  12.085  0.0087  0.5182  0.5266
    9TMC3    C313937   0.814   2.207  12.187 -0.1096 -0.0735 -0.0532
    9TMC3    C413938   0.893   2.463  12.242 -0.3864  0.0598 -0.2158
    9TMC3    C513939   0.876   2.369  12.341  0.1868  0.4037 -0.0393
    9TMC3    C613940   0.857   2.235  12.312 -0.3992 -0.0177  0.2635
    9TMC3     C13941   0.836   2.526  12.010 -0.0582 -0.1925 -0.2519
    9TMC3     O13942   0.827   2.484  11.896 -0.1947  0.2997 -0.9642
    9TMC3     H13943   0.777   2.265  11.987  0.2471  0.4483  0.4555
    9TMC3    H113944   0.925   2.564  12.265 -1.5977  0.0024  1.7008
    9TMC3    H213945   0.858   2.162  12.392 -2.7211  1.8176  1.9658
    9TMC3    C713946   0.838   2.427  12.465  0.2238  0.7936 -0.1421
    9TMC3    C813947   0.750   2.084  12.162 -0.4143  0.1406  0.0084
    9TMC3    O113948   0.885   2.538  12.492 -0.3036  0.6081 -0.0680
    9TMC3    O213949   0.778   2.036  12.055 -0.4155  0.5039  0.1668
   10MPD2     C13950   0.521   1.667  12.382  0.0110  0.2274 -0.6254
   10MPD2    C113951   0.510   1.774  12.467 -0.0851  0.2878  0.1023
   10MPD2    C213952   0.555   1.900  12.422  0.0974 -0.0835 -0.3742
   10MPD2    C313953   0.616   1.914  12.298  0.0191  0.3657 -0.1769
   10MPD2    C413954   0.625   1.802  12.212  0.7800  0.5190  0.1734
   10MPD2    C513955   0.581   1.682  12.260 -0.2348  0.1393  0.1238
   10MPD2     H13956   0.534   1.989  12.480 -0.5418 -1.8295  2.0550
   10MPD2    H113957   0.674   1.801  12.115  1.1694 -1.0529  0.3731
   10MPD2    H213958   0.488   1.570  12.415  0.7325 -0.5046 -2.0419
   10MPD2    H313959   0.585   1.594  12.197 -0.1088  2.2240 -2.7870
   10MPD2     N13960   0.669   2.044  12.268 -0.3445 -0.1035 -0.2838
   10MPD2    H513961   0.652   2.115  12.338 -0.3651  0.0236 -0.4164
   10MPD2    N113962   0.448   1.764  12.604  0.1909  0.2230  0.1658
   10MPD2    H713963   0.442   1.849  12.660 -0.5376 -1.1400  2.1668
   11MPD2     C13964   1.909   0.825  13.383 -0.1870 -0.6506 -0.0608
   11MPD2    C113965   1.817   0.879  13.478  0.1518  0.0250  0.4278
   11MPD2    C213966   1.720   0.971  13.439  0.4697  0.5165  0.0715
   11MPD2    C313967   1.711   1.009  13.306 -0.2647  0.2190 -0.5959
   11MPD2    C413968   1.803   0.956  13.211 -0.6514 -0.0055  0.5688
   11MPD2    C513969   1.895   0.859  13.251 -0.1693 -0.5155  0.3290
   11MPD2     H13970   1.661   1.011  13.520 -0.3210  0.0811 -0.2887
   11MPD2    H113971   1.799   0.981  13.105 -0.9421  0.8763  0.7925
   11MPD2    H213972   1.973   0.742  13.409 -0.5827 -0.5836  1.1365
   11MPD2    H313973   1.962   0.815  13.179  0.8340 -0.4483  1.2271
   11MPD2     N13974   1.614   1.100  13.257  0.5630 -0.3256  0.5190
   11MPD2    H513975   1.619   1.121  13.158 -0.1620 -3.1449 -0.1150
   11MPD2    N113976   1.826   0.839  13.613 -0.2076  0.3950  0.8484
   11MPD2    H713977   1.759   0.883  13.676 -1.4487 -2.2195  1.3212
    1MPD1     C13978   0.019   1.612   0.391  1.0671  0.0499  0.5368
    1MPD1    C113979   0.112   1.574   0.294  0.0821  0.8721  0.3397
    1MPD1    C213980   0.074   1.551   0.167 -1.5856 -0.4416  0.8016
    1MPD1    C313981   4.663   1.562   0.136  0.2029 -0.1012  0.1144
    1MPD1    C413982   4.573   1.610   0.232 -0.4380  0.0133 -0.1613
    1MPD1    C513983   4.619   1.639   0.359  1.0245  0.7769 -0.0424
    1MPD1     H13984   0.145   1.502   0.101 -2.4114 -0.4964 -0.0487
    1MPD1    H113985   4.466   1.619   0.213 -0.5971  0.7922  1.0864
    1MPD1    H213986   0.055   1.622   0.492 -0.9776 -0.7148  1.3382
    1MPD1    H313987   4.545   1.669   0.432  0.4250  5.5745 -2.6268
    1MPD1     N13988   4.611   1.511   0.019 -0.0332 -0.1234 -0.1235
    1MPD1    H513989   4.513   1.533   0.003 -0.1007 -0.3056  0.0388
    1MPD1    N113990   0.227   1.522   0.349  0.3880  0.2920 -0.5426
    1MPD1    H613991   0.307   1.517   0.285  1.5121 -1.8824  1.0495
    1MPD1    H713992   0.252   1.569   0.436  1.4889 -0.8248 -0.2464
    2MPD1     C13993   0.222   1.530  16.749  0.0498 -0.6121  0.9281
    2MPD1    C113994   0.232   1.630  16.845 -0.0558 -0.0455 -0.4630
    2MPD1    C213995   0.152   1.614  16.957  0.5470  0.6757  0.1448
    2MPD1    C313996   0.082   1.498  16.981  0.2728 -0.2455  0.6924
    2MPD1    C413997   0.098   1.387  16.896 -0.0358  0.1312  0.7004
    2MPD1    C513998   0.167   1.407  16.777 -0.3813 -0.2858 -0.0087
    2MPD1     H13999   0.142   1.688  17.036 -0.9179  1.0823 -0.4291
    2MPD1    H114000   0.050   1.294  16.923 -1.8183  0.8721  0.1047
    2MPD1    H214001   0.270   1.546  16.653  1.3137 -1.5406  1.3985
    2MPD1    H314002   0.174   1.324  16.707  2.2179 -1.3882  1.5211
    2MPD1     N14003   0.004   1.480  17.102  0.4133  0.5753  0.2637
    2MPD1    H514004   4.722   1.555  17.170 -1.0524 -0.0371  0.7690
    2MPD1    N114005   0.291   1.761  16.816  0.2917  0.0734 -0.2240
    2MPD1    H614006   0.321   1.808  16.902 -0.2235 -2.1948  1.2068
    2MPD1    H714007   0.364   1.759  16.745  2.9701 -0.2270  2.5024
    3TMC3    C114008   4.593   1.386  17.266 -0.3696  0.7495 -0.4925
    3TMC3    C214009   4.454   1.365  17.272 -0.1003 -0.6375  0.2613
    3TMC3    C314010   4.401   1.391  17.396 -0.7334 -1.0190 -0.3208
    3TMC3    C414011   4.670   1.431  17.374  0.2491 -0.2107 -0.5022
    3TMC3    C514012   4.605   1.454  17.495 -1.2724 -0.2577  1.1140
    3TMC3    C614013   4.470   1.440  17.502 -0.5097 -0.5432  0.1560
    3TMC3     C14014   4.649   1.368  17.132 -0.2874  0.5329  0.4661
    3TMC3     O14015   4.588   1.299  17.050  0.7214 -0.3473 -0.1290
    3TMC3     H14016   4.382   1.354  17.192  0.9503 -0.3150 -0.7238
    3TMC3    H114017   0.052   1.418  17.367  0.7439  2.9596  1.5062
    3TMC3    H214018   4.410   1.456  17.591  1.1364 -0.4452  1.2368
    3TMC3    C714019   4.680   1.449  17.615  0.6175 -0.4862  0.0901
    3TMC3    C814020   4.265   1.442  17.410 -0.0382 -1.0102  0.5340
    3TMC3    O114021   0.072   1.409  17.601  0.3148 -0.1188  0.0513
    3TMC3    O214022   4.251   1.553  17.461  0.2715  0.2747  0.3836
    4MPD1     C14023   3.818   1.452  17.183 -0.2965 -0.5807 -0.1706
    4MPD1    C114024   3.879   1.330  17.152 -0.2061 -0.3061  0.0174
    4MPD1    C214025   4.000   1.308  17.210  0.4932 -0.2231  0.2556
    4MPD1    C314026   4.060   1.405  17.284 -0.0548 -0.5800 -0.6528
    4MPD1    C414027   4.008   1.526  17.319 -0.1565 -0.3987 -0.3586
    4MPD1    C514028   3.891   1.549  17.250  0.0782 -0.5063  0.0009
    4MPD1     H14029   4.062   1.223  17.187 -0.2493 -0.9717  1.0095
    4MPD1    H114030   4.059   1.604  17.375  0.3147 -0.7451 -0.3120
    4MPD1    H214031   3.719   1.476  17.145  0.8458  4.3117 -0.0305
    4MPD1    H314032   3.853   1.650  17.254  1.3924  0.0299 -0.9802
    4MPD1     N14033   4.185   1.365  17.329 -0.1485  0.3259 -0.2003
    4MPD1    H514034   4.209   1.267  17.313  0.0016  0.4145 -0.5187
    4MPD1    N114035   3.812   1.228  17.081 -0.6480 -0.1369 -0.5976
    4MPD1    H614036   3.738   1.258  17.017 -0.1527 -1.1434 -1.6430
    4MPD1    H714037   3.869   1.160  17.031  1.3366  1.1385 -0.0634
    1TCq1    O114038   0.142   2.578  10.611  0.6255  0.2668 -0.6491
    1TCq1    C114039   0.011   2.573  10.584  0.3421 -0.1373  0.0619
    1TCq1    O214040   4.680   2.617  10.487 -0.6604 -0.7839 -0.1949
    1TCq1    C214041   4.677   2.567  10.719 -0.0785  0.5083  0.1440
    1TCq1    C314042   0.033   2.605  10.825 -0.1569 -0.4328  0.0193
    1TCq1    C414043   4.712   2.572  10.948 -0.5143  0.1385 -0.2314
    1TCq1    C514044   4.635   2.459  10.963 -0.0613  0.1089  0.3371
    1TCq1    C614045   4.560   2.419  10.858 -0.8676 -0.0176 -0.2572
    1TCq1    C714046   4.589   2.468  10.737 -0.5209  0.3323  0.0122
    1TCq1    C814047   4.452   2.326  10.857 -0.9523  0.3452  0.3633
    1TCq1    O414048   4.380   2.316  10.761  0.3864 -0.8213 -0.8402
    1TCq1    C914049   0.058   2.621  11.069  0.3474  0.2954 -0.1200
    1TCq1    O514050   0.026   2.585  11.186  0.2630  0.0863  0.3194
    1TCq1    O614051   0.129   2.720  11.046 -0.3713 -0.2383 -0.3167
    1TCq1    H114052   0.160   2.522  10.689 -0.5993  1.5304  0.5364
    1TCq1    H214053   0.085   2.699  10.809  0.8559 -1.5788 -3.4794
    1TCq1    H314054   4.608   2.432  11.065 -0.1999  0.4180  0.3823
    1TCq1    H414055   4.520   2.455  10.654  1.0271 -0.4221 -1.1348
    2MPD1     C14056   4.250   1.894  11.036 -0.4894  0.3176 -0.0134
    2MPD1    C114057   4.354   1.928  11.117 -0.0498  0.7478 -0.3134
    2MPD1    C214058   4.432   2.032  11.083 -0.4162 -0.5024  0.9271
    2MPD1    C314059   4.395   2.113  10.980  0.4414 -0.7461 -0.2053
    2MPD1    C414060   4.300   2.070  10.890 -0.5920 -0.0778  0.4636
    2MPD1    C514061   4.232   1.960  10.923 -0.2735 -0.7119 -0.4959
    2MPD1     H14062   4.512   2.071  11.145 -1.2861  0.5943  1.3627
    2MPD1    H114063   4.273   2.119  10.798 -0.3850  0.2357  0.5682
    2MPD1    H214064   4.184   1.809  11.048  1.8841 -1.2028  2.1444
    2MPD1    H314065   4.164   1.924  10.846  0.5011 -2.6321 -0.2677
    2MPD1     N14066   4.466   2.230  10.960  0.0542  0.6981  0.5918
    2MPD1    H514067   4.553   2.236  11.012  0.1635  1.5187  0.3182
    2MPD1    N114068   4.376   1.843  11.223 -0.5002 -0.6604  0.5746
    2MPD1    H614069   4.313   1.763  11.218 -2.8860  1.3888 -1.6324
    2MPD1    H714070   4.472   1.812  11.235  0.0105  0.5406 -0.4040
    1TCq1    O114071   4.301   0.517   1.675 -0.1897 -0.3007  0.5163
    1TCq1    C114072   4.204   0.606   1.644  0.3286  0.6123 -0.3285
    1TCq1    O214073   4.110   0.641   1.716  0.5246 -0.3760  0.1797
    1TCq1    C214074   4.239   0.688   1.534  0.2468  0.7442 -0.1881
    1TCq1    C314075   4.356   0.756   1.538  0.5078  0.7792 -0.4709
    1TCq1    C414076   4.392   0.850   1.444 -0.1340 -0.4223 -0.0622
    1TCq1    C514077   4.289   0.907   1.371 -0.0601  0.5292 -0.2991
    1TCq1    C614078   4.165   0.849   1.376 -1.0968  0.2782 -0.4571
    1TCq1    C714079   4.138   0.742   1.457 -0.4890 -0.6967 -0.2021
    1TCq1    C814080   4.046   0.915   1.320  0.3921 -0.2731  0.2514
    1TCq1    O414081   3.934   0.884   1.360  0.3596  0.2123  0.2707
    1TCq1    C914082   4.519   0.921   1.452  0.4490  0.0391  0.8335
    1TCq1    O514083   4.583   0.905   1.559 -0.1155 -0.1864 -0.7439
    1TCq1    O614084   4.551   1.005   1.361  0.1920  0.0699 -0.2055
    1TCq1    H114085   4.374   0.510   1.609  1.3686 -0.2415  2.2037
    1TCq1    H214086   4.424   0.724   1.616 -0.5337 -1.7255 -0.5551
    1TCq1    H314087   4.315   0.998   1.318  1.2921  0.3578  0.0539
    1TCq1    H414088   4.036   0.707   1.465 -1.0104  0.2074 -3.0083
    2MPD1     C14089   3.869   1.226   0.945 -0.0211  0.4849  0.1599
    2MPD1    C114090   4.003   1.241   0.949 -0.2069  0.6397  0.1762
    2MPD1    C214091   4.076   1.174   1.049  0.2285 -0.3652  0.7318
    2MPD1    C314092   4.014   1.090   1.142  0.0683  0.4235  0.0395
    2MPD1    C414093   3.873   1.093   1.146  0.0037 -0.4850 -0.4130
    2MPD1    C514094   3.808   1.159   1.041 -0.6380 -0.2272 -0.2375
    2MPD1     H14095   4.184   1.179   1.048  0.2186 -0.4312 -1.1129
    2MPD1    H114096   3.813   1.041   1.220  0.7880 -0.5225  0.1930
    2MPD1    H214097   3.811   1.281   0.871  0.1704  1.4353  0.7077
    2MPD1    H314098   3.704   1.135   1.024 -1.1572  0.0320  2.5364
    2MPD1     N14099   4.092   1.011   1.224  0.1665  0.0854 -0.4076
    2MPD1    H514100   4.191   1.019   1.203  0.7958 -2.3124  1.6613
    2MPD1    N114101   4.089   1.282   0.842  0.0228 -0.0269 -0.3030
    2MPD1    H614102   4.047   1.345   0.774 -0.9765 -0.4337 -0.0658
    2MPD1    H714103   4.178   1.326   0.866  0.3000 -0.4556 -0.5521
    1MPD1     C14104   1.708   1.619  12.502 -0.5293  0.0319  0.0678
    1MPD1    C114105   1.746   1.567  12.385 -0.4060 -0.0268 -0.2388
    1MPD1    C214106   1.843   1.629  12.322 -0.1856 -0.4883  0.1131
    1MPD1    C314107   1.912   1.744  12.371  0.1699 -0.1489 -0.4495
    1MPD1    C414108   1.877   1.794  12.491 -0.2355  0.1459  0.3999
    1MPD1    C514109   1.773   1.731  12.557  0.2692 -1.0314 -0.5445
    1MPD1     H14110   1.866   1.588  12.225  0.0536 -1.0025  0.3895
    1MPD1    H114111   1.927   1.873  12.547 -0.4046  1.0438 -0.7325
    1MPD1    H214112   1.625   1.576  12.559  0.4847  0.2676  1.7206
    1MPD1    H314113   1.742   1.753  12.659  1.0432 -0.6470 -0.3979
    1MPD1     N14114   2.015   1.795  12.287  0.1215 -0.3405  0.6818
    1MPD1    H514115   2.038   1.754  12.197 -1.0967  0.4728 -0.0081
    1MPD1    N114116   1.676   1.450  12.335  0.5887  0.1815  0.2140
    1MPD1    H614117   1.723   1.403  12.257  1.9580  1.2665  0.3790
    1MPD1    H714118   1.617   1.395  12.396  0.1705 -0.3359 -0.6528
    2MPD1     C14119   1.435   2.515  11.474 -0.0844  0.0947  0.1819
    2MPD1    C114120   1.378   2.516  11.355 -0.2264  0.0036  0.5127
    2MPD1    C214121   1.457   2.468  11.251  0.0054  0.4984  0.1030
    2MPD1    C314122   1.575   2.400  11.277  0.0680  0.6897 -0.3090
    2MPD1    C414123   1.624   2.384  11.401 -0.5868 -0.5663 -0.9694
    2MPD1    C514124   1.554   2.451  11.499 -0.3759 -0.2389 -0.1089
    2MPD1     H14125   1.423   2.485  11.149  2.3652  0.5081 -0.6613
    2MPD1    H114126   1.714   2.328  11.423  0.7960  2.4614  0.9563
    2MPD1    H214127   1.382   2.565  11.554 -2.1886  0.7396 -1.6169
    2MPD1    H314128   1.584   2.426  11.601 -0.1324 -1.0747 -0.3837
    2MPD1     N14129   1.646   2.329  11.175  0.3387  0.2789 -0.3593
    2MPD1    H514130   1.729   2.274  11.193 -1.5564 -1.6921  2.4751
    2MPD1    N114131   1.267   2.604  11.331 -0.0133  0.1140 -0.9226
    2MPD1    H614132   1.195   2.601  11.403  2.2995 -2.6321  1.2922
    2MPD1    H714133   1.221   2.593  11.241 -1.7921 -1.2147  0.1476
    3MPD1     C14134   1.294   1.662  10.532 -0.7161  0.0981 -0.0097
    3MPD1    C114135   1.262   1.694  10.662  0.1091 -0.1349 -0.4005
    3MPD1    C214136   1.346   1.792  10.721  0.6761 -0.0065  0.5054
    3MPD1    C314137   1.472   1.832  10.670 -0.1612 -0.2672  0.4529
    3MPD1    C414138   1.498   1.793  10.541 -0.4687  0.4840 -0.9438
    3MPD1    C514139   1.413   1.697  10.478  0.1753  0.4076 -0.6238
    3MPD1     H14140   1.324   1.829  10.821 -0.4364  0.8373 -0.0422
    3MPD1    H114141   1.589   1.824  10.491  0.9238  1.3761  2.0951
    3MPD1    H214142   1.233   1.598  10.470  1.1747 -1.0399 -0.7161
    3MPD1    H314143   1.441   1.657  10.381  2.2215 -0.6610  0.3953
    3MPD1     N14144   1.544   1.935  10.743  0.3537 -0.2870 -0.3070
    3MPD1    H514145   1.500   1.988  10.817 -1.4575  0.0651 -1.6282
    3MPD1    N114146   1.138   1.656  10.722  0.0722 -0.2733 -0.1812
    3MPD1    H614147   1.096   1.577  10.675 -0.5575 -1.0181  1.6057
    3MPD1    H714148   1.165   1.624  10.815 -5.2417 -0.5450  1.2709
    4MPD2     C14149   2.519   2.409  11.960  0.2334  0.7573 -0.1173
    4MPD2    C114150   2.542   2.271  11.956 -0.6057 -0.2679  0.4477
    4MPD2    C214151   2.617   2.224  11.856 -0.5617 -0.3492  0.2871
    4MPD2    C314152   2.659   2.295  11.744  0.2408  0.7203 -0.2185
    4MPD2    C414153   2.628   2.437  11.744 -0.0519  0.7521  0.8060
    4MPD2    C514154   2.557   2.488  11.849  0.6330  0.0571 -0.3274
    4MPD2     H14155   2.644   2.120  11.867 -0.1270 -0.0705  1.9381
    4MPD2    H114156   2.647   2.491  11.652  1.3037 -0.4438  0.3809
    4MPD2    H214157   2.468   2.456  12.044 -0.6623  0.1383 -0.3128
    4MPD2    H314158   2.520   2.590  11.842  1.6856  0.3264 -1.9050
    4MPD2     N14159   2.707   2.218  11.640 -0.3029  0.0004  0.8052
    4MPD2    H514160   2.695   2.119  11.659 -0.2830 -0.4449 -1.5006
    4MPD2    N114161   2.504   2.175  12.060  0.0412  0.2523  0.3567
    4MPD2    H714162   2.528   2.078  12.042 -1.3912 -0.4189  2.0866
    5TMC3    C114163   2.386   2.069  12.236 -0.2702 -0.4948  0.2956
    5TMC3    C214164   2.256   2.050  12.237 -0.0954  0.3128  0.6262
    5TMC3    C314165   2.205   1.929  12.221 -0.4399 -0.7972  0.2508
    5TMC3    C414166   2.469   1.967  12.194  0.4026  0.2812 -0.0699
    5TMC3    C514167   2.411   1.847  12.160 -0.4862 -0.5133 -0.1055
    5TMC3    C614168   2.275   1.816  12.185 -0.4902 -0.3845 -0.0822
    5TMC3     C14169   2.417   2.201  12.164  0.1991 -0.2422  0.3930
    5TMC3     O14170   2.338   2.297  12.175 -0.3112  0.1946 -0.0473
    5TMC3     H14171   2.193   2.131  12.274  0.5365 -0.3079  3.0612
    5TMC3    H114172   2.577   1.979  12.192  0.3309  1.1333  1.3640
    5TMC3    H214173   2.231   1.717  12.187  0.5168 -0.7831  2.2443
    5TMC3    C714174   2.472   1.804  12.040 -0.3331  0.2052  0.8290
    5TMC3    C814175   2.092   1.904  12.316 -0.3649 -0.1482 -0.3558
    5TMC3    O114176   2.564   1.877  11.998  0.1362 -0.9899 -0.0293
    5TMC3    O214177   2.087   1.970  12.418 -0.3883  0.0523  1.0003
    6TMC3    C114178   1.694   2.232  10.969 -0.2369  0.3336 -0.1768
    6TMC3    C214179   1.637   2.149  10.871 -0.3685  0.2871  0.3253
    6TMC3    C314180   1.722   2.084  10.788  0.4417  0.0162  0.3461
    6TMC3    C414181   1.833   2.243  10.982  0.2257  0.8585 -0.6251
    6TMC3    C514182   1.914   2.177  10.890 -0.4329  0.0297 -0.1855
    6TMC3    C614183   1.854   2.092  10.800 -0.1582  0.3759  0.3066
    6TMC3     C14184   1.599   2.308  11.042  0.3911  0.0619 -0.3666
    6TMC3     O14185   1.502   2.342  10.986  0.0041  0.1564  0.5129
    6TMC3     H14186   1.530   2.152  10.855 -0.4810  0.3184  1.1184
    6TMC3    H114187   1.878   2.314  11.050 -1.6688  0.4064  1.1026
    6TMC3    H214188   1.911   2.011  10.755 -1.3521 -0.2062 -0.1501
    6TMC3    C714189   2.052   2.152  10.927  0.3905 -0.4418  0.0621
    6TMC3    C814190   1.676   1.981  10.701  0.1919  0.2574 -0.7151
    6TMC3    O114191   2.081   2.155  11.046 -0.9079  0.2825 -0.3168
    6TMC3    O214192   1.743   1.956  10.602 -0.0819  0.2417  0.3528
    7MPD2     C14193   2.575   1.514  11.645  0.2958  0.1791 -0.2558
    7MPD2    C114194   2.582   1.648  11.656 -0.0839  0.5472  0.0695
    7MPD2    C214195   2.530   1.696  11.772 -0.2590  0.3421  0.1640
    7MPD2    C314196   2.484   1.618  11.880  0.7454  0.7807  0.2459
    7MPD2    C414197   2.482   1.477  11.859  0.4182 -0.0785 -0.2235
    7MPD2    C514198   2.531   1.427  11.741 -0.1484 -0.1453 -0.0136
    7MPD2     H14199   2.514   1.803  11.781  0.7037  0.5571 -0.5896
    7MPD2    H114200   2.442   1.403  11.927 -0.1975 -0.8806 -1.4517
    7MPD2    H214201   2.617   1.474  11.553  1.5924 -1.1599  0.9194
    7MPD2    H314202   2.530   1.320  11.721  0.7561 -0.1350 -0.1293
    7MPD2     N14203   2.432   1.681  11.996  0.2474 -0.0303 -0.2302
    7MPD2    H514204   2.386   1.618  12.061 -0.7894  2.8342  1.7880
    7MPD2    N114205   2.639   1.727  11.550  0.3524  0.5571 -0.4002
    7MPD2    H714206   2.668   1.690  11.460  1.4945 -0.8139  0.5305
    8TMC3    C114207   2.714   1.928  11.451  0.5394 -0.1746  0.1809
    8TMC3    C214208   2.636   1.943  11.340  0.6875  0.6486 -0.0692
    8TMC3    C314209   2.644   2.060  11.274 -0.0634  0.3494 -0.1052
    8TMC3    C414210   2.797   2.027  11.492  0.9954  0.1067  0.0046
    8TMC3    C514211   2.785   2.150  11.431 -0.1224  0.3628 -0.3083
    8TMC3    C614212   2.721   2.163  11.316  0.1864 -0.0527  0.5329
    8TMC3     C14213   2.641   1.870  11.558 -0.4915  0.1553 -0.0083
    8TMC3     O14214   2.631   1.945  11.658 -0.3887  0.5965  0.2532
    8TMC3     H14215   2.571   1.865  11.301  2.8384 -0.3034 -1.7825
    8TMC3    H114216   2.850   2.002  11.583 -2.9079 -1.7899  1.8170
    8TMC3    H214217   2.725   2.262  11.271 -1.1418 -0.4247 -0.4201
    8TMC3    C714218   2.763   2.260  11.522 -0.4945 -0.1879 -0.5586
    8TMC3    C814219   2.549   2.084  11.169 -0.5760 -0.4214  0.4047
    8TMC3    O114220   2.784   2.376  11.490  0.5389 -0.0543 -0.0503
    8TMC3    O214221   2.475   2.179  11.178 -0.5164  0.5782 -0.3205
    9MPD2     C14222   2.509   1.938  10.833  0.3968  0.7058  0.0950
    9MPD2    C114223   2.470   2.007  10.945  0.1337 -0.4533 -0.2434
    9MPD2    C214224   2.343   2.064  10.938  0.1638 -0.3053  0.8266
    9MPD2    C314225   2.259   2.057  10.827 -0.2763  0.0364 -0.5729
    9MPD2    C414226   2.314   2.014  10.709 -0.0095  0.4541 -0.0820
    9MPD2    C514227   2.427   1.937  10.720  0.6188 -0.1643  0.1765
    9MPD2     H14228   2.312   2.121  11.025  1.7713  1.5777  0.1624
    9MPD2    H114229   2.254   1.997  10.620 -1.1213 -0.9675  0.9325
    9MPD2    H214230   2.602   1.884  10.828  0.8833  1.4312  1.4876
    9MPD2    H314231   2.467   1.890  10.631  0.9844 -1.0233  0.8043
    9MPD2     N14232   2.129   2.117  10.818 -0.6188  0.4072  0.2431
    9MPD2    H514233   2.084   2.121  10.727  1.0806 -0.6455 -0.6527
    9MPD2    N114234   2.560   2.004  11.055 -0.5193 -0.0678  0.4867
    9MPD2    H714235   2.643   1.946  11.061 -0.0792  0.3055 -1.8755
    1MPD1     C14236   3.189   0.586  16.356 -0.5369 -0.5368 -0.7878
    1MPD1    C114237   3.156   0.702  16.431  0.4489  0.0297 -0.7487
    1MPD1    C214238   3.048   0.703  16.511 -0.1582  0.4427  0.2076
    1MPD1    C314239   2.956   0.599  16.512 -0.3314  0.6655 -0.4555
    1MPD1    C414240   2.981   0.493  16.436  0.6417  0.2762 -0.0522
    1MPD1    C514241   3.100   0.480  16.373 -0.1986  0.2181 -0.1980
    1MPD1     H14242   3.034   0.799  16.560  1.5790  0.8673 -0.1073
    1MPD1    H114243   2.919   0.405  16.427  2.4362 -1.1013  0.8542
    1MPD1    H214244   3.279   0.575  16.297 -0.2647 -1.0205 -0.2814
    1MPD1    H314245   3.119   0.386  16.323  1.5808 -1.3231  3.4135
    1MPD1     N14246   2.837   0.605  16.585 -0.2695 -0.0792  0.5387
    1MPD1    H514247   2.765   0.538  16.559  0.3000  0.0969 -1.5094
    1MPD1    N114248   3.249   0.803  16.438 -0.4485 -0.2084  0.1579
    1MPD1    H614249   3.311   0.803  16.357 -0.0506  2.8017  0.4641
    1MPD1    H714250   3.207   0.893  16.459 -0.7124 -0.0951 -0.8620
    2MPD1     C14251   2.055   0.324  16.362 -0.3073  0.1167  0.8717
    2MPD1    C114252   2.189   0.308  16.337 -0.8605  0.5785 -0.5224
    2MPD1    C214253   2.282   0.381  16.396  0.2199  0.0877 -0.2652
    2MPD1    C314254   2.239   0.468  16.494  1.1579 -0.2149  0.3233
    2MPD1    C414255   2.108   0.498  16.516  0.5356 -0.2362 -0.0445
    2MPD1    C514256   2.013   0.429  16.447 -0.4415  0.3865 -0.4015
    2MPD1     H14257   2.388   0.370  16.378  0.6409  0.2416  2.0230
    2MPD1    H114258   2.069   0.569  16.587 -0.3848 -0.1617 -0.6226
    2MPD1    H214259   1.985   0.268  16.300 -0.9053 -1.9080  3.3682
    2MPD1    H314260   1.912   0.465  16.464 -0.6669 -0.3157 -0.2270
    2MPD1     N14261   2.348   0.529  16.567  0.4644 -0.1207 -0.2343
    2MPD1    H514262   2.438   0.510  16.524 -0.1243 -0.7964 -1.1620
    2MPD1    N114263   2.228   0.193  16.276 -0.1128  0.5350 -0.4730
    2MPD1    H614264   2.162   0.163  16.205  1.4437 -0.8958 -1.3159
    2MPD1    H714265   2.325   0.191  16.245  0.6996 -0.4872  2.1130
    3TCq2    C114266   2.336   0.609  16.681  0.4723  0.0389  0.1104
    3TCq2    O214267   2.234   0.636  16.739 -0.3669 -0.0434  0.3229
    3TCq2    C214268   2.463   0.646  16.751  0.0225 -0.1271 -0.7096
    3TCq2    C314269   2.447   0.681  16.885  0.3327 -0.5576  0.3939
    3TCq2    C414270   2.556   0.723  16.945  0.1323  0.2715 -0.1991
    3TCq2    C514271   2.683   0.729  16.891  0.5285  0.0014  0.2426
    3TCq2    C614272   2.689   0.675  16.766  0.2579 -0.2820  0.0515
    3TCq2    C714273   2.582   0.639  16.689 -0.6382  0.4356  0.3062
    3TCq2    C814274   2.816   0.680  16.697  0.7309 -0.0579  0.0916
    3TCq2    O414275   2.892   0.759  16.755  0.1111  0.0414 -0.4200
    3TCq2    C914276   2.542   0.767  17.082 -0.3675  0.2172  0.2498
    3TCq2    O514277   2.427   0.743  17.129 -0.4363  0.0661  0.3392
    3TCq2    O614278   2.646   0.788  17.152 -0.2155 -0.1626 -0.4089
    3TCq2    H214279   2.352   0.674  16.937  0.5701 -1.8500  0.6559
    3TCq2    H314280   2.775   0.753  16.941  1.1595 -0.3514 -0.7504
    3TCq2    H414281   2.593   0.611  16.585  0.8327  2.3152 -0.0589
    1TCq1    O114282   4.496   4.706  12.234 -0.4070 -0.2540 -0.1815
    1TCq1    C114283   4.441   0.067  12.317  0.0128 -0.5189  0.1868
    1TCq1    O214284   4.326   0.105  12.309  0.2433  0.1446 -0.5314
    1TCq1    C214285   4.506   0.041  12.444 -0.0629  0.8346  0.4391
    1TCq1    C314286   4.429   0.047  12.557 -0.5068  0.0328 -0.6877
    1TCq1    C414287   4.488   0.037  12.677 -0.2278  0.0839  1.1968
    1TCq1    C514288   4.620   0.005  12.684 -0.2138  0.0295  0.0010
    1TCq1    C614289   4.694   0.015  12.569  0.0764  0.0556  0.0010
    1TCq1    C714290   4.646   0.026  12.441 -0.3094 -0.1809 -0.8831
    1TCq1    C814291   0.112   0.013  12.573 -0.9590 -0.5455  0.8467
    1TCq1    O414292   0.179   0.006  12.471  0.1334 -0.0742  0.0688
    1TCq1    C914293   4.411   0.036  12.794  0.1844  0.0646  0.6446
    1TCq1    O514294   4.468   0.037  12.901 -1.0943  0.6021  0.1336
    1TCq1    O614295   4.284   0.052  12.779  0.5338 -0.6521  0.1435
    1TCq1    H114296   4.555   4.648  12.286  0.0582 -1.4969 -2.0899
    1TCq1    H214297   4.321   0.059  12.558 -0.3824  0.9836  0.2003
    1TCq1    H314298   4.654   4.710  12.785  0.0547  0.3024 -0.0357
    1TCq1    H414299   4.711   0.038  12.355  1.2996  1.2008  0.5258
    2MPD2     C14300   0.399   4.693  12.677  0.5997 -0.1621 -0.4138
    2MPD2    C114301   0.286   4.700  12.754  0.0898 -0.2643  0.3850
    2MPD2    C214302   0.301   4.704  12.896 -0.5810  0.0076 -0.2364
    2MPD2    C314303   0.424   4.675  12.950 -0.5650 -0.2428  1.1470
    2MPD2    C414304   0.529   4.645  12.868  0.3753 -0.5064  0.1622
    2MPD2    C514305   0.514   4.647  12.730 -0.1681  0.0300 -0.0549
    2MPD2     H14306   0.208   4.702  12.953 -0.6841 -2.8025 -0.5293
    2MPD2    H114307   0.625   4.619  12.910 -0.3727 -0.4020  1.9305
    2MPD2    H214308   0.396   4.691  12.569  0.2329  1.6199 -0.4398
    2MPD2    H314309   0.597   4.625  12.664 -1.4145 -0.8917 -1.3452
    2MPD2     N14310   0.434   4.685  13.093  0.3821  0.2945  0.3472
    2MPD2    H514311   0.346   4.695  13.142 -0.6286  0.0639 -1.4416
    2MPD2    N114312   0.153   4.711  12.706  0.2811 -0.1116 -0.0447
    2MPD2    H714313   0.078   0.005  12.771 -1.2487 -1.5623 -1.3938
    3TCq1    O114314   0.268   0.167  13.617 -0.0148 -0.4732  0.5126
    3TCq1    C114315   0.336   0.201  13.511  0.5473  0.3485  0.2944
    3TCq1    O214316   0.305   0.280  13.422 -0.5772  0.2050  0.7266
    3TCq1    C214317   0.420   0.090  13.465  0.5551 -0.1274  0.1708
    3TCq1    C314318   0.501   0.021  13.557  0.7390 -0.1453  0.7252
    3TCq1    C414319   0.607   4.670  13.519 -0.1765 -0.5263 -0.3235
    3TCq1    C514320   0.616   4.648  13.388  0.2677 -0.0418  0.2509
    3TCq1    C614321   0.536   4.706  13.299  0.5295  0.2367  1.2151
    3TCq1    C714322   0.439   0.072  13.332  0.2863  0.4103 -0.3676
    3TCq1    C814323   0.551   4.678  13.164  0.6262  0.0123  0.1266
    3TCq1    O414324   0.661   4.635  13.137  0.4948  0.6604  0.0153
    3TCq1    C914325   0.704   4.605  13.605  0.5026  0.6994  0.2180
    3TCq1    O514326   0.723   4.646  13.725  0.0838  0.6317  0.6325
    3TCq1    O614327   0.773   4.514  13.560 -0.3416  0.0543 -0.0252
    3TCq1    H114328   0.301   0.087  13.662 -0.7114 -1.4943 -0.7637
    3TCq1    H214329   0.486   0.047  13.661 -1.7716 -0.3693  0.4098
    3TCq1    H314330   0.687   4.575  13.350 -0.5907 -1.3503  1.1665
    3TCq1    H414331   0.371   0.125  13.267  0.0223 -0.8203 -1.1005
    1MPD2     C14332   4.164   1.078  14.442  0.0331  0.0709  0.4800
    1MPD2    C114333   4.263   1.019  14.375  0.2067  0.0652  0.2071
    1MPD2    C214334   4.395   1.048  14.410 -0.0469 -0.2365 -0.5723
    1MPD2    C314335   4.420   1.137  14.509 -0.7381 -0.2793 -0.8534
    1MPD2    C414336   4.313   1.202  14.578  1.5686  0.7735  0.3909
    1MPD2    C514337   4.182   1.168  14.544 -0.1142 -0.0904 -0.1321
    1MPD2     H14338   4.474   0.981  14.379  0.4294 -0.6234  1.4566
    1MPD2    H114339   4.326   1.267  14.663 -2.0358 -0.1225  1.6083
    1MPD2    H214340   4.064   1.046  14.415 -0.0452 -0.4479  1.3820
    1MPD2    H314341   4.098   1.204  14.602 -1.0855 -0.8675 -1.0444
    1MPD2     N14342   4.558   1.141  14.542  0.3863  0.6762 -0.3514
    1MPD2    H514343   4.616   1.088  14.478  1.2601 -1.7082  2.4646
    1MPD2    N114344   4.228   0.920  14.283 -0.1666 -0.1686  0.5066
    1MPD2    H714345   4.129   0.900  14.270 -0.3103  1.2470 -0.6887
    2TMC3    C114346   4.253   0.722  14.166 -0.1315  1.0690  0.0512
    2TMC3    C214347   4.342   0.644  14.098 -0.2141  0.0001  0.2556
    2TMC3    C314348   4.354   0.511  14.121  0.1019 -0.1359  0.1555
    2TMC3    C414349   4.154   0.664  14.245 -0.0485  0.9718 -0.2974
    2TMC3    C514350   4.172   0.524  14.261  0.5506 -0.0745  0.0034
    2TMC3    C614351   4.268   0.452  14.205 -0.9165 -0.6000 -1.6687
    2TMC3     C14352   4.316   0.835  14.224  0.6734 -0.0434 -0.2798
    2TMC3     O14353   4.439   0.835  14.222 -0.3450  0.2004  0.0095
    2TMC3     H14354   4.411   0.694  14.031  0.5613  1.3049  2.0320
    2TMC3    H114355   4.081   0.716  14.305  0.8407  0.0668  1.5926
    2TMC3    H214356   4.289   0.351  14.239 -0.7210  0.4541  1.3204
    2TMC3    C714357   4.064   0.457  14.332 -0.3592 -0.3805 -0.4671
    2TMC3    C814358   4.490   0.471  14.150 -0.2821  0.0707 -0.6455
    2TMC3    O114359   4.025   0.355  14.269 -0.3030 -0.0616 -0.2251
    2TMC3    O214360   4.520   0.352  14.146  0.3073 -0.1664  0.4538
    3TCq1    O114361   3.424   0.942  15.324  0.6448 -0.4438  0.3613
    3TCq1    C114362   3.391   0.910  15.197 -0.2026  0.1460  0.5715
    3TCq1    O214363   3.285   0.862  15.158 -0.2548  0.3982 -0.4134
    3TCq1    C214364   3.513   0.879  15.138 -0.3858 -0.4714  0.1753
    3TCq1    C314365   3.615   0.965  15.157  0.6018 -0.3706  0.9652
    3TCq1    C414366   3.738   0.937  15.117  0.0058  0.0314  0.6139
    3TCq1    C514367   3.773   0.821  15.044  0.2532  0.5399 -0.3205
    3TCq1    C614368   3.664   0.739  15.024 -0.4063 -0.0319 -0.4239
    3TCq1    C714369   3.535   0.763  15.070  0.2067  0.3410 -0.5970
    3TCq1    C814370   3.665   0.623  14.929 -0.0791  0.5628 -0.0556
    3TCq1    O414371   3.562   0.553  14.925  0.3006  1.1402  0.1744
    3TCq1    C914372   3.843   1.030  15.152  0.2747  0.7740 -0.3380
    3TCq1    O514373   3.954   1.008  15.114  0.3727 -0.0414  0.4582
    3TCq1    O614374   3.806   1.146  15.187  0.5367  0.5041  0.8037
    3TCq1    H114375   3.520   0.957  15.336  0.5638  0.4866 -0.1894
    3TCq1    H214376   3.590   1.064  15.194 -0.6073 -0.6156  0.8071
    3TCq1    H314377   3.870   0.803  14.998  0.8035  4.6969 -0.8025
    3TCq1    H414378   3.450   0.697  15.055 -0.3628  0.8400  0.4594
    4MPD2     C14379   3.729   0.413  14.715 -0.5331 -0.5217 -0.3784
    4MPD2    C114380   3.796   0.532  14.732 -0.6492 -0.5711 -0.4574
    4MPD2    C214381   3.906   0.551  14.650  0.1293  0.3433 -0.2326
    4MPD2    C314382   3.938   0.469  14.543  0.2177 -0.1091 -0.1198
    4MPD2    C414383   3.871   0.351  14.533  0.2992 -0.2386 -0.7686
    4MPD2    C514384   3.772   0.327  14.618  0.3426 -0.1927  0.5002
    4MPD2     H14385   3.965   0.638  14.678 -1.3124  1.6340 -1.1261
    4MPD2    H114386   3.894   0.279  14.455 -3.4708 -2.0993 -0.1855
    4MPD2    H214387   3.643   0.386  14.775 -0.7923  0.7188 -0.1722
    4MPD2    H314388   3.704   0.242  14.612  0.7274 -0.5495  1.1459
    4MPD2     N14389   4.036   0.516  14.454  0.3615 -0.1955  0.0376
    4MPD2    H514390   4.095   0.595  14.474 -1.3881  1.4689 -1.3977
    4MPD2    N114391   3.776   0.617  14.841 -0.2485  0.3274  0.2497
    4MPD2    H714392   3.847   0.688  14.857 -0.3109  0.0904  1.6004
    5TMC2    C114393   0.145   0.986  14.595 -0.3606 -0.3583  0.0748
    5TMC2    C214394   0.161   0.925  14.715 -0.2149 -0.3980 -0.9315
    5TMC2    C314395   0.098   0.982  14.823 -0.1949 -0.4626 -0.5732
    5TMC2    C414396   0.077   1.108  14.584  0.3412 -0.6472 -0.6103
    5TMC2    C514397   0.012   1.157  14.687 -0.3410 -0.2636  0.2367
    5TMC2    C614398   0.017   1.098  14.813 -0.0797 -0.0996 -0.3403
    5TMC2     C14399   0.117   0.900  14.478 -0.1181  0.0175  0.0469
    5TMC2     O14400   0.054   0.954  14.389  0.3225 -0.0839  0.0937
    5TMC2     H14401   0.225   0.838  14.730  0.2969 -0.0514 -1.1030
    5TMC2    H114402   0.082   1.165  14.492 -0.7884  1.0684  0.3830
    5TMC2    H214403   4.689   1.132  14.901  2.9292  1.9208  0.6843
    5TMC2    C714404   4.607   1.210  14.652  0.2993 -0.0352  0.5208
    5TMC2    C814405   0.100   0.907  14.948 -0.3399 -0.3200  0.8458
    5TMC2    O114406   4.550   1.261  14.746 -0.9358 -0.4201 -0.1961
    5TMC2    O214407   0.000   0.864  15.005  0.0149 -0.5823 -0.6992
    5TMC2    O514408   0.229   0.896  14.976  0.0129 -0.3482  0.5525
    5TMC2    H514409   0.283   0.958  14.924  0.7661 -0.4867  1.1620
    6MPD2     C14410   0.037   0.455  14.237  0.0362 -0.3133  0.5194
    6MPD2    C114411   4.682   0.570  14.254 -0.0002 -1.5769 -0.0792
    6MPD2    C214412   0.004   0.669  14.336 -0.0986 -0.1039  1.0806
    6MPD2    C314413   0.130   0.669  14.387 -0.2012 -0.4249  1.1054
    6MPD2    C414414   0.203   0.554  14.382  0.4859  0.3392 -0.6775
    6MPD2    C514415   0.157   0.447  14.310  0.3336  0.1387 -0.7042
    6MPD2     H14416   4.659   0.750  14.351  0.1609  0.5452 -1.2171
    6MPD2    H114417   0.299   0.537  14.429  0.6967 -1.7662 -1.8687
    6MPD2    H214418   0.005   0.367  14.182  1.7998 -0.6606  0.0471
    6MPD2    H314419   0.215   0.355  14.308  0.9176  0.5173 -1.5781
    6MPD2     N14420   0.172   0.774  14.473 -0.0306 -0.4412  0.7868
    6MPD2    H514421   0.241   0.749  14.543  0.1759 -0.0898  0.7056
    6MPD2    N114422   4.562   0.584  14.188 -0.0207  0.0129 -0.7563
    6MPD2    H714423   4.517   0.675  14.193  3.4409  1.6478  0.4679
  945NH4     N114424   3.933   1.363  15.133 -0.4296 -0.1515  0.8042
  945NH4     H214425   3.986   1.357  15.044 -0.6263 -1.3231  0.7708
  945NH4     H314426   3.997   1.398  15.208  1.4608  0.6046 -1.1670
  945NH4     H414427   3.901   1.269  15.162 -1.4473 -0.3772 -1.0538
  945NH4     H514428   3.847   1.421  15.126  0.7106  1.3132 -0.9848
  946SOD     NA14429   3.923   3.935   9.922  0.6754  0.1938 -0.2350
  947SOD     NA14430   1.344   1.754  16.313  0.1444 -0.0706  0.2414
  948SOD     NA14431   1.988   2.706   0.479 -0.1500 -0.2208 -0.2948
  949SOD     NA14432   1.281   4.498  14.003  0.3108 -0.3616 -0.0661
  950SOD     NA14433   3.975   3.902  10.237  0.1633  0.2219 -0.0793
  951SOD     NA14434   4.009   2.515   8.931  0.7704  0.1097  0.2750
  952SOD     NA14435   0.902   1.081  15.589 -0.2148 -0.5237 -0.5573
  953SOD     NA14436   0.300   0.307  12.108 -1.1740  0.4526 -0.2113
  954SOD     NA14437   2.670   3.078  14.834  0.1542 -0.0497  0.0727
  955SOD     NA14438   0.512   0.121  11.119 -0.1750  0.7188 -0.1818
  956SOD     NA14439   4.439   4.089  11.968  0.2809  0.1835  0.0391
  957SOD     NA14440   2.166   2.028   0.886 -0.6728  0.3491  0.0892
  958SOD     NA14441   1.074   0.565  15.080  0.2229  0.1607 -0.3666
  959SOD     NA14442   3.811   3.656   1.544  0.2975  0.3410 -0.6943
  960SOD     NA14443   2.333   3.050  14.779 -0.1437  0.1293  0.0215
  961SOD     NA14444   2.158   3.548   1.172  0.3935 -0.1013  0.0783
  962SOD     NA14445   4.527   2.787  10.396 -0.0419 -0.0753  0.2813
  963SOD     NA14446   3.158   4.611   8.784 -0.3736 -0.6913 -0.0920
  964SOD     NA14447   4.126   2.225  12.120  0.0208 -0.1710 -0.7411
  965SOD     NA14448   0.635   0.851  15.141  0.3141  0.0252 -0.1234
  966SOD     NA14449   0.329   4.207   4.239  0.1890  0.3236  0.0496
  967SOD     NA14450   3.081   4.455  10.616 -0.1543  0.1115  0.3458
  968SOD     NA14451   4.077   4.711  12.722  0.3908 -0.0125  0.4139
  969SOD     NA14452   3.737   3.923  10.506 -0.0752 -0.5957  0.1204
  970SOD     NA14453   2.900   3.774  17.492 -0.4882  0.2280  0.4299
  971SOD     NA14454   3.770   3.661  10.349  0.0148 -0.3267 -0.3168
  972SOD     NA14455   1.959   4.104  13.592 -0.0420 -0.0053 -0.0309
  973SOD     NA14456   1.994   0.957  12.779  0.3316 -0.2455 -0.0274
  974SOD     NA14457   0.241   4.532  11.499  1.0593  0.2510 -0.3832
  975SOD     NA14458   0.263   0.417  10.120 -0.6654  0.2011 -0.0567
  976SOD     NA14459   0.725   0.028  11.373 -0.4074 -0.5018  0.0710
  977SOD     NA14460   1.422   3.946   7.664  0.1572 -0.1150 -0.4497
  978SOD     NA14461   2.787   3.207   8.230 -0.1294  0.2557 -0.0385
  979SOD     NA14462   3.784   0.435   1.347 -0.2031 -0.0324 -0.2884
  980SOD     NA14463   0.784   4.409  12.792  0.0845  0.1285  0.2708
  981SOD     NA14464   2.111   2.519   5.782 -0.4993 -0.3399  0.1358
  982SOD     NA14465   1.879   3.956  17.364 -0.2665 -0.2167  0.1113
  983SOD     NA14466   3.762   3.660   9.354 -0.5249 -0.4908  0.3846
  984SOD     NA14467   3.691   0.992   1.655  0.3321 -0.0228 -0.4530
  985SOD     NA14468   0.423   0.393   9.822  0.3951 -0.1782  0.0642
  986SOD     NA14469   0.178   3.424   1.795  0.1182  0.2419 -0.3647
  987SOD     NA14470   3.875   1.589  15.519  0.5780 -0.1102  0.4148
  988SOD     NA14471   2.874   4.272   1.851  0.0957  0.2893 -0.5229
  989SOD     NA14472   0.008   1.065   1.525  0.4167  0.2564 -0.0400
  990SOD     NA14473   2.532   1.807   3.395  0.5043 -0.2996 -0.0073
  991SOD     NA14474   3.791   3.209   8.324  0.2518  0.0168  0.3563
  992SOD     NA14475   2.670   3.852  12.698 -0.5155  0.6554 -0.0379
  993SOD     NA14476   1.343   4.498  14.492 -0.0341  0.0484 -0.1563
  994SOD     NA14477   1.377   0.539  14.992  0.1545 -0.1827 -0.0979
  995SOD     NA14478   0.758   4.541  11.882  0.3985 -0.0121 -0.0560
  996SOD     NA14479   4.271   0.112  12.988 -0.2334  0.4840  0.0427
  997SOD     NA14480   3.387   4.337   6.723  0.0779  0.0822  0.3133
  998SOD     NA14481   3.028   0.826  10.540  0.4065  0.3913 -0.0401
  999SOD     NA14482   4.233   1.916  11.997 -0.2605 -0.0351 -0.0192
 1000SOD     NA14483   0.445   3.728   3.913 -0.1523  0.3549 -0.1706
 1001SOD     NA14484   3.360   0.309  11.232  0.1553 -0.0961  0.0767
 1002SOD     NA14485   3.611   1.746   0.982  0.2167  0.1925 -0.4321
 1003SOD     NA14486   4.648   1.064   1.184 -0.1256 -0.0547 -0.2119
 1004SOD     NA14487   1.890   2.367  12.281 -0.3581 -0.2282  0.2537
 1005SOD     NA14488   1.273   0.010  14.235  0.3172  0.1435 -0.1935
 1006SOD     NA14489   4.720   2.487  11.359  0.1480  0.4612  0.4078
 1007SOD     NA14490   0.811   0.769  11.367 -0.1099  0.1844  0.2966
 1008SOD     NA14491   2.632   4.530   1.906  0.1398 -0.1233  0.2692
 1009SOD     NA14492   1.333   1.342  10.960  0.4621  0.7372 -0.1045
 1010SOD     NA14493   1.605   3.678  16.971  0.1309  0.1259 -0.0112
 1011SOL     OW14494   0.123   4.590   6.184  0.7832  0.4677  0.3833
 1011SOL    HW114495   0.146   4.630   6.100  1.2827 -0.1254  0.2373
 1011SOL    HW214496   0.124   4.668   6.240  1.4429  0.6988  0.0532
 1012SOL     OW14497   1.866   0.667   8.542 -0.2697  0.4878 -0.8701
 1012SOL    HW114498   1.810   0.723   8.490  0.5474  0.8310 -1.3755
 1012SOL    HW214499   1.952   0.679   8.503  0.5105  0.9694  0.9592
 1013SOL     OW14500   2.011   1.375   9.314 -0.1679  0.7050 -0.6989
 1013SOL    HW114501   1.959   1.365   9.394  1.9051 -0.0495  0.5444
 1013SOL    HW214502   2.095   1.407   9.347 -0.3057 -0.6252  0.9868
 1014SOL     OW14503   2.885   1.488  12.107  0.5224 -0.2393 -0.1553
 1014SOL    HW114504   2.843   1.465  12.024  0.6887 -1.7055  0.1654
 1014SOL    HW214505   2.977   1.479  12.083 -0.0734  1.0114 -2.9179
 1015SOL     OW14506   1.267   0.606  13.788 -0.6279 -0.2120 -0.0313
 1015SOL    HW114507   1.244   0.686  13.741 -0.6639 -0.8699 -1.1145
 1015SOL    HW214508   1.177   0.593  13.820 -0.5061  0.3380  0.5573
 1016SOL     OW14509   2.001   2.185   9.664  0.0308 -0.0189 -0.3175
 1016SOL    HW114510   2.091   2.208   9.641 -0.6654  1.7572 -1.2202
 1016SOL    HW214511   1.957   2.269   9.660  1.1386  0.4462 -2.4515
 1017SOL     OW14512   3.297   2.400   5.383 -0.0908 -0.3647 -0.0490
 1017SOL    HW114513   3.276   2.379   5.474  1.5954  0.2716  0.4928
 1017SOL    HW214514   3.255   2.486   5.385 -1.4229 -1.0255  0.3137
 1018SOL     OW14515   3.063   3.548   2.476 -0.2057  0.1563  0.2600
 1018SOL    HW114516   3.116   3.589   2.543  0.9414 -0.0537 -0.5101
 1018SOL    HW214517   3.120   3.554   2.399 -1.1125  1.1279 -0.3304
 1019SOL     OW14518   3.720   3.652   3.450 -0.4053  0.7147 -0.7490
 1019SOL    HW114519   3.717   3.563   3.413  1.5833  0.9706 -1.4783
 1019SOL    HW214520   3.752   3.635   3.539 -4.4760  0.9298  0.7534
 1020SOL     OW14521   1.728   0.088   2.660  0.4388  0.0950 -0.2908
 1020SOL    HW114522   1.633   0.087   2.655  0.3032  0.7447  2.3906
 1020SOL    HW214523   1.746   0.169   2.708  0.7448  0.0255 -0.2853
 1021SOL     OW14524   4.269   0.085   4.004  0.2841  0.4592  0.1712
 1021SOL    HW114525   4.184   0.128   4.018 -0.6231 -1.2651  0.0686
 1021SOL    HW214526   4.239   0.008   3.956 -0.5936  0.6500  0.3937
 1022SOL     OW14527   3.879   3.999  13.708 -0.2378  0.6846  0.0535
 1022SOL    HW114528   3.941   4.045  13.651  0.8059  0.9294  1.3951
 1022SOL    HW214529   3.806   4.059  13.726  0.0824  1.0376  0.1624
 1023SOL     OW14530   3.601   2.289   9.427  0.6059  0.1528  0.4516
 1023SOL    HW114531   3.593   2.229   9.501  1.8352  1.7337  1.8922
 1023SOL    HW214532   3.666   2.351   9.460  1.2421 -0.1219 -0.2878
 1024SOL     OW14533   1.297   3.906  11.910 -0.7110 -0.8786  0.4326
 1024SOL    HW114534   1.215   3.858  11.927 -1.0009 -0.2889  0.7029
 1024SOL    HW214535   1.355   3.860  11.970 -0.8583 -1.7001 -0.0394
 1025SOL     OW14536   0.220   3.203   4.387 -0.6286 -0.4213  0.7102
 1025SOL    HW114537   0.224   3.189   4.293  1.6458 -0.0981  0.7557
 1025SOL    HW214538   0.225   3.115   4.424 -0.0245 -0.6124  0.1573
 1026SOL     OW14539   3.701   0.262   1.500  0.1800 -0.3967  0.2283
 1026SOL    HW114540   3.611   0.248   1.529  0.1270  1.7683  1.0979
 1026SOL    HW214541   3.747   0.178   1.506 -0.7424 -0.8845  0.4481
 1027SOL     OW14542   0.079   2.834   6.714 -0.2116  0.1916  0.3967
 1027SOL    HW114543   0.089   2.743   6.740  0.0684  1.0944  3.4089
 1027SOL    HW214544   0.009   2.864   6.772  0.6080 -1.5847  2.2894
 1028SOL     OW14545   4.412   3.000   1.614 -0.7512  0.1976 -0.0661
 1028SOL    HW114546   4.436   3.068   1.551  1.1687 -0.7668 -0.3907
 1028SOL    HW214547   4.333   3.046   1.640 -1.5003  0.5806 -2.9502
 1029SOL     OW14548   0.491   3.874  13.929 -0.0797  0.3428  0.1859
 1029SOL    HW114549   0.437   3.870  14.008 -1.8126  1.9652 -0.8941
 1029SOL    HW214550   0.500   3.784  13.899 -1.1111 -0.1872  1.4899
 1030SOL     OW14551   1.103   4.587   3.940 -0.4433  0.6972 -0.4833
 1030SOL    HW114552   1.048   4.572   3.864  0.4678  0.8286 -1.1766
 1030SOL    HW214553   1.157   4.661   3.910  0.5080 -0.8243 -2.4605
 1031SOL     OW14554   0.992   3.662  14.409 -0.1803  0.1247 -0.1155
 1031SOL    HW114555   0.960   3.752  14.416 -3.1233 -1.1581  2.8125
 1031SOL    HW214556   1.087   3.678  14.408  0.4509 -3.6922 -2.5123
 1032SOL     OW14557   4.245   0.887  16.033  0.3701  0.3677 -0.6928
 1032SOL    HW114558   4.320   0.848  16.076 -0.3172  0.7744  0.8657
 1032SOL    HW214559   4.259   0.977  16.060  2.2103  0.3591 -1.6357
 1033SOL     OW14560   2.732   1.121  13.511  0.1052  0.1637 -0.5231
 1033SOL    HW114561   2.709   1.214  13.504 -0.2501  0.0290 -1.1748
 1033SOL    HW214562   2.703   1.104  13.601  0.7600  1.5737 -0.0360
 1034SOL     OW14563   2.625   1.281   4.631 -0.5521  0.6264  0.5581
 1034SOL    HW114564   2.664   1.290   4.544  0.8369  1.1566  1.2400
 1034SOL    HW214565   2.608   1.374   4.647 -0.4302  0.5348  1.2049
 1035SOL     OW14566   0.999   0.462   2.067 -0.6545  0.5665  0.1557
 1035SOL    HW114567   1.045   0.494   2.144 -1.5272 -0.1388  0.9613
 1035SOL    HW214568   0.926   0.515   2.099 -0.6269  0.4941  0.3389
 1036SOL     OW14569   2.733   0.396   6.698 -0.2428  0.3196 -0.1955
 1036SOL    HW114570   2.750   0.456   6.772 -1.1265  2.8974 -2.0718
 1036SOL    HW214571   2.726   0.458   6.626 -1.3269 -2.0049 -2.0781
 1037SOL     OW14572   3.220   0.328   4.918 -0.1148 -0.2914 -0.3489
 1037SOL    HW114573   3.136   0.296   4.884 -0.4305  0.7941 -0.5977
 1037SOL    HW214574   3.282   0.289   4.857 -0.3950  0.2352 -0.9717
 1038SOL     OW14575   3.008   2.857   2.525  0.0130  0.2145 -0.3084
 1038SOL    HW114576   3.002   2.783   2.584 -0.1426 -0.1720 -0.8111
 1038SOL    HW214577   3.014   2.813   2.440  0.9072  2.0686 -1.2072
 1039SOL     OW14578   2.336   3.143   2.395  0.8160 -0.0426 -0.3194
 1039SOL    HW114579   2.296   3.067   2.353 -0.4516  0.3881  0.1283
 1039SOL    HW214580   2.328   3.199   2.317 -0.0073 -1.0873 -0.9796
 1040SOL     OW14581   2.410   3.927   0.263 -0.2196  0.3375  0.0014
 1040SOL    HW114582   2.373   3.992   0.323 -0.8461  1.0071 -1.1068
 1040SOL    HW214583   2.484   3.897   0.316 -0.8236 -0.6330  0.2903
 1041SOL     OW14584   2.787   0.374   6.029  0.3101  0.4838  0.2151
 1041SOL    HW114585   2.846   0.399   6.100 -1.6193  0.9822  1.6473
 1041SOL    HW214586   2.823   0.287   6.011  1.4133  0.8648  0.5981
 1042SOL     OW14587   0.513   0.515  15.284  0.3056 -0.7459 -0.4152
 1042SOL    HW114588   0.601   0.481  15.301  0.4595 -1.7904 -3.3152
 1042SOL    HW214589   0.489   0.488  15.195 -0.0211 -0.9889 -0.2528
 1043SOL     OW14590   2.776   0.404   8.091 -0.2016 -0.2180 -0.3150
 1043SOL    HW114591   2.824   0.321   8.104  1.3899  0.4462 -1.9676
 1043SOL    HW214592   2.768   0.433   8.182  0.3191  1.3414 -0.7772
 1044SOL     OW14593   3.873   3.016   4.802 -0.0945  0.3072  0.3342
 1044SOL    HW114594   3.940   3.073   4.841  0.8465 -0.3357 -0.3262
 1044SOL    HW214595   3.923   2.964   4.739 -0.1829  2.6876 -1.7223
 1045SOL     OW14596   0.375   2.254   4.355  0.5937 -0.7493 -0.0036
 1045SOL    HW114597   0.362   2.347   4.338  1.9148 -0.7457 -0.9764
 1045SOL    HW214598   0.448   2.268   4.415 -0.3447 -1.7820  1.4062
 1046SOL     OW14599   3.901   0.687   3.140  0.3474  0.1187  0.0287
 1046SOL    HW114600   3.808   0.690   3.117  0.9732 -0.7889 -2.5769
 1046SOL    HW214601   3.932   0.603   3.106 -2.2080 -0.4575 -0.8564
 1047SOL     OW14602   4.424   0.419  12.303 -0.5552 -0.7280 -0.9772
 1047SOL    HW114603   4.340   0.401  12.344 -0.6394  1.9347  0.0062
 1047SOL    HW214604   4.394   0.438  12.214 -1.4094  2.9682  0.0941
 1048SOL     OW14605   3.261   3.953   4.225 -0.8096 -0.9693 -0.6178
 1048SOL    HW114606   3.208   4.020   4.182  1.6018  1.6138  0.4626
 1048SOL    HW214607   3.203   3.885   4.261  0.0906 -0.8399  1.0761
 1049SOL     OW14608   4.472   0.046   0.645 -0.5383  1.2521 -0.0629
 1049SOL    HW114609   4.451   4.715   0.570  0.0207 -1.0313  1.5215
 1049SOL    HW214610   4.477   4.708   0.716 -0.1577  0.7161 -0.5696
 1050SOL     OW14611   3.751   4.665   7.153  0.1677 -0.0661 -0.2631
 1050SOL    HW114612   3.737   4.675   7.059  1.0474 -1.0782 -0.4938
 1050SOL    HW214613   3.772   4.573   7.165 -1.6850 -0.5489 -0.6483
 1051SOL     OW14614   2.246   3.543  15.417  0.1755 -0.1100 -0.3108
 1051SOL    HW114615   2.152   3.561  15.426  0.4068  1.1107 -0.2469
 1051SOL    HW214616   2.285   3.622  15.455  0.5663 -0.8177  0.7381
 1052SOL     OW14617   1.690   3.384   2.967  0.2310 -0.3100  0.5689
 1052SOL    HW114618   1.627   3.323   3.007  0.8514 -2.1139 -1.1796
 1052SOL    HW214619   1.664   3.464   3.013 -0.0908  0.3588 -0.7713
 1053SOL     OW14620   1.156   2.817   2.165  0.0662  0.3918 -0.0104
 1053SOL    HW114621   1.234   2.776   2.128 -0.2007 -0.3768  0.2582
 1053SOL    HW214622   1.180   2.908   2.150 -1.0930  1.0633  2.1661
 1054SOL     OW14623   0.146   4.092   5.759 -0.4233  0.5478 -0.3003
 1054SOL    HW114624   0.097   4.012   5.777  1.4175 -0.5927 -0.4267
 1054SOL    HW214625   0.075   4.155   5.778 -0.0016  0.0088  3.1168
 1055SOL     OW14626   2.602   1.369   3.238  0.4414  0.0391  0.0068
 1055SOL    HW114627   2.590   1.305   3.168  0.4237  1.1657 -1.0341
 1055SOL    HW214628   2.611   1.318   3.318  1.4039  0.4726  0.1805
 1056SOL     OW14629   3.804   2.259   7.110 -0.1877  0.2826 -0.0755
 1056SOL    HW114630   3.892   2.239   7.141  0.2167  1.7297 -0.2702
 1056SOL    HW214631   3.787   2.200   7.037  0.8256 -0.7295  0.5086
 1057SOL     OW14632   0.697   3.161   6.344  0.8220 -1.1137  0.1742
 1057SOL    HW114633   0.660   3.082   6.306 -1.7011 -0.2087  0.7445
 1057SOL    HW214634   0.675   3.229   6.280  0.4567 -1.9257 -0.5577
 1058SOL     OW14635   2.398   1.663  12.797  0.3765  0.2023  0.5934
 1058SOL    HW114636   2.445   1.721  12.857 -2.0381  3.7056 -0.8687
 1058SOL    HW214637   2.322   1.720  12.781 -0.5557 -0.7969  1.3978
 1059SOL     OW14638   3.583   3.152   8.420  0.3632 -0.3406  0.0423
 1059SOL    HW114639   3.544   3.223   8.470  1.4010 -0.8698  1.5826
 1059SOL    HW214640   3.568   3.072   8.471  0.5513 -0.9668 -0.8720
 1060SOL     OW14641   1.323   4.685   8.386 -0.2314  0.1071 -0.8796
 1060SOL    HW114642   1.308   0.041   8.337 -0.7225 -0.1759 -1.2038
 1060SOL    HW214643   1.375   4.720   8.459 -0.8518  1.9880 -1.3515
 1061SOL     OW14644   3.605   2.848  13.245 -0.2479  0.1079 -0.0953
 1061SOL    HW114645   3.661   2.773  13.265 -0.1327  0.0058 -0.7994
 1061SOL    HW214646   3.629   2.856  13.153 -2.2515  0.2848 -0.5986
 1062SOL     OW14647   2.289   0.242  11.605  0.4692  0.0200  0.0481
 1062SOL    HW114648   2.357   0.276  11.664 -1.6191  4.1264  0.0930
 1062SOL    HW214649   2.212   0.219  11.657 -1.2770  1.3834 -1.9177
 1063SOL     OW14650   4.215   1.900  12.739  0.9195  0.3684 -0.3712
 1063SOL    HW114651   4.151   1.870  12.675 -0.1503 -0.3584  1.0318
 1063SOL    HW214652   4.160   1.960  12.789  0.2004  0.0484 -0.7693
 1064SOL     OW14653   3.632   3.305   4.934  0.2308 -0.2278  0.2691
 1064SOL    HW114654   3.647   3.217   4.968 -0.5300 -0.5778 -0.3220
 1064SOL    HW214655   3.703   3.348   4.982 -0.0859  2.6160 -1.8324
 1065SOL     OW14656   3.543   3.931   7.215  0.1479  0.0192 -0.4259
 1065SOL    HW114657   3.513   4.013   7.177 -2.5039 -1.3419 -1.2041
 1065SOL    HW214658   3.537   3.952   7.308 -0.4473 -0.9777 -0.2406
 1066SOL     OW14659   1.874   0.048   2.912  0.7388 -0.4595 -0.3349
 1066SOL    HW114660   1.809   0.055   2.842  0.3141  0.4256  0.1532
 1066SOL    HW214661   1.819   0.014   2.983 -1.1529 -1.7794 -2.4157
 1067SOL     OW14662   3.284   4.516   8.073 -0.2974 -0.0241  0.2455
 1067SOL    HW114663   3.288   4.447   8.007  0.7524  0.1778  0.1142
 1067SOL    HW214664   3.369   4.516   8.117  0.6799 -0.7708 -1.6648
 1068SOL     OW14665   3.655   3.601   8.606 -0.3314 -0.4846  0.2333
 1068SOL    HW114666   3.681   3.561   8.689 -0.5102 -1.2275 -0.0651
 1068SOL    HW214667   3.564   3.629   8.616 -0.3393  0.0797 -1.4641
 1069SOL     OW14668   1.129   2.073   7.093 -0.0925 -0.1829  0.3212
 1069SOL    HW114669   1.060   2.017   7.130 -2.0688 -0.2156 -3.3810
 1069SOL    HW214670   1.175   2.105   7.170  0.7207 -1.4894  0.3879
 1070SOL     OW14671   2.725   1.077  16.811  0.5349 -0.1013  0.3994
 1070SOL    HW114672   2.680   1.155  16.845 -0.7026 -0.3660 -0.6550
 1070SOL    HW214673   2.793   1.055  16.875  0.5995  1.3380  0.8305
 1071SOL     OW14674   3.007   0.763   8.523 -0.0160 -0.4284  0.4577
 1071SOL    HW114675   3.017   0.722   8.609  0.8882  0.6129  0.8512
 1071SOL    HW214676   3.094   0.747   8.485 -0.4201  0.9057 -1.0170
 1072SOL     OW14677   1.062   0.455   8.398  0.6357 -0.0656 -0.0013
 1072SOL    HW114678   1.058   0.546   8.425  0.7463  0.7677 -2.8205
 1072SOL    HW214679   1.156   0.446   8.380  0.7747 -0.2960  0.8269
 1073SOL     OW14680   0.823   1.251   5.274 -0.5256  0.7936 -0.0755
 1073SOL    HW114681   0.809   1.337   5.313  0.6734  0.3519  1.3254
 1073SOL    HW214682   0.868   1.283   5.195  0.4387  0.6765  0.4219
 1074SOL     OW14683   4.140   0.251   4.322 -0.3587  0.2838  0.4769
 1074SOL    HW114684   4.211   0.245   4.258  1.3954  1.6403  2.3148
 1074SOL    HW214685   4.159   0.175   4.376  1.0896 -0.1844 -0.7108
 1075SOL     OW14686   1.236   0.858   2.424  0.1111  0.0823  0.1259
 1075SOL    HW114687   1.165   0.856   2.489 -0.0103 -0.8283 -0.0284
 1075SOL    HW214688   1.182   0.884   2.350 -0.1972 -2.4576 -0.5491
 1076SOL     OW14689   3.154   1.317   8.280 -0.2186  0.1481  0.0977
 1076SOL    HW114690   3.189   1.339   8.366  2.4605 -2.0127 -0.4169
 1076SOL    HW214691   3.143   1.221   8.281  0.9806  0.0093  0.9798
 1077SOL     OW14692   2.920   3.473  10.035  0.4465 -0.0441 -0.3345
 1077SOL    HW114693   2.878   3.388  10.039  0.8792 -0.3230 -1.7728
 1077SOL    HW214694   2.901   3.500  10.125 -2.3671 -0.0076 -0.9423
 1078SOL     OW14695   2.712   1.409   8.637 -0.7207 -0.0870  0.5127
 1078SOL    HW114696   2.754   1.483   8.682  1.2921 -0.6538 -0.4298
 1078SOL    HW214697   2.641   1.393   8.699 -1.8931 -0.2931 -0.8956
 1079SOL     OW14698   2.641   1.737   4.337  0.2295 -0.6652 -0.1722
 1079SOL    HW114699   2.632   1.821   4.382 -0.1620 -1.1309  0.5970
 1079SOL    HW214700   2.734   1.722   4.356 -0.1069 -1.1507  1.0411
 1080SOL     OW14701   3.037   0.133   2.913 -0.4674  0.6826  0.0504
 1080SOL    HW114702   2.977   0.084   2.857  1.3300 -1.2904 -0.1476
 1080SOL    HW214703   3.001   0.112   2.999  0.1954  3.2737  0.9594
 1081SOL     OW14704   1.637   2.698  13.171 -0.1012 -0.1832  0.4920
 1081SOL    HW114705   1.640   2.708  13.266 -0.7323  3.1309  0.1722
 1081SOL    HW214706   1.581   2.772  13.147 -0.2532 -0.3937  0.2148
 1082SOL     OW14707   3.297   2.998  10.911  0.1040 -0.2518  0.1265
 1082SOL    HW114708   3.312   3.081  10.864  0.4275  0.6306  1.7956
 1082SOL    HW214709   3.365   2.938  10.879 -0.3588 -1.2134  0.9511
 1083SOL     OW14710   4.146   2.283  13.560 -0.0906  0.2886 -0.0709
 1083SOL    HW114711   4.144   2.188  13.555  0.9268  0.3309 -1.6004
 1083SOL    HW214712   4.159   2.313  13.470 -0.9337  0.3969 -0.1582
 1084SOL     OW14713   2.724   4.616  10.978 -0.6124 -0.0753 -0.0668
 1084SOL    HW114714   2.651   4.559  11.004 -1.8125  0.8756 -1.3791
 1084SOL    HW214715   2.800   4.560  10.993 -0.7314  0.1266  1.3239
 1085SOL     OW14716   3.445   4.483  13.647 -0.5789  0.2740  0.0473
 1085SOL    HW114717   3.488   4.539  13.582  0.2514  1.9244  2.0395
 1085SOL    HW214718   3.490   4.505  13.728  0.6547  2.0233 -1.1012
 1086SOL     OW14719   2.837   3.419   9.159  0.1714  0.4018 -0.7210
 1086SOL    HW114720   2.797   3.488   9.212  2.0533 -0.7469  2.1569
 1086SOL    HW214721   2.846   3.458   9.072 -1.6638 -0.4898 -1.3051
 1087SOL     OW14722   0.104   4.689  11.277  0.2761  0.1619  0.3149
 1087SOL    HW114723   0.090   4.701  11.183 -1.4443 -1.4812  0.3684
 1087SOL    HW214724   0.155   4.608  11.278 -1.0128 -0.6554  0.6149
 1088SOL     OW14725   4.226   2.130  15.740  0.1050 -0.2710 -0.2165
 1088SOL    HW114726   4.276   2.180  15.804 -0.1834  1.5876 -1.4361
 1088SOL    HW214727   4.150   2.188  15.734 -0.7297 -1.3710 -0.1580
 1089SOL     OW14728   2.313   0.671   2.913  0.4081  0.3126  0.1598
 1089SOL    HW114729   2.294   0.716   2.831 -1.1425  0.8589  0.8148
 1089SOL    HW214730   2.230   0.652   2.957  0.8331 -0.1702  0.7427
 1090SOL     OW14731   1.791   1.516  13.265 -0.1363  0.0645 -0.3636
 1090SOL    HW114732   1.733   1.574  13.315  0.1545 -1.6376  1.8984
 1090SOL    HW214733   1.744   1.514  13.181 -0.5091  0.5949 -0.1710
 1091SOL     OW14734   1.318   0.892   1.922 -0.0813  0.3689  0.8923
 1091SOL    HW114735   1.367   0.830   1.976  1.7876  2.0137  1.0917
 1091SOL    HW214736   1.324   0.848   1.838  2.5697 -0.4702  1.4978
 1092SOL     OW14737   3.485   1.756   7.843  0.4445 -0.2408  0.2013
 1092SOL    HW114738   3.498   1.840   7.886  0.6129  0.4217 -1.1609
 1092SOL    HW214739   3.571   1.739   7.804  0.6309 -1.6712  1.2154
 1093SOL     OW14740   1.490   2.106   3.036  0.5921 -0.0936  1.0936
 1093SOL    HW114741   1.509   2.142   2.949 -0.5545 -0.3956  0.7177
 1093SOL    HW214742   1.522   2.017   3.022 -1.0756 -0.3432 -1.1631
 1094SOL     OW14743   1.483   0.563  14.412  0.1349  0.3902 -0.1615
 1094SOL    HW114744   1.577   0.561  14.395  0.3214  0.5543  0.8813
 1094SOL    HW214745   1.487   0.566  14.507 -0.0584  0.7307 -0.1643
 1095SOL     OW14746   1.263   2.031  14.509  0.7934 -0.7545 -0.0190
 1095SOL    HW114747   1.277   1.936  14.508  0.0634 -0.8721  1.0995
 1095SOL    HW214748   1.168   2.032  14.514  0.7857  0.8087 -0.5953
 1096SOL     OW14749   4.022   0.637   4.083  0.3035 -0.4476  0.1994
 1096SOL    HW114750   4.055   0.626   4.172  0.1697  1.1661  0.4452
 1096SOL    HW214751   3.949   0.576   4.075  1.2997 -1.0879 -4.1817
 1097SOL     OW14752   4.348   3.794   8.117 -0.4493  0.2815 -0.4905
 1097SOL    HW114753   4.275   3.742   8.149  0.4433 -0.8413 -0.2990
 1097SOL    HW214754   4.333   3.814   8.024 -1.0772 -2.1302 -0.8971
 1098SOL     OW14755   0.324   4.205   3.544  0.0262 -0.1383  0.1529
 1098SOL    HW114756   0.244   4.192   3.492  0.4442  2.4012 -1.1092
 1098SOL    HW214757   0.366   4.272   3.491  1.5063 -0.1227  1.3527
 1099SOL     OW14758   4.338   0.257  13.191 -0.1139 -0.1824  0.5087
 1099SOL    HW114759   4.326   0.312  13.268  0.5489 -0.3932  0.7602
 1099SOL    HW214760   4.428   0.273  13.163  0.1771  0.9485  2.1036
 1100SOL     OW14761   2.326   2.068  11.466  0.2617  0.3651  0.0485
 1100SOL    HW114762   2.320   2.163  11.454 -1.9965 -0.1341 -2.4749
 1100SOL    HW214763   2.254   2.033  11.415  0.0773  1.3902 -0.3877
 1101SOL     OW14764   2.338   0.910  13.094  0.1851  0.0624 -0.2209
 1101SOL    HW114765   2.422   0.914  13.139 -0.3742 -1.5394  0.9923
 1101SOL    HW214766   2.332   0.814  13.086 -0.7712  0.2901 -2.3089
 1102SOL     OW14767   3.776   2.412   8.442  0.4650 -0.4520 -0.1383
 1102SOL    HW114768   3.859   2.371   8.467  0.0106 -0.4731  1.3353
 1102SOL    HW214769   3.778   2.373   8.354 -0.3565 -0.2399 -0.2432
 1103SOL     OW14770   1.661   2.248  11.725 -0.3613  0.3400 -0.0351
 1103SOL    HW114771   1.726   2.317  11.738 -1.3791  1.4656 -0.9983
 1103SOL    HW214772   1.716   2.172  11.703  0.2135  0.8339 -0.3017
 1104SOL     OW14773   0.914   0.087   6.714 -0.0428 -0.3697  0.2268
 1104SOL    HW114774   0.912   0.146   6.639  0.7074  0.7452  1.0825
 1104SOL    HW214775   0.828   0.044   6.713 -0.0070 -0.5050  1.9583
 1105SOL     OW14776   4.508   0.492   4.483  0.0320 -0.4216  0.2388
 1105SOL    HW114777   4.465   0.533   4.408 -1.1296 -0.0651  1.0904
 1105SOL    HW214778   4.505   0.401   4.456 -1.6560 -0.3024  0.0129
 1106SOL     OW14779   0.087   1.903   9.416  0.4516  0.4826  0.4307
 1106SOL    HW114780   0.080   1.836   9.484  1.3144  1.3834  1.4055
 1106SOL    HW214781   0.165   1.884   9.365  1.8392  1.3136  2.2598
 1107SOL     OW14782   0.249   2.861   2.462 -0.1987 -0.2166 -0.9575
 1107SOL    HW114783   0.344   2.857   2.464 -0.1245  1.5551 -0.4670
 1107SOL    HW214784   0.232   2.816   2.544  1.3697 -0.4149 -0.7425
 1108SOL     OW14785   0.203   2.858   2.162 -0.5802 -0.0421  0.5408
 1108SOL    HW114786   0.114   2.893   2.167 -1.0135 -0.8295 -1.8632
 1108SOL    HW214787   0.226   2.865   2.255 -0.7671 -2.1532  0.7367
 1109SOL     OW14788   2.007   2.182  12.687 -0.2387 -0.3340 -0.8920
 1109SOL    HW114789   2.036   2.224  12.767 -0.5732 -1.0158 -0.4182
 1109SOL    HW214790   1.916   2.156  12.700 -0.1347 -2.5142 -4.5249
 1110SOL     OW14791   3.984   1.896   8.635  0.4536  0.0535 -0.3158
 1110SOL    HW114792   4.061   1.924   8.684  1.4269 -1.4029 -1.0146
 1110SOL    HW214793   3.952   1.827   8.693 -2.0520  1.3836 -0.0952
 1111SOL     OW14794   3.232   3.441   1.576 -0.0846  0.2547  0.8547
 1111SOL    HW114795   3.223   3.473   1.486 -0.1300  0.1972  0.8381
 1111SOL    HW214796   3.174   3.365   1.568  0.0001  0.4145 -1.2729
 1112SOL     OW14797   3.925   0.040   8.245  0.1013  0.2019 -0.2567
 1112SOL    HW114798   3.891   0.097   8.177  1.6766 -0.1494 -1.3333
 1112SOL    HW214799   3.932   0.097   8.322 -1.3606 -1.5230  1.1534
 1113SOL     OW14800   0.507   3.352   5.522  0.4084 -0.3537  0.3412
 1113SOL    HW114801   0.582   3.386   5.571 -0.4558 -0.5899  1.8391
 1113SOL    HW214802   0.549   3.319   5.443 -2.0967 -2.0448 -0.2952
 1114SOL     OW14803   3.113   0.092   6.505  0.0776  0.1259  0.7397
 1114SOL    HW114804   3.114   0.183   6.535 -2.0886  0.0523  1.0494
 1114SOL    HW214805   3.194   0.080   6.455  0.6373  0.9644  1.4438
 1115SOL     OW14806   0.424   3.205   6.222  0.0187  0.0801 -0.0621
 1115SOL    HW114807   0.464   3.282   6.261  0.7125 -0.0080 -0.6020
 1115SOL    HW214808   0.339   3.237   6.250 -0.0986 -0.0213 -0.3056
 1116SOL     OW14809   0.528   4.195   4.760 -0.4592  0.1884 -0.4693
 1116SOL    HW114810   0.494   4.193   4.849 -1.4723  1.1170 -0.8345
 1116SOL    HW214811   0.512   4.287   4.737  1.3904  0.5019 -0.5274
 1117SOL     OW14812   1.243   3.644   5.455  0.1428 -0.4631 -0.3361
 1117SOL    HW114813   1.241   3.702   5.380  0.5296  0.6221  0.4883
 1117SOL    HW214814   1.157   3.670   5.489  0.6221 -0.3204  0.7785
 1118SOL     OW14815   1.090   1.746   4.752 -0.1863 -0.5760  0.1937
 1118SOL    HW114816   1.110   1.737   4.845 -2.2581  1.3038  0.8345
 1118SOL    HW214817   1.175   1.724   4.716 -0.7588 -0.1709 -1.4075
 1119SOL     OW14818   0.771   0.689   7.024 -0.3387 -0.0195  0.5004
 1119SOL    HW114819   0.832   0.706   7.096  0.0004 -0.2346  0.2651
 1119SOL    HW214820   0.833   0.694   6.951 -0.1589 -0.1335  0.6448
 1120SOL     OW14821   4.628   1.227  13.834 -0.5147 -0.0812 -0.2081
 1120SOL    HW114822   4.691   1.206  13.765  1.1497  0.1336  1.2359
 1120SOL    HW214823   4.662   1.182  13.911  1.9222  1.7600 -0.1972
 1121SOL     OW14824   1.799   2.303  13.913  0.1780 -0.1129 -0.3367
 1121SOL    HW114825   1.796   2.220  13.865 -1.5687 -1.1164  1.4854
 1121SOL    HW214826   1.883   2.295  13.960 -0.6433 -0.2718  1.1239
 1122SOL     OW14827   2.332   1.186   6.884  0.1629 -0.3295  0.8085
 1122SOL    HW114828   2.264   1.181   6.951 -2.1315 -0.2234 -1.5001
 1122SOL    HW214829   2.292   1.145   6.807 -1.6553 -1.0551  2.1244
 1123SOL     OW14830   4.415   0.560   8.801 -0.0826  0.3738 -0.1754
 1123SOL    HW114831   4.380   0.515   8.724  1.1028 -0.8569 -0.0043
 1123SOL    HW214832   4.466   0.490   8.842  0.1432  0.2520 -0.6659
 1124SOL     OW14833   3.847   0.419   4.104  0.2636  0.2408 -0.2052
 1124SOL    HW114834   3.824   0.389   4.192  1.0428 -1.1963 -0.4810
 1124SOL    HW214835   3.762   0.423   4.060  0.2860  0.2683 -0.2450
 1125SOL     OW14836   0.168   0.864   0.832 -0.8970  0.5711  0.6354
 1125SOL    HW114837   0.245   0.906   0.794 -1.1360 -2.4159 -3.2438
 1125SOL    HW214838   0.097   0.914   0.792 -2.0200 -1.8248 -0.3930
 1126SOL     OW14839   1.946   2.009   8.703  0.1392 -0.6922 -0.1007
 1126SOL    HW114840   2.022   1.996   8.760 -0.5394 -0.9313  0.7468
 1126SOL    HW214841   1.889   2.056   8.764 -0.8012 -0.7450 -0.9447
 1127SOL     OW14842   0.936   1.346   9.295  0.3266 -0.8978 -0.4109
 1127SOL    HW114843   0.904   1.433   9.322 -0.4879 -0.6995 -1.9738
 1127SOL    HW214844   0.925   1.293   9.373  1.7963 -0.4491  0.1009
 1128SOL     OW14845   1.664   0.023   6.860 -0.4337  0.1748  0.4665
 1128SOL    HW114846   1.679   4.701   6.942 -1.0938  2.7001  2.0294
 1128SOL    HW214847   1.585   4.703   6.831 -0.8072  0.8159  0.5090
 1129SOL     OW14848   3.046   0.073  11.454  0.3181  0.1040  0.5465
 1129SOL    HW114849   3.017   0.046  11.367 -0.7744 -1.1045  1.2658
 1129SOL    HW214850   2.969   0.123  11.481  0.9387  1.3211  0.0234
 1130SOL     OW14851   0.538   2.353   1.557 -0.4105  0.2657  0.2358
 1130SOL    HW114852   0.586   2.318   1.483  2.0831  2.6849  0.6797
 1130SOL    HW214853   0.449   2.369   1.527 -0.1632  2.4183  0.6249
 1131SOL     OW14854   0.691   4.431  10.822 -0.2296  0.4417  0.4476
 1131SOL    HW114855   0.660   4.392  10.903  3.2321  0.0409  1.5799
 1131SOL    HW214856   0.686   4.524  10.842 -0.6831  0.1999  1.4783
 1132SOL     OW14857   1.537   0.484  14.130  0.4921  0.5812 -0.3081
 1132SOL    HW114858   1.598   0.424  14.173  0.5982 -1.0062 -2.6261
 1132SOL    HW214859   1.479   0.511  14.201 -0.8380  0.7600 -1.4553
 1133SOL     OW14860   4.616   2.138   6.591 -0.0318 -0.3429  0.0501
 1133SOL    HW114861   4.671   2.205   6.632  1.7029 -1.5942 -0.2169
 1133SOL    HW214862   4.604   2.175   6.504  1.9450  2.8348  1.1334
 1134SOL     OW14863   4.009   2.973  13.213  0.2943 -0.0267 -0.0984
 1134SOL    HW114864   3.943   2.929  13.158  1.5687 -1.9151 -0.1348
 1134SOL    HW214865   4.051   2.892  13.241 -0.1174 -0.2203 -0.0326
 1135SOL     OW14866   1.578   4.258   8.067 -0.1806 -0.1766 -0.0898
 1135SOL    HW114867   1.571   4.202   8.145 -1.2585  1.1919  0.7882
 1135SOL    HW214868   1.563   4.343   8.107 -3.4939 -0.7053 -0.2291
 1136SOL     OW14869   4.481   4.588   5.655 -0.1092  0.2537 -1.1175
 1136SOL    HW114870   4.478   4.492   5.657 -0.2094  0.2906  0.8372
 1136SOL    HW214871   4.395   4.615   5.623 -0.9706 -0.4349  0.6187
 1137SOL     OW14872   4.563   2.849   8.079 -0.4766  0.3057  0.0289
 1137SOL    HW114873   4.561   2.852   8.175 -0.4922  0.9332  0.0057
 1137SOL    HW214874   4.655   2.829   8.059 -0.2366  0.7917  0.6614
 1138SOL     OW14875   4.183   4.552   5.826 -0.4196 -0.0181 -0.4091
 1138SOL    HW114876   4.214   4.475   5.873 -0.4907  1.1781  1.6054
 1138SOL    HW214877   4.223   4.620   5.881  3.4129 -0.5862 -2.4809
 1139SOL     OW14878   2.779   4.190   8.780  0.0533  0.1313 -0.6178
 1139SOL    HW114879   2.839   4.263   8.797  1.1825 -1.5792  2.7667
 1139SOL    HW214880   2.699   4.226   8.819 -1.6706 -3.1354 -1.0858
 1140SOL     OW14881   0.288   2.957   6.610 -0.0957 -0.0821 -0.1450
 1140SOL    HW114882   0.199   2.962   6.645 -0.0938 -0.8336 -0.0402
 1140SOL    HW214883   0.319   2.870   6.635  1.1359 -0.0287 -1.5291
 1141SOL     OW14884   3.853   1.893   8.400 -0.2441 -0.7990  0.0473
 1141SOL    HW114885   3.889   1.885   8.488  0.0664  0.7779  0.0572
 1141SOL    HW214886   3.924   1.939   8.356 -2.0308  0.2746 -1.6980
 1142SOL     OW14887   4.367   4.325   8.906  0.2447 -0.3423  0.4083
 1142SOL    HW114888   4.407   4.286   8.829 -0.9519 -0.4334 -0.1600
 1142SOL    HW214889   4.293   4.266   8.922  0.8525 -1.4553 -0.9092
 1143SOL     OW14890   3.778   2.540   5.918  0.0407 -0.0076 -0.5574
 1143SOL    HW114891   3.752   2.612   5.975  2.4361  0.1654  0.3427
 1143SOL    HW214892   3.873   2.539   5.934 -0.4443 -1.8777  2.1178
 1144SOL     OW14893   0.426   0.577   4.857 -0.2440 -0.0732 -0.9587
 1144SOL    HW114894   0.382   0.492   4.859  1.5978 -1.0099 -0.7852
 1144SOL    HW214895   0.366   0.621   4.797 -0.7088 -0.3881 -0.7247
 1145SOL     OW14896   4.386   1.388   3.397 -0.0720  0.0536 -0.3925
 1145SOL    HW114897   4.474   1.426   3.399 -0.4678  0.9834 -0.6453
 1145SOL    HW214898   4.397   1.318   3.333  1.2586  0.2120 -0.3327
 1146SOL     OW14899   0.595   2.639   4.897 -0.6893  0.2905 -0.2943
 1146SOL    HW114900   0.631   2.682   4.975  1.9838  0.2270 -1.4692
 1146SOL    HW214901   0.560   2.561   4.940  1.8752 -0.7450 -0.0421
 1147SOL     OW14902   2.005   1.786   8.303  0.3468  0.2302  0.2251
 1147SOL    HW114903   1.956   1.824   8.376  0.6071  0.0523  0.4932
 1147SOL    HW214904   1.954   1.705   8.293 -0.1930  0.6419 -0.3681
 1148SOL     OW14905   0.382   2.882   4.244  0.3238 -0.2751  0.2925
 1148SOL    HW114906   0.309   2.868   4.304 -1.3550 -1.8750 -2.1459
 1148SOL    HW214907   0.356   2.825   4.172  0.7047  0.5502 -0.4954
 1149SOL     OW14908   2.925   2.088   3.151 -0.0377 -0.1988 -0.4139
 1149SOL    HW114909   3.012   2.119   3.127  0.7421 -1.0768  1.2505
 1149SOL    HW214910   2.903   2.117   3.240  0.3068  0.2008 -0.4598
 1150SOL     OW14911   2.322   3.277   3.256  0.1952  0.3023 -0.1962
 1150SOL    HW114912   2.293   3.203   3.310 -1.4307 -0.6414 -2.3474
 1150SOL    HW214913   2.415   3.258   3.247  0.6468  2.6501 -0.4470
 1151SOL     OW14914   3.039   2.952  16.968  0.3640 -0.3837  0.2075
 1151SOL    HW114915   3.038   2.979  17.060 -2.2226  0.5449 -0.0772
 1151SOL    HW214916   3.109   3.005  16.929 -1.1043  1.0070 -0.5773
 1152SOL     OW14917   0.701   2.661  10.557 -0.4421 -1.0384 -0.0211
 1152SOL    HW114918   0.706   2.741  10.610 -0.7409 -1.1905  0.2452
 1152SOL    HW214919   0.769   2.611  10.602  0.9326  2.0297  1.3203
 1153SOL     OW14920   0.210   3.786   2.425 -0.1031 -0.0346 -0.8589
 1153SOL    HW114921   0.169   3.836   2.496  0.6120  0.8440 -1.0587
 1153SOL    HW214922   0.150   3.713   2.412  0.1844 -0.2589 -0.9314
 1154SOL     OW14923   0.951   0.559  13.076 -0.0502  0.0789  0.2400
 1154SOL    HW114924   0.877   0.539  13.018 -0.0375 -0.4928  0.4250
 1154SOL    HW214925   0.917   0.549  13.165  1.6312  0.1101  0.8836
 1155SOL     OW14926   3.927   3.000   7.745  0.2601 -1.0853 -0.1216
 1155SOL    HW114927   3.929   3.019   7.839 -0.9389  1.0299 -0.5119
 1155SOL    HW214928   3.880   2.917   7.750 -0.2342 -0.8620 -1.1783
 1156SOL     OW14929   2.477   0.521   6.361 -0.1914  0.5244 -0.3030
 1156SOL    HW114930   2.419   0.491   6.431  1.6168  1.0080  1.4016
 1156SOL    HW214931   2.562   0.482   6.383  0.2364  1.0489 -0.9983
 1157SOL     OW14932   0.637   0.581   4.171 -0.2360  0.1305  0.3424
 1157SOL    HW114933   0.643   0.608   4.080 -2.2839  1.2823  0.5289
 1157SOL    HW214934   0.544   0.557   4.169  0.0611 -1.0288  0.6929
 1158SOL     OW14935   0.625   2.406   6.256  0.0538  0.3267  0.2815
 1158SOL    HW114936   0.638   2.389   6.349  1.4586  0.8524  0.1786
 1158SOL    HW214937   0.541   2.449   6.270 -0.7339 -0.8382 -0.8734
 1159SOL     OW14938   3.868   4.590   2.822  0.2728 -0.2549  0.3830
 1159SOL    HW114939   3.915   4.620   2.745 -0.6266 -3.2643 -1.3349
 1159SOL    HW214940   3.933   4.601   2.891 -1.5797 -0.4493  2.1758
 1160SOL     OW14941   1.821   2.425   2.035 -0.4131  0.1951 -0.1321
 1160SOL    HW114942   1.891   2.380   2.082 -2.0060 -1.0738  1.0326
 1160SOL    HW214943   1.836   2.398   1.944  0.4315  3.7553 -1.0203
 1161SOL     OW14944   3.609   0.616   0.101 -0.2726  0.0743 -0.4850
 1161SOL    HW114945   3.553   0.693   0.090 -0.0105  0.7515  3.1613
 1161SOL    HW214946   3.694   0.651   0.127 -0.6720 -0.4212  1.4518
 1162SOL     OW14947   1.575   4.431  13.092 -0.1681  0.0460 -0.1332
 1162SOL    HW114948   1.620   4.408  13.011 -0.0442  0.3956 -0.1612
 1162SOL    HW214949   1.481   4.424  13.073  0.0746  0.3621 -1.4390
 1163SOL     OW14950   2.463   4.017   6.395  0.6991 -0.2157 -0.0120
 1163SOL    HW114951   2.519   3.969   6.334 -0.7351 -2.8328  0.7767
 1163SOL    HW214952   2.521   4.037   6.469  2.0736  0.6951 -1.3231
 1164SOL     OW14953   1.196   0.952   2.800  0.1754 -0.2728 -0.6976
 1164SOL    HW114954   1.269   0.989   2.750  0.0250 -1.7051 -1.9583
 1164SOL    HW214955   1.155   1.037   2.820 -1.4230 -0.9914 -0.9449
 1165SOL     OW14956   2.555   3.232   8.247  0.5306 -0.1372  0.6214
 1165SOL    HW114957   2.525   3.313   8.287  2.0835  0.6588  0.1613
 1165SOL    HW214958   2.489   3.167   8.273 -1.5556  1.8689  0.3657
 1166SOL     OW14959   2.456   0.902   2.269  0.7682 -0.0760  0.1799
 1166SOL    HW114960   2.466   0.985   2.315  0.4544 -0.6274  1.2710
 1166SOL    HW214961   2.366   0.913   2.238  0.8142 -0.8131 -0.2352
 1167SOL     OW14962   3.326   0.287  11.996  0.5502  0.0499  0.1933
 1167SOL    HW114963   3.299   0.347  11.927  1.6820  1.7228  1.1903
 1167SOL    HW214964   3.287   0.204  11.969 -1.6287  0.1596  3.0208
 1168SOL     OW14965   1.830   1.566   8.233  0.6326  0.6424  0.3969
 1168SOL    HW114966   1.842   1.481   8.276 -0.8778  0.4002  0.3280
 1168SOL    HW214967   1.862   1.559   8.143 -0.1506  0.2483  0.1483
 1169SOL     OW14968   2.854   2.061   1.952  0.1712  0.2809  0.3091
 1169SOL    HW114969   2.800   2.021   1.884 -0.0680  0.0270  0.6452
 1169SOL    HW214970   2.925   2.097   1.900  1.3511 -1.6574  0.5844
 1170SOL     OW14971   4.355   0.974   4.720  0.0731  0.2791  0.5579
 1170SOL    HW114972   4.430   0.954   4.777 -1.2912 -2.9358  1.1745
 1170SOL    HW214973   4.384   0.948   4.633 -2.0226  0.2099 -0.1083
 1171SOL     OW14974   0.818   3.459  13.493  0.0410  0.0217  0.3419
 1171SOL    HW114975   0.904   3.496  13.474  0.6640  0.6533  4.3191
 1171SOL    HW214976   0.782   3.522  13.556  0.6205 -0.0062  0.6952
 1172SOL     OW14977   2.458   4.158   4.843  0.6147 -0.5485 -0.4031
 1172SOL    HW114978   2.542   4.159   4.798  0.4601  1.0711 -0.6847
 1172SOL    HW214979   2.406   4.098   4.789  1.4115 -0.7040 -0.9935
 1173SOL     OW14980   3.327   3.402   2.833  0.0809  0.1359 -0.6814
 1173SOL    HW114981   3.347   3.438   2.746  2.3143  0.0783 -0.1852
 1173SOL    HW214982   3.294   3.314   2.812  1.9702 -0.2621 -1.9432
 1174SOL     OW14983   3.878   2.434   6.754 -0.1502 -0.1358 -0.4122
 1174SOL    HW114984   3.919   2.507   6.802  1.3032 -0.1337 -1.6603
 1174SOL    HW214985   3.806   2.486   6.719 -0.0481  1.9204  2.3712
 1175SOL     OW14986   0.594   4.584   6.176  0.2806  0.0620  0.4605
 1175SOL    HW114987   0.688   4.591   6.164  0.4302 -1.4846  0.6955
 1175SOL    HW214988   0.584   4.497   6.216 -1.0145 -0.3097 -0.6829
 1176SOL     OW14989   0.575   2.076   3.173 -0.2589 -0.2202 -0.5009
 1176SOL    HW114990   0.569   2.140   3.244  3.2106 -0.7776  0.2702
 1176SOL    HW214991   0.619   2.000   3.212 -0.2371 -0.3923 -0.8577
 1177SOL     OW14992   1.402   3.497   6.461  0.3021  0.0234 -0.4322
 1177SOL    HW114993   1.431   3.586   6.440  1.1081 -0.3464 -0.9200
 1177SOL    HW214994   1.446   3.444   6.394  0.0752  1.1195 -1.4530
 1178SOL     OW14995   4.406   3.699   7.344  0.0043  0.6946  0.3679
 1178SOL    HW114996   4.319   3.695   7.305 -0.0050  1.1895  0.3346
 1178SOL    HW214997   4.459   3.668   7.271  1.9873  1.0511  1.6582
 1179SOL     OW14998   1.083   2.862   6.689 -0.2463 -1.0803 -0.3312
 1179SOL    HW114999   1.064   2.950   6.656  1.1269 -0.9241 -0.6944
 1179SOL    HW215000   1.086   2.814   6.607  1.5234 -2.2017  0.4033
 1180SOL     OW15001   0.192   0.546   5.236 -0.5113 -0.3487 -0.1697
 1180SOL    HW115002   0.127   0.477   5.219 -1.9453  0.3788  2.3306
 1180SOL    HW215003   0.163   0.610   5.172 -0.9192 -0.2518  0.1092
 1181SOL     OW15004   2.558   2.326  10.669 -0.0576  0.3537 -0.5263
 1181SOL    HW115005   2.519   2.317  10.757  0.1097 -0.9873 -0.5878
 1181SOL    HW215006   2.636   2.378  10.687 -0.6128  1.7041 -2.1168
 1182SOL     OW15007   0.273   0.214   8.705  0.5302 -0.7534  0.0769
 1182SOL    HW115008   0.277   0.198   8.800  0.3713 -1.8895 -0.1076
 1182SOL    HW215009   0.208   0.155   8.667  0.5490 -0.1415 -0.9027
 1183SOL     OW15010   3.518   1.864  13.688 -0.1906 -0.3287  0.1488
 1183SOL    HW115011   3.552   1.867  13.598 -2.0396 -1.5857 -0.5698
 1183SOL    HW215012   3.437   1.825  13.657  0.0814 -0.1127 -0.8246
 1184SOL     OW15013   0.395   1.122   7.953  0.1962  0.1734  0.1572
 1184SOL    HW115014   0.447   1.093   7.878 -1.5507 -1.6843 -0.3134
 1184SOL    HW215015   0.434   1.210   7.947  0.2529  0.1183 -0.3202
 1185SOL     OW15016   4.580   3.301   7.229  0.6579 -0.4279  0.1735
 1185SOL    HW115017   4.663   3.269   7.191  2.2480  2.1655  1.4780
 1185SOL    HW215018   4.554   3.348   7.150 -3.9886 -1.4172  1.1221
 1186SOL     OW15019   0.345   3.682   2.705  0.2347 -0.2360  0.1886
 1186SOL    HW115020   0.407   3.755   2.712  0.2374  0.1563 -4.0965
 1186SOL    HW215021   0.348   3.663   2.612 -0.0949 -0.6331  0.2613
 1187SOL     OW15022   4.336   3.266   1.516  0.3099 -0.6016 -0.0837
 1187SOL    HW115023   4.412   3.314   1.484 -0.0312  0.4023  0.5889
 1187SOL    HW215024   4.302   3.235   1.432  1.6155  2.5093 -1.7301
 1188SOL     OW15025   4.666   1.988  12.789  0.0229 -0.4107 -0.2262
 1188SOL    HW115026   4.577   2.007  12.758 -1.1284 -2.5488  1.8240
 1188SOL    HW215027   4.672   1.893  12.777 -0.3006 -0.3291 -1.0734
 1189SOL     OW15028   1.538   4.483   8.233 -0.2029  0.0452  0.0464
 1189SOL    HW115029   1.468   4.523   8.284  1.3214  0.9765  1.4079
 1189SOL    HW215030   1.566   4.553   8.174  2.3221  0.3802  1.6239
 1190SOL     OW15031   1.671   0.620   6.837 -0.0904  0.1943  0.1880
 1190SOL    HW115032   1.710   0.679   6.902 -1.9090  0.0111  1.4305
 1190SOL    HW215033   1.674   0.681   6.763  1.1305 -0.3010 -0.1733
 1191SOL     OW15034   3.247   3.242  14.967  1.1101  0.4115 -0.3619
 1191SOL    HW115035   3.310   3.171  14.973 -0.5548 -0.9216  1.2427
 1191SOL    HW215036   3.162   3.213  14.999  1.4309  0.2785  0.3661
 1192SOL     OW15037   4.306   3.095   1.937 -0.5668  0.5135  0.3738
 1192SOL    HW115038   4.283   3.163   2.000  0.2587  1.8097 -0.7286
 1192SOL    HW215039   4.400   3.107   1.930 -0.4111 -0.2328  1.1916
 1193SOL     OW15040   1.332   3.413   3.726  0.4084  0.0766 -0.3303
 1193SOL    HW115041   1.309   3.333   3.774  1.0157 -0.9887 -1.8331
 1193SOL    HW215042   1.337   3.469   3.804  1.3592 -1.6846  0.8466
 1194SOL     OW15043   3.137   0.305   1.543 -0.2954  0.3058 -0.0552
 1194SOL    HW115044   3.134   0.256   1.461  2.1416  3.1125 -1.8240
 1194SOL    HW215045   3.232   0.312   1.555 -0.0985 -0.4423 -1.2261
 1195SOL     OW15046   0.376   4.429   1.849  0.4198  0.4352 -0.2408
 1195SOL    HW115047   0.358   4.349   1.799  0.3643 -0.1600  0.7045
 1195SOL    HW215048   0.434   4.471   1.786  1.3974  1.4789  1.3631
 1196SOL     OW15049   2.887   0.879   2.639  0.1493 -0.2106  0.0588
 1196SOL    HW115050   2.880   0.919   2.726  2.7619  0.0082  0.1655
 1196SOL    HW215051   2.895   0.952   2.578  1.9466 -1.0268 -0.6867
 1197SOL     OW15052   3.429   3.152   2.300  0.3151  0.0728  0.1368
 1197SOL    HW115053   3.438   3.118   2.389  0.1494  1.2940  0.6197
 1197SOL    HW215054   3.512   3.196   2.283  0.5340  0.4935  2.4135
 1198SOL     OW15055   2.763   4.002   8.585  0.4899  0.4005 -0.2150
 1198SOL    HW115056   2.856   3.979   8.579  0.4033  0.4796 -1.7730
 1198SOL    HW215057   2.770   4.078   8.643 -1.6775  1.3414 -1.1937
 1199SOL     OW15058   1.547   3.500  11.012 -0.7040 -0.2608 -0.2887
 1199SOL    HW115059   1.584   3.568  10.956  0.0282  0.3767  0.9791
 1199SOL    HW215060   1.598   3.504  11.093  0.2180 -0.9291 -0.8383
 1200SOL     OW15061   1.166   0.796   3.148  0.2561 -0.5214 -0.2791
 1200SOL    HW115062   1.215   0.874   3.124 -1.4254  1.2570  2.0855
 1200SOL    HW215063   1.078   0.823   3.121  1.8381  2.7423 -2.1092
 1201SOL     OW15064   3.798   2.661   8.520  0.6974 -0.3714  0.4105
 1201SOL    HW115065   3.703   2.675   8.521  0.7956  0.2627  0.8509
 1201SOL    HW215066   3.790   2.568   8.497  0.7965 -0.4351  0.6327
 1202SOL     OW15067   1.480   1.387   2.278 -0.0205 -0.1643 -0.3947
 1202SOL    HW115068   1.398   1.342   2.297  0.3897 -0.8086 -0.1407
 1202SOL    HW215069   1.455   1.479   2.271  0.5172  0.0961  1.0371
 1203SOL     OW15070   1.661   3.862  14.937  0.4934 -0.4377 -0.2306
 1203SOL    HW115071   1.747   3.820  14.930  0.1471 -0.9451 -1.4254
 1203SOL    HW215072   1.635   3.871  14.846  1.9373  0.1693 -0.5796
 1204SOL     OW15073   1.753   3.341   3.495 -0.4624 -0.5378  0.4235
 1204SOL    HW115074   1.722   3.265   3.445  1.1403  0.4025 -1.9747
 1204SOL    HW215075   1.812   3.306   3.562 -0.6141 -0.0516  0.8095
 1205SOL     OW15076   2.843   3.365   2.846 -0.1134 -0.3703 -0.4099
 1205SOL    HW115077   2.935   3.384   2.864  0.0135 -1.8526  0.5234
 1205SOL    HW215078   2.814   3.345   2.935  2.8086 -2.6031  0.0413
 1206SOL     OW15079   3.602   3.514   4.750  0.6051  0.2206 -0.1964
 1206SOL    HW115080   3.599   3.440   4.811  1.7890  0.8977  0.6824
 1206SOL    HW215081   3.692   3.546   4.759  0.3662  0.5766  0.8841
 1207SOL     OW15082   4.236   0.353   2.078 -0.5154 -0.1859  0.0838
 1207SOL    HW115083   4.282   0.331   2.160 -1.1227 -0.2536  0.4045
 1207SOL    HW215084   4.146   0.322   2.090 -0.7064  0.8162  1.2616
 1208SOL     OW15085   2.359   2.729  12.881  0.3415 -0.9384 -0.2730
 1208SOL    HW115086   2.347   2.688  12.967 -1.4342 -0.9679 -0.5246
 1208SOL    HW215087   2.279   2.780  12.868  1.0260  0.1971 -0.0404
 1209SOL     OW15088   0.503   0.327   7.505  0.5209 -0.4979  0.1724
 1209SOL    HW115089   0.571   0.271   7.466  1.6299  1.8887 -1.3719
 1209SOL    HW215090   0.435   0.327   7.438 -1.7658  2.0558  2.4607
 1210SOL     OW15091   2.713   2.295   6.809  0.1294  0.2861 -0.4087
 1210SOL    HW115092   2.683   2.238   6.881  0.7372  1.2306  0.5992
 1210SOL    HW215093   2.665   2.369   6.847  0.0230  0.6146 -1.1968
 1211SOL     OW15094   1.397   4.410   1.468 -0.6598 -0.3500  0.4646
 1211SOL    HW115095   1.490   4.388   1.458 -0.1862  2.4226 -1.4661
 1211SOL    HW215096   1.402   4.492   1.518  0.8494  1.3867 -2.5624
 1212SOL     OW15097   2.158   0.025   2.975 -0.5738 -0.4719 -0.3599
 1212SOL    HW115098   2.179   4.670   2.928 -1.1104 -1.1530  0.5655
 1212SOL    HW215099   2.068   0.037   2.945  0.3360  0.3719 -2.7942
 1213SOL     OW15100   0.157   2.668   4.455 -0.0523 -0.3845  0.1519
 1213SOL    HW115101   0.180   2.658   4.547 -0.6409 -2.1082  0.1217
 1213SOL    HW215102   0.083   2.609   4.444  1.3224 -2.3658  1.4456
 1214SOL     OW15103   0.275   1.826   0.039  0.5834 -0.0737 -0.4181
 1214SOL    HW115104   0.289   1.853   0.129  0.0705 -2.2439  0.3115
 1214SOL    HW215105   0.299   1.909  17.700  0.8127  0.2063  0.2913
 1215SOL     OW15106   4.060   1.947   6.658 -0.0308  0.1136 -0.3277
 1215SOL    HW115107   4.133   1.994   6.698 -0.8223 -1.4044  2.9392
 1215SOL    HW215108   3.991   1.969   6.721 -0.5413 -1.0929 -0.4603
 1216SOL     OW15109   3.299   1.970   4.990  0.5338 -0.2792  0.7248
 1216SOL    HW115110   3.378   1.991   5.042  0.3804  1.8164  0.1336
 1216SOL    HW215111   3.336   1.971   4.902 -1.4201  2.3568 -0.0794
 1217SOL     OW15112   0.041   4.606   2.963 -0.0071 -0.1270 -0.3585
 1217SOL    HW115113   4.721   4.632   2.883 -2.3869 -2.3366  0.2636
 1217SOL    HW215114   4.692   4.604   3.023  0.5622 -1.1384  0.2970
 1218SOL     OW15115   0.892   2.343   5.256 -0.4551  0.1886 -0.4448
 1218SOL    HW115116   0.937   2.298   5.327  1.0845  2.7905  0.2085
 1218SOL    HW215117   0.915   2.435   5.265 -0.3130  0.1632 -0.5504
 1219SOL     OW15118   0.689   4.297  13.686  0.4683 -0.4816  0.1786
 1219SOL    HW115119   0.720   4.380  13.649  0.7691 -0.7508 -0.1699
 1219SOL    HW215120   0.725   4.233  13.625  1.0664 -0.8152  0.8826
 1220SOL     OW15121   3.408   1.652   0.878 -0.0793  0.1905 -0.6870
 1220SOL    HW115122   3.430   1.725   0.819 -0.7481  0.3528 -0.7313
 1220SOL    HW215123   3.435   1.575   0.827  0.8820 -0.5985  1.0232
 1221SOL     OW15124   2.678   4.588   2.861  0.0965  0.1359 -0.2701
 1221SOL    HW115125   2.630   4.628   2.932  0.0560  1.6603 -1.1680
 1221SOL    HW215126   2.606   4.591   2.798  0.1187 -1.7815 -0.4156
 1222SOL     OW15127   2.853   2.757   1.307  0.6287 -0.5449  0.5300
 1222SOL    HW115128   2.814   2.682   1.353  0.2920 -2.7917 -3.3692
 1222SOL    HW215129   2.906   2.714   1.239 -0.3964  2.7234 -2.3449
 1223SOL     OW15130   1.840   2.431   4.106  0.0156 -0.1351 -0.3190
 1223SOL    HW115131   1.788   2.508   4.080  0.2837 -0.0126 -0.4939
 1223SOL    HW215132   1.854   2.400   4.016  0.4519  2.2604 -1.0918
 1224SOL     OW15133   2.586   2.147  14.571  0.3593  0.1534 -0.5805
 1224SOL    HW115134   2.599   2.098  14.489 -0.1090 -0.1972 -0.4437
 1224SOL    HW215135   2.534   2.089  14.626  1.2835 -1.9706 -1.9545
 1225SOL     OW15136   4.364   0.672   6.221  0.3649 -0.2923  0.3923
 1225SOL    HW115137   4.345   0.616   6.146  0.2384 -0.2436  0.3881
 1225SOL    HW215138   4.445   0.706   6.185  0.7079  2.1060  3.3922
 1226SOL     OW15139   1.524   3.780   6.415 -0.2537 -0.6126 -0.3956
 1226SOL    HW115140   1.573   3.846   6.365  0.7287 -0.9568  0.1265
 1226SOL    HW215141   1.569   3.762   6.498  1.0420 -1.2670 -1.2553
 1227SOL     OW15142   4.311   4.690  13.156  0.1527 -0.1419  0.1012
 1227SOL    HW115143   4.395   4.704  13.200 -1.4416  2.6208  2.2517
 1227SOL    HW215144   4.290   4.600  13.178 -2.9814  0.6033  0.1465
 1228SOL     OW15145   3.980   1.807   5.022 -0.0310 -0.0815  1.0130
 1228SOL    HW115146   3.995   1.770   4.935 -1.3565 -0.1985  0.8411
 1228SOL    HW215147   3.976   1.724   5.069  1.7650 -0.5102  0.4386
 1229SOL     OW15148   3.816   2.970   5.829  0.6691 -0.5903 -0.1810
 1229SOL    HW115149   3.808   3.026   5.752  1.6407 -1.6413 -1.0578
 1229SOL    HW215150   3.881   2.907   5.797 -0.7032 -1.8495 -0.4980
 1230SOL     OW15151   3.946   3.412   9.927  0.1319  0.0188 -0.0443
 1230SOL    HW115152   3.947   3.468   9.849  2.1611 -0.5810 -0.4598
 1230SOL    HW215153   3.855   3.382   9.920  1.4658 -4.5623  2.0559
 1231SOL     OW15154   2.046   3.058   7.012  0.0017 -0.0173  0.1471
 1231SOL    HW115155   2.109   3.017   6.952  2.6448  1.0641  2.1785
 1231SOL    HW215156   1.988   2.988   7.039 -1.8171  0.4959 -2.4588
 1232SOL     OW15157   3.717   3.738   0.822  0.2610  0.3273  0.3049
 1232SOL    HW115158   3.636   3.687   0.816  0.9610 -0.6821 -0.7472
 1232SOL    HW215159   3.744   3.732   0.731  1.9685 -2.1663  0.9758
 1233SOL     OW15160   2.116   3.434  12.118 -0.2874 -0.1804 -0.6985
 1233SOL    HW115161   2.080   3.522  12.110  1.8985  1.0818  3.6368
 1233SOL    HW215162   2.203   3.450  12.154 -0.5144  0.4301 -0.4310
 1234SOL     OW15163   3.664   1.458   7.357 -0.5222  0.3074  0.0150
 1234SOL    HW115164   3.619   1.519   7.299 -0.2326  1.7034  1.2697
 1234SOL    HW215165   3.620   1.474   7.440 -1.5211 -2.1860 -0.0354
 1235SOL     OW15166   0.725   4.017  10.172  0.0769  0.3255 -0.3865
 1235SOL    HW115167   0.739   4.057  10.258  1.1197 -1.6688  0.3758
 1235SOL    HW215168   0.676   3.939  10.199  2.7742 -1.0583  0.4832
 1236SOL     OW15169   3.722   1.053   6.024 -0.2519  0.6768  0.0118
 1236SOL    HW115170   3.774   1.089   6.095  1.6827 -0.6277 -0.7383
 1236SOL    HW215171   3.751   0.962   6.016 -1.1824  0.6043 -2.8264
 1237SOL     OW15172   2.208   2.477   5.577 -0.1811  0.3617  0.1102
 1237SOL    HW115173   2.139   2.497   5.514  0.3136  0.2694 -0.4611
 1237SOL    HW215174   2.285   2.479   5.519  0.0346 -0.6980  0.3552
 1238SOL     OW15175   1.676   3.543   4.266  0.3093  0.0920  0.1527
 1238SOL    HW115176   1.693   3.485   4.192 -2.7083  0.9911 -1.2281
 1238SOL    HW215177   1.737   3.616   4.248 -1.5439  1.7757  0.6955
 1239SOL     OW15178   2.494   2.031   5.358 -0.1864  0.4931 -0.0915
 1239SOL    HW115179   2.541   2.059   5.437  0.5027 -0.2617 -0.2377
 1239SOL    HW215180   2.560   2.057   5.294  1.3402 -0.1856  1.2016
 1240SOL     OW15181   4.244   4.235   6.748 -0.4375  0.0659  0.4664
 1240SOL    HW115182   4.318   4.294   6.741 -0.3578 -0.1228 -0.2363
 1240SOL    HW215183   4.281   4.151   6.719  0.0340  0.5632 -0.3577
 1241SOL     OW15184   4.245   1.975   3.882 -0.3380  0.0914  0.3687
 1241SOL    HW115185   4.285   1.892   3.857  0.1494  0.3677  0.2352
 1241SOL    HW215186   4.245   1.962   3.977  2.5495  3.0822  0.7970
 1242SOL     OW15187   0.893   2.669  16.490  0.0337 -0.2380  0.3934
 1242SOL    HW115188   0.884   2.605  16.561  0.9174 -0.3210  0.4339
 1242SOL    HW215189   0.861   2.756  16.511 -0.2351  0.0393 -1.1441
 1243SOL     OW15190   2.500   3.870   6.785  0.2392  0.0279  0.3935
 1243SOL    HW115191   2.526   3.817   6.710 -1.5409 -2.0371  1.2270
 1243SOL    HW215192   2.477   3.951   6.740 -0.1588  0.4166  1.2996
 1244SOL     OW15193   1.533   4.093   4.282  0.1245  0.2836  0.6112
 1244SOL    HW115194   1.558   4.182   4.256  1.9708 -0.5855 -0.5816
 1244SOL    HW215195   1.618   4.072   4.318  0.9075  0.3004 -1.2337
 1245SOL     OW15196   2.672   0.717   6.743 -0.7430  0.6435  0.6074
 1245SOL    HW115197   2.635   0.731   6.655 -0.5984 -0.6821  0.3324
 1245SOL    HW215198   2.609   0.657   6.782 -1.0915  1.4834  1.3191
 1246SOL     OW15199   1.985   3.416   8.885  0.2140 -1.4398  0.0651
 1246SOL    HW115200   1.943   3.485   8.937  0.8418 -0.9106 -0.1354
 1246SOL    HW215201   2.022   3.467   8.814 -2.0576 -0.8776 -0.7074
 1247SOL     OW15202   4.308   4.297   8.084 -0.2188  0.3236  0.0037
 1247SOL    HW115203   4.326   4.224   8.143  1.3756  0.1435 -0.7252
 1247SOL    HW215204   4.215   4.308   8.103 -0.5349 -0.9024 -0.8267
 1248SOL     OW15205   3.692   4.235   4.154 -0.1159  0.3553  0.6311
 1248SOL    HW115206   3.598   4.232   4.135  0.0659 -1.1211 -0.0584
 1248SOL    HW215207   3.702   4.143   4.129 -0.3801  0.9792 -1.7426
 1249SOL     OW15208   2.613   3.354   3.307 -0.3042 -0.2299  0.1995
 1249SOL    HW115209   2.691   3.316   3.267 -1.7845 -0.3578 -2.5777
 1249SOL    HW215210   2.619   3.445   3.276 -1.4073 -0.0628  0.4643
 1250SOL     OW15211   0.028   1.670   2.442  0.2741 -0.9715 -0.7302
 1250SOL    HW115212   4.715   1.749   2.404 -0.8890 -1.2904 -0.2266
 1250SOL    HW215213   4.705   1.605   2.390  1.2984 -0.7836 -1.9079
 1251SOL     OW15214   1.805   2.458   9.959  0.0893  0.3372 -0.6529
 1251SOL    HW115215   1.799   2.512   9.880 -4.0842 -1.8116 -1.8059
 1251SOL    HW215216   1.733   2.395   9.951  1.1538 -0.9200 -0.3786
 1252SOL     OW15217   0.415   2.378  14.207  0.5736 -0.5764 -0.5704
 1252SOL    HW115218   0.337   2.432  14.197  0.7460 -0.2011  0.0906
 1252SOL    HW215219   0.390   2.308  14.148 -1.4250  0.9598 -1.5459
 1253SOL     OW15220   1.174   1.662   3.504  0.4843 -0.3196 -0.5981
 1253SOL    HW115221   1.166   1.683   3.598  0.6319  2.9169 -1.2970
 1253SOL    HW215222   1.084   1.644   3.475  0.6036 -0.8814 -0.6139
 1254SOL     OW15223   1.572   0.815   0.111 -0.0615  0.0910 -0.1104
 1254SOL    HW115224   1.611   0.896   0.080 -1.1088  0.1400 -1.3439
 1254SOL    HW215225   1.519   0.803   0.032 -0.5367 -0.1113  0.2396
 1255SOL     OW15226   1.099   4.694   4.368 -0.2121 -0.0269  0.0537
 1255SOL    HW115227   1.154   4.676   4.444 -1.0455 -1.6525  0.2997
 1255SOL    HW215228   1.129   0.051   4.331  1.4793 -0.6104  0.1534
 1256SOL     OW15229   3.781   3.889   7.067  0.0123  0.1212 -0.4600
 1256SOL    HW115230   3.763   3.796   7.078  4.2935 -0.4267  1.9084
 1256SOL    HW215231   3.723   3.926   7.133 -1.1850  0.0078 -1.4483
 1257SOL     OW15232   3.885   3.825   1.413  0.0861  0.0126 -0.2013
 1257SOL    HW115233   3.879   3.874   1.331  0.0335 -0.7246 -0.6312
 1257SOL    HW215234   3.969   3.788   1.388 -1.0564 -3.3098  0.8880
 1258SOL     OW15235   1.350   0.629  16.248 -0.3686  0.4742  0.1975
 1258SOL    HW115236   1.313   0.717  16.237 -0.3094  0.4489 -0.2047
 1258SOL    HW215237   1.401   0.610  16.169  0.2879 -1.2650  1.0294
 1259SOL     OW15238   3.479   2.698  16.928  0.0668  0.0164 -0.1244
 1259SOL    HW115239   3.459   2.612  16.965 -1.8343  0.2343 -0.6548
 1259SOL    HW215240   3.514   2.751  17.000 -3.7244 -0.8631  2.3549
 1260SOL     OW15241   4.092   0.644   6.072  0.2754 -0.1271  0.0234
 1260SOL    HW115242   4.181   0.611   6.067  0.5930  0.7824 -0.3050
 1260SOL    HW215243   4.065   0.634   5.981  0.7484  0.1204 -0.1383
 1261SOL     OW15244   0.504   1.185   3.770 -0.1667  0.4265 -0.3978
 1261SOL    HW115245   0.474   1.185   3.861 -3.2184  1.4997 -1.4006
 1261SOL    HW215246   0.581   1.242   3.769  0.3903 -0.3021  2.0201
 1262SOL     OW15247   0.117   0.418   0.567 -0.3861  0.0430 -0.1248
 1262SOL    HW115248   0.101   0.427   0.473  0.9768  1.6251 -0.2091
 1262SOL    HW215249   0.147   0.508   0.582 -1.2776  0.3141  0.0138
 1263SOL     OW15250   1.591   0.007   1.042  0.2183  0.2843 -0.0523
 1263SOL    HW115251   1.584   4.700   0.952  0.0257  0.4379 -0.0918
 1263SOL    HW215252   1.663   4.682   1.081 -1.1228 -1.5035  0.1701
 1264SOL     OW15253   2.325   2.629   3.207 -0.1013 -0.5207  0.2437
 1264SOL    HW115254   2.246   2.683   3.207  0.5570  0.4417 -2.0467
 1264SOL    HW215255   2.383   2.666   3.141 -2.6337  0.8706 -1.2308
 1265SOL     OW15256   1.687   1.550  10.259 -0.5156 -0.1819 -0.4312
 1265SOL    HW115257   1.675   1.509  10.174  0.5864 -2.8901  0.7379
 1265SOL    HW215258   1.782   1.543  10.265 -0.3110  2.0931 -0.7762
 1266SOL     OW15259   0.335   4.470   3.407 -0.3741 -0.9754  0.2741
 1266SOL    HW115260   0.286   4.513   3.477 -1.9598 -0.8313 -0.9221
 1266SOL    HW215261   0.286   4.500   3.330 -0.1308 -0.0856  0.4542
 1267SOL     OW15262   2.629   4.070   6.598  0.2298 -1.1154  0.0044
 1267SOL    HW115263   2.658   4.156   6.568  0.1533 -0.3377  2.2306
 1267SOL    HW215264   2.642   4.072   6.692 -0.0052  1.2980 -0.0203
 1268SOL     OW15265   3.650   2.909   6.298  0.3738  0.4799 -0.6327
 1268SOL    HW115266   3.714   2.925   6.368  0.4858  0.5897 -0.7588
 1268SOL    HW215267   3.665   2.995   6.259 -0.7839  0.5119 -1.0118
 1269SOL     OW15268   1.733   3.864   0.438  0.5589 -0.2140  0.2487
 1269SOL    HW115269   1.693   3.924   0.374  1.4309 -0.1012 -0.1958
 1269SOL    HW215270   1.718   3.906   0.523 -1.7169 -1.1024  0.2864
 1270SOL     OW15271   3.350   0.412   2.701  0.1910  0.0468 -0.1125
 1270SOL    HW115272   3.294   0.477   2.744 -0.9892 -0.2414 -1.2011
 1270SOL    HW215273   3.291   0.337   2.705  0.5878 -0.1753  1.8042
 1271SOL     OW15274   2.980   3.088   5.640 -0.1130  0.2208  0.4070
 1271SOL    HW115275   3.011   3.167   5.596 -0.0847  0.0838  0.1810
 1271SOL    HW215276   3.063   3.065   5.683  0.5267  1.5560 -0.1297
 1272SOL     OW15277   3.779   2.167  12.409  0.4340  0.1157 -0.0783
 1272SOL    HW115278   3.731   2.186  12.329  2.1999  0.5236 -1.0430
 1272SOL    HW215279   3.750   2.076  12.418 -0.8132  0.4377 -0.9268
 1273SOL     OW15280   1.222   1.503  16.660 -0.6532  0.7282 -0.2244
 1273SOL    HW115281   1.307   1.460  16.656 -1.8659 -1.7239  0.0892
 1273SOL    HW215282   1.237   1.585  16.707  0.4278  0.5772 -0.3162
 1274SOL     OW15283   4.621   0.972   2.563  0.2878  1.0298 -0.0094
 1274SOL    HW115284   4.707   0.931   2.571 -0.1179 -0.2669 -2.0914
 1274SOL    HW215285   4.566   0.929   2.629 -0.6326  3.2049  0.6292
 1275SOL     OW15286   1.480   4.088   8.883  0.7661  0.2076 -0.7757
 1275SOL    HW115287   1.564   4.043   8.893  2.0235  2.7721  0.3263
 1275SOL    HW215288   1.431   4.020   8.838  0.0338 -0.1699  0.5950
 1276SOL     OW15289   0.883   3.763  17.475  0.1433  0.1955 -0.2060
 1276SOL    HW115290   0.861   3.770  17.568 -0.7987 -1.5573 -0.2918
 1276SOL    HW215291   0.860   3.671  17.460 -0.5953  0.8035 -2.6726
 1277SOL     OW15292   0.731   2.209   4.814 -0.3152  0.1521 -0.2560
 1277SOL    HW115293   0.800   2.275   4.817 -0.5786  0.4409 -0.4608
 1277SOL    HW215294   0.720   2.207   4.909  2.3378  2.1810  0.0792
 1278SOL     OW15295   0.556   1.033   3.076  0.2944  0.6121  0.6677
 1278SOL    HW115296   0.479   1.089   3.087 -0.9956 -1.3838  1.7485
 1278SOL    HW215297   0.542   0.997   2.988  1.6776  2.1470 -0.1818
 1279SOL     OW15298   3.169   0.897   3.442  0.2846  0.1963  0.2105
 1279SOL    HW115299   3.193   0.858   3.526 -2.7507 -2.0219  0.0418
 1279SOL    HW215300   3.083   0.862   3.419  1.2688 -2.3885  0.4788
 1280SOL     OW15301   1.986   4.308  17.643 -0.0922 -0.2497  0.5113
 1280SOL    HW115302   1.986   4.281  17.551  1.1318 -0.6790  0.6447
 1280SOL    HW215303   1.989   4.402  17.626 -2.1488 -0.2998 -0.1839
 1281SOL     OW15304   0.078   2.048   4.594  0.5909  0.2519  0.2739
 1281SOL    HW115305   4.713   2.037   4.563  1.3755 -2.2312 -1.1173
 1281SOL    HW215306   0.116   2.099   4.522  1.5848  0.6313  1.0635
 1282SOL     OW15307   4.378   4.396   5.984 -0.3003 -0.0912 -0.1595
 1282SOL    HW115308   4.430   4.465   6.024 -1.4277  0.6323  0.0463
 1282SOL    HW215309   4.367   4.329   6.051 -0.6947 -1.1657 -1.2857
 1283SOL     OW15310   2.917   0.235  12.072  0.1902 -0.0026  0.1322
 1283SOL    HW115311   2.860   0.305  12.039 -0.0803  1.1005  2.8872
 1283SOL    HW215312   2.992   0.284  12.106  0.4881 -0.3955  0.0381
 1284SOL     OW15313   2.748   0.618  11.756  0.1790  0.3469 -0.8021
 1284SOL    HW115314   2.766   0.708  11.730 -1.0086  1.7414  3.1307
 1284SOL    HW215315   2.655   0.608  11.737 -0.1220  0.3477  0.6502
 1285SOL     OW15316   4.041   2.208   7.259  0.0955  1.0449 -0.2076
 1285SOL    HW115317   4.026   2.116   7.283 -2.3117  1.8884  1.5064
 1285SOL    HW215318   3.994   2.248   7.332  0.6621 -0.6864  1.1315
 1286SOL     OW15319   0.797   0.501   0.868 -0.1765 -0.1707 -0.4837
 1286SOL    HW115320   0.759   0.424   0.825 -0.8613  1.0420 -2.0558
 1286SOL    HW215321   0.856   0.463   0.933  0.5194 -0.8605 -1.5040
 1287SOL     OW15322   0.954   3.689   5.548  0.0934 -0.9154 -0.5052
 1287SOL    HW115323   0.895   3.739   5.492  1.8699  0.2402 -1.3471
 1287SOL    HW215324   0.972   3.745   5.624  0.2564  1.1301 -2.0716
 1288SOL     OW15325   4.588   0.670   0.405  0.2020  0.2609  0.5009
 1288SOL    HW115326   4.604   0.723   0.483  0.3199 -1.5990  1.7362
 1288SOL    HW215327   4.542   0.593   0.439  0.6020 -0.6267 -1.0039
 1289SOL     OW15328   1.679   3.297  10.109  0.0885 -0.4458 -0.2842
 1289SOL    HW115329   1.651   3.215  10.149  0.2134 -0.8451 -1.0281
 1289SOL    HW215330   1.764   3.317  10.150 -2.1092 -0.5367  4.3822
 1290SOL     OW15331   2.308   1.528   2.590 -0.6648 -0.5506  0.2766
 1290SOL    HW115332   2.328   1.562   2.677  1.8057 -0.9392 -0.1564
 1290SOL    HW215333   2.339   1.438   2.602  0.1083 -0.4494 -1.0231
 1291SOL     OW15334   2.173   3.507   1.485 -0.3436 -0.0167  0.0409
 1291SOL    HW115335   2.091   3.494   1.532 -0.6556  2.3833  0.1146
 1291SOL    HW215336   2.162   3.445   1.412  1.4628 -2.4744  1.8462
 1292SOL     OW15337   2.702   3.360  17.641  0.3708 -0.0784 -0.1761
 1292SOL    HW115338   2.731   3.439  17.595  1.8144 -0.6989 -0.3466
 1292SOL    HW215339   2.755   3.357   0.019 -0.6627 -1.1023  0.4743
 1293SOL     OW15340   4.138   0.238  11.026 -0.1295  0.0381  0.2337
 1293SOL    HW115341   4.101   0.292  11.096  0.2345  2.0392 -1.1043
 1293SOL    HW215342   4.220   0.220  11.072  1.6135  1.4153 -2.3581
 1294SOL     OW15343   4.143   4.247   9.232  0.2323 -0.4076  0.5299
 1294SOL    HW115344   4.071   4.199   9.274 -1.2188  1.6778  0.4576
 1294SOL    HW215345   4.157   4.194   9.154 -0.7610  1.7859 -1.1382
 1295SOL     OW15346   3.985   2.558   1.582 -0.3011  0.1590  0.4510
 1295SOL    HW115347   3.950   2.504   1.653  1.1256 -1.3565 -0.0243
 1295SOL    HW215348   3.999   2.506   1.503 -0.7596  1.4002 -0.4503
 1296SOL     OW15349   4.124   2.054   3.370  0.0022 -0.5401 -0.0928
 1296SOL    HW115350   4.148   2.147   3.369 -0.0383 -0.5289  0.0082
 1296SOL    HW215351   4.206   2.007   3.355  0.4749 -0.0284  0.9119
 1297SOL     OW15352   2.233   3.508   9.252  0.5953  0.1256 -0.1419
 1297SOL    HW115353   2.232   3.599   9.281 -2.6494 -0.4815  1.6208
 1297SOL    HW215354   2.279   3.465   9.323 -2.2617 -0.6484  1.2217
 1298SOL     OW15355   4.439   3.715  10.131 -0.0224 -0.5410 -0.2538
 1298SOL    HW115356   4.486   3.779  10.184 -3.0092  1.2963  0.1849
 1298SOL    HW215357   4.378   3.680  10.196  0.1598 -2.4653 -1.1182
 1299SOL     OW15358   1.713   2.926  17.579  0.8345  0.5828 -0.1369
 1299SOL    HW115359   1.758   2.956  17.500  0.1798 -0.1837 -0.7968
 1299SOL    HW215360   1.655   2.853  17.559  1.4867 -0.5312  2.0343
 1300SOL     OW15361   3.837   1.161   8.157  0.0878  0.0855 -0.0749
 1300SOL    HW115362   3.828   1.170   8.252 -1.1743 -2.4598  0.0290
 1300SOL    HW215363   3.766   1.214   8.119  1.9977  2.9762  0.3713
 1301SOL     OW15364   3.375   0.632   8.040  0.0442 -0.9186  0.4057
 1301SOL    HW115365   3.402   0.580   7.964  2.2739 -0.3464  0.7964
 1301SOL    HW215366   3.286   0.597   8.042 -0.9169  1.5852  1.6481
 1302SOL     OW15367   1.092   4.625   3.213  0.4952  0.1961 -0.2275
 1302SOL    HW115368   1.112   4.603   3.303 -0.0128  2.2078  0.3847
 1302SOL    HW215369   0.996   4.628   3.206  0.5220  1.2869 -0.2363
 1303SOL     OW15370   1.627   2.135   8.989  0.3647  0.3196 -0.5865
 1303SOL    HW115371   1.648   2.184   9.069 -1.4265 -1.5529  1.0561
 1303SOL    HW215372   1.629   2.046   9.024  0.1102  0.8239  0.7171
 1304SOL     OW15373   1.318   2.182   0.403  0.8474  0.6006 -0.0246
 1304SOL    HW115374   1.254   2.236   0.355  1.6357  1.8667  0.3336
 1304SOL    HW215375   1.391   2.199   0.342  0.0572 -2.5430 -1.8319
 1305SOL     OW15376   0.998   3.734  17.083  0.1541  0.2649  0.0361
 1305SOL    HW115377   1.045   3.718  17.165 -2.4552 -1.5199  1.1715
 1305SOL    HW215378   0.997   3.830  17.088 -0.0958  0.2016  1.2375
 1306SOL     OW15379   3.443   0.226   7.983 -0.1426 -0.2193  0.4484
 1306SOL    HW115380   3.375   0.293   7.975 -0.0212 -0.5177 -3.2779
 1306SOL    HW215381   3.497   0.260   8.054  1.6365  1.0322 -1.4648
 1307SOL     OW15382   0.716   0.799   0.903  0.0476 -0.5456 -0.0533
 1307SOL    HW115383   0.703   0.786   0.997  0.9484  1.5238  0.3355
 1307SOL    HW215384   0.722   0.707   0.877 -1.9416 -1.1008  1.4303
 1308SOL     OW15385   2.722   3.191   8.740  0.1881 -0.4907 -0.0040
 1308SOL    HW115386   2.701   3.098   8.747 -1.5216 -0.0121  1.3425
 1308SOL    HW215387   2.648   3.224   8.791 -0.2136 -0.6847 -0.4618
 1309SOL     OW15388   2.666   1.111  11.506  0.8872 -0.0943 -0.4157
 1309SOL    HW115389   2.679   1.152  11.591  1.6232 -1.7667  0.2653
 1309SOL    HW215390   2.673   1.021  11.537 -3.1765  0.1297  1.0845
 1310SOL     OW15391   4.599   2.488  12.584  0.5610 -0.0755 -0.5667
 1310SOL    HW115392   4.653   2.549  12.635 -0.6499  0.3215  0.2438
 1310SOL    HW215393   4.658   2.458  12.515  1.7031  0.8645 -0.0020
 1311SOL     OW15394   2.795   1.634  14.606 -0.3024  0.1065  0.3942
 1311SOL    HW115395   2.764   1.696  14.540 -1.0676 -1.3244 -0.5962
 1311SOL    HW215396   2.751   1.555  14.574 -0.6006  0.6138 -0.4453
 1312SOL     OW15397   4.381   3.928   8.919  0.1854  0.1042 -0.2026
 1312SOL    HW115398   4.415   3.983   8.849  0.3814 -1.0492 -1.0137
 1312SOL    HW215399   4.390   3.844   8.874 -0.3340  0.3898 -0.8388
 1313SOL     OW15400   2.417   3.649   3.221 -0.2733  0.4288 -0.0534
 1313SOL    HW115401   2.480   3.719   3.241  0.9862 -0.6851 -0.1024
 1313SOL    HW215402   2.431   3.626   3.129  0.8181 -0.5653  0.3599
 1314SOL     OW15403   3.029   4.635  12.461  0.1089  0.1166  0.6552
 1314SOL    HW115404   3.097   4.609  12.524 -0.3481 -3.1563 -0.2046
 1314SOL    HW215405   2.960   4.576  12.492 -0.3013  0.2400 -0.0462
 1315SOL     OW15406   4.245   3.835  15.281 -0.4009  0.1761  0.4333
 1315SOL    HW115407   4.255   3.928  15.303  0.9110  0.2701 -0.5438
 1315SOL    HW215408   4.319   3.813  15.224 -0.4633  0.5680  0.1985
 1316SOL     OW15409   1.318   3.386   9.569 -0.7252  0.2256 -1.1844
 1316SOL    HW115410   1.387   3.399   9.634 -0.7712 -0.7100 -0.9423
 1316SOL    HW215411   1.295   3.295   9.591 -0.8387  0.7031  0.6915
 1317SOL     OW15412   4.555   2.910   4.722  0.0312  0.6376  0.5542
 1317SOL    HW115413   4.649   2.929   4.717  0.5407 -2.7145 -2.0754
 1317SOL    HW215414   4.527   2.971   4.791  2.1698  2.3055 -0.0444
 1318SOL     OW15415   3.546   4.647   4.109 -0.0165 -0.4563  0.1356
 1318SOL    HW115416   3.476   4.615   4.051  0.8315 -0.6702 -0.7667
 1318SOL    HW215417   3.503   4.710   4.167 -2.1415  0.2970 -2.2265
 1319SOL     OW15418   1.298   0.367   5.927  0.6074 -0.0185 -0.0300
 1319SOL    HW115419   1.366   0.333   5.869 -0.9839 -0.2452 -1.7704
 1319SOL    HW215420   1.246   0.290   5.949 -1.3087  0.9025 -1.2432
 1320SOL     OW15421   0.473   2.454   2.490 -0.0565 -0.2176 -0.4931
 1320SOL    HW115422   0.532   2.473   2.417 -0.0676 -0.7175 -0.6351
 1320SOL    HW215423   0.530   2.459   2.567  0.4509  2.5617 -1.0409
 1321SOL     OW15424   1.273   2.024   8.171 -0.2368  0.0144  0.1825
 1321SOL    HW115425   1.303   1.983   8.089 -2.7537 -0.2667 -0.5800
 1321SOL    HW215426   1.343   2.014   8.236 -0.6926  3.0234  1.1305
 1322SOL     OW15427   1.943   4.558   8.141  0.0710 -0.2979 -0.1234
 1322SOL    HW115428   1.881   4.529   8.208  0.4330  2.2358  1.3282
 1322SOL    HW215429   2.013   4.494   8.148 -0.2479 -0.9126 -2.5387
 1323SOL     OW15430   2.354   2.377  13.191 -0.2747  0.5864  0.0393
 1323SOL    HW115431   2.379   2.306  13.132 -2.8914 -0.3318  0.0416
 1323SOL    HW215432   2.345   2.315  13.263 -0.3805  0.4341 -0.1029
 1324SOL     OW15433   2.497   2.192   4.188 -0.2215 -0.5563 -0.7021
 1324SOL    HW115434   2.460   2.106   4.169  0.4562 -0.4534 -2.4349
 1324SOL    HW215435   2.439   2.224   4.258 -0.4492  1.8747 -1.9885
 1325SOL     OW15436   1.289   1.722   7.252 -0.2572 -0.5297  0.0658
 1325SOL    HW115437   1.291   1.646   7.311 -1.2261 -0.5528  0.0620
 1325SOL    HW215438   1.205   1.762   7.274  1.0525  2.2447  0.0925
 1326SOL     OW15439   1.489   2.581  16.712 -0.1945  0.4715 -0.3006
 1326SOL    HW115440   1.561   2.626  16.667 -0.3058  0.6730 -0.2804
 1326SOL    HW215441   1.425   2.575  16.641  0.3540  1.6489 -0.9159
 1327SOL     OW15442   3.876   1.845   6.472  0.3033  0.3869 -0.2234
 1327SOL    HW115443   3.793   1.874   6.509  0.4183  1.0783 -0.5068
 1327SOL    HW215444   3.946   1.863   6.536  1.5376 -1.2905 -1.1022
 1328SOL     OW15445   3.818   1.183   4.852 -0.2388  0.3930 -0.0775
 1328SOL    HW115446   3.814   1.218   4.941  1.9054  1.6423 -0.4722
 1328SOL    HW215447   3.759   1.108   4.863  0.9079 -0.3112  1.1870
 1329SOL     OW15448   4.189   2.889   7.750 -0.2380 -0.4141 -0.1413
 1329SOL    HW115449   4.224   2.873   7.838  1.2928 -2.2284 -1.0832
 1329SOL    HW215450   4.097   2.913   7.762 -0.3119 -0.1524 -1.2663
 1330SOL     OW15451   3.233   3.132   9.757 -0.3008  0.3844  0.3511
 1330SOL    HW115452   3.225   3.217   9.801 -1.4798  0.9222 -0.8848
 1330SOL    HW215453   3.197   3.152   9.670 -0.2711  0.8952  0.4538
 1331SOL     OW15454   4.247   4.347   2.256 -0.2216  0.1048 -0.0018
 1331SOL    HW115455   4.203   4.389   2.182 -1.8283  0.4775  1.1593
 1331SOL    HW215456   4.267   4.264   2.214  1.6879 -0.2800  1.6304
 1332SOL     OW15457   2.738   2.366  13.663  0.2191  0.2656  0.4136
 1332SOL    HW115458   2.704   2.453  13.642 -0.4856 -0.4164 -1.2838
 1332SOL    HW215459   2.692   2.313  13.598  4.8112 -1.6955 -1.2704
 1333SOL     OW15460   1.406   3.727   1.061  0.4782 -0.4347  0.2617
 1333SOL    HW115461   1.342   3.767   1.002  0.9749  1.8461  1.2577
 1333SOL    HW215462   1.378   3.637   1.078  2.9598 -1.0412  1.1840
 1334SOL     OW15463   3.873   4.085  11.107 -0.5296  0.2598  0.1873
 1334SOL    HW115464   3.880   3.989  11.104  0.1920  0.3150  0.0077
 1334SOL    HW215465   3.903   4.119  11.022  0.3062 -0.2116  0.2857
 1335SOL     OW15466   0.477   3.898   1.637 -0.2224 -0.3055  0.3131
 1335SOL    HW115467   0.437   3.867   1.556 -0.7032  1.0296  0.0470
 1335SOL    HW215468   0.549   3.834   1.642  0.5247  0.8007  3.9646
 1336SOL     OW15469   2.285   1.915   9.952  0.4759 -0.1121 -0.3744
 1336SOL    HW115470   2.308   1.975  10.023 -0.9277  0.6534 -0.5870
 1336SOL    HW215471   2.359   1.927   9.892 -0.0438  0.5304 -0.8828
 1337SOL     OW15472   3.357   4.227  10.324  0.0341 -0.4921 -0.4496
 1337SOL    HW115473   3.399   4.295  10.376  0.0899  0.8829 -2.3134
 1337SOL    HW215474   3.381   4.254  10.236 -1.5315 -1.1164 -1.0737
 1338SOL     OW15475   1.386   3.422  17.288  0.3809 -0.2886 -0.3314
 1338SOL    HW115476   1.340   3.456  17.365 -0.0172 -0.2294 -0.5952
 1338SOL    HW215477   1.320   3.367  17.247  0.1039 -1.8266  2.1661
 1339SOL     OW15478   3.491   2.494   1.779 -0.2086 -0.0593 -0.4734
 1339SOL    HW115479   3.422   2.525   1.721  0.6925 -1.6055 -2.3909
 1339SOL    HW215480   3.468   2.528   1.865 -2.1932 -1.3581 -0.4939
 1340SOL     OW15481   0.165   1.892  16.336 -0.3287  0.2439  0.2528
 1340SOL    HW115482   0.149   1.833  16.410 -0.1530 -2.1657 -1.6114
 1340SOL    HW215483   0.153   1.828  16.265 -0.3524  0.3178  0.1907
 1341SOL     OW15484   2.288   3.169   9.766 -0.2649 -0.5758  0.3224
 1341SOL    HW115485   2.225   3.195   9.699  0.9410 -0.3143 -0.7099
 1341SOL    HW215486   2.245   3.228   9.827  0.4202  1.2479 -0.9714
 1342SOL     OW15487   3.573   0.354   4.002  0.3573 -0.3036  0.0062
 1342SOL    HW115488   3.486   0.351   3.962 -0.1711 -0.5666  1.1863
 1342SOL    HW215489   3.547   0.316   4.086  0.5800 -0.2606  0.0941
 1343SOL     OW15490   0.587   2.820   3.381 -0.4642  0.6872 -0.3149
 1343SOL    HW115491   0.541   2.838   3.299 -0.2063  2.2191 -0.1427
 1343SOL    HW215492   0.562   2.734   3.414 -1.9517  0.4783 -1.9983
 1344SOL     OW15493   1.393   4.716   4.045  0.4297 -0.0102 -0.0447
 1344SOL    HW115494   1.348   0.004   3.961  1.0718  1.8990 -0.0757
 1344SOL    HW215495   1.469   0.044   4.024  0.1929  1.0234  1.7638
 1345SOL     OW15496   3.122   4.453  10.857  0.4772 -0.0462  0.1319
 1345SOL    HW115497   3.033   4.424  10.878  0.6319  0.4964  1.5077
 1345SOL    HW215498   3.127   4.545  10.880 -0.2216  0.2239 -0.8194
 1346SOL     OW15499   1.980   4.088   6.448  0.2530 -0.0282 -0.0126
 1346SOL    HW115500   1.912   4.140   6.405 -1.8303 -2.0142  0.8913
 1346SOL    HW215501   1.990   4.149   6.522 -1.5452 -0.7955  0.8510
 1347SOL     OW15502   0.071   4.111   0.767  0.0998  0.5200  0.4276
 1347SOL    HW115503   0.101   4.020   0.768  0.4366  0.6374  2.0901
 1347SOL    HW215504   0.094   4.133   0.858  0.3596 -1.5230  0.8734
 1348SOL     OW15505   2.792   3.505   5.558 -0.6648 -0.0283 -0.3052
 1348SOL    HW115506   2.759   3.428   5.604  0.0337 -0.5981 -0.7643
 1348SOL    HW215507   2.824   3.558   5.631 -1.0116 -0.6995  0.3382
 1349SOL     OW15508   3.790   3.928   0.065  0.1442 -0.1521  0.3232
 1349SOL    HW115509   3.814   4.014   0.030 -0.5135 -0.4087 -0.7623
 1349SOL    HW215510   3.698   3.947   0.086 -0.2960 -0.5510 -1.2532
 1350SOL     OW15511   3.984   0.993  14.876 -0.3597 -0.2348  0.4167
 1350SOL    HW115512   3.986   0.996  14.972 -0.8001  1.8815  0.3599
 1350SOL    HW215513   4.041   1.068  14.859 -0.5617 -0.0644  0.4896
 1351SOL     OW15514   0.357   1.447   6.351  0.4474  0.4783 -0.0595
 1351SOL    HW115515   0.368   1.508   6.424 -1.0218  1.7841 -0.9294
 1351SOL    HW215516   0.269   1.472   6.322 -0.4242 -1.2115  1.0848
 1352SOL     OW15517   0.652   4.057  14.031 -0.3524 -0.0280 -0.1397
 1352SOL    HW115518   0.616   4.144  14.014  1.5442  1.1120  1.6188
 1352SOL    HW215519   0.594   3.987  14.000  0.7113 -1.6934  1.6603
 1353SOL     OW15520   1.997   2.225  11.557  0.0504 -0.6539  0.5751
 1353SOL    HW115521   2.075   2.280  11.559 -0.4917  0.1388  0.3193
 1353SOL    HW215522   2.002   2.161  11.627  0.0454 -1.1023  0.1625
 1354SOL     OW15523   4.464   2.433   3.504  0.0664 -1.1268  0.0729
 1354SOL    HW115524   4.390   2.449   3.446  0.5678 -0.2797 -0.3395
 1354SOL    HW215525   4.405   2.442   3.578  1.1961 -1.3591  1.0173
 1355SOL     OW15526   1.033   3.915   5.703  0.0552 -0.0363  0.5126
 1355SOL    HW115527   1.017   3.927   5.796 -1.2120  2.5016 -0.0216
 1355SOL    HW215528   1.110   3.968   5.682 -0.1622  1.4234  3.3761
 1356SOL     OW15529   1.522   2.554   4.369 -0.0963 -0.0766 -0.0517
 1356SOL    HW115530   1.516   2.506   4.286  1.2324 -0.0600 -0.1608
 1356SOL    HW215531   1.435   2.596   4.373 -0.6367 -1.4340  2.1084
 1357SOL     OW15532   0.150   1.108  11.853 -0.9666  0.1912 -0.1183
 1357SOL    HW115533   0.130   1.194  11.817 -0.3105  0.4563  0.1674
 1357SOL    HW215534   0.174   1.072  11.768  1.3198 -0.5479  0.8345
 1358SOL     OW15535   2.616   0.435   3.430 -0.2836  0.2811 -0.1040
 1358SOL    HW115536   2.657   0.349   3.439  2.6192  1.6457 -0.3334
 1358SOL    HW215537   2.555   0.408   3.362  0.3365 -0.6994 -0.2812
 1359SOL     OW15538   2.826   1.682   5.928 -0.4873  0.0188 -0.5107
 1359SOL    HW115539   2.754   1.722   5.879  1.2012  1.4893 -1.7848
 1359SOL    HW215540   2.768   1.619   5.971  1.4222 -0.8245  0.7840
 1360SOL     OW15541   2.936   4.689   4.494 -0.2718 -0.9215 -0.5095
 1360SOL    HW115542   2.938   0.038   4.434  2.2183  0.0516  0.8049
 1360SOL    HW215543   3.025   4.694   4.528  1.0027  0.6575 -4.0511
 1361SOL     OW15544   0.625   4.719   2.866  0.6965  0.1166 -0.6402
 1361SOL    HW115545   0.574   4.698   2.944 -2.0343 -0.3819 -2.5522
 1361SOL    HW215546   0.576   4.687   2.789  2.5113  0.5540 -1.9748
 1362SOL     OW15547   2.044   3.226   1.789 -0.5982  0.2980 -0.4389
 1362SOL    HW115548   2.091   3.166   1.848 -1.8967  1.0066  1.3350
 1362SOL    HW215549   1.963   3.229   1.840  0.7494  1.7519  1.5948
 1363SOL     OW15550   3.434   1.171   4.946 -0.4394 -0.2481  0.2940
 1363SOL    HW115551   3.472   1.161   5.033 -1.7733 -2.0840  0.6635
 1363SOL    HW215552   3.436   1.079   4.922  0.1359 -0.3478  0.7297
 1364SOL     OW15553   3.805   2.301   1.215 -0.5942 -0.1405 -0.1561
 1364SOL    HW115554   3.756   2.383   1.216  0.6275  0.6005 -0.9432
 1364SOL    HW215555   3.896   2.325   1.235  0.2136 -2.5930 -0.8321
 1365SOL     OW15556   1.161   4.080   0.182 -0.4219 -0.1339  0.6011
 1365SOL    HW115557   1.213   4.050   0.257 -0.5779 -0.2221  0.6741
 1365SOL    HW215558   1.206   4.046   0.105 -1.1506  0.3843 -0.0552
 1366SOL     OW15559   0.530   3.077   8.525 -0.5998  0.3064 -0.2834
 1366SOL    HW115560   0.616   3.106   8.553 -0.1892 -0.2938 -0.9189
 1366SOL    HW215561   0.487   3.087   8.610 -2.3679 -1.0617 -1.0042
 1367SOL     OW15562   4.234   3.128   6.787 -0.1940  0.3288  0.4504
 1367SOL    HW115563   4.262   3.137   6.878 -0.2343  0.5528  0.4397
 1367SOL    HW215564   4.274   3.209   6.757  3.9225 -1.3398  1.4268
 1368SOL     OW15565   2.680   2.955   2.695 -0.4492 -0.5920 -0.1563
 1368SOL    HW115566   2.649   2.882   2.641  0.7035 -0.3991 -1.0597
 1368SOL    HW215567   2.617   3.020   2.664 -0.6443 -0.3470  0.7425
 1369SOL     OW15568   3.064   2.744  12.555 -0.1232 -0.0307  0.2607
 1369SOL    HW115569   3.046   2.746  12.649 -0.4308  0.5088  0.1903
 1369SOL    HW215570   3.003   2.679  12.521 -1.9598  0.7050  2.1042
 1370SOL     OW15571   0.884   2.099   8.375 -0.5234 -0.2419 -0.3322
 1370SOL    HW115572   0.888   2.015   8.330 -0.5371  0.5786 -1.8578
 1370SOL    HW215573   0.886   2.164   8.305 -0.4152  0.8263  0.6725
 1371SOL     OW15574   2.604   4.708  17.492 -0.0142 -0.1354 -0.5099
 1371SOL    HW115575   2.639   0.071  17.484  1.2045 -0.3834  2.1050
 1371SOL    HW215576   2.559   4.705  17.577 -1.0049  2.3164 -0.9604
 1372SOL     OW15577   4.542   1.881  13.668  0.0628  0.3684  0.2711
 1372SOL    HW115578   4.522   1.965  13.708 -1.5940  0.3749 -0.5465
 1372SOL    HW215579   4.521   1.812  13.731  1.4317  0.5973  0.9755
 1373SOL     OW15580   1.438   1.344   5.026 -0.2272 -0.4933  0.1367
 1373SOL    HW115581   1.512   1.362   4.968 -0.5624  1.2063  0.2171
 1373SOL    HW215582   1.362   1.348   4.967 -0.1314 -0.4171  0.0180
 1374SOL     OW15583   1.880   3.290   9.481  0.3051 -1.0513  0.4617
 1374SOL    HW115584   1.889   3.231   9.406 -1.7847 -1.7966  0.7837
 1374SOL    HW215585   1.788   3.270   9.500 -0.5409  0.8768 -1.5227
 1375SOL     OW15586   4.515   3.360   5.146  0.4079 -0.1690 -0.2197
 1375SOL    HW115587   4.588   3.298   5.150  0.6603  0.1360 -0.1845
 1375SOL    HW215588   4.536   3.426   5.212 -3.2327  0.4595  0.3010
 1376SOL     OW15589   1.915   2.677   3.327  0.0790 -0.0708 -0.1081
 1376SOL    HW115590   1.895   2.602   3.271 -2.8778  0.2980  0.4296
 1376SOL    HW215591   1.995   2.710   3.286 -0.9478  0.0319 -2.0630
 1377SOL     OW15592   0.136   0.039   5.602  0.4991 -0.4466 -0.4904
 1377SOL    HW115593   0.050   0.059   5.640 -0.4492 -2.2909 -1.6688
 1377SOL    HW215594   0.193   0.103   5.645 -0.6739  0.3785 -0.1277
 1378SOL     OW15595   2.507   0.048   6.874  0.5311 -0.0739 -0.0279
 1378SOL    HW115596   2.490   0.128   6.824 -1.6277  1.0082  2.4399
 1378SOL    HW215597   2.602   0.043   6.886  0.3408 -3.9098  0.0705
 1379SOL     OW15598   4.206   1.138   1.691  0.4942 -0.1126  0.1325
 1379SOL    HW115599   4.261   1.115   1.766  1.9048 -2.4085 -1.5750
 1379SOL    HW215600   4.124   1.098   1.717  0.1510 -0.9170 -2.1518
 1380SOL     OW15601   2.831   4.718   0.056  0.5684  0.4036  0.0758
 1380SOL    HW115602   2.901   0.019  17.698  0.6379  1.7887  0.7814
 1380SOL    HW215603   2.799   0.078   0.086 -1.1713 -0.1498 -0.2298
 1381SOL     OW15604   1.239   3.167  13.924  0.1495  0.3704 -0.6462
 1381SOL    HW115605   1.164   3.113  13.949 -0.8096  1.0404 -2.0693
 1381SOL    HW215606   1.235   3.147  13.831  1.7728  2.0917 -1.0911
 1382SOL     OW15607   4.062   1.185   2.056 -0.1888 -0.0516 -0.1000
 1382SOL    HW115608   3.992   1.232   2.101 -0.6135  0.7034 -1.5711
 1382SOL    HW215609   4.127   1.175   2.126 -2.2924 -2.4840  1.4892
 1383SOL     OW15610   3.145   4.307  12.486  0.2429 -0.4161 -0.9770
 1383SOL    HW115611   3.147   4.322  12.391  0.0052  0.6592 -0.8102
 1383SOL    HW215612   3.063   4.351  12.507 -1.1122 -1.1258 -4.8335
 1384SOL     OW15613   4.459   3.122   3.215  0.0775  0.2975  1.3713
 1384SOL    HW115614   4.456   3.035   3.256 -3.0726  0.0635  0.6183
 1384SOL    HW215615   4.407   3.102   3.137  0.7352  0.1640  0.9727
 1385SOL     OW15616   3.057   2.757  16.237  0.2110 -0.1946 -0.8614
 1385SOL    HW115617   3.139   2.754  16.188  0.3224  1.1010 -0.7527
 1385SOL    HW215618   3.020   2.670  16.222 -2.7191  1.1165 -1.4136
 1386SOL     OW15619   2.517   3.271   8.907  0.5169  0.0209 -0.2302
 1386SOL    HW115620   2.474   3.223   8.978  0.9263  1.6817  1.1519
 1386SOL    HW215621   2.519   3.358   8.947  1.8555  0.1138 -0.5159
 1387SOL     OW15622   4.312   3.843   6.633  0.2108  0.7970 -0.7575
 1387SOL    HW115623   4.303   3.760   6.586 -2.3145  0.5830  0.0859
 1387SOL    HW215624   4.406   3.841   6.652  0.0670 -0.9973 -0.2691
 1388SOL     OW15625   0.757   1.577   0.532 -0.3498 -0.1854  0.1790
 1388SOL    HW115626   0.830   1.592   0.472 -1.0871 -0.9218 -0.9079
 1388SOL    HW215627   0.725   1.492   0.501 -0.2442 -0.7252  1.5398
 1389SOL     OW15628   3.722   3.429   1.589  0.4845  0.6499  0.4511
 1389SOL    HW115629   3.649   3.425   1.650 -0.2290 -0.2740 -0.4622
 1389SOL    HW215630   3.733   3.335   1.572  1.8905  0.7483  0.7896
 1390SOL     OW15631   4.221   2.478  15.192 -0.3906  0.7061  0.4098
 1390SOL    HW115632   4.271   2.419  15.136 -1.6976 -0.7591  0.7713
 1390SOL    HW215633   4.217   2.553  15.134  1.0928 -0.4612 -1.2144
 1391SOL     OW15634   0.674   2.187  17.258 -0.2250  0.1240 -0.1234
 1391SOL    HW115635   0.656   2.093  17.266  2.9207 -0.3967  0.7009
 1391SOL    HW215636   0.587   2.219  17.280  0.0717  0.2157  0.9355
 1392SOL     OW15637   1.345   3.833  14.762 -0.1220  0.8260 -0.5439
 1392SOL    HW115638   1.378   3.922  14.774  0.8758  0.1814  1.5918
 1392SOL    HW215639   1.415   3.785  14.807 -0.3591  2.6947  1.8402
 1393SOL     OW15640   0.197   3.124   2.742 -0.3290 -0.3183  0.4001
 1393SOL    HW115641   0.287   3.092   2.745 -0.1968 -0.2138 -3.0972
 1393SOL    HW215642   0.181   3.146   2.651  1.1165 -0.6688  0.0623
 1394SOL     OW15643   1.143   4.004  14.545 -0.2200 -0.5467  0.5830
 1394SOL    HW115644   1.056   3.981  14.514 -0.7030  0.2902  1.3076
 1394SOL    HW215645   1.159   3.918  14.582  2.0002 -0.0481  0.8081
 1395SOL     OW15646   3.577   4.294   7.571 -0.1350 -0.0747 -0.5109
 1395SOL    HW115647   3.507   4.351   7.603 -0.2307 -0.4486 -0.0409
 1395SOL    HW215648   3.650   4.319   7.627 -0.5814  0.8764 -0.3516
 1396SOL     OW15649   4.137   1.162   4.046 -0.1266 -0.3899  0.2383
 1396SOL    HW115650   4.081   1.183   4.121  1.1743 -0.2304  1.1728
 1396SOL    HW215651   4.209   1.225   4.055  1.3136 -2.0388  0.1906
 1397SOL     OW15652   0.857   3.961  12.853  0.0294 -0.1464 -0.1238
 1397SOL    HW115653   0.914   3.964  12.776  1.4186 -1.3467  0.8618
 1397SOL    HW215654   0.776   3.998  12.818  0.0272 -0.9509 -0.9785
 1398SOL     OW15655   2.585   4.420   4.837 -0.1884 -0.3582 -0.2485
 1398SOL    HW115656   2.506   4.375   4.867 -0.9201  1.0815 -0.0271
 1398SOL    HW215657   2.547   4.488   4.781  1.0536 -0.6391 -1.4222
 1399SOL     OW15658   4.391   0.499  15.019 -0.3620 -0.1504  0.2196
 1399SOL    HW115659   4.451   0.440  15.065  0.4376  0.3155 -0.2288
 1399SOL    HW215660   4.344   0.545  15.090 -0.8549 -2.0384  1.1093
 1400SOL     OW15661   1.270   3.416  14.029  0.2877  0.1979  0.0242
 1400SOL    HW115662   1.312   3.378  14.106  2.0741 -0.9002 -1.4714
 1400SOL    HW215663   1.239   3.340  13.979 -1.2108  0.0268  1.2347
 1401SOL     OW15664   2.934   0.761  10.771  0.7040  0.0243 -0.1554
 1401SOL    HW115665   2.913   0.728  10.858 -0.4411 -1.8513 -1.1449
 1401SOL    HW215666   2.856   0.739  10.720  1.9857  1.6826 -2.8440
 1402SOL     OW15667   3.806   1.431   4.290 -0.2706  0.0751  0.0921
 1402SOL    HW115668   3.793   1.524   4.307 -4.7410 -0.5876  0.3197
 1402SOL    HW215669   3.720   1.389   4.301 -0.5533  1.6357  3.6602
 1403SOL     OW15670   4.410   2.402   3.132  0.0821 -0.5964  0.1923
 1403SOL    HW115671   4.347   2.469   3.108  1.8621  1.5010  1.3839
 1403SOL    HW215672   4.493   2.438   3.101 -0.3844 -0.0863 -0.4422
 1404SOL     OW15673   1.792   4.576  13.480  0.3109 -0.4349  0.1920
 1404SOL    HW115674   1.780   4.596  13.388  1.1558  4.0408  1.0590
 1404SOL    HW215675   1.744   4.494  13.491  0.2330 -0.3166  0.7366
 1405SOL     OW15676   2.810   3.234  10.054  0.2781  0.2015 -0.4831
 1405SOL    HW115677   2.777   3.183   9.980 -1.1959 -0.7565  0.8124
 1405SOL    HW215678   2.828   3.164  10.117  3.2598  1.4075  0.0098
 1406SOL     OW15679   2.138   2.081   1.787 -0.3494  0.0751 -0.0116
 1406SOL    HW115680   2.192   2.018   1.834  1.1436  0.7475 -0.8137
 1406SOL    HW215681   2.047   2.057   1.803 -0.3714 -0.5776 -1.1834
 1407SOL     OW15682   3.747   4.688   4.846 -0.3782  0.3034  0.3343
 1407SOL    HW115683   3.669   4.659   4.800 -0.2095 -2.2164  1.6547
 1407SOL    HW215684   3.724   0.054   4.866 -0.8108  0.3028 -0.1490
 1408SOL     OW15685   3.476   2.311   6.466  0.4704  0.3053 -0.4369
 1408SOL    HW115686   3.473   2.285   6.558 -2.8020 -2.9218 -1.4943
 1408SOL    HW215687   3.405   2.256   6.434 -0.1509  0.7901  0.0959
 1409SOL     OW15688   2.401   2.108   6.829  0.5035 -0.5303  0.5886
 1409SOL    HW115689   2.392   2.203   6.841 -1.4930 -0.7744  0.9764
 1409SOL    HW215690   2.471   2.095   6.892  0.3321  0.2096  0.9359
 1410SOL     OW15691   3.478   2.415  15.675 -0.1066 -0.2445  0.3549
 1410SOL    HW115692   3.425   2.493  15.658  1.3792  0.3013 -1.8196
 1410SOL    HW215693   3.436   2.359  15.609 -0.2886 -0.2078  0.4391
 1411SOL     OW15694   4.252   2.819   8.299 -0.1611  0.2091  0.1131
 1411SOL    HW115695   4.206   2.792   8.378  0.2107  0.9875  0.5981
 1411SOL    HW215696   4.342   2.826   8.329  0.5784  0.6905 -2.2157
 1412SOL     OW15697   3.283   2.554   1.204  0.3084 -0.1715 -0.1371
 1412SOL    HW115698   3.313   2.464   1.214  1.6253  0.3688  0.7231
 1412SOL    HW215699   3.338   2.589   1.133  0.4245  1.3251  0.6955
 1413SOL     OW15700   0.725   1.816  11.591 -0.4047 -0.5395  0.4031
 1413SOL    HW115701   0.639   1.777  11.575  1.0742 -4.1838  1.2687
 1413SOL    HW215702   0.743   1.869  11.513  1.7927 -0.7997  0.7125
 1414SOL     OW15703   1.744   0.051   4.684 -0.1230  0.0918  0.4096
 1414SOL    HW115704   1.702   0.035   4.600  3.9931 -0.1866 -1.5998
 1414SOL    HW215705   1.815   0.112   4.669  2.1115 -3.1425 -2.2096
 1415SOL     OW15706   4.658   3.015   8.511  0.0500 -0.1292  0.7063
 1415SOL    HW115707   4.709   2.976   8.582 -0.8947 -2.5091  0.0786
 1415SOL    HW215708   4.664   3.108   8.531 -2.7742 -0.6111  3.6642
 1416SOL     OW15709   1.873   2.291   0.747  0.3892 -0.7417  0.5077
 1416SOL    HW115710   1.818   2.217   0.771 -1.1744 -0.6763 -2.8999
 1416SOL    HW215711   1.837   2.316   0.662 -0.3598 -1.6539  0.5546
 1417SOL     OW15712   0.457   3.500   8.826 -0.0442 -0.4244  0.0815
 1417SOL    HW115713   0.397   3.426   8.813 -1.5595  1.0248 -1.1762
 1417SOL    HW215714   0.441   3.551   8.747 -3.8511  0.6652  1.5397
 1418SOL     OW15715   1.461   3.055   5.562 -0.2676 -0.5261  0.7437
 1418SOL    HW115716   1.428   2.979   5.611  1.3420 -3.8610 -3.3556
 1418SOL    HW215717   1.467   3.025   5.471  0.0970 -2.5873  1.4456
 1419SOL     OW15718   0.714   0.238   6.868  0.0302 -0.2932 -0.1217
 1419SOL    HW115719   0.668   0.278   6.942  1.4935  1.0577  0.0849
 1419SOL    HW215720   0.738   0.150   6.897  0.7865  0.0926  0.4318
 1420SOL     OW15721   0.072   1.739  12.312 -0.1165  0.2477 -0.2979
 1420SOL    HW115722   0.040   1.773  12.228 -1.5276 -0.4126 -0.0240
 1420SOL    HW215723   0.148   1.695  12.272 -0.4193 -0.1647 -0.4235
 1421SOL     OW15724   0.587   0.129   5.052 -0.0930  0.2337  0.3077
 1421SOL    HW115725   0.611   0.039   5.073 -0.1544 -0.2314 -1.6066
 1421SOL    HW215726   0.630   0.133   4.967  1.4132 -0.0919  1.0593
 1422SOL     OW15727   3.954   0.611   5.829  0.0131 -0.3166 -0.1527
 1422SOL    HW115728   3.901   0.534   5.810  0.4606 -0.8380  0.7191
 1422SOL    HW215729   3.998   0.619   5.744 -0.3979  1.9803 -0.1556
 1423SOL     OW15730   0.776   3.483   4.222 -0.1550  0.7163  0.0153
 1423SOL    HW115731   0.804   3.402   4.182 -5.1485 -0.7105 -0.6073
 1423SOL    HW215732   0.719   3.459   4.295 -1.4597 -0.0817 -1.2705
 1424SOL     OW15733   0.733   4.011   4.804  0.2574  0.1259  0.0227
 1424SOL    HW115734   0.682   4.089   4.779 -0.2615  0.2765  1.5176
 1424SOL    HW215735   0.818   4.055   4.806  0.7869 -0.9174  0.1725
 1425SOL     OW15736   0.094   3.542   6.899  0.6249  0.0996 -0.0683
 1425SOL    HW115737   0.083   3.605   6.970  2.1991 -0.8667  1.0426
 1425SOL    HW215738   0.165   3.587   6.853 -0.8310  1.7112 -0.7545
 1426SOL     OW15739   0.970   1.132   3.404  0.9213 -0.6346  0.1504
 1426SOL    HW115740   0.990   1.102   3.315  1.3906  2.1507 -0.6850
 1426SOL    HW215741   0.953   1.225   3.390 -0.2572 -0.8561  0.1104
 1427SOL     OW15742   1.183   0.707   6.878 -0.2333 -0.4663  0.3931
 1427SOL    HW115743   1.094   0.718   6.844  0.4507 -0.7389 -1.4733
 1427SOL    HW215744   1.215   0.791   6.847  3.2358 -1.6423  0.7601
 1428SOL     OW15745   3.256   0.767   8.471 -0.3871 -0.2044 -0.1582
 1428SOL    HW115746   3.333   0.789   8.523  1.3464  0.1801 -2.8936
 1428SOL    HW215747   3.286   0.705   8.404 -0.9174 -0.8829  0.2342
 1429SOL     OW15748   3.263   3.854   2.253  0.1961  0.5760  0.6118
 1429SOL    HW115749   3.316   3.900   2.188  1.1104 -0.3313  0.7037
 1429SOL    HW215750   3.186   3.905   2.231 -0.3635 -0.1409  0.9003
 1430SOL     OW15751   3.856   1.876  12.330 -0.0136 -0.0494  0.0238
 1430SOL    HW115752   3.832   1.878  12.237  0.3622 -0.7628 -0.0956
 1430SOL    HW215753   3.820   1.791  12.357  0.3113  0.2284  1.2779
 1431SOL     OW15754   2.575   3.347   1.145 -0.2531  0.2302  0.4594
 1431SOL    HW115755   2.649   3.287   1.140 -0.2052  0.2145  1.4423
 1431SOL    HW215756   2.578   3.388   1.058 -0.1674  0.9415  0.7982
 1432SOL     OW15757   3.412   1.871   2.691 -0.3374 -0.3352 -0.1929
 1432SOL    HW115758   3.370   1.879   2.605 -0.7752 -0.3217  0.0193
 1432SOL    HW215759   3.344   1.912   2.745  0.3460 -0.9128  1.0881
 1433SOL     OW15760   1.490   4.031   5.275 -0.0600 -0.3612 -0.4148
 1433SOL    HW115761   1.517   3.939   5.274 -1.4888 -0.7678 -1.8208
 1433SOL    HW215762   1.559   4.078   5.228 -1.4913  0.0044 -2.1593
 1434SOL     OW15763   3.535   1.861  13.411 -0.0886 -0.3896  0.1657
 1434SOL    HW115764   3.504   1.834  13.324 -1.9917  0.3676  0.6124
 1434SOL    HW215765   3.519   1.955  13.406 -0.3602 -0.5654 -2.4874
 1435SOL     OW15766   1.541   3.002   8.816  0.0594 -0.1805 -0.1553
 1435SOL    HW115767   1.626   2.961   8.800 -0.1095 -1.3027  1.8491
 1435SOL    HW215768   1.510   3.027   8.729 -0.3267 -1.0249 -0.2552
 1436SOL     OW15769   0.263   0.627  15.469 -0.3332 -0.7405 -0.3936
 1436SOL    HW115770   0.306   0.573  15.535 -2.5718 -1.5451  0.4206
 1436SOL    HW215771   0.274   0.582  15.385 -0.8764 -0.5594 -0.5641
 1437SOL     OW15772   2.971   4.283   8.112 -0.0393  0.2793  0.5223
 1437SOL    HW115773   2.914   4.320   8.179  0.4787  2.9759 -0.5333
 1437SOL    HW215774   3.032   4.350   8.082 -0.2629  0.1190 -0.2667
 1438SOL     OW15775   0.434   1.476  13.630  0.2273 -0.2150  0.2801
 1438SOL    HW115776   0.513   1.528  13.645  0.3701 -0.0775 -0.9312
 1438SOL    HW215777   0.367   1.545  13.635 -0.7566 -1.1765  0.5137
 1439SOL     OW15778   3.483   0.330   3.342 -0.0954 -0.0827  0.4153
 1439SOL    HW115779   3.548   0.259   3.340  1.5080  1.3755  1.1843
 1439SOL    HW215780   3.462   0.353   3.252 -0.1674  0.1819  0.4999
 1440SOL     OW15781   1.787   2.974  12.948  0.5773 -0.6126  0.7245
 1440SOL    HW115782   1.706   2.950  12.902  0.7385  3.1753 -1.5368
 1440SOL    HW215783   1.815   3.042  12.887  0.4607  1.0117  2.4553
 1441SOL     OW15784   0.504   3.746   1.892  0.1647 -0.6604  0.2129
 1441SOL    HW115785   0.485   3.827   1.845  1.3668 -0.3819  0.2219
 1441SOL    HW215786   0.527   3.776   1.980  1.7947 -1.5261  0.0647
 1442SOL     OW15787   1.016   0.822  15.770 -0.3755  0.4529  0.4808
 1442SOL    HW115788   1.093   0.834  15.715 -0.4059 -1.7960 -0.0645
 1442SOL    HW215789   1.031   0.875  15.848  0.2375  2.1899 -0.8103
 1443SOL     OW15790   4.084   0.253   0.267 -0.0307  0.0459 -0.1507
 1443SOL    HW115791   4.011   0.207   0.308 -0.1654 -0.5650 -1.0818
 1443SOL    HW215792   4.035   0.308   0.206  0.5174  0.4861 -0.1944
 1444SOL     OW15793   3.752   2.303  13.010  0.2387 -0.7761 -0.4233
 1444SOL    HW115794   3.777   2.216  13.041  1.6037 -0.7428 -1.4490
 1444SOL    HW215795   3.772   2.283  12.919 -2.2568  1.0417 -1.3719
 1445SOL     OW15796   1.978   3.283   8.630  0.6719  0.8128  0.3663
 1445SOL    HW115797   1.981   3.262   8.724 -1.7403  0.3167  0.3171
 1445SOL    HW215798   1.954   3.376   8.638  0.9080  0.8467  0.6958
 1446SOL     OW15799   2.551   2.250   2.733  0.2128 -0.3810  0.6637
 1446SOL    HW115800   2.478   2.253   2.796 -1.0364 -1.1261 -0.7433
 1446SOL    HW215801   2.544   2.158   2.707  1.8601  0.0490 -1.3290
 1447SOL     OW15802   3.048   3.341   2.160  0.2698  0.3479 -0.1931
 1447SOL    HW115803   3.082   3.280   2.225  0.4739  0.9340  0.2460
 1447SOL    HW215804   3.051   3.302   2.072  0.5232  1.4230 -0.6563
 1448SOL     OW15805   1.135   2.157   6.838  0.4395  0.7561  0.3687
 1448SOL    HW115806   1.131   2.132   6.930  2.1807  1.0447  0.5260
 1448SOL    HW215807   1.047   2.191   6.822  0.3490  0.7058  0.7796
 1449SOL     OW15808   0.866   3.078   2.635  0.7618  0.1379  0.0563
 1449SOL    HW115809   0.951   3.078   2.591 -0.8321 -2.0676 -2.9672
 1449SOL    HW215810   0.890   3.132   2.711  0.3782  2.3161 -1.3838
 1450SOL     OW15811   4.403   1.219  14.953  0.2935  0.1947 -0.0751
 1450SOL    HW115812   4.460   1.234  14.877 -0.9324  2.9451 -0.4533
 1450SOL    HW215813   4.433   1.282  15.019 -2.2079  0.2577  0.9897
 1451SOL     OW15814   2.583   1.233  12.087 -0.2264  0.2104  0.5072
 1451SOL    HW115815   2.500   1.217  12.131 -0.3122 -3.4205 -0.9185
 1451SOL    HW215816   2.623   1.290  12.153  1.9505 -1.4359  0.6353
 1452SOL     OW15817   3.731   1.051  14.763 -0.2553 -0.4634  0.0685
 1452SOL    HW115818   3.803   1.004  14.805 -0.4710 -2.0998 -1.4085
 1452SOL    HW215819   3.705   1.109  14.835 -1.0807 -1.0546  0.2445
 1453SOL     OW15820   1.018   0.639   0.408 -0.3344  0.5356 -0.3156
 1453SOL    HW115821   1.094   0.609   0.358  0.8724  0.5418  1.4955
 1453SOL    HW215822   1.008   0.574   0.478 -0.3425 -1.1945 -1.9147
 1454SOL     OW15823   0.845   3.055  17.287 -0.2557  0.1816  0.0461
 1454SOL    HW115824   0.874   3.117  17.353 -1.4168  0.6974  0.0669
 1454SOL    HW215825   0.930   3.019  17.262 -1.0535 -1.6683 -0.0558
 1455SOL     OW15826   4.604   0.324   1.684 -0.3206 -0.9644 -0.2272
 1455SOL    HW115827   4.533   0.335   1.747  2.6416  0.2114  2.9149
 1455SOL    HW215828   4.575   0.237   1.656  0.8162 -0.6786 -2.3250
 1456SOL     OW15829   4.450   2.353   5.849 -0.1134 -0.3001  0.0934
 1456SOL    HW115830   4.459   2.440   5.811 -2.1485  0.1380  0.6154
 1456SOL    HW215831   4.537   2.328   5.818  0.7367  2.9116 -0.0078
 1457SOL     OW15832   3.426   3.870  11.048 -0.3210  0.1237 -0.0717
 1457SOL    HW115833   3.473   3.813  11.110 -3.6716 -1.1388  1.2875
 1457SOL    HW215834   3.334   3.862  11.071 -0.2910  0.8470  0.3021
 1458SOL     OW15835   0.819   1.109   3.966 -0.0926  0.1590  0.1653
 1458SOL    HW115836   0.818   1.205   3.967 -0.1357  0.1232  2.4875
 1458SOL    HW215837   0.888   1.101   3.900  0.1329  2.6601  0.0666
 1459SOL     OW15838   0.181   4.505   8.078 -0.2809  0.2733  0.0536
 1459SOL    HW115839   0.094   4.476   8.049 -0.9542  1.0218  1.3057
 1459SOL    HW215840   0.173   4.505   8.174  2.2497  0.5583  0.2717
 1460SOL     OW15841   4.042   4.494   6.130  0.0399 -0.3398  0.2227
 1460SOL    HW115842   4.064   4.440   6.206  1.1792  1.2202  0.9975
 1460SOL    HW215843   4.043   4.421   6.068 -0.8368 -1.6505  1.7204
 1461SOL     OW15844   1.955   2.888  15.648  0.4119 -0.2441  0.2086
 1461SOL    HW115845   1.865   2.866  15.622  0.9033  0.2597 -1.9101
 1461SOL    HW215846   1.946   2.970  15.695  1.5751 -0.5747  1.0160
 1462SOL     OW15847   0.704   0.390   4.372 -0.8819 -0.4318 -0.4450
 1462SOL    HW115848   0.778   0.441   4.406 -1.3587 -0.7888  1.1138
 1462SOL    HW215849   0.681   0.436   4.291  3.7741 -0.0564 -1.5618
 1463SOL     OW15850   1.394   3.023  17.348  0.0178  0.2036 -0.4432
 1463SOL    HW115851   1.447   2.986  17.277 -1.5659 -0.7789 -1.0965
 1463SOL    HW215852   1.386   2.949  17.408  3.5022 -1.6028 -2.1906
 1464SOL     OW15853   2.598   0.322   7.200  0.4805  0.1284  0.0386
 1464SOL    HW115854   2.582   0.396   7.141 -3.7186 -1.1257 -0.4206
 1464SOL    HW215855   2.689   0.318   7.228  0.5271  1.5027  0.0823
 1465SOL     OW15856   3.690   3.704   3.143  0.1637  0.1978 -0.3220
 1465SOL    HW115857   3.631   3.685   3.216 -1.4412  0.6386 -1.5025
 1465SOL    HW215858   3.631   3.694   3.068 -1.2733 -1.4538  1.0300
 1466SOL     OW15859   4.077   2.535   2.587  0.1763  0.3928 -0.3125
 1466SOL    HW115860   4.081   2.493   2.501 -2.0073  0.7737 -0.5928
 1466SOL    HW215861   4.103   2.457   2.637 -2.0923 -0.4836 -0.4929
 1467SOL     OW15862   4.217   1.856   5.168 -0.1448  1.4323 -0.8383
 1467SOL    HW115863   4.291   1.819   5.119 -1.3115 -1.7622 -0.1919
 1467SOL    HW215864   4.139   1.829   5.119  0.7672  0.0124 -1.5222
 1468SOL     OW15865   0.389   2.243   3.371  0.5014  0.1824  0.0198
 1468SOL    HW115866   0.329   2.177   3.405  3.5776 -1.9755  1.1771
 1468SOL    HW215867   0.475   2.213   3.400  1.0881  1.6645 -0.1794
 1469SOL     OW15868   2.542   0.782   4.561  0.2570 -0.2520  0.2368
 1469SOL    HW115869   2.637   0.788   4.554  0.3388 -1.7690 -0.0968
 1469SOL    HW215870   2.515   0.845   4.494  2.6086  0.0381 -0.4510
 1470SOL     OW15871   4.568   0.670  10.611  0.0428 -1.0101  0.1783
 1470SOL    HW115872   4.602   0.721  10.685 -0.2281 -0.0798 -0.3368
 1470SOL    HW215873   4.564   0.728  10.535 -1.2238 -0.2024  0.8583
 1471SOL     OW15874   2.897   4.596   2.714 -0.1754 -0.7335 -0.1684
 1471SOL    HW115875   2.826   4.576   2.776  0.5242  0.9342  1.1639
 1471SOL    HW215876   2.851   4.636   2.641 -0.1509  0.6881  0.6030
 1472SOL     OW15877   1.097   1.055  14.042 -0.4911  0.0150 -0.3458
 1472SOL    HW115878   1.160   1.037  14.112 -0.1252  1.3079 -0.3407
 1472SOL    HW215879   1.099   1.151  14.043  1.5285 -0.0639  2.7942
 1473SOL     OW15880   1.267   4.640   7.426  0.2684 -0.0458 -0.3486
 1473SOL    HW115881   1.229   4.611   7.509  0.6737  0.6949  0.0937
 1473SOL    HW215882   1.195   4.699   7.405 -1.5980 -1.7357  1.2616
 1474SOL     OW15883   3.385   3.396   2.006 -0.7172  0.1192  0.2536
 1474SOL    HW115884   3.356   3.471   2.058 -1.4385 -2.2426  3.2711
 1474SOL    HW215885   3.454   3.368   2.066 -0.7852 -1.1795 -0.2582
 1475SOL     OW15886   1.094   0.217   4.307  0.4782  0.1002 -0.2324
 1475SOL    HW115887   1.008   0.211   4.264 -0.7003  2.7210  1.8270
 1475SOL    HW215888   1.100   0.280   4.379  0.0042 -1.6129  1.3066
 1476SOL     OW15889   4.102   0.614   7.488  0.1263 -0.4626 -0.0358
 1476SOL    HW115890   4.154   0.535   7.501  0.5536  0.2500  2.5929
 1476SOL    HW215891   4.166   0.685   7.485  0.8180 -1.0961 -0.4015
 1477SOL     OW15892   2.660   2.394   5.583  0.3620  0.5839  0.1876
 1477SOL    HW115893   2.707   2.400   5.666  1.2602  1.7616 -0.4106
 1477SOL    HW215894   2.680   2.483   5.555  1.8018  0.2602  0.1939
 1478SOL     OW15895   1.798   4.651   7.336 -0.0326  0.1177  0.0446
 1478SOL    HW115896   1.886   4.642   7.372  0.4766 -0.1654 -1.2784
 1478SOL    HW215897   1.789   0.020   7.345 -2.6923 -0.4819  4.0389
 1479SOL     OW15898   0.815   1.087   0.412  0.0125  0.1819 -0.3660
 1479SOL    HW115899   0.894   1.036   0.433  0.4923  1.3389  0.6874
 1479SOL    HW215900   0.792   1.047   0.328 -2.2255  0.2286  0.2199
 1480SOL     OW15901   0.016   2.764   5.782 -0.0775 -0.1768  0.1779
 1480SOL    HW115902   4.692   2.692   5.740  0.6819 -0.5582 -0.0544
 1480SOL    HW215903   0.079   2.788   5.714 -0.1549 -1.1937 -0.2560
 1481SOL     OW15904   3.879   1.295   3.118 -0.0271  0.2077  0.1442
 1481SOL    HW115905   3.850   1.255   3.200  0.1385 -0.3347 -0.0661
 1481SOL    HW215906   3.826   1.249   3.053  1.5226 -0.7223 -0.4652
 1482SOL     OW15907   2.286   0.812   2.664  0.6471  0.3865  0.4958
 1482SOL    HW115908   2.369   0.782   2.625 -2.0258 -1.6489 -3.5769
 1482SOL    HW215909   2.252   0.845   2.581  1.3796  3.9900  1.6226
 1483SOL     OW15910   4.655   4.218   2.513 -0.4649  0.1616  0.1171
 1483SOL    HW115911   4.600   4.296   2.508 -2.4254 -1.4909 -3.6593
 1483SOL    HW215912   0.013   4.251   2.479 -1.7631  0.6871 -2.5397
 1484SOL     OW15913   0.576   0.786   2.355 -0.3877 -0.2012 -0.2570
 1484SOL    HW115914   0.666   0.814   2.373 -1.0905 -0.1966  3.4142
 1484SOL    HW215915   0.546   0.774   2.445  3.0704  1.2289  1.0964
 1485SOL     OW15916   0.345   4.455   6.078  0.1868 -0.8044 -0.3463
 1485SOL    HW115917   0.329   4.519   6.009  1.5399  0.0302  0.1079
 1485SOL    HW215918   0.350   4.513   6.154  3.0503 -1.1245 -0.2835
 1486SOL     OW15919   0.920   2.085   2.040 -0.1791 -0.4685  0.0081
 1486SOL    HW115920   0.872   2.039   2.109  1.5086 -2.6098 -0.2553
 1486SOL    HW215921   0.903   2.013   1.979 -0.6713 -2.1269  2.1048
 1487SOL     OW15922   2.059   0.634   2.517  0.3669  0.4658 -0.7398
 1487SOL    HW115923   2.073   0.725   2.492  0.9911  0.3817 -0.6956
 1487SOL    HW215924   2.044   0.648   2.610  0.5890  2.2819 -0.9822
 1488SOL     OW15925   2.107   4.111   8.607 -0.5789  0.3610  1.1182
 1488SOL    HW115926   2.190   4.143   8.572 -0.3240 -1.0517  0.4765
 1488SOL    HW215927   2.046   4.143   8.540 -0.3614 -0.0730  0.7121
 1489SOL     OW15928   3.218   4.269   9.555 -0.0842  0.0004 -0.0156
 1489SOL    HW115929   3.243   4.340   9.613  1.0055 -0.9283  0.6410
 1489SOL    HW215930   3.137   4.246   9.601  0.0622 -2.9744 -1.2370
 1490SOL     OW15931   3.599   1.743  14.967 -0.2199 -0.9146 -0.3817
 1490SOL    HW115932   3.535   1.794  15.017  0.8090 -0.6798  0.7207
 1490SOL    HW215933   3.603   1.798  14.889 -0.3456 -0.0209  0.2358
 1491SOL     OW15934   1.341   3.633   7.147  0.0221  0.7515 -0.1139
 1491SOL    HW115935   1.320   3.614   7.056  0.4154 -0.2028 -0.0121
 1491SOL    HW215936   1.427   3.592   7.157 -0.1202  0.5810  0.4594
 1492SOL     OW15937   3.389   0.929   2.368 -0.0662  0.0653  0.2139
 1492SOL    HW115938   3.376   0.965   2.456  1.3617  1.8800 -0.3333
 1492SOL    HW215939   3.300   0.917   2.333  0.5866  0.9694 -1.7516
 1493SOL     OW15940   2.072   2.524   2.889 -0.4996  0.1466 -1.1741
 1493SOL    HW115941   2.111   2.531   2.802  0.3799  2.0868 -0.6189
 1493SOL    HW215942   2.024   2.607   2.897  1.3894  1.0250  0.9174
 1494SOL     OW15943   1.220   3.168   9.693  0.0697  0.0545 -0.4397
 1494SOL    HW115944   1.154   3.210   9.747 -0.9898 -1.7437 -0.3353
 1494SOL    HW215945   1.197   3.075   9.701  0.6479  0.2859  4.3262
 1495SOL     OW15946   2.743   2.721   7.817 -0.1772  0.4914  0.9180
 1495SOL    HW115947   2.789   2.805   7.814 -0.0480  0.3768 -0.3687
 1495SOL    HW215948   2.661   2.742   7.861 -1.3946  0.7807 -1.5162
 1496SOL     OW15949   2.702   3.439  14.883 -0.0591 -0.8644 -0.8249
 1496SOL    HW115950   2.698   3.454  14.978 -0.5051  0.9318 -1.1146
 1496SOL    HW215951   2.780   3.493  14.870 -0.6323  0.9975  3.3180
 1497SOL     OW15952   0.977   2.725   2.629 -0.4374  0.3866 -0.1143
 1497SOL    HW115953   0.885   2.747   2.617 -0.8305 -2.0856 -1.6284
 1497SOL    HW215954   1.028   2.790   2.580  1.9358 -0.6475  0.9799
 1498SOL     OW15955   0.396   1.349   0.760  0.1547 -0.2506  0.3333
 1498SOL    HW115956   0.448   1.342   0.840  3.6622  0.8401 -1.8516
 1498SOL    HW215957   0.450   1.289   0.708 -0.6574  1.3223 -2.2862
 1499SOL     OW15958   4.064   2.379  10.390 -0.2531  0.4200  0.0880
 1499SOL    HW115959   4.080   2.470  10.367 -2.2472  1.0623  1.2305
 1499SOL    HW215960   4.104   2.366  10.476  1.1728 -1.5946 -0.8694
 1500SOL     OW15961   3.484   0.493  15.982 -0.5436  0.2030  0.0385
 1500SOL    HW115962   3.522   0.573  16.019  2.3840 -0.3231 -1.9197
 1500SOL    HW215963   3.508   0.505  15.890 -0.9154 -1.4941 -0.2757
 1501SOL     OW15964   4.087   1.217  12.497 -0.0863 -0.3636  0.1491
 1501SOL    HW115965   4.182   1.227  12.495 -0.1749  0.4448  0.1307
 1501SOL    HW215966   4.087   1.153  12.426  0.2013  1.2897 -1.3373
 1502SOL     OW15967   0.003   3.577   4.184  0.1194 -0.0716  0.1775
 1502SOL    HW115968   0.029   3.553   4.273  1.9308  1.5265  0.0821
 1502SOL    HW215969   0.034   3.504   4.130  0.9862 -0.5833  1.3539
 1503SOL     OW15970   1.253   3.977   4.422  0.5744  0.0465 -0.0786
 1503SOL    HW115971   1.292   3.963   4.508  0.2457  3.1692  0.5679
 1503SOL    HW215972   1.332   4.001   4.373 -0.1663  1.3314 -0.6465
 1504SOL     OW15973   4.127   1.241  14.899 -0.0955  0.4484  0.0518
 1504SOL    HW115974   4.220   1.223  14.912 -0.0326 -0.2909 -1.4899
 1504SOL    HW215975   4.128   1.316  14.839  0.4656  1.3623  1.1828
 1505SOL     OW15976   2.998   3.142   8.186  0.0485 -0.0611 -0.3312
 1505SOL    HW115977   3.000   3.047   8.172 -0.6794 -0.3104  1.3067
 1505SOL    HW215978   3.091   3.164   8.182  0.1717 -0.7222 -1.1547
 1506SOL     OW15979   4.118   1.319   2.545  0.2327  0.1340 -0.4560
 1506SOL    HW115980   4.165   1.364   2.616 -0.6556  0.4769 -0.0813
 1506SOL    HW215981   4.140   1.367   2.466  0.4630  0.2159 -0.3434
 1507SOL     OW15982   0.926   2.998  11.459 -0.2573  0.0938 -0.4519
 1507SOL    HW115983   0.872   2.973  11.534  1.8226 -2.2798  0.2219
 1507SOL    HW215984   0.865   3.033  11.393 -0.9983  1.6425  1.0620
 1508SOL     OW15985   4.329   2.120   3.017  0.1051  0.3592 -0.1938
 1508SOL    HW115986   4.384   2.180   3.067 -0.4389  0.0654  0.7549
 1508SOL    HW215987   4.385   2.044   3.006 -1.3968 -0.8938  0.8428
 1509SOL     OW15988   3.517   4.482   8.201 -0.0226 -0.3972  0.2605
 1509SOL    HW115989   3.552   4.508   8.116 -0.5505 -0.1976  0.1107
 1509SOL    HW215990   3.594   4.440   8.240 -0.3502 -2.0751 -0.9163
 1510SOL     OW15991   2.680   0.717   7.636 -0.1533  0.3578  0.1383
 1510SOL    HW115992   2.745   0.763   7.688 -0.7473  1.7519 -0.3486
 1510SOL    HW215993   2.642   0.665   7.706 -0.6073  0.0519 -0.3318
 1511SOL     OW15994   4.504   4.020   5.681 -0.3606  0.0977  0.0108
 1511SOL    HW115995   4.513   4.058   5.593  0.4874  0.1745  0.1312
 1511SOL    HW215996   4.545   4.087   5.735  1.3127 -1.2252  0.3685
 1512SOL     OW15997   0.605   1.907  11.901  0.7718  0.4821  0.1886
 1512SOL    HW115998   0.664   1.944  11.967 -0.1251  1.2466  0.5546
 1512SOL    HW215999   0.653   1.903  11.818  1.2404 -1.1167  0.5453
 1513SOL     OW16000   2.766   3.760  11.378 -0.0277  0.5663 -0.0617
 1513SOL    HW116001   2.707   3.729  11.309  2.0760 -2.6519 -0.4593
 1513SOL    HW216002   2.742   3.715  11.459  0.9347 -1.2611 -0.7836
 1514SOL     OW16003   4.385   3.650   5.385 -0.3431  0.2164  0.1875
 1514SOL    HW116004   4.358   3.567   5.424  4.9887  0.6093  4.6633
 1514SOL    HW216005   4.319   3.658   5.315 -1.0311 -0.3188  0.7657
 1515SOL     OW16006   1.640   0.614   5.624  0.0907  0.0354  0.2968
 1515SOL    HW116007   1.666   0.678   5.690  3.6582  0.5756 -1.6398
 1515SOL    HW216008   1.672   0.535   5.668 -1.3582 -0.6964  0.0402
 1516SOL     OW16009   3.762   1.166   1.780  0.1843  0.3298  0.2753
 1516SOL    HW116010   3.845   1.208   1.754  0.7511 -1.0483 -0.1468
 1516SOL    HW216011   3.720   1.243   1.817 -2.2264 -2.6037  3.6573
 1517SOL     OW16012   3.532   2.469  10.176  0.0553  0.0216 -0.2862
 1517SOL    HW116013   3.455   2.414  10.158  0.2592 -0.1512 -0.6246
 1517SOL    HW216014   3.504   2.516  10.255  0.5422  1.0145 -0.7102
 1518SOL     OW16015   1.048   2.243   3.686 -0.7099 -0.0702  0.2023
 1518SOL    HW116016   1.075   2.246   3.594 -1.4191  0.5849  0.0181
 1518SOL    HW216017   0.958   2.212   3.679 -1.0386  0.9360  0.0804
 1519SOL     OW16018   0.355   0.076  16.315 -0.5467 -0.6442 -0.0949
 1519SOL    HW116019   0.275   0.103  16.271  0.8172  2.2433 -0.8078
 1519SOL    HW216020   0.340   4.707  16.312  1.0211 -0.8199 -2.0463
 1520SOL     OW16021   0.856   2.751   8.050  0.2905 -0.1369 -0.6998
 1520SOL    HW116022   0.905   2.826   8.019  1.1633  0.1536  1.4229
 1520SOL    HW216023   0.794   2.744   7.977 -0.4491 -2.0354  0.0974
 1521SOL     OW16024   3.523   1.040   7.938 -0.5508  0.3715  0.7452
 1521SOL    HW116025   3.618   1.032   7.927 -0.0330  2.6713  3.4697
 1521SOL    HW216026   3.492   1.067   7.852 -1.1193 -0.0749  0.8147
 1522SOL     OW16027   4.426   0.433  15.411  0.8593 -0.2246  0.4448
 1522SOL    HW116028   4.370   0.486  15.354 -0.5197  1.0397  2.9629
 1522SOL    HW216029   4.384   0.349  15.428  2.5105 -1.2404 -0.5224
 1523SOL     OW16030   4.255   2.887   9.854 -0.1611 -0.3593  0.5045
 1523SOL    HW116031   4.228   2.885   9.946  1.0823  0.8264  0.8922
 1523SOL    HW216032   4.285   2.799   9.833 -2.0918 -1.1292  0.9602
 1524SOL     OW16033   3.961   1.240  13.243 -0.6835 -0.3581 -0.1177
 1524SOL    HW116034   4.020   1.236  13.318  2.1579  1.7162 -2.2279
 1524SOL    HW216035   4.020   1.220  13.170 -1.4318 -2.3845 -0.1593
 1525SOL     OW16036   1.099   2.299  17.055 -0.3933  0.2442 -0.3214
 1525SOL    HW116037   1.183   2.345  17.062 -0.2777  0.2771 -1.9528
 1525SOL    HW216038   1.125   2.235  16.988 -1.5504  0.2923 -0.8093
 1526SOL     OW16039   4.509   1.756   3.542  0.1217  0.0392  0.0092
 1526SOL    HW116040   4.463   1.727   3.620 -0.6126 -1.2994 -0.9131
 1526SOL    HW216041   4.592   1.710   3.553 -1.0861 -2.6969 -2.1796
 1527SOL     OW16042   2.755   2.371   3.302 -0.1046  0.7209 -0.1070
 1527SOL    HW116043   2.743   2.337   3.214 -1.1426  0.7023  0.0335
 1527SOL    HW216044   2.764   2.462   3.274  4.6354  0.4337  0.4798
 1528SOL     OW16045   3.431   4.703   7.885  0.6359 -0.2408  0.2441
 1528SOL    HW116046   3.504   4.675   7.940  1.6769 -2.0465 -2.0341
 1528SOL    HW216047   3.412   0.061   7.927 -0.1659  0.0421 -0.6701
 1529SOL     OW16048   0.817   1.973   6.638 -0.0907 -0.2401 -0.2550
 1529SOL    HW116049   0.765   1.906   6.593 -0.2675  0.2942 -0.8501
 1529SOL    HW216050   0.829   2.027   6.559  0.0464 -0.9476 -0.7167
 1530SOL     OW16051   3.781   0.730   7.064 -0.3531 -0.7912  0.1052
 1530SOL    HW116052   3.763   0.807   7.010 -1.6987 -2.0034 -1.1812
 1530SOL    HW216053   3.750   0.760   7.150 -1.7426 -0.0071 -0.6704
 1531SOL     OW16054   2.681   0.384   5.094  0.0404  0.1351  0.4748
 1531SOL    HW116055   2.616   0.363   5.027 -0.5800  0.5032  0.9547
 1531SOL    HW216056   2.651   0.473   5.115  0.9533  0.4568  0.4265
 1532SOL     OW16057   2.926   0.724   5.541 -0.7159  0.2443  0.1608
 1532SOL    HW116058   2.873   0.705   5.464  0.1456 -0.0055 -0.3778
 1532SOL    HW216059   2.877   0.668   5.601 -1.9683  0.4205 -0.7090
 1533SOL     OW16060   1.525   2.618  16.990  0.1517 -0.4270  0.2385
 1533SOL    HW116061   1.508   2.606  16.896 -0.2523 -2.5070  0.5598
 1533SOL    HW216062   1.620   2.623  16.986  0.0310  2.8894  1.9715
 1534SOL     OW16063   4.329   2.835   6.190 -0.4967  0.1599 -0.5979
 1534SOL    HW116064   4.415   2.794   6.197 -0.3729  0.2003 -2.0102
 1534SOL    HW216065   4.280   2.758   6.222 -0.3116  0.6649  0.9221
 1535SOL     OW16066   1.589   2.209   0.753  0.2237 -0.1464  0.0424
 1535SOL    HW116067   1.624   2.264   0.683  1.4768  1.0570  1.6222
 1535SOL    HW216068   1.493   2.212   0.753  0.2554  0.7854 -1.0280
 1536SOL     OW16069   3.696   2.535   1.293  0.2878  0.1625  0.1848
 1536SOL    HW116070   3.743   2.602   1.342 -0.1071  1.0682 -0.6936
 1536SOL    HW216071   3.634   2.514   1.363  0.4658  0.0330  0.3015
 1537SOL     OW16072   3.386   2.657   9.461 -0.1159  0.0549 -0.7944
 1537SOL    HW116073   3.373   2.732   9.518 -1.0077  0.5451 -1.6447
 1537SOL    HW216074   3.303   2.610   9.470 -0.7547  1.0691 -1.4100
 1538SOL     OW16075   1.052   1.318   6.451  0.1934  0.0819  0.1045
 1538SOL    HW116076   1.028   1.346   6.363 -1.2552  2.1961  1.1507
 1538SOL    HW216077   0.963   1.310   6.487  0.3611  2.3474  1.0268
 1539SOL     OW16078   1.217   2.351   3.868 -0.1979  0.0182  0.0073
 1539SOL    HW116079   1.145   2.322   3.812  0.0356  1.4435 -1.0603
 1539SOL    HW216080   1.243   2.431   3.822  2.2976 -0.3495  0.7628
 1540SOL     OW16081   1.263   0.464  13.232  0.1192 -0.0509  0.1976
 1540SOL    HW116082   1.293   0.404  13.301 -1.2390 -1.6968 -0.6364
 1540SOL    HW216083   1.226   0.530  13.290  0.3623 -0.8057  1.2190
 1541SOL     OW16084   1.698   1.236   9.833 -0.1777 -0.2578  0.1779
 1541SOL    HW116085   1.710   1.158   9.779 -2.0845 -0.7691  0.4771
 1541SOL    HW216086   1.673   1.308   9.775  1.7233  0.0397 -0.2425
 1542SOL     OW16087   1.861   3.394  11.972 -0.1932  0.2917 -0.1784
 1542SOL    HW116088   1.867   3.347  11.889  1.3121  0.0808  0.0570
 1542SOL    HW216089   1.953   3.409  11.995  0.2754 -0.7481 -1.3565
 1543SOL     OW16090   3.208   1.506   2.019  0.1652  0.9580 -0.6985
 1543SOL    HW116091   3.199   1.501   1.924  1.8659 -0.0506 -0.8212
 1543SOL    HW216092   3.256   1.425   2.040 -0.0787  0.2334 -2.8951
 1544SOL     OW16093   4.616   2.568   8.809  0.2553  0.2297  0.2138
 1544SOL    HW116094   4.596   2.527   8.893  0.1843  1.7852  0.9473
 1544SOL    HW216095   4.527   2.585   8.780  0.7821  2.6803  0.0795
 1545SOL     OW16096   3.460   3.399   9.638  0.5100  0.3121 -0.2127
 1545SOL    HW116097   3.450   3.303   9.636 -0.7777  0.4712 -0.8868
 1545SOL    HW216098   3.410   3.416   9.718  0.4404 -0.2293 -0.1402
 1546SOL     OW16099   0.121   1.109  13.650 -0.4575 -0.0153  0.3245
 1546SOL    HW116100   0.170   1.027  13.645  1.3103  0.9876  1.0125
 1546SOL    HW216101   0.177   1.168  13.600 -0.6911 -1.3079 -1.4407
 1547SOL     OW16102   2.093   2.283   2.124  0.0562  0.1521 -0.2390
 1547SOL    HW116103   2.111   2.194   2.095 -0.5797 -0.1354  0.2600
 1547SOL    HW216104   2.077   2.266   2.217  1.7818  0.7394  0.1689
 1548SOL     OW16105   3.071   3.416  17.643 -0.1641  0.4679 -0.5513
 1548SOL    HW116106   3.029   3.399   0.024  1.0105  0.1402 -0.0230
 1548SOL    HW216107   3.102   3.330  17.614 -0.0198  0.3038  0.1102
 1549SOL     OW16108   4.492   3.106  15.911 -0.1438  0.4508  0.2122
 1549SOL    HW116109   4.472   3.134  16.001  0.9210  0.6679  0.3909
 1549SOL    HW216110   4.506   3.012  15.924 -1.3466  0.0588 -1.4720
 1550SOL     OW16111   2.575   3.484  16.341 -0.1944  0.3994 -0.3006
 1550SOL    HW116112   2.520   3.554  16.375 -0.3019 -0.5772  1.5307
 1550SOL    HW216113   2.573   3.514  16.250  1.3280  0.0209 -0.4577
 1551SOL     OW16114   0.508   2.041  11.614 -0.0020  0.7664 -0.3015
 1551SOL    HW116115   0.439   1.975  11.620 -0.2366  1.2008  1.7900
 1551SOL    HW216116   0.454   2.119  11.628  0.3467  0.8741  0.4625
 1552SOL     OW16117   1.204   4.417   2.359  0.0517 -0.1212 -0.5127
 1552SOL    HW116118   1.287   4.432   2.314 -0.8606  2.2619 -1.3871
 1552SOL    HW216119   1.152   4.402   2.280 -0.7691  0.1127 -0.0214
 1553SOL     OW16120   2.149   3.282   7.597  0.4557 -0.0669 -0.3775
 1553SOL    HW116121   2.181   3.217   7.534 -0.4388 -0.3722 -0.5104
 1553SOL    HW216122   2.208   3.355   7.579  2.1972 -1.4572 -0.3789
 1554SOL     OW16123   2.476   3.147  16.547  0.3948  0.8000  0.0058
 1554SOL    HW116124   2.480   3.078  16.613 -2.5810 -0.0433 -0.6584
 1554SOL    HW216125   2.514   3.115  16.465  1.2666  1.3206  0.2173
 1555SOL     OW16126   2.210   1.169  13.197  0.6714  0.0304 -0.5267
 1555SOL    HW116127   2.227   1.075  13.186  3.5692  0.2711  1.6820
 1555SOL    HW216128   2.282   1.210  13.149  0.0554  0.3880 -1.1258
 1556SOL     OW16129   1.055   4.185   6.522  0.6443 -0.3496 -0.1091
 1556SOL    HW116130   1.098   4.120   6.579  1.5689  0.7869  0.4911
 1556SOL    HW216131   1.021   4.254   6.579 -0.9410  0.7925 -2.4419
 1557SOL     OW16132   2.319   1.725   6.037  0.2492 -0.3941  0.0568
 1557SOL    HW116133   2.318   1.748   5.945 -1.8614  0.1063  0.1970
 1557SOL    HW216134   2.413   1.709   6.048  0.0929 -0.5326  1.2814
 1558SOL     OW16135   4.509   4.034   3.816 -0.1274  0.2110  0.4099
 1558SOL    HW116136   4.592   3.995   3.789  0.8209  0.2545  3.2502
 1558SOL    HW216137   4.463   3.954   3.840  0.0875 -0.5045 -1.5449
 1559SOL     OW16138   0.977   4.291  12.793  0.0171  0.1549  0.2363
 1559SOL    HW116139   1.035   4.217  12.778  1.7330  1.2153  1.5442
 1559SOL    HW216140   1.045   4.347  12.832  2.4161 -1.3895 -1.7267
 1560SOL     OW16141   3.609   2.367   4.420 -0.3450  0.1909  0.6787
 1560SOL    HW116142   3.580   2.393   4.507  0.5016 -0.1762  1.0619
 1560SOL    HW216143   3.526   2.361   4.371  0.6733  1.9826 -1.2836
 1561SOL     OW16144   3.600   3.700   4.006  0.3052  0.2624  0.1719
 1561SOL    HW116145   3.592   3.709   3.911 -2.0591 -0.6098  0.2992
 1561SOL    HW216146   3.508   3.710   4.032  0.2349  0.8936 -0.3123
 1562SOL     OW16147   3.208   4.221  10.049 -0.1094 -0.7364 -0.2016
 1562SOL    HW116148   3.297   4.251  10.067 -1.1893  2.0448  0.5224
 1562SOL    HW216149   3.171   4.286   9.990  0.8414 -0.0520 -0.0487
 1563SOL     OW16150   3.098   4.436   9.898  0.4370  0.4860 -0.0441
 1563SOL    HW116151   3.166   4.478   9.846  0.4228  1.2612  0.5759
 1563SOL    HW216152   3.040   4.394   9.834 -0.7859  0.1617  1.2793
 1564SOL     OW16153   1.482   1.332  11.343 -0.3167 -0.3495 -0.4737
 1564SOL    HW116154   1.396   1.329  11.386  0.9321 -1.3986  1.9689
 1564SOL    HW216155   1.509   1.241  11.354  1.3966  0.3205  0.8333
 1565SOL     OW16156   1.806   1.492   6.926  0.2899 -0.3699  0.5240
 1565SOL    HW116157   1.891   1.479   6.967  0.4348  0.5234  0.5043
 1565SOL    HW216158   1.838   1.571   6.882 -1.6864  0.5765  0.7768
 1566SOL     OW16159   4.259   3.039  16.351  0.6754 -0.3372  0.4868
 1566SOL    HW116160   4.165   3.044  16.336  0.8277  2.3655  0.5195
 1566SOL    HW216161   4.280   2.951  16.320 -1.6869 -1.0961  1.0402
 1567SOL     OW16162   3.273   4.551   4.902 -0.0468  0.4242 -0.4389
 1567SOL    HW116163   3.341   4.495   4.940  0.8108  0.7111 -1.5556
 1567SOL    HW216164   3.198   4.496   4.923 -0.2319  0.5751 -0.7030
 1568SOL     OW16165   0.870   0.625   3.618 -0.1039 -0.0158  0.2840
 1568SOL    HW116166   0.794   0.681   3.607 -0.8522 -1.3179 -1.1689
 1568SOL    HW216167   0.928   0.672   3.558 -1.5085 -1.1319 -1.9752
 1569SOL     OW16168   2.306   3.226  13.663 -0.1521  0.8807  0.2568
 1569SOL    HW116169   2.273   3.214  13.752 -0.2869  0.1532  0.1057
 1569SOL    HW216170   2.399   3.248  13.670  0.1165 -0.1988  0.0944
 1570SOL     OW16171   1.631   1.982   8.751 -0.1125 -0.3515  0.3824
 1570SOL    HW116172   1.652   2.043   8.822 -0.6250  0.1111  0.1410
 1570SOL    HW216173   1.537   1.961   8.747 -0.0658 -0.7400  1.4009
 1571SOL     OW16174   1.118   0.392   4.538 -0.4780  0.5622 -0.3155
 1571SOL    HW116175   1.162   0.431   4.613  0.5367 -3.8267  1.3117
 1571SOL    HW216176   1.028   0.410   4.566 -0.2824  1.2412 -0.1026
 1572SOL     OW16177   0.893   0.296   3.865 -0.3776  0.1805 -0.2998
 1572SOL    HW116178   0.965   0.269   3.922 -0.0515 -0.3056 -0.9383
 1572SOL    HW216179   0.818   0.276   3.920 -2.0646 -0.6447 -2.8851
 1573SOL     OW16180   4.457   1.272   8.255 -0.4849 -0.1434  0.5591
 1573SOL    HW116181   4.499   1.354   8.230 -1.0655 -0.0319 -0.0665
 1573SOL    HW216182   4.511   1.254   8.332  1.0363 -1.4084 -0.8033
 1574SOL     OW16183   3.294   0.217  11.429  0.1609  0.0605 -0.2341
 1574SOL    HW116184   3.301   0.276  11.505  1.9723  1.8242 -1.7691
 1574SOL    HW216185   3.209   0.178  11.451 -0.2695  1.6931  0.9970
 1575SOL     OW16186   4.005   0.562   2.524  0.3436 -0.0553  0.0359
 1575SOL    HW116187   4.049   0.606   2.451 -0.5737  1.2277  0.2710
 1575SOL    HW216188   3.936   0.514   2.478  1.0770  0.4938 -1.6546
 1576SOL     OW16189   0.780   1.270   6.532  0.2835 -0.1994  0.0547
 1576SOL    HW116190   0.705   1.305   6.485 -1.0433  1.1887  3.2218
 1576SOL    HW216191   0.755   1.180   6.551  2.6150 -0.3732  2.2960
 1577SOL     OW16192   4.650   4.288  16.626 -0.0610 -0.3810  0.3129
 1577SOL    HW116193   4.676   4.299  16.717  0.7326 -0.2160  0.0663
 1577SOL    HW216194   4.655   4.375  16.585 -3.1888 -0.4461 -0.1817
 1578SOL     OW16195   1.143   2.135  16.835 -0.1750  0.0005 -0.6331
 1578SOL    HW116196   1.195   2.169  16.762 -0.9048 -1.2235 -1.7152
 1578SOL    HW216197   1.207   2.077  16.877 -1.9249 -1.3022  0.2548
 1579SOL     OW16198   2.089   0.158   7.381  0.0233 -0.5579  0.6216
 1579SOL    HW116199   2.147   0.108   7.437  1.3937 -1.8687 -1.9668
 1579SOL    HW216200   2.066   0.231   7.439  0.5349  0.7268 -0.7931
 1580SOL     OW16201   3.107   3.548   1.824  0.1133 -0.5702  0.6236
 1580SOL    HW116202   3.096   3.454   1.812  1.0241 -0.5136 -0.7113
 1580SOL    HW216203   3.078   3.565   1.914 -1.3957 -2.6167  0.4980
 1581SOL     OW16204   1.813   1.892   8.487  0.2422 -0.0685 -0.2117
 1581SOL    HW116205   1.841   1.950   8.558  1.2320  2.1054 -2.3594
 1581SOL    HW216206   1.729   1.937   8.475  1.1015  1.4672 -0.5367
 1582SOL     OW16207   2.955   3.874   7.504 -0.5051  0.1704 -0.3493
 1582SOL    HW116208   2.968   3.788   7.465 -0.1493  0.2613 -0.4291
 1582SOL    HW216209   3.026   3.929   7.472  0.5803 -2.1710 -1.9077
 1583SOL     OW16210   1.512   3.568   8.724  0.2641 -0.0148  0.1464
 1583SOL    HW116211   1.532   3.552   8.816 -0.5844  1.7393  0.6346
 1583SOL    HW216212   1.564   3.495   8.689 -0.5737 -1.0774  1.1075
 1584SOL     OW16213   2.597   1.522   3.899  0.0145 -0.5046  0.2963
 1584SOL    HW116214   2.665   1.580   3.864  0.0605 -0.6983  0.0664
 1584SOL    HW216215   2.565   1.475   3.822  2.8266 -4.8812  1.7680
 1585SOL     OW16216   2.274   0.512   3.849 -0.4509 -0.2815  0.0203
 1585SOL    HW116217   2.217   0.486   3.776  1.3102  1.1288 -1.8696
 1585SOL    HW216218   2.289   0.603   3.824  1.6654 -0.1459  1.8245
 1586SOL     OW16219   4.248   0.335   6.646  0.0751 -0.4423  0.4100
 1586SOL    HW116220   4.190   0.411   6.645 -0.5962 -0.9666 -1.7694
 1586SOL    HW216221   4.325   0.359   6.595 -1.6703  2.5864 -0.7529
 1587SOL     OW16222   3.561   1.687   8.248  0.0173  0.2455 -0.2210
 1587SOL    HW116223   3.471   1.662   8.230  0.5611 -0.5362 -1.8900
 1587SOL    HW216224   3.601   1.601   8.266  0.4146  0.7101  1.1062
 1588SOL     OW16225   3.235   0.303   2.389 -0.4108  0.3135 -0.0379
 1588SOL    HW116226   3.165   0.359   2.357 -0.0614  0.4604 -0.5269
 1588SOL    HW216227   3.220   0.308   2.484 -1.1670 -3.1190  0.0347
 1589SOL     OW16228   4.418   4.374   6.424  0.3536 -0.3412  0.2869
 1589SOL    HW116229   4.512   4.390   6.410  0.6055 -1.0440  1.1398
 1589SOL    HW216230   4.403   4.304   6.361 -0.3127  1.3188 -1.3737
 1590SOL     OW16231   3.020   4.148  17.224  0.1630  0.2736  0.0082
 1590SOL    HW116232   3.089   4.212  17.242 -0.7196  1.2426 -0.0990
 1590SOL    HW216233   2.950   4.199  17.185  1.0900  1.4243 -0.1586
 1591SOL     OW16234   3.128   2.905   5.065 -0.0850 -0.2400  0.4364
 1591SOL    HW116235   3.210   2.877   5.024 -0.7913 -0.8280 -0.5567
 1591SOL    HW216236   3.163   2.956   5.137  0.1572  2.2819 -1.4849
 1592SOL     OW16237   0.558   0.038   8.837 -0.4517  0.1116 -0.6688
 1592SOL    HW116238   0.472   0.081   8.838 -0.2760  0.4374  1.1398
 1592SOL    HW216239   0.532   4.672   8.826  0.8593 -0.2053 -1.1295
 1593SOL     OW16240   2.249   0.755   3.745 -0.0346 -0.2997 -0.1100
 1593SOL    HW116241   2.317   0.750   3.679  0.4686 -1.9063  0.5154
 1593SOL    HW216242   2.177   0.779   3.686 -0.6149 -0.8660  0.3592
 1594SOL     OW16243   2.056   1.965   3.569  0.0738 -0.0332  0.3284
 1594SOL    HW116244   2.093   2.035   3.623  1.0683  1.1134 -1.8309
 1594SOL    HW216245   1.962   1.982   3.575  0.0505 -0.2246  0.5120
 1595SOL     OW16246   3.251   1.356  17.370  0.2305  0.2462 -0.5259
 1595SOL    HW116247   3.271   1.384  17.459  0.3201  1.9424 -1.0864
 1595SOL    HW216248   3.336   1.318  17.351 -0.1295  0.0621 -1.7251
 1596SOL     OW16249   0.727   1.815   6.994  0.3840  0.0189  0.0295
 1596SOL    HW116250   0.743   1.874   7.067 -0.2960  0.7309 -0.3924
 1596SOL    HW216251   0.777   1.736   7.017 -1.4220 -1.1435 -0.0078
 1597SOL     OW16252   3.776   2.547   7.224 -0.2707 -0.2249 -0.3640
 1597SOL    HW116253   3.868   2.573   7.219 -0.4117  0.2489 -0.4745
 1597SOL    HW216254   3.780   2.478   7.158  2.5032 -0.6249  0.2472
 1598SOL     OW16255   3.851   2.372  14.827  0.3346 -0.4722  1.0161
 1598SOL    HW116256   3.827   2.326  14.746 -2.9024  0.7890  1.2371
 1598SOL    HW216257   3.881   2.453  14.787 -1.0989 -0.2815  0.3024
 1599SOL     OW16258   0.746   4.342   6.751  0.4245 -0.7121  0.3666
 1599SOL    HW116259   0.811   4.307   6.812 -1.1238  1.4869  3.2470
 1599SOL    HW216260   0.665   4.336   6.801 -0.1047 -2.4397 -0.7021
 1600SOL     OW16261   0.714   4.455   3.639  0.0740 -0.3326 -0.1446
 1600SOL    HW116262   0.640   4.506   3.605  1.5695  1.7425 -0.2986
 1600SOL    HW216263   0.731   4.397   3.564  1.4498 -2.5675  1.9109
 1601SOL     OW16264   4.198   1.376  10.822  0.0919  0.4696 -0.2510
 1601SOL    HW116265   4.237   1.433  10.887 -0.7677  2.1089 -1.1719
 1601SOL    HW216266   4.106   1.380  10.849 -0.4488  0.8199 -2.1312
 1602SOL     OW16267   2.890   1.034   9.521 -0.5966 -0.1532  0.0829
 1602SOL    HW116268   2.961   0.993   9.472 -0.7264  0.1276 -0.3401
 1602SOL    HW216269   2.935   1.116   9.537  1.1895 -1.1951  0.3876
 1603SOL     OW16270   0.031   0.704   1.615  0.3631 -0.8697 -0.0916
 1603SOL    HW116271   0.115   0.744   1.638 -1.4488  2.1337  1.3369
 1603SOL    HW216272   4.701   0.783   1.612 -0.1615 -1.2180  0.3597
 1604SOL     OW16273   0.631   0.092   2.270  0.5032  0.1234  0.0612
 1604SOL    HW116274   0.593   0.164   2.220 -0.0067  0.2763  0.6614
 1604SOL    HW216275   0.578   0.083   2.350 -0.1372 -0.8804 -0.4726
 1605SOL     OW16276   0.784   4.332   3.423 -0.6421 -0.3609  0.2392
 1605SOL    HW116277   0.847   4.262   3.402 -1.2034 -0.4630 -1.0886
 1605SOL    HW216278   0.743   4.335   3.337  1.8863 -2.1575 -1.0111
 1606SOL     OW16279   1.760   0.173   6.590 -0.3850  0.5640  0.4696
 1606SOL    HW116280   1.697   0.176   6.662 -0.0504  2.4985  0.6980
 1606SOL    HW216281   1.814   0.096   6.607 -1.3328  0.6506  4.0019
 1607SOL     OW16282   0.122   0.158   1.269  0.6551  0.2595 -0.5307
 1607SOL    HW116283   0.191   0.095   1.293 -0.0929  0.0099  1.0212
 1607SOL    HW216284   0.124   0.149   1.174 -3.6800 -0.3856 -0.5602
 1608SOL     OW16285   3.659   3.282  12.922 -0.4633 -0.0923  0.5009
 1608SOL    HW116286   3.685   3.374  12.930  0.9414 -0.3361 -1.4809
 1608SOL    HW216287   3.614   3.258  13.003  2.0367 -2.1018  1.2876
 1609SOL     OW16288   2.128   2.352   7.904  0.4980 -0.2426  0.4028
 1609SOL    HW116289   2.183   2.329   7.979 -0.4912 -0.1021  1.1760
 1609SOL    HW216290   2.093   2.433   7.942 -0.7854 -0.5490 -0.1260
 1610SOL     OW16291   2.574   2.988   9.014 -0.6178 -0.1778  0.2842
 1610SOL    HW116292   2.540   2.936   9.087 -3.5754 -0.2713 -1.1477
 1610SOL    HW216293   2.516   2.958   8.945 -0.5131 -0.9950  0.5579
 1611SOL     OW16294   1.238   0.313   2.006 -0.6325  0.7236  0.4729
 1611SOL    HW116295   1.176   0.375   2.043 -1.0758  1.0536 -0.8209
 1611SOL    HW216296   1.296   0.308   2.082 -2.7050  0.9135  2.0624
 1612SOL     OW16297   4.602   0.010   4.984  0.0945  0.1387 -0.2636
 1612SOL    HW116298   4.563   4.662   4.935 -1.1117  1.0977 -0.7459
 1612SOL    HW216299   4.540   0.081   4.968 -1.2675 -1.4797 -2.2300
 1613SOL     OW16300   3.588   1.646   7.190  0.2396  0.7953  0.4163
 1613SOL    HW116301   3.553   1.623   7.104  1.4466 -0.8821  0.3839
 1613SOL    HW216302   3.559   1.737   7.196  0.7777  1.1116 -1.7549
 1614SOL     OW16303   1.695   0.536   4.574 -0.2104 -0.2068  0.2769
 1614SOL    HW116304   1.703   0.606   4.639 -0.1058  1.7972 -1.9244
 1614SOL    HW216305   1.779   0.554   4.533  0.1585 -0.8421  0.7499
 1615SOL     OW16306   0.070   2.169   5.480 -0.2264  0.0168  0.1768
 1615SOL    HW116307   0.014   2.166   5.557 -0.5076 -0.8671 -0.0513
 1615SOL    HW216308   0.046   2.093   5.426 -1.2054  0.7718 -0.4375
 1616SOL     OW16309   0.920   2.090   6.398 -0.1770 -0.1993  0.5711
 1616SOL    HW116310   0.853   2.143   6.356 -0.2531  0.1618  1.1396
 1616SOL    HW216311   0.945   2.034   6.324 -2.0963 -0.1674 -0.0968
 1617SOL     OW16312   1.879   1.603   9.069  0.3784 -0.3825  0.7858
 1617SOL    HW116313   1.866   1.610   8.975  0.2160  1.5988  0.9442
 1617SOL    HW216314   1.968   1.567   9.078  0.4188  0.2305  2.8639
 1618SOL     OW16315   2.146   4.622   7.938 -0.2438  0.4141  0.1568
 1618SOL    HW116316   2.074   4.560   7.947  0.1383  0.4535  3.4240
 1618SOL    HW216317   2.118   4.682   8.008 -0.5664 -0.1888  0.5415
 1619SOL     OW16318   1.546   2.183   6.124  0.0185 -0.3169 -0.1071
 1619SOL    HW116319   1.626   2.215   6.166 -0.4509  2.9481 -1.6590
 1619SOL    HW216320   1.547   2.240   6.047  1.1876 -1.8937 -1.2614
 1620SOL     OW16321   2.073   4.551   3.165 -0.0896  0.2275  0.6288
 1620SOL    HW116322   2.133   4.607   3.116  0.9297 -0.5623  0.9715
 1620SOL    HW216323   2.007   4.542   3.097  0.4316  1.2989 -0.0210
 1621SOL     OW16324   1.622   4.475  12.833 -0.5368 -0.4859 -0.2021
 1621SOL    HW116325   1.591   4.505  12.747  1.0478  0.4924 -0.4256
 1621SOL    HW216326   1.698   4.429  12.797  0.4652 -1.3922  3.0732
 1622SOL     OW16327   2.405   3.127   4.217  0.2919 -0.0536  0.2144
 1622SOL    HW116328   2.426   3.120   4.124 -1.0656 -1.8440  0.0478
 1622SOL    HW216329   2.315   3.161   4.223 -0.1660 -1.1370 -0.5534
 1623SOL     OW16330   2.727   2.144  15.516  0.2233 -0.5816 -1.0487
 1623SOL    HW116331   2.676   2.063  15.510  0.6562 -0.7706 -2.2162
 1623SOL    HW216332   2.734   2.139  15.611  2.5552  1.4033 -1.1072
 1624SOL     OW16333   1.403   4.280   5.331 -0.5647  0.5673 -0.5596
 1624SOL    HW116334   1.419   4.310   5.421 -3.6156  2.0053 -0.5044
 1624SOL    HW216335   1.453   4.199   5.322 -1.1417 -0.0658  1.8779
 1625SOL     OW16336   4.464   2.291  16.185 -0.2006 -0.2711  0.0942
 1625SOL    HW116337   4.508   2.211  16.158  1.7551  1.2049 -1.1204
 1625SOL    HW216338   4.465   2.281  16.280 -0.9126 -0.7395  0.0492
 1626SOL     OW16339   3.627   3.492   9.430  0.4102 -0.0356 -0.2413
 1626SOL    HW116340   3.585   3.426   9.374 -0.0154  1.2131 -1.4022
 1626SOL    HW216341   3.576   3.473   9.509 -1.3697 -1.1476 -1.6576
 1627SOL     OW16342   2.836   1.400  12.767  0.2844  0.7646  0.2403
 1627SOL    HW116343   2.906   1.458  12.797 -0.4420  2.1746 -0.8110
 1627SOL    HW216344   2.885   1.319  12.757  0.7045  1.2082 -1.2924
 1628SOL     OW16345   1.579   4.128   9.342  0.2849 -0.2310  0.8885
 1628SOL    HW116346   1.577   4.223   9.354  0.5417 -0.2009  0.6915
 1628SOL    HW216347   1.501   4.115   9.288 -0.0252 -1.2094  1.5611
 1629SOL     OW16348   1.522   2.248   1.836 -0.4580 -0.6343 -0.4671
 1629SOL    HW116349   1.577   2.188   1.887  1.6786  1.3625 -0.4202
 1629SOL    HW216350   1.480   2.195   1.768 -0.5452  0.5699 -1.3587
 1630SOL     OW16351   0.653   0.583   8.093  0.0570  0.1522  0.0337
 1630SOL    HW116352   0.621   0.508   8.143  0.4321  0.4099  0.6606
 1630SOL    HW216353   0.571   0.630   8.112  0.4761  0.6837  0.5446
 1631SOL     OW16354   2.488   4.553   8.468  0.3703  0.0977  0.5699
 1631SOL    HW116355   2.452   4.587   8.387  1.2783 -0.8007 -0.2099
 1631SOL    HW216356   2.501   4.466   8.432 -0.0468  0.8600 -1.3959
 1632SOL     OW16357   3.526   2.549   3.275 -0.8668  0.2922 -0.2204
 1632SOL    HW116358   3.500   2.539   3.367  0.2035 -2.6152 -0.2557
 1632SOL    HW216359   3.620   2.539   3.260 -0.7218  0.8777  0.2768
 1633SOL     OW16360   1.161   0.205   6.509 -0.0693 -0.8615  0.3051
 1633SOL    HW116361   1.212   0.152   6.570 -1.7645 -1.9800  0.7651
 1633SOL    HW216362   1.224   0.204   6.437  0.8388 -2.0483  1.1286
 1634SOL     OW16363   0.643   1.483   1.764  0.3353  0.2678 -0.3512
 1634SOL    HW116364   0.568   1.440   1.805 -0.3015 -0.5039 -2.3268
 1634SOL    HW216365   0.609   1.571   1.781  1.8048  0.7039  0.3481
 1635SOL     OW16366   1.169   0.253   1.746  0.6970  0.5750  0.1609
 1635SOL    HW116367   1.156   0.159   1.754  0.4974  0.6035  0.1931
 1635SOL    HW216368   1.198   0.279   1.833  0.3581 -0.3129  0.5359
 1636SOL     OW16369   1.898   3.885   8.086  0.1055  0.3907  0.0278
 1636SOL    HW116370   1.881   3.900   8.179  1.9506 -1.0007  0.6027
 1636SOL    HW216371   1.950   3.804   8.086  0.6490  0.7423 -0.1096
 1637SOL     OW16372   0.729   3.770  15.907 -0.4163 -0.0671 -0.2953
 1637SOL    HW116373   0.641   3.792  15.877 -1.2008  0.0823  2.1072
 1637SOL    HW216374   0.748   3.854  15.950  0.9588 -0.4506 -0.1466
 1638SOL     OW16375   0.575   2.587  14.956 -0.5893 -0.2096  0.3024
 1638SOL    HW116376   0.601   2.642  15.030 -1.0606  1.3967 -0.7165
 1638SOL    HW216377   0.490   2.549  14.977 -1.2151  0.3558 -1.1638
 1639SOL     OW16378   4.697   0.316   9.964 -0.1125 -0.2156  0.0403
 1639SOL    HW116379   4.653   0.399   9.946 -0.5805 -0.3892  0.3790
 1639SOL    HW216380   4.636   0.257   9.920  0.7191 -0.6569 -0.5170
 1640SOL     OW16381   1.171   0.419   0.277 -0.5673  0.1355 -0.7251
 1640SOL    HW116382   1.264   0.397   0.284 -1.0180 -1.7401 -0.5295
 1640SOL    HW216383   1.132   0.334   0.298 -0.5840  0.0681 -1.0265
 1641SOL     OW16384   3.994   3.542   9.650 -0.1593 -0.5172 -0.1093
 1641SOL    HW116385   4.083   3.572   9.633 -0.1497  0.4249  1.6409
 1641SOL    HW216386   3.975   3.501   9.565  0.7823 -1.5617  0.1805
 1642SOL     OW16387   2.025   0.561   4.221 -0.0872  0.1724 -0.6047
 1642SOL    HW116388   2.105   0.604   4.251  0.0816  0.2995 -1.2336
 1642SOL    HW216389   2.011   0.506   4.298 -0.7889  0.0298 -0.8341
 1643SOL     OW16390   2.746   1.171   4.049 -0.5394  0.3301 -0.2440
 1643SOL    HW116391   2.802   1.241   4.016 -0.8879  0.9288  0.4342
 1643SOL    HW216392   2.704   1.151   3.965  1.8445  0.6286 -1.4900
 1644SOL     OW16393   0.400   4.496  14.528 -0.7349 -0.0980  0.1698
 1644SOL    HW116394   0.452   4.526  14.453 -0.5883 -0.4008  0.1503
 1644SOL    HW216395   0.314   4.508  14.489 -0.3998 -0.6576 -0.7305
 1645SOL     OW16396   1.101   0.402   5.009  0.3605  0.4116  0.3220
 1645SOL    HW116397   1.079   0.384   5.100 -1.2052  0.5735 -0.0181
 1645SOL    HW216398   1.178   0.458   5.013  1.3889 -0.9238 -0.5889
 1646SOL     OW16399   4.243   4.535  17.656 -0.1934 -0.4002  0.0056
 1646SOL    HW116400   4.211   4.477   0.023 -1.3660 -1.4332 -1.3988
 1646SOL    HW216401   4.300   4.589   0.008  0.7897 -0.0939 -1.3242
 1647SOL     OW16402   0.036   3.934   3.549 -0.0587  0.1626  0.4019
 1647SOL    HW116403   0.055   3.854   3.599 -1.7638 -1.8116 -2.1099
 1647SOL    HW216404   4.673   3.923   3.514 -0.5922  2.8862  0.8860
 1648SOL     OW16405   3.371   0.310   7.394  0.0042 -0.1151 -0.3216
 1648SOL    HW116406   3.334   0.362   7.323 -0.8783  1.5706  1.3473
 1648SOL    HW216407   3.458   0.290   7.361  0.4951 -0.1315  0.9717
 1649SOL     OW16408   2.104   0.880   9.082  0.0496 -0.1109  0.0646
 1649SOL    HW116409   2.016   0.872   9.046  0.6038 -1.8356 -0.8847
 1649SOL    HW216410   2.161   0.889   9.005 -0.5665 -2.0127 -0.5884
 1650SOL     OW16411   3.113   2.154   5.249 -0.0344  0.5180  0.7857
 1650SOL    HW116412   3.040   2.155   5.310 -0.6933 -2.1448  0.0324
 1650SOL    HW216413   3.183   2.201   5.294  2.1397 -1.7252 -0.2331
 1651SOL     OW16414   3.949   1.296   6.066  0.5236 -0.1024  0.4191
 1651SOL    HW116415   4.013   1.235   6.031 -0.7154 -0.9564 -0.3581
 1651SOL    HW216416   4.014   1.362   6.091 -1.2174  2.0832 -0.7886
 1652SOL     OW16417   0.861   4.680  15.569 -0.6907 -0.1806  0.4789
 1652SOL    HW116418   0.857   4.620  15.643  0.3747  1.3681  1.8138
 1652SOL    HW216419   0.897   0.034  15.610  2.2287 -0.6721 -1.1566
 1653SOL     OW16420   3.336   0.256   1.065  0.6954  0.8790 -0.5898
 1653SOL    HW116421   3.241   0.248   1.057  0.5387  0.6718  1.4720
 1653SOL    HW216422   3.366   0.171   1.034 -0.6559  1.7295 -4.1985
 1654SOL     OW16423   0.459   0.285   2.999 -0.3385  0.1940  0.0230
 1654SOL    HW116424   0.452   0.197   3.037  0.1437 -0.4692 -1.4137
 1654SOL    HW216425   0.437   0.265   2.908 -0.1578  1.4741 -0.2974
 1655SOL     OW16426   3.751   2.966   9.219 -0.4873  0.0086  0.2241
 1655SOL    HW116427   3.679   2.991   9.277  0.1787  0.1063  1.0106
 1655SOL    HW216428   3.779   2.886   9.263  1.0767  0.3362 -0.1546
 1656SOL     OW16429   0.028   2.594   6.883  0.3680  0.1070 -0.1781
 1656SOL    HW116430   0.073   2.539   6.947  0.5318 -0.4750 -0.7989
 1656SOL    HW216431   4.662   2.563   6.883  0.7444 -1.0488  1.7731
 1657SOL     OW16432   2.091   1.470   4.474 -0.1995  0.4122  0.1694
 1657SOL    HW116433   2.140   1.450   4.554  1.9729 -1.3119 -1.5737
 1657SOL    HW216434   2.160   1.463   4.409  0.7606 -1.4200  1.3694
 1658SOL     OW16435   4.307   2.702  10.415  0.2804  0.3089  0.2103
 1658SOL    HW116436   4.241   2.711  10.346  0.6889  1.6726 -0.0136
 1658SOL    HW216437   4.252   2.687  10.492  0.2361 -0.9272 -0.0611
 1659SOL     OW16438   2.353   1.161   3.964  0.4669  0.1011 -0.4276
 1659SOL    HW116439   2.323   1.194   3.880 -0.8918 -0.1734 -0.0561
 1659SOL    HW216440   2.316   1.073   3.962 -0.2561  0.4198 -1.2384
 1660SOL     OW16441   0.865   3.140   4.656 -0.5460 -0.0422  0.0428
 1660SOL    HW116442   0.824   3.227   4.664  0.1770  0.3155 -0.1216
 1660SOL    HW216443   0.856   3.115   4.748 -0.9741 -1.5264 -0.4126
 1661SOL     OW16444   0.094   1.833   4.794  0.1606  0.2346 -0.1473
 1661SOL    HW116445   0.115   1.893   4.722 -1.8610  0.4365 -0.5682
 1661SOL    HW216446   0.149   1.757   4.775  3.3639  2.0194  1.9512
 1662SOL     OW16447   2.487   4.100   3.107 -0.0406 -0.2640  0.0079
 1662SOL    HW116448   2.562   4.148   3.072 -0.5130  0.0520 -0.5595
 1662SOL    HW216449   2.421   4.154   3.064 -1.1168 -0.4286  1.4470
 1663SOL     OW16450   3.454   0.949   6.453  0.5697 -0.2197  0.4233
 1663SOL    HW116451   3.541   0.988   6.461  0.5048  0.0600 -0.1946
 1663SOL    HW216452   3.460   0.886   6.381 -1.3494  1.5724 -1.3405
 1664SOL     OW16453   0.050   2.468   1.076 -0.2788 -0.1081  0.7935
 1664SOL    HW116454   0.083   2.503   1.159  1.0050  1.7602 -0.5170
 1664SOL    HW216455   0.133   2.448   1.033 -1.6827 -0.5796 -1.6756
 1665SOL     OW16456   0.041   4.553   2.510 -0.1406  0.1459 -0.0796
 1665SOL    HW116457   0.085   4.495   2.449  0.3083  0.7343 -0.3168
 1665SOL    HW216458   4.698   4.578   2.448 -0.5485  0.1978  0.3869
 1666SOL     OW16459   1.813   4.400   1.638  0.0266 -0.5094 -0.2406
 1666SOL    HW116460   1.819   4.485   1.681  1.0772  0.7970 -2.9429
 1666SOL    HW216461   1.905   4.376   1.621 -0.3433 -2.2943  0.2946
 1667SOL     OW16462   0.581   2.976   6.012  0.1097  0.5522 -0.0395
 1667SOL    HW116463   0.610   2.901   5.960  2.5349  0.8857  0.8218
 1667SOL    HW216464   0.502   2.941   6.052  2.4400 -0.7794  3.3712
 1668SOL     OW16465   3.848   4.189  16.819  0.1975  0.0794 -0.8925
 1668SOL    HW116466   3.825   4.099  16.842  1.8063  0.4934  2.2719
 1668SOL    HW216467   3.814   4.188  16.729  0.9236  1.7336 -1.1875
 1669SOL     OW16468   3.974   2.393   9.729  0.1232  0.2385  0.3483
 1669SOL    HW116469   3.942   2.373   9.817 -0.4402 -3.3377 -0.6558
 1669SOL    HW216470   4.069   2.384   9.734 -0.1306 -1.6179  2.0450
 1670SOL     OW16471   0.032   2.282  12.377  0.4662 -0.4679 -0.7594
 1670SOL    HW116472   0.085   2.354  12.343 -0.7797  1.4174  1.2144
 1670SOL    HW216473   0.094   2.210  12.378  1.5557  0.4595 -2.8953
 1671SOL     OW16474   4.515   2.627   4.698  0.0500  0.6146  0.3315
 1671SOL    HW116475   4.530   2.721   4.706  0.1648  0.8879 -3.0006
 1671SOL    HW216476   4.527   2.616   4.603 -0.4707 -0.9640  0.4549
 1672SOL     OW16477   1.374   1.687   8.158 -0.5107  0.2072  0.1713
 1672SOL    HW116478   1.327   1.746   8.217  0.5565  0.5144  0.7192
 1672SOL    HW216479   1.462   1.685   8.196 -1.3490 -0.4608  2.1292
 1673SOL     OW16480   0.943   1.623   7.322  0.0865  0.2781  0.1577
 1673SOL    HW116481   0.940   1.589   7.233 -2.0187  2.2740 -0.5388
 1673SOL    HW216482   0.893   1.557   7.370  2.5118  0.4225  2.8609
 1674SOL     OW16483   1.315   1.243  12.608 -0.5708 -0.6559 -0.1815
 1674SOL    HW116484   1.321   1.252  12.703  0.3503 -3.0615 -0.0253
 1674SOL    HW216485   1.386   1.302  12.585  1.1618 -1.7469  2.3352
 1675SOL     OW16486   3.169   0.417  11.263 -0.1165  0.0858  0.4089
 1675SOL    HW116487   3.120   0.398  11.183  0.1949 -0.3767  0.3286
 1675SOL    HW216488   3.108   0.449  11.330 -0.3702 -1.3057  0.8555
 1676SOL     OW16489   2.848   2.922   6.731 -0.0186 -0.2653 -0.4990
 1676SOL    HW116490   2.906   2.998   6.745  0.5537 -0.9716  0.9004
 1676SOL    HW216491   2.767   2.960   6.763  0.5940  0.1337  0.5694
 1677SOL     OW16492   4.630   2.079   7.771 -0.6207 -0.0449 -0.1677
 1677SOL    HW116493   4.614   2.005   7.713 -0.5583  1.4443 -2.0536
 1677SOL    HW216494   4.697   2.125   7.721  1.3471 -1.9565  0.7386
 1678SOL     OW16495   2.577   2.599   9.557 -0.0542  0.1604  0.4049
 1678SOL    HW116496   2.657   2.551   9.537 -0.1483 -0.1335  0.7414
 1678SOL    HW216497   2.541   2.600   9.468  1.5982  1.7745 -0.2528
 1679SOL     OW16498   4.089   2.702   3.996  0.0351  0.6043  0.0373
 1679SOL    HW116499   4.086   2.624   3.940 -2.0167  1.0236 -0.4367
 1679SOL    HW216500   3.997   2.721   4.017 -0.6525 -1.6318 -0.9360
 1680SOL     OW16501   0.332   3.437   5.885  0.1042  0.2412 -0.1039
 1680SOL    HW116502   0.346   3.502   5.815 -0.6725  2.0758  1.4612
 1680SOL    HW216503   0.312   3.360   5.832 -0.7071 -0.0249  0.5986
 1681SOL     OW16504   0.404   1.993   4.669 -0.2706  0.7521 -0.1523
 1681SOL    HW116505   0.432   1.902   4.678  1.1767  1.2017 -0.2663
 1681SOL    HW216506   0.327   1.981   4.613  0.3934  1.7812 -1.2830
 1682SOL     OW16507   4.363   4.259   2.845  0.1684  0.2522 -0.4059
 1682SOL    HW116508   4.330   4.219   2.764  1.5717  0.8022 -1.2423
 1682SOL    HW216509   4.351   4.187   2.908  0.1035 -0.1325 -0.8592
 1683SOL     OW16510   4.014   3.480  10.443  0.0264 -0.5578  0.2204
 1683SOL    HW116511   4.108   3.496  10.446 -0.3792  1.7705  0.5292
 1683SOL    HW216512   4.001   3.440  10.357 -0.3961  0.7695 -0.3339
 1684SOL     OW16513   0.396   0.793   8.527 -0.4194 -0.4618 -1.0415
 1684SOL    HW116514   0.347   0.876   8.525 -0.3028 -0.3983 -1.3313
 1684SOL    HW216515   0.328   0.732   8.498 -0.4542 -0.9516  0.0854
 1685SOL     OW16516   1.488   2.524   6.002 -1.2365  0.3214  0.0638
 1685SOL    HW116517   1.561   2.540   6.063  0.3246  0.3613 -1.8331
 1685SOL    HW216518   1.432   2.600   5.992 -2.4337 -0.2494  2.4479
 1686SOL     OW16519   3.390   4.217   4.184  0.0714  0.0154  0.0352
 1686SOL    HW116520   3.363   4.289   4.240 -1.0432 -1.1704  1.0159
 1686SOL    HW216521   3.361   4.141   4.234  1.1387 -0.4910 -0.1003
 1687SOL     OW16522   0.339   3.390   1.126 -0.0016 -0.3941  0.6848
 1687SOL    HW116523   0.250   3.424   1.138 -0.5989 -1.3473 -1.0093
 1687SOL    HW216524   0.370   3.404   1.036 -1.1749 -0.5948  0.2416
 1688SOL     OW16525   3.316   2.304  10.120  0.3898  0.2121 -0.6953
 1688SOL    HW116526   3.372   2.262  10.055  1.9206  0.1247  0.6897
 1688SOL    HW216527   3.285   2.232  10.175  0.4815  0.6216 -0.1105
 1689SOL     OW16528   3.492   3.095   9.685  0.2503 -0.1064  0.3518
 1689SOL    HW116529   3.403   3.073   9.711  1.3537 -0.5140  3.7362
 1689SOL    HW216530   3.541   3.088   9.767 -1.1882 -1.9122  1.0482
 1690SOL     OW16531   4.280   4.433   9.531  1.1303 -0.2472 -0.3009
 1690SOL    HW116532   4.292   4.448   9.625  0.6980  0.9097 -0.4334
 1690SOL    HW216533   4.309   4.342   9.522 -1.9911 -1.3694  0.9110
 1691SOL     OW16534   4.254   4.016   5.333  0.2286  0.1456  0.7192
 1691SOL    HW116535   4.323   4.069   5.374  0.2584  1.3804 -0.9196
 1691SOL    HW216536   4.270   4.041   5.242  1.9407 -0.6837  0.7977
 1692SOL     OW16537   4.551   0.801   3.946 -0.1803  0.0137 -0.3362
 1692SOL    HW116538   4.479   0.750   3.908 -2.0599  1.2323  1.6151
 1692SOL    HW216539   4.587   0.843   3.868 -2.2003  0.4460 -1.0501
 1693SOL     OW16540   4.519   3.060   6.314 -0.1485  0.0152 -0.1212
 1693SOL    HW116541   4.598   3.023   6.274  0.7280 -0.1174  1.7345
 1693SOL    HW216542   4.544   3.151   6.330 -0.9765  0.3814 -0.9155
 1694SOL     OW16543   1.787   2.050   4.078  0.1639 -0.2007 -0.1207
 1694SOL    HW116544   1.830   2.132   4.100  1.7830 -0.6925 -1.3963
 1694SOL    HW216545   1.746   2.028   4.161 -0.8831  2.3971  0.0433
 1695SOL     OW16546   2.508   3.103   5.086  0.4128 -0.4763  0.6436
 1695SOL    HW116547   2.591   3.151   5.090  1.0551 -1.5253 -0.1405
 1695SOL    HW216548   2.463   3.159   5.150 -0.7963 -0.9746  0.2416
 1696SOL     OW16549   3.698   3.167   3.228 -0.4694  0.2050 -0.2625
 1696SOL    HW116550   3.639   3.120   3.169  0.0486 -1.5720  0.6549
 1696SOL    HW216551   3.745   3.206   3.154  0.4619  2.3259  1.4398
 1697SOL     OW16552   2.007   2.938   7.479  0.3994  0.1986 -0.2947
 1697SOL    HW116553   1.977   2.855   7.517  1.6436 -1.7253 -3.5449
 1697SOL    HW216554   1.994   2.919   7.386  1.4972  0.5260 -0.5116
 1698SOL     OW16555   1.961   4.314  13.454 -0.7335 -0.1602  0.2116
 1698SOL    HW116556   2.033   4.354  13.405  0.3180  0.8478  2.6094
 1698SOL    HW216557   1.882   4.352  13.418 -0.9746 -0.2464  0.6499
 1699SOL     OW16558   0.990   4.438   1.503  0.0718 -0.1755 -0.2718
 1699SOL    HW116559   1.019   4.501   1.437 -0.8343  0.3137 -0.2056
 1699SOL    HW216560   0.958   4.360   1.458  0.1443  0.5418 -1.5908
 1700SOL     OW16561   1.670   0.370  16.173 -0.0691  0.2977 -0.0060
 1700SOL    HW116562   1.684   0.275  16.171  0.9546  0.4617 -0.4523
 1700SOL    HW216563   1.759   0.405  16.165 -0.5056  1.2595 -0.5743
 1701SOL     OW16564   3.590   2.344   3.881  0.0912 -0.5464  0.0788
 1701SOL    HW116565   3.607   2.420   3.936  2.7308 -1.8672  1.0982
 1701SOL    HW216566   3.529   2.365   3.810 -1.5646  1.6783  2.1839
 1702SOL     OW16567   3.535   2.240  14.395  0.8190 -0.3731  0.0942
 1702SOL    HW116568   3.536   2.193  14.312  3.0005  0.9834 -0.6326
 1702SOL    HW216569   3.490   2.317  14.361 -0.9294 -1.1142  0.7079
 1703SOL     OW16570   1.323   0.696   8.550  0.4564  0.0946 -0.7476
 1703SOL    HW116571   1.403   0.646   8.568  0.1879 -0.1689 -0.2849
 1703SOL    HW216572   1.261   0.646   8.602  0.1922  0.5252 -0.6584
 1704SOL     OW16573   1.536   2.945   9.600  0.0117 -0.1462  0.2426
 1704SOL    HW116574   1.553   2.855   9.629 -1.8299  0.2865  2.7031
 1704SOL    HW216575   1.479   2.932   9.524 -2.9044  3.1631  1.8394
 1705SOL     OW16576   3.797   0.246   9.189  0.1144  0.7020 -0.3416
 1705SOL    HW116577   3.886   0.212   9.201 -1.2880 -1.6799  3.4079
 1705SOL    HW216578   3.766   0.185   9.123 -2.3084  1.0621  0.4545
 1706SOL     OW16579   0.322   3.688   6.782 -0.0633  0.2782 -0.1377
 1706SOL    HW116580   0.409   3.669   6.817 -0.5924 -0.5652  0.7233
 1706SOL    HW216581   0.334   3.685   6.688  0.4478 -1.6484 -0.0171
 1707SOL     OW16582   2.110   1.600  17.314 -0.7436 -0.0476 -0.2944
 1707SOL    HW116583   2.068   1.591  17.229  1.8422 -0.9420 -1.4924
 1707SOL    HW216584   2.202   1.622  17.301 -1.3060  1.8455 -1.0423
 1708SOL     OW16585   3.134   1.577   3.510  0.3303  0.5007  0.4048
 1708SOL    HW116586   3.197   1.647   3.526  0.7736 -0.2809  2.0429
 1708SOL    HW216587   3.067   1.625   3.461  0.9519  0.9695  0.0085
 1709SOL     OW16588   1.469   2.871  12.262  0.5192 -0.1076 -0.4776
 1709SOL    HW116589   1.530   2.799  12.246 -0.1843 -0.5399 -1.2365
 1709SOL    HW216590   1.451   2.906  12.175 -1.4611  0.4915  0.1620
 1710SOL     OW16591   2.552   0.477   2.753  0.1514 -0.3383 -0.5697
 1710SOL    HW116592   2.620   0.454   2.690 -1.9328 -4.2286 -1.3951
 1710SOL    HW216593   2.586   0.435   2.832  0.3746 -0.9995 -1.0241
 1711SOL     OW16594   0.947   0.809   7.202 -0.6943  0.1970 -0.3567
 1711SOL    HW116595   0.929   0.855   7.284 -3.7739 -1.8810  0.0989
 1711SOL    HW216596   0.978   0.885   7.151  0.2581 -0.5343 -0.8793
 1712SOL     OW16597   3.504   3.593   0.733  0.8482  0.4884 -0.1039
 1712SOL    HW116598   3.446   3.521   0.754 -0.2297  0.6324 -2.5886
 1712SOL    HW216599   3.550   3.560   0.655  0.7553  0.0146  0.0434
 1713SOL     OW16600   2.337   0.540   4.132  0.1670 -0.1185  0.6545
 1713SOL    HW116601   2.303   0.538   4.043 -0.4048  1.4655  0.8365
 1713SOL    HW216602   2.285   0.602   4.184  0.9562  0.4016  0.8305
 1714SOL     OW16603   3.070   1.569   5.444 -0.1309  0.4337 -0.2423
 1714SOL    HW116604   3.126   1.497   5.419  0.4846  0.0923  2.0713
 1714SOL    HW216605   2.986   1.534   5.414 -0.4554  1.3828 -0.4582
 1715SOL     OW16606   1.257   2.988   8.083 -0.3201 -0.4558  0.3527
 1715SOL    HW116607   1.321   3.059   8.076  1.6208 -2.4036 -1.5341
 1715SOL    HW216608   1.296   2.936   8.153 -0.4317 -2.2437 -0.9241
 1716SOL     OW16609   4.605   2.607   6.455 -0.0162 -0.5314 -0.4607
 1716SOL    HW116610   4.534   2.549   6.483 -1.1560  1.1071  0.0670
 1716SOL    HW216611   4.570   2.682   6.503 -0.5696 -0.0368 -1.6618
 1717SOL     OW16612   2.839   2.688   3.880  0.3221  0.1517 -0.1175
 1717SOL    HW116613   2.848   2.671   3.974  2.1166 -0.4350 -0.3977
 1717SOL    HW216614   2.847   2.783   3.873  1.1509  0.2939  2.4424
 1718SOL     OW16615   2.194   0.213   4.004  0.2583  0.6576 -0.8629
 1718SOL    HW116616   2.160   0.299   3.979  1.6826  1.3161 -0.5498
 1718SOL    HW216617   2.117   0.157   4.010  0.3664  0.4592 -1.3391
 1719SOL     OW16618   3.567   3.178   5.933 -0.2427  0.4967 -0.5795
 1719SOL    HW116619   3.563   3.094   5.888  0.8065  0.1416 -0.0135
 1719SOL    HW216620   3.475   3.184   5.958 -0.3664 -1.6681 -0.5864
 1720SOL     OW16621   0.089   1.916   8.424  0.6224 -0.4340 -0.3998
 1720SOL    HW116622   0.156   1.912   8.356  0.3558  0.7500 -0.7295
 1720SOL    HW216623   0.133   1.872   8.498  0.7106  1.1539  0.4980
 1721SOL     OW16624   2.559   0.150  14.913 -0.4039 -0.3015 -0.0539
 1721SOL    HW116625   2.601   0.110  14.990 -0.5485 -2.4619 -1.1040
 1721SOL    HW216626   2.582   0.243  14.915 -1.0753 -0.1105 -1.3736
 1722SOL     OW16627   3.724   4.723   3.876 -0.3280 -0.1651 -0.0883
 1722SOL    HW116628   3.793   4.721   3.943 -0.3159  1.8156 -0.0211
 1722SOL    HW216629   3.652   4.701   3.935  0.5285 -2.1923  0.1977
 1723SOL     OW16630   2.488   4.024   0.654 -0.0159  0.1317  0.2735
 1723SOL    HW116631   2.441   4.102   0.628 -1.5523 -1.0143 -0.3604
 1723SOL    HW216632   2.508   4.039   0.746  1.2378 -1.2466  0.2438
 1724SOL     OW16633   1.801   0.575  11.790 -0.5224 -0.7748 -0.5918
 1724SOL    HW116634   1.862   0.644  11.762 -0.1968 -1.2900 -1.1748
 1724SOL    HW216635   1.855   0.496  11.782 -1.8959 -1.6115 -1.6450
 1725SOL     OW16636   3.414   4.223   8.883 -0.1154  0.7356  0.1358
 1725SOL    HW116637   3.472   4.299   8.891 -0.9427  1.1767  1.9901
 1725SOL    HW216638   3.417   4.192   8.973  0.8693  2.2924  0.6477
 1726SOL     OW16639   2.189   0.966  14.551  0.2268  0.1450 -0.1407
 1726SOL    HW116640   2.100   0.985  14.520  0.8168  0.8098 -1.4361
 1726SOL    HW216641   2.174   0.958  14.645  0.4545  0.4021 -0.0810
 1727SOL     OW16642   2.880   3.809   5.447 -0.1083 -0.5094 -0.8615
 1727SOL    HW116643   2.873   3.714   5.437 -0.4956 -0.4096 -1.5475
 1727SOL    HW216644   2.923   3.843   5.369 -0.1683 -0.8102 -1.0252
 1728SOL     OW16645   2.859   3.542   8.912  0.0209  0.0714 -0.5945
 1728SOL    HW116646   2.836   3.635   8.916  1.6087  0.3000  3.3635
 1728SOL    HW216647   2.828   3.530   8.823 -3.8364  2.4242  0.3999
 1729SOL     OW16648   2.271   0.777   7.219  0.0298  0.1800 -0.0642
 1729SOL    HW116649   2.212   0.801   7.290  0.9008 -3.2591  1.7894
 1729SOL    HW216650   2.306   0.863   7.197  0.0466  0.1275 -0.2460
 1730SOL     OW16651   2.130   3.676   5.534 -0.1789 -0.4082  0.1254
 1730SOL    HW116652   2.047   3.636   5.557  0.0181  0.6073  2.5771
 1730SOL    HW216653   2.198   3.650   5.596  1.0534  1.1676 -0.5616
 1731SOL     OW16654   0.058   0.863   6.660 -0.0892 -0.4548 -0.4081
 1731SOL    HW116655   0.052   0.781   6.708 -0.0455  0.1788  0.6876
 1731SOL    HW216656   0.043   0.816   6.578  0.8605  0.1111 -0.9095
 1732SOL     OW16657   3.516   4.066   3.731 -0.5665 -0.6711  0.1696
 1732SOL    HW116658   3.540   3.974   3.721 -0.5060 -0.4962 -1.2908
 1732SOL    HW216659   3.439   4.052   3.786 -0.6272  0.5788  0.3898
 1733SOL     OW16660   3.615   4.692  11.435 -0.1196  0.1809  0.1144
 1733SOL    HW116661   3.670   4.672  11.511  0.0535 -0.9317 -0.3180
 1733SOL    HW216662   3.638   4.610  11.393 -1.5336  0.5624 -1.3804
 1734SOL     OW16663   1.066   4.059   2.078  0.5540  0.5589  0.1404
 1734SOL    HW116664   1.144   4.110   2.100 -0.2359  2.3123 -1.1498
 1734SOL    HW216665   1.090   4.027   1.991  1.1915  3.2596 -0.6688
 1735SOL     OW16666   1.172   2.162   2.072 -0.2571 -0.0563 -0.3014
 1735SOL    HW116667   1.218   2.080   2.088 -1.5085 -0.9566 -1.3474
 1735SOL    HW216668   1.083   2.130   2.063 -0.3457 -0.2286  1.2684
 1736SOL     OW16669   0.178   4.080   0.409  0.6963  0.4970 -0.0469
 1736SOL    HW116670   0.234   4.077   0.487 -0.1446  0.5497  0.5534
 1736SOL    HW216671   0.220   4.158   0.372  0.9027  0.1106 -0.6328
 1737SOL     OW16672   2.815   1.090   3.586 -0.2716 -0.1699  0.2844
 1737SOL    HW116673   2.841   1.141   3.509  1.0519  2.1429  2.2458
 1737SOL    HW216674   2.728   1.127   3.601 -0.1800  0.1549  0.0220
 1738SOL     OW16675   0.133   4.646   5.898  0.1486 -0.3897 -0.1255
 1738SOL    HW116676   0.091   4.708   5.837  1.6567  0.7225 -0.0305
 1738SOL    HW216677   0.101   4.567   5.854 -0.0731 -0.5724  0.3719
 1739SOL     OW16678   1.281   1.172   3.615  0.2345  0.3035  0.2275
 1739SOL    HW116679   1.294   1.095   3.559 -0.0616 -0.1923  0.8461
 1739SOL    HW216680   1.279   1.126   3.699  2.2800 -1.2988 -0.5947
 1740SOL     OW16681   4.362   0.149   0.069 -0.3590 -0.1575 -0.9556
 1740SOL    HW116682   4.422   0.218   0.094  0.2294 -0.9969 -0.0643
 1740SOL    HW216683   4.275   0.175   0.100  0.0840 -0.1247  0.2294
 1741SOL     OW16684   4.621   1.956   4.295 -0.0863 -0.1074 -0.2859
 1741SOL    HW116685   4.565   1.897   4.244  1.0469  0.7960 -2.5614
 1741SOL    HW216686   4.563   1.991   4.363  1.9188 -0.6100  1.6530
 1742SOL     OW16687   0.321   2.216  11.723  0.5488 -0.0806 -0.0536
 1742SOL    HW116688   0.315   2.311  11.730 -3.7355 -0.3177 -0.8066
 1742SOL    HW216689   0.232   2.183  11.710  1.5826 -2.1020 -1.9753
 1743SOL     OW16690   2.194   0.167   8.207 -0.2212  0.5739 -0.1452
 1743SOL    HW116691   2.174   0.221   8.130  3.4395  0.9976 -0.8130
 1743SOL    HW216692   2.168   0.229   8.275 -1.8801 -1.7121  1.2954
 1744SOL     OW16693   1.835   3.822  16.499 -0.3076  0.4201  0.3995
 1744SOL    HW116694   1.826   3.902  16.550  2.5198 -1.6813  4.2789
 1744SOL    HW216695   1.899   3.856  16.437  0.9266 -1.0011  0.8796
 1745SOL     OW16696   3.828   2.897  11.575 -0.0329 -0.3466  0.3507
 1745SOL    HW116697   3.745   2.939  11.594  0.1827  0.9736 -1.6336
 1745SOL    HW216698   3.815   2.892  11.480  0.6519 -0.4951  0.2580
 1746SOL     OW16699   0.857   1.313  15.564 -0.0706  0.8329  0.8775
 1746SOL    HW116700   0.850   1.338  15.472  1.4938 -2.1106 -0.0639
 1746SOL    HW216701   0.840   1.394  15.611 -0.1388  0.7882  0.9306
 1747SOL     OW16702   0.974   3.328  10.601  0.3399  0.3088  0.3902
 1747SOL    HW116703   0.920   3.250  10.590 -0.3562  0.8576 -0.0553
 1747SOL    HW216704   1.062   3.293  10.606  0.7801  1.3556 -0.0115
 1748SOL     OW16705   3.788   2.471   8.904 -0.1103  0.2514 -0.0721
 1748SOL    HW116706   3.722   2.529   8.941 -0.8738 -0.5060 -0.2289
 1748SOL    HW216707   3.740   2.447   8.824  0.9364 -0.9082 -0.3495
 1749SOL     OW16708   0.848   1.818   1.675  0.3687  0.0028 -0.5860
 1749SOL    HW116709   0.785   1.845   1.608 -0.4496 -1.2428 -0.3117
 1749SOL    HW216710   0.870   1.729   1.647 -1.4849  0.1087 -2.3858
 1750SOL     OW16711   4.055   2.562   5.969  0.2569 -0.1743 -0.0712
 1750SOL    HW116712   4.088   2.499   5.905  1.7498  1.8001 -1.2231
 1750SOL    HW216713   4.097   2.523   6.046  1.4059  1.9860  0.3628
 1751SOL     OW16714   0.134   1.537   2.133 -0.0540 -0.0606 -0.2724
 1751SOL    HW116715   0.163   1.446   2.137  1.0987  0.3243  0.1506
 1751SOL    HW216716   0.047   1.521   2.171 -0.1241 -0.9801 -0.8222
 1752SOL     OW16717   4.188   1.434   1.190  0.4717 -0.1962 -0.5699
 1752SOL    HW116718   4.104   1.442   1.144 -0.1032  1.5890  0.7668
 1752SOL    HW216719   4.235   1.498   1.137  0.0750  0.5825  0.0184
 1753SOL     OW16720   3.559   4.424   6.878  0.4755 -0.3357  0.1792
 1753SOL    HW116721   3.541   4.516   6.900 -0.6902 -0.8083  1.1449
 1753SOL    HW216722   3.628   4.418   6.944 -0.7560  1.3634  1.6163
 1754SOL     OW16723   0.789   1.402   6.767 -0.1760 -0.1370 -0.4052
 1754SOL    HW116724   0.783   1.360   6.682  0.9235  2.6165 -1.8263
 1754SOL    HW216725   0.766   1.494   6.753 -1.8281 -0.4104  0.4193
 1755SOL     OW16726   2.735   3.574  11.566 -0.1012 -0.1263  0.0262
 1755SOL    HW116727   2.665   3.524  11.607 -0.3423 -0.4853 -0.8235
 1755SOL    HW216728   2.810   3.543  11.616  0.0202  3.2438  1.9607
 1756SOL     OW16729   2.360   3.098   4.856 -0.4293 -0.1278  0.5006
 1756SOL    HW116730   2.378   3.176   4.804 -1.6240 -0.7572 -0.8598
 1756SOL    HW216731   2.413   3.112   4.935  0.2560 -3.1401  0.5797
 1757SOL     OW16732   2.719   1.366  13.762  0.3918 -0.1772  0.0828
 1757SOL    HW116733   2.654   1.412  13.710  0.6810 -0.7582 -0.8137
 1757SOL    HW216734   2.670   1.312  13.824  0.3001  0.0063  0.1682
 1758SOL     OW16735   4.035   4.227   1.639  0.0224 -0.3407  0.4678
 1758SOL    HW116736   4.102   4.290   1.664  0.2391 -0.4226  0.0967
 1758SOL    HW216737   4.091   4.166   1.590  0.8025 -0.7406  1.8421
 1759SOL     OW16738   0.496   3.116   8.169  0.5432 -1.2490 -0.8006
 1759SOL    HW116739   0.587   3.137   8.146  0.4236  0.2210  0.1047
 1759SOL    HW216740   0.510   3.033   8.215 -1.0399  0.1178  2.1175
 1760SOL     OW16741   3.439   2.850   4.923  0.5540 -0.3237  0.2275
 1760SOL    HW116742   3.471   2.763   4.898 -5.5580 -2.8518  1.3755
 1760SOL    HW216743   3.441   2.906   4.845  0.0870 -3.6005 -2.1625
 1761SOL     OW16744   1.415   2.183   2.558  0.0829 -0.9636  0.0923
 1761SOL    HW116745   1.320   2.169   2.554 -0.1561  0.2856  1.5229
 1761SOL    HW216746   1.424   2.195   2.653  0.7650 -1.4795  0.0944
 1762SOL     OW16747   3.107   3.277   4.132  0.3885  0.2912 -0.1068
 1762SOL    HW116748   3.086   3.328   4.054  0.3779 -0.7536 -0.7915
 1762SOL    HW216749   3.185   3.325   4.159  0.6674 -1.7831  2.7846
 1763SOL     OW16750   4.497   0.503   7.747 -0.0915  0.4489  0.4819
 1763SOL    HW116751   4.526   0.585   7.785  0.7569 -0.4513  1.7587
 1763SOL    HW216752   4.530   0.444   7.815  0.2936  0.0790 -0.0271
 1764SOL     OW16753   1.957   1.392   8.025 -0.4465 -0.2523 -0.0882
 1764SOL    HW116754   2.003   1.474   8.007 -1.8988  0.0156 -2.5474
 1764SOL    HW216755   2.030   1.342   8.062  0.9338  0.1837 -2.2597
 1765SOL     OW16756   0.409   0.966   2.241 -0.2882 -0.4139 -0.0321
 1765SOL    HW116757   0.407   0.928   2.153 -1.1702  1.2001 -0.7155
 1765SOL    HW216758   0.440   0.896   2.298  0.1527  0.3528  0.6627
 1766SOL     OW16759   3.427   2.173   0.840  0.5775 -0.2182 -0.2215
 1766SOL    HW116760   3.475   2.118   0.779  0.3134  1.8934 -2.3355
 1766SOL    HW216761   3.497   2.198   0.901 -1.5565 -1.0679  2.5644
 1767SOL     OW16762   2.045   0.680   8.123  0.3816 -0.2247  0.0638
 1767SOL    HW116763   2.025   0.738   8.049  0.9595  1.2271  1.0467
 1767SOL    HW216764   2.125   0.644   8.086 -0.5149 -3.7843  1.6547
 1768SOL     OW16765   0.262   4.028   5.530 -0.5781 -0.3768 -0.3679
 1768SOL    HW116766   0.220   4.023   5.616  1.0370 -2.3376  0.3163
 1768SOL    HW216767   0.299   4.116   5.530  0.0659 -0.6503 -0.9183
 1769SOL     OW16768   0.844   3.459   9.163 -0.1331  0.4288 -0.1180
 1769SOL    HW116769   0.850   3.389   9.228  1.0802 -0.0478 -0.7488
 1769SOL    HW216770   0.768   3.433   9.111  1.5342 -2.8981 -0.8464
 1770SOL     OW16771   3.342   0.406  11.606  0.2883  0.3560 -0.3757
 1770SOL    HW116772   3.422   0.415  11.656 -0.8149 -1.7344  1.7594
 1770SOL    HW216773   3.277   0.422  11.674  0.2795  1.8942 -0.7511
 1771SOL     OW16774   1.401   0.681  14.027 -0.2852 -0.0800 -0.3698
 1771SOL    HW116775   1.437   0.600  14.063 -1.8167  0.1862  1.7644
 1771SOL    HW216776   1.386   0.658  13.935  1.5872 -2.2260 -0.1411
 1772SOL     OW16777   1.625   3.625   3.099  0.0754  0.8408  0.2283
 1772SOL    HW116778   1.678   3.642   3.177  0.7366  0.4746 -0.1319
 1772SOL    HW216779   1.641   3.705   3.049 -0.4440 -0.1310 -1.4972
 1773SOL     OW16780   3.925   3.125   3.903  0.0305  0.9522  0.4530
 1773SOL    HW116781   3.858   3.117   3.834  1.9680 -2.9879 -0.9524
 1773SOL    HW216782   3.875   3.174   3.968 -0.8918 -0.8731  1.0919
 1774SOL     OW16783   0.884   1.939   8.149 -0.0939  0.5348  0.2382
 1774SOL    HW116784   0.912   1.995   8.076  1.7646 -0.5525  0.1116
 1774SOL    HW216785   0.902   1.853   8.111 -0.0774 -0.5707  2.7656
 1775SOL     OW16786   3.665   3.004  12.539  0.2002 -0.7121  0.0609
 1775SOL    HW116787   3.589   2.951  12.563  0.4679 -1.3658 -0.5402
 1775SOL    HW216788   3.664   3.089  12.583  2.0639 -0.8321  0.3458
 1776SOL     OW16789   1.911   3.041   4.859 -0.3458 -0.1123  0.6213
 1776SOL    HW116790   1.862   2.963   4.833  0.1221  0.3591 -1.6462
 1776SOL    HW216791   1.948   3.091   4.786 -2.7322  0.5534 -0.1571
 1777SOL     OW16792   3.849   4.415   4.750 -0.0627  0.1685  0.1258
 1777SOL    HW116793   3.820   4.499   4.787  0.0844 -0.0827  0.8046
 1777SOL    HW216794   3.785   4.354   4.786 -0.9899  0.9082 -0.2460
 1778SOL     OW16795   0.617   2.561   5.301 -0.1626 -0.0803  0.1412
 1778SOL    HW116796   0.598   2.467   5.299  0.5790 -0.2245  0.1738
 1778SOL    HW216797   0.584   2.582   5.389 -0.8850 -0.4777 -0.0339
 1779SOL     OW16798   2.272   1.296  12.699 -0.0198 -0.2254 -0.2211
 1779SOL    HW116799   2.292   1.341  12.782  1.0556 -1.3681  0.1460
 1779SOL    HW216800   2.339   1.228  12.707  1.0672  0.8578  0.0173
 1780SOL     OW16801   0.170   0.652  16.393 -0.7909 -0.1280  0.1640
 1780SOL    HW116802   0.102   0.593  16.360 -0.6467 -0.7536  0.9877
 1780SOL    HW216803   0.249   0.623  16.348 -0.0522  1.0779  0.7011
 1781SOL     OW16804   2.732   1.803   5.225 -0.1545 -0.6727  0.0400
 1781SOL    HW116805   2.822   1.798   5.194 -0.5407  0.8017 -1.3061
 1781SOL    HW216806   2.704   1.885   5.184 -1.0486 -0.4986  1.0083
 1782SOL     OW16807   0.197   1.645  17.554  0.4855 -0.5902 -0.0386
 1782SOL    HW116808   0.166   1.564  17.596 -1.8672  0.0519 -0.5632
 1782SOL    HW216809   0.207   1.706  17.627  0.4472  0.3594 -0.8266
 1783SOL     OW16810   1.803   1.280  11.123 -0.3639 -0.2944  0.3921
 1783SOL    HW116811   1.886   1.315  11.155 -0.2204 -0.9221  0.7021
 1783SOL    HW216812   1.832   1.222  11.053 -0.8855  0.5271 -0.4990
 1784SOL     OW16813   1.962   4.361   8.792  0.3007 -0.4298 -0.3412
 1784SOL    HW116814   2.037   4.392   8.843  0.9228 -0.0163 -1.5063
 1784SOL    HW216815   1.986   4.400   8.707 -2.3448 -1.0636 -1.3550
 1785SOL     OW16816   3.439   2.812  11.148 -0.0732  0.0933  0.5432
 1785SOL    HW116817   3.477   2.851  11.070 -1.2367 -0.3139 -0.2301
 1785SOL    HW216818   3.504   2.843  11.211 -2.4123  1.7233  2.1563
 1786SOL     OW16819   0.547   2.646   2.928  0.1597  0.2042  0.2496
 1786SOL    HW116820   0.481   2.693   2.980  0.7591 -1.2047  2.2623
 1786SOL    HW216821   0.593   2.607   3.002  0.7191 -2.3853 -1.4510
 1787SOL     OW16822   3.156   4.550   6.476 -0.0801  0.4837 -0.6360
 1787SOL    HW116823   3.143   4.616   6.409 -2.4650  1.5111  0.8370
 1787SOL    HW216824   3.228   4.591   6.525 -0.1370  1.2548 -1.2009
 1788SOL     OW16825   4.715   1.246   7.831  0.5577 -0.1819 -0.7112
 1788SOL    HW116826   0.060   1.232   7.896 -1.4619  2.3400  2.0186
 1788SOL    HW216827   0.022   1.332   7.804  0.8121  0.6569  2.1703
 1789SOL     OW16828   2.332   1.423  12.923 -1.0104  0.3134  0.5311
 1789SOL    HW116829   2.332   1.470  13.006  0.5245  0.6507  0.3501
 1789SOL    HW216830   2.377   1.487  12.868  1.0753  0.9136  2.9292
 1790SOL     OW16831   2.087   0.043   2.501 -0.2182 -0.3120 -0.1585
 1790SOL    HW116832   2.089   0.131   2.464 -2.7210 -1.0157 -1.9218
 1790SOL    HW216833   2.140   0.051   2.581 -1.6327 -0.6446  0.8052
 1791SOL     OW16834   0.080   2.370   2.375  0.1920  0.4446 -0.9180
 1791SOL    HW116835   0.100   2.452   2.421  0.0004 -0.9362  1.6357
 1791SOL    HW216836   4.713   2.350   2.392  0.5609  0.9660  1.6363
 1792SOL     OW16837   1.765   3.370  17.147 -0.3825  0.0095 -0.2665
 1792SOL    HW116838   1.701   3.414  17.092 -0.8251  1.6637  1.5752
 1792SOL    HW216839   1.708   3.361  17.224  1.0729  0.2421  0.8508
 1793SOL     OW16840   4.712   2.482   9.777  0.2126  0.8739  0.4431
 1793SOL    HW116841   0.067   2.508   9.732 -0.4512 -1.1027 -1.9433
 1793SOL    HW216842   4.641   2.483   9.712 -1.0089  0.0164  1.7567
 1794SOL     OW16843   1.763   1.742   3.468 -0.5370 -0.1068  0.4349
 1794SOL    HW116844   1.712   1.777   3.396  0.5732 -1.1098 -0.8388
 1794SOL    HW216845   1.815   1.816   3.499  0.3620 -0.0328 -1.2955
 1795SOL     OW16846   2.025   3.663   7.448  0.2574  0.3191 -0.1908
 1795SOL    HW116847   1.983   3.598   7.392  0.1764  0.3776 -0.1989
 1795SOL    HW216848   2.118   3.649   7.434  0.4898  0.1369  1.5298
 1796SOL     OW16849   1.068   4.195  10.954 -0.1481 -0.6543  0.0401
 1796SOL    HW116850   1.049   4.136  11.027 -0.9780 -1.4812 -0.8430
 1796SOL    HW216851   1.015   4.167  10.879 -2.4111 -2.5009  2.3196
 1797SOL     OW16852   0.251   3.016   8.363  0.3214 -0.3483 -0.2793
 1797SOL    HW116853   0.283   3.007   8.274  3.4228  1.7043  0.6247
 1797SOL    HW216854   0.254   2.923   8.387  0.4886  0.3495  2.4678
 1798SOL     OW16855   4.580   3.305   4.698 -0.1339 -0.4079  0.1127
 1798SOL    HW116856   4.516   3.375   4.687  1.7856  1.2921 -0.1071
 1798SOL    HW216857   4.640   3.333   4.629 -1.4483  0.6489 -0.6071
 1799SOL     OW16858   1.040   3.611   9.239 -0.0940  0.5589 -0.2910
 1799SOL    HW116859   1.124   3.579   9.274 -0.4202  0.1369  0.0977
 1799SOL    HW216860   1.010   3.533   9.192 -0.0413  0.7442 -0.6320
 1800SOL     OW16861   2.529   1.184  12.998  0.3023  0.0813  0.4238
 1800SOL    HW116862   2.517   1.275  12.970 -3.6339 -0.4466  0.3901
 1800SOL    HW216863   2.597   1.201  13.063  1.8105 -0.6329 -0.9726
 1801SOL     OW16864   2.535   3.123   4.462  0.6733  0.4011 -0.0534
 1801SOL    HW116865   2.480   3.133   4.385  0.5295  0.1565  0.0138
 1801SOL    HW216866   2.520   3.029   4.476  1.8722 -0.1885 -2.8293
 1802SOL     OW16867   1.005   1.974   4.605 -0.1986 -0.4553  0.5635
 1802SOL    HW116868   1.044   1.905   4.658 -0.2008  0.2629  1.4982
 1802SOL    HW216869   1.053   1.970   4.522  0.4719  2.3372  0.8286
 1803SOL     OW16870   3.544   3.517   7.966 -0.4447  0.4568  0.7148
 1803SOL    HW116871   3.517   3.452   7.901 -0.9397  0.6913  0.6901
 1803SOL    HW216872   3.506   3.482   8.047 -0.3814  0.8336  0.9083
 1804SOL     OW16873   2.015   3.083   5.891  0.0777  0.1070  0.2160
 1804SOL    HW116874   1.968   3.165   5.877  0.6152  0.2125 -0.9571
 1804SOL    HW216875   2.107   3.109   5.896  0.1448 -0.5946  3.1005
 1805SOL     OW16876   3.349   3.669   7.576  0.5977 -0.3129  0.3507
 1805SOL    HW116877   3.408   3.713   7.638  0.4394  0.0419  0.2439
 1805SOL    HW216878   3.410   3.605   7.538  2.4291  1.4170  0.3229
 1806SOL     OW16879   3.399   1.775   5.625  0.3666  0.1597  0.1299
 1806SOL    HW116880   3.470   1.834   5.600  0.1365  1.2068  1.9367
 1806SOL    HW216881   3.373   1.739   5.540 -2.6355  0.0389  1.0871
 1807SOL     OW16882   1.780   4.461   5.421  0.2277  0.2690  0.2983
 1807SOL    HW116883   1.702   4.491   5.374  1.8750  0.0234 -2.5975
 1807SOL    HW216884   1.745   4.438   5.507 -1.6820  3.0782  0.2929
 1808SOL     OW16885   4.474   1.570   7.162 -0.3234 -0.4096 -0.1430
 1808SOL    HW116886   4.400   1.613   7.119  0.3147  3.0230  2.2114
 1808SOL    HW216887   4.426   1.508   7.219  1.6064 -1.0142  0.8295
 1809SOL     OW16888   1.201   1.848   1.194 -0.0117 -0.6422  0.2234
 1809SOL    HW116889   1.187   1.807   1.109  1.1103 -1.6256  0.5126
 1809SOL    HW216890   1.289   1.813   1.207 -0.0462 -0.7033  0.2917
 1810SOL     OW16891   2.316   3.198  16.927 -0.5884  0.1173 -0.8955
 1810SOL    HW116892   2.340   3.283  16.888 -1.1164  1.9321  2.7211
 1810SOL    HW216893   2.400   3.157  16.949 -1.4057 -1.4557 -0.7751
 1811SOL     OW16894   1.181   1.623   1.401  0.3842 -0.1399  0.0289
 1811SOL    HW116895   1.272   1.635   1.376  0.0512  0.3670 -0.9510
 1811SOL    HW216896   1.134   1.623   1.318 -0.4082 -3.4204  0.4725
 1812SOL     OW16897   3.934   4.659   5.761  0.0048 -0.1899  0.0064
 1812SOL    HW116898   3.884   4.580   5.740 -1.4850  1.7489 -3.7142
 1812SOL    HW216899   4.022   4.624   5.775  0.0045 -0.3561 -0.4294
 1813SOL     OW16900   3.560   0.944   4.649 -0.5759  0.4522 -0.6178
 1813SOL    HW116901   3.564   0.955   4.554  1.5250 -0.5745 -0.6555
 1813SOL    HW216902   3.467   0.933   4.670  0.0741 -3.0110  0.4368
 1814SOL     OW16903   4.240   3.505   7.026  0.2499 -0.1495  0.3025
 1814SOL    HW116904   4.294   3.509   6.946 -0.0184  4.8157  0.3873
 1814SOL    HW216905   4.201   3.418   7.019 -1.6037  0.8528 -1.9341
 1815SOL     OW16906   1.650   3.726   6.114  0.7908 -0.1155  0.1002
 1815SOL    HW116907   1.634   3.815   6.146 -0.3060  0.1184 -1.0718
 1815SOL    HW216908   1.717   3.693   6.173  0.9558  1.2193  0.6659
 1816SOL     OW16909   2.046   3.196   3.356 -0.3732 -1.0096 -0.2303
 1816SOL    HW116910   2.059   3.171   3.447 -1.0740 -0.0598  0.1290
 1816SOL    HW216911   1.986   3.128   3.325 -2.1342  0.2005  0.5010
 1817SOL     OW16912   0.561   2.933  16.113  0.2855 -0.5468 -0.2664
 1817SOL    HW116913   0.526   2.885  16.187 -1.3083 -3.1893 -2.7679
 1817SOL    HW216914   0.540   3.023  16.139  0.4289 -1.0929  1.7214
 1818SOL     OW16915   0.996   3.468   4.598 -0.2783 -0.3761 -0.2604
 1818SOL    HW116916   0.916   3.417   4.589 -1.2100  1.1218 -0.4002
 1818SOL    HW216917   0.992   3.489   4.691  2.2642 -0.1526 -0.1819
 1819SOL     OW16918   0.472   1.538   6.084  0.2885 -0.3990 -0.1591
 1819SOL    HW116919   0.549   1.591   6.100 -1.6276  1.5106  2.7122
 1819SOL    HW216920   0.460   1.498   6.170 -2.0723 -0.7908 -0.6670
 1820SOL     OW16921   3.400   3.258   8.625 -0.0470 -0.6737  0.0719
 1820SOL    HW116922   3.484   3.264   8.671  0.0493 -0.9009 -0.0756
 1820SOL    HW216923   3.346   3.298   8.693  1.1020 -0.8005  1.0621
 1821SOL     OW16924   2.402   1.503   4.393 -0.0392  0.0246 -0.0727
 1821SOL    HW116925   2.478   1.510   4.335 -0.2568  0.6640 -0.2827
 1821SOL    HW216926   2.447   1.519   4.476 -1.5522 -1.5843  1.0681
 1822SOL     OW16927   1.873   0.593   3.823  0.4606  0.0434 -0.3286
 1822SOL    HW116928   1.895   0.677   3.864 -2.0316  0.7629 -0.4268
 1822SOL    HW216929   1.792   0.613   3.775 -0.5121 -1.5746  0.6552
 1823SOL     OW16930   2.374   0.571   1.931  0.1394 -0.2966 -0.5519
 1823SOL    HW116931   2.314   0.505   1.897  1.1143 -0.1089 -2.6741
 1823SOL    HW216932   2.316   0.611   1.996  0.9000  0.4205 -0.3119
 1824SOL     OW16933   2.821   4.126   9.591  0.2879  0.5018 -0.4348
 1824SOL    HW116934   2.802   4.130   9.498  1.7556  1.6254 -0.6864
 1824SOL    HW216935   2.766   4.055   9.625  0.3571 -0.4390 -2.3347
 1825SOL     OW16936   2.543   3.493   4.473 -0.0640 -0.5289 -0.1643
 1825SOL    HW116937   2.594   3.478   4.394  1.4486  0.6180  0.5910
 1825SOL    HW216938   2.459   3.455   4.447 -0.7243 -0.4821  1.9449
 1826SOL     OW16939   3.035   1.743   4.209 -0.1057 -0.2278 -0.2412
 1826SOL    HW116940   3.078   1.694   4.139 -1.2942 -1.0436 -0.3991
 1826SOL    HW216941   3.026   1.677   4.277 -0.3997 -0.3051 -0.3573
 1827SOL     OW16942   2.929   4.501   4.730 -0.3851 -0.0569  0.0643
 1827SOL    HW116943   2.981   4.538   4.658  1.6690 -1.6920  0.7044
 1827SOL    HW216944   2.929   4.409   4.705 -2.1735 -0.5796  1.9851
 1828SOL     OW16945   1.696   4.536   6.207  0.4423  0.2290 -0.3703
 1828SOL    HW116946   1.740   4.569   6.129 -1.6349  0.6779 -1.3701
 1828SOL    HW216947   1.759   4.564   6.273  0.3697 -0.5234  0.0204
 1829SOL     OW16948   1.341   3.041   2.459  0.2968  0.3728 -0.0132
 1829SOL    HW116949   1.402   3.114   2.447  0.4104  0.5836  1.7773
 1829SOL    HW216950   1.376   2.974   2.401  0.2073 -0.0364  0.4028
 1830SOL     OW16951   2.945   1.496  13.606 -0.0782 -0.2151 -0.7934
 1830SOL    HW116952   2.851   1.482  13.614  0.0406 -1.7572 -2.1251
 1830SOL    HW216953   2.947   1.532  13.517  2.3653  2.1092  0.1765
 1831SOL     OW16954   1.862   0.330   3.015  0.2501 -0.7396 -0.0442
 1831SOL    HW116955   1.852   0.240   3.049 -0.9533 -0.4295  0.4366
 1831SOL    HW216956   1.850   0.309   2.923  1.1946  0.9912 -0.5487
 1832SOL     OW16957   4.042   3.556   5.835  0.3007  0.8433 -0.5913
 1832SOL    HW116958   3.955   3.548   5.796  0.7470  0.3912 -1.4906
 1832SOL    HW216959   4.024   3.514   5.919 -3.2457 -1.4725 -2.5107
 1833SOL     OW16960   4.476   3.433   5.665  0.0662  0.0004 -0.3998
 1833SOL    HW116961   4.492   3.444   5.571  1.2703  0.7870 -0.0942
 1833SOL    HW216962   4.423   3.509   5.688 -0.0138 -0.1109 -0.2113
 1834SOL     OW16963   3.054   0.832  11.719  0.4508 -0.5013 -0.4145
 1834SOL    HW116964   3.038   0.758  11.777 -1.0401  0.2805  0.1700
 1834SOL    HW216965   3.090   0.788  11.642 -1.3416 -1.6614 -0.5752
 1835SOL     OW16966   4.549   1.562   5.933 -0.2013  0.3007 -0.4172
 1835SOL    HW116967   4.456   1.580   5.944 -0.4385 -0.9510 -0.3471
 1835SOL    HW216968   4.581   1.621   6.000 -2.5858 -0.1754  1.1282
 1836SOL     OW16969   3.125   3.388   9.213 -0.1513  0.5539 -0.5669
 1836SOL    HW116970   3.127   3.467   9.159  0.5782  0.5479 -0.5397
 1836SOL    HW216971   3.031   3.370   9.211 -0.3323  1.2336  1.2683
 1837SOL     OW16972   2.817   1.483   4.610 -0.0464 -0.0117 -0.1223
 1837SOL    HW116973   2.850   1.492   4.520 -1.0397  0.1259 -0.4694
 1837SOL    HW216974   2.867   1.404   4.632  0.2840  0.8728  2.2986
 1838SOL     OW16975   3.296   4.474   2.176 -0.6770 -0.1363 -0.1441
 1838SOL    HW116976   3.284   4.569   2.179  0.4094  0.0422 -1.1815
 1838SOL    HW216977   3.359   4.455   2.246  1.3953  2.9904 -1.1282
 1839SOL     OW16978   3.846   3.796   7.591  0.4538 -0.3863 -0.0369
 1839SOL    HW116979   3.934   3.820   7.562 -0.0077 -0.0900 -1.1847
 1839SOL    HW216980   3.863   3.709   7.628 -0.6085 -0.3057  0.6189
 1840SOL     OW16981   1.196   1.886   2.072  0.2561 -0.8964  0.1654
 1840SOL    HW116982   1.267   1.824   2.054  0.3862 -0.8911  0.6468
 1840SOL    HW216983   1.151   1.866   1.990 -1.4069 -0.0143  0.8741
 1841SOL     OW16984   0.824   1.553   0.954  0.0008 -0.2398 -0.0166
 1841SOL    HW116985   0.791   1.618   1.016  0.3822 -1.6152  1.6486
 1841SOL    HW216986   0.776   1.571   0.874 -0.3812 -0.6301  0.1264
 1842SOL     OW16987   0.035   1.740  12.696 -0.3110 -0.8794  0.1728
 1842SOL    HW116988   0.068   1.687  12.624  1.2821 -0.2005  0.4078
 1842SOL    HW216989   0.038   1.685  12.774  1.4639  0.3754  0.9918
 1843SOL     OW16990   0.243   3.719   8.620  1.0506 -0.2908 -0.1200
 1843SOL    HW116991   0.309   3.780   8.654  0.1383 -0.7195  2.4148
 1843SOL    HW216992   0.306   3.656   8.585  1.6087  0.9375 -1.3425
 1844SOL     OW16993   4.273   4.595   8.913  0.6283 -0.0842 -0.6487
 1844SOL    HW116994   4.218   4.581   8.990  1.6690 -1.2727 -0.1243
 1844SOL    HW216995   4.325   4.514   8.913  3.5266  1.7832 -1.1114
 1845SOL     OW16996   3.504   1.117   3.163  0.1503  0.0676 -0.3467
 1845SOL    HW116997   3.560   1.054   3.209  1.5623  2.1549  0.7555
 1845SOL    HW216998   3.514   1.190   3.224 -1.5977  1.0238 -1.1884
 1846SOL     OW16999   2.672   4.297   6.445 -0.2384  0.1873 -0.4336
 1846SOL    HW117000   2.737   4.364   6.464  0.3268  0.5078 -3.4925
 1846SOL    HW217001   2.717   4.245   6.379  1.8746 -1.4947  2.3436
 1847SOL     OW17002   1.252   0.710   4.004 -0.0978  0.4044 -0.8620
 1847SOL    HW117003   1.196   0.691   3.929 -0.3632 -1.9504 -0.0660
 1847SOL    HW217004   1.196   0.664   4.067 -0.2191  0.3752 -0.9903
 1848SOL     OW17005   1.061   1.891  12.145 -0.2487 -0.4128 -0.1041
 1848SOL    HW117006   1.015   1.923  12.067  1.8293  0.0056 -1.1699
 1848SOL    HW217007   1.039   1.798  12.145 -0.9634 -0.2427 -1.2754
 1849SOL     OW17008   1.857   1.510   2.176  0.1903  0.6743 -0.3282
 1849SOL    HW117009   1.933   1.469   2.218  0.6203  2.5508  0.6937
 1849SOL    HW217010   1.807   1.528   2.256  1.2544 -1.1751  0.7648
 1850SOL     OW17011   3.324   0.693  15.845  0.2698 -0.1477 -0.2527
 1850SOL    HW117012   3.407   0.660  15.809  0.7352  0.7365  0.0157
 1850SOL    HW217013   3.269   0.616  15.832  0.8453 -1.0733  2.6799
 1851SOL     OW17014   1.982   4.297   3.293  0.5045 -0.2502  0.4057
 1851SOL    HW117015   2.020   4.376   3.255  0.4030 -0.5981 -0.4169
 1851SOL    HW217016   1.888   4.304   3.308  0.9222  0.7021  2.5171
 1852SOL     OW17017   2.142   2.789   9.905 -0.3911 -0.5405 -0.2293
 1852SOL    HW117018   2.060   2.768   9.950  1.2077 -3.0484  1.4990
 1852SOL    HW217019   2.126   2.879   9.876  1.7561 -0.1636 -0.2393
 1853SOL     OW17020   4.556   3.068   1.847 -0.2590  0.0083  0.9556
 1853SOL    HW117021   4.531   3.036   1.761 -1.7865  3.1698  0.2346
 1853SOL    HW217022   4.607   2.994   1.881 -0.6545  0.0979  1.7613
 1854SOL     OW17023   3.746   0.381   4.955 -0.0057  0.2472  0.0170
 1854SOL    HW117024   3.765   0.475   4.958  1.7309 -0.1284  1.1380
 1854SOL    HW217025   3.706   0.372   5.041 -0.0775 -2.5380 -0.3043
 1855SOL     OW17026   4.090   3.891   0.341  0.0298  0.5066 -0.4481
 1855SOL    HW117027   4.127   3.948   0.274 -0.8056 -0.8760 -2.1026
 1855SOL    HW217028   4.164   3.894   0.401 -0.3133 -0.6306  0.0423
 1856SOL     OW17029   0.659   2.102   4.160 -0.1120 -0.8248  0.7081
 1856SOL    HW117030   0.698   2.041   4.097 -0.4457  1.2627 -1.5309
 1856SOL    HW217031   0.685   2.055   4.239 -1.4866  1.4002  2.5086
 1857SOL     OW17032   4.518   3.857   3.492  0.1111  0.4548  0.0008
 1857SOL    HW117033   4.474   3.774   3.511  0.7417  0.3870  1.1682
 1857SOL    HW217034   4.486   3.880   3.405  2.9750 -0.0125 -1.1787
 1858SOL     OW17035   1.018   1.988   3.334  0.4118 -0.1275 -0.0205
 1858SOL    HW117036   1.092   2.019   3.281  0.1102 -0.0099 -0.3747
 1858SOL    HW217037   0.997   1.902   3.298  1.4774  0.7047 -2.6243
 1859SOL     OW17038   3.761   3.351   3.869 -0.9317 -0.1043 -0.4769
 1859SOL    HW117039   3.667   3.332   3.868 -0.4974 -2.1104 -2.2998
 1859SOL    HW217040   3.793   3.339   3.780  0.3083 -0.1433 -0.0238
 1860SOL     OW17041   0.136   0.850   9.970 -0.1034 -0.3143  0.5296
 1860SOL    HW117042   0.060   0.865   9.914  0.5230  0.1737 -0.1975
 1860SOL    HW217043   0.177   0.934   9.991 -0.1667  0.1341 -1.1258
 1861SOL     OW17044   0.316   1.041   2.658 -0.2656  0.0004  0.2879
 1861SOL    HW117045   0.258   1.103   2.702 -0.7765 -1.5032  1.7277
 1861SOL    HW217046   0.247   0.995   2.610  0.8798 -0.1294 -1.2515
 1862SOL     OW17047   1.350   2.187   8.570  0.0372 -0.3290  0.1292
 1862SOL    HW117048   1.347   2.196   8.475  1.7529  0.9393  0.1950
 1862SOL    HW217049   1.378   2.096   8.582 -0.0744 -0.3325  0.3656
 1863SOL     OW17050   0.881   1.007  13.881  0.0141  0.1569  0.1597
 1863SOL    HW117051   0.940   0.971  13.946  1.5862 -0.1349 -1.4323
 1863SOL    HW217052   0.901   1.099  13.895  0.7001 -0.2317  1.6614
 1864SOL     OW17053   4.057   3.205   7.601  0.0494  0.0568 -0.0922
 1864SOL    HW117054   3.997   3.139   7.635  0.5860 -0.2692  0.2294
 1864SOL    HW217055   4.134   3.157   7.570  0.1647  0.5485 -0.5615
 1865SOL     OW17056   1.408   1.701   8.869 -0.3107 -0.2153  0.6076
 1865SOL    HW117057   1.428   1.623   8.817 -1.2438  2.0099 -3.0658
 1865SOL    HW217058   1.426   1.665   8.956 -0.5151  0.4365  0.9201
 1866SOL     OW17059   4.472   1.031   0.477 -0.2094  0.1172 -0.7257
 1866SOL    HW117060   4.497   1.123   0.472 -0.3670  0.2423  0.7458
 1866SOL    HW217061   4.423   1.048   0.558  0.1770 -0.1262 -0.4410
 1867SOL     OW17062   0.769   4.425   5.455 -0.2252 -0.1682 -0.1381
 1867SOL    HW117063   0.706   4.495   5.477  1.4451  1.4361 -0.4614
 1867SOL    HW217064   0.846   4.476   5.429  0.7423 -0.9505  1.2176
 1868SOL     OW17065   2.166   0.896   7.585  0.7559  0.2837  0.2410
 1868SOL    HW117066   2.076   0.922   7.607  0.0679  0.6357 -2.9902
 1868SOL    HW217067   2.154   0.874   7.493  0.4639 -2.0114  0.8262
 1869SOL     OW17068   1.860   0.137   5.710  0.0217  0.4794 -0.5977
 1869SOL    HW117069   1.821   0.223   5.690 -3.3141 -0.3421  2.4005
 1869SOL    HW217070   1.892   0.145   5.799 -1.8146 -0.0489  0.1137
 1870SOL     OW17071   4.479   0.136   1.082 -0.1905 -0.3093 -0.2523
 1870SOL    HW117072   4.489   0.150   1.176 -2.6236 -0.1369 -0.0292
 1870SOL    HW217073   4.551   0.195   1.057 -1.4702 -0.0922 -3.4493
 1871SOL     OW17074   4.467   3.580   2.624  0.3213 -0.0272  0.3714
 1871SOL    HW117075   4.513   3.496   2.633  1.9644  0.5423 -2.8053
 1871SOL    HW217076   4.509   3.627   2.552 -0.9803  0.4378 -0.0691
 1872SOL     OW17077   1.581   1.070   1.893  0.4474 -0.4673  0.5821
 1872SOL    HW117078   1.570   0.987   1.847  0.6031  0.0091 -0.3119
 1872SOL    HW217079   1.659   1.109   1.854  0.7372  0.6023  2.2322
 1873SOL     OW17080   3.378   2.033   3.216 -0.2721  0.1668  0.4126
 1873SOL    HW117081   3.364   1.950   3.171 -1.7790  1.0324 -0.6950
 1873SOL    HW217082   3.446   2.005   3.278 -1.1164  0.6693  1.5693
 1874SOL     OW17083   2.645   1.890   8.374  0.1167 -0.2464  0.3520
 1874SOL    HW117084   2.643   1.925   8.285 -0.5853 -0.0189  0.4611
 1874SOL    HW217085   2.738   1.909   8.389 -0.2192  0.9893  0.8325
 1875SOL     OW17086   1.442   2.700   5.004 -0.0700 -0.0284  0.3203
 1875SOL    HW117087   1.512   2.663   4.951 -2.0308 -2.4050 -0.6442
 1875SOL    HW217088   1.418   2.773   4.947  2.8223  1.3916  0.9741
 1876SOL     OW17089   3.177   2.660  16.479  0.4290 -0.5490  0.4618
 1876SOL    HW117090   3.103   2.609  16.514 -0.6301  1.8263  1.7048
 1876SOL    HW217091   3.152   2.703  16.397 -0.9914 -1.0960  0.6055
 1877SOL     OW17092   0.054   1.166  15.513 -0.0105  0.2037  1.0820
 1877SOL    HW117093   0.076   1.082  15.473 -1.5067  0.7757 -0.9461
 1877SOL    HW217094   4.699   1.139  15.559 -0.4354  0.8735  0.7359
 1878SOL     OW17095   3.675   3.225   8.693  0.2252  0.7335 -0.1445
 1878SOL    HW117096   3.751   3.212   8.636 -1.7849 -3.1919 -1.9071
 1878SOL    HW217097   3.699   3.312   8.724  0.4694  0.6566 -0.1143
 1879SOL     OW17098   2.688   3.091   6.842 -0.0597 -0.3707 -0.3118
 1879SOL    HW117099   2.677   3.080   6.936  1.3157 -1.7270 -0.3210
 1879SOL    HW217100   2.601   3.126   6.819 -0.4953  0.6991  3.0784
 1880SOL     OW17101   2.043   3.369  17.138  0.5270 -0.1142  0.0870
 1880SOL    HW117102   1.949   3.380  17.151  0.1967 -1.8860 -0.8366
 1880SOL    HW217103   2.063   3.330  17.223 -1.8023  1.0236  1.1368
 1881SOL     OW17104   2.632   3.453   3.925 -0.5425 -0.1982 -0.4406
 1881SOL    HW117105   2.650   3.368   3.885 -0.5709 -0.8201  0.8387
 1881SOL    HW217106   2.544   3.459   3.888 -0.9705 -1.1474  0.4001
 1882SOL     OW17107   4.569   0.172   1.342  0.0022 -0.5776  0.5947
 1882SOL    HW117108   4.543   0.139   1.428  0.4797  2.5318  1.9243
 1882SOL    HW217109   4.662   0.189   1.353  0.1629 -1.4909  0.5987
 1883SOL     OW17110   1.311   2.862   4.175 -0.2303  0.6409 -0.1046
 1883SOL    HW117111   1.290   2.914   4.253 -1.8761  0.5557 -0.5068
 1883SOL    HW217112   1.401   2.895   4.169  0.7520 -1.8482  0.9543
 1884SOL     OW17113   4.416   1.222   3.174  0.2060  0.0004  0.4006
 1884SOL    HW117114   4.441   1.271   3.096  0.7384  0.1587  0.6717
 1884SOL    HW217115   4.322   1.220   3.155  0.5570 -1.1667 -1.1260
 1885SOL     OW17116   0.309   2.386   5.763  0.2445 -0.3433 -0.3631
 1885SOL    HW117117   0.375   2.450   5.791  0.5626 -1.6265  1.8308
 1885SOL    HW217118   0.338   2.375   5.672 -1.1549  1.1280 -0.9972
 1886SOL     OW17119   3.840   1.016   4.229  0.3525 -0.7889 -0.1528
 1886SOL    HW117120   3.819   1.065   4.308  0.3125  0.9136 -1.2152
 1886SOL    HW217121   3.772   0.948   4.233  0.0445 -0.4531  0.2204
 1887SOL     OW17122   4.620   1.703   5.540 -0.1874  0.7904  0.5955
 1887SOL    HW117123   4.539   1.754   5.537 -1.6636 -1.5988 -0.3510
 1887SOL    HW217124   4.661   1.734   5.620  0.1484  0.7756  0.4275
 1888SOL     OW17125   0.152   1.343  12.324  0.2102 -0.0167 -0.2743
 1888SOL    HW117126   0.244   1.350  12.297 -0.2836  0.3949 -1.8653
 1888SOL    HW217127   0.121   1.278  12.261  1.5030 -0.9375  0.0451
 1889SOL     OW17128   4.145   3.187  14.870  0.3069 -0.7626  0.7034
 1889SOL    HW117129   4.143   3.109  14.814 -0.6547  1.0167 -1.7500
 1889SOL    HW217130   4.193   3.246  14.812  0.3401 -2.3387 -0.8826
 1890SOL     OW17131   0.616   0.129   6.254 -0.1911 -0.1891 -0.0691
 1890SOL    HW117132   0.663   0.117   6.337 -1.9034 -0.2345  0.9045
 1890SOL    HW217133   0.656   0.070   6.190 -0.9397 -0.3597 -0.3792
 1891SOL     OW17134   2.690   2.929   1.691 -0.4662  0.4850 -0.1508
 1891SOL    HW117135   2.698   2.993   1.620 -2.6715 -0.4621 -1.2360
 1891SOL    HW217136   2.651   2.854   1.646 -0.6287 -0.1530  1.0679
 1892SOL     OW17137   0.135   4.670  11.005  0.2388 -0.0989 -0.6541
 1892SOL    HW117138   0.120   4.690  10.912 -2.8037  1.7792  0.2588
 1892SOL    HW217139   0.229   4.690  11.008  0.3854 -1.0617  1.1183
 1893SOL     OW17140   3.177   2.050  10.801 -0.0848  0.0950  0.0174
 1893SOL    HW117141   3.091   2.087  10.823 -0.1440  0.7781 -1.4035
 1893SOL    HW217142   3.170   1.968  10.849 -2.6781  0.4154  0.1876
 1894SOL     OW17143   3.040   3.917   5.841  0.6686  0.2174 -0.5467
 1894SOL    HW117144   3.104   3.926   5.770  1.2980  2.9325  0.3378
 1894SOL    HW217145   2.960   3.940   5.792  1.1528  1.8654 -0.5694
 1895SOL     OW17146   1.837   2.800   2.312 -0.1348  0.0368 -0.2152
 1895SOL    HW117147   1.795   2.876   2.270 -0.8075 -0.9368 -1.2860
 1895SOL    HW217148   1.803   2.735   2.251 -0.1790  0.3851 -0.5660
 1896SOL     OW17149   0.982   0.704   4.275  0.3506  0.3373  0.2468
 1896SOL    HW117150   0.999   0.641   4.205  0.6623  0.0709  0.5627
 1896SOL    HW217151   0.937   0.765   4.218 -0.2454 -1.7811 -1.5181
 1897SOL     OW17152   0.469   0.695   1.494 -0.1488  0.1013 -0.6556
 1897SOL    HW117153   0.500   0.718   1.407  1.5083  0.2642 -0.0146
 1897SOL    HW217154   0.545   0.674   1.548  0.4727 -0.2882 -1.6804
 1898SOL     OW17155   4.029   4.100  16.565  0.3814  0.0353  0.3407
 1898SOL    HW117156   3.937   4.124  16.560  0.5386  0.6256  0.2755
 1898SOL    HW217157   4.063   4.186  16.589 -1.7811  1.5237 -1.9705
 1899SOL     OW17158   3.952   4.356  13.289 -0.1857 -0.0381 -0.4953
 1899SOL    HW117159   4.045   4.343  13.304 -0.2566  1.0544  0.9363
 1899SOL    HW217160   3.915   4.311  13.366  0.3986  1.9932  0.9641
 1900SOL     OW17161   1.218   1.454   5.723 -0.2609 -0.4135  0.1679
 1900SOL    HW117162   1.139   1.439   5.776  0.4140 -0.4589  1.1559
 1900SOL    HW217163   1.248   1.363   5.730  0.4778 -0.1879 -0.1123
 1901SOL     OW17164   4.605   2.674  15.888  0.2939  0.0264  0.0546
 1901SOL    HW117165   4.640   2.747  15.938  1.6863 -0.9922  0.5785
 1901SOL    HW217166   4.599   2.612  15.961  0.1767  0.3930  0.3591
 1902SOL     OW17167   0.171   2.137   7.330  0.2453 -0.5738 -0.3004
 1902SOL    HW117168   0.242   2.200   7.326 -0.2126 -0.1765 -2.3281
 1902SOL    HW217169   0.157   2.130   7.425  1.8136  2.9199  0.1700
 1903SOL     OW17170   0.479   3.785   7.280  0.2780 -0.2633  0.1335
 1903SOL    HW117171   0.526   3.793   7.363  0.1035  1.8727  0.0334
 1903SOL    HW217172   0.388   3.800   7.304  0.4161  0.9730 -0.0917
 1904SOL     OW17173   3.219   2.007  17.512 -0.0385 -0.0452 -0.2870
 1904SOL    HW117174   3.243   2.004  17.605  2.3574  0.6800 -0.8830
 1904SOL    HW217175   3.255   1.924  17.483 -2.8010 -1.0251 -0.8753
 1905SOL     OW17176   3.384   0.632   3.845  0.0888 -0.2151  0.0381
 1905SOL    HW117177   3.458   0.663   3.793  0.0651  0.7262  0.5653
 1905SOL    HW217178   3.357   0.713   3.888 -0.8364 -1.6681  2.1536
 1906SOL     OW17179   2.749   1.975   9.398  0.3775 -0.3493  0.5069
 1906SOL    HW117180   2.774   2.036   9.468 -1.4140  1.4730 -0.4343
 1906SOL    HW217181   2.762   2.034   9.324 -1.6627 -1.9956 -1.1595
 1907SOL     OW17182   1.214   1.232   2.279 -0.1808  0.2408  0.2332
 1907SOL    HW117183   1.119   1.216   2.279 -0.2127  0.4378  0.9219
 1907SOL    HW217184   1.222   1.207   2.187  0.4272  0.4863  0.2246
 1908SOL     OW17185   1.566   2.343   5.073  0.0084 -0.0452  0.1399
 1908SOL    HW117186   1.660   2.344   5.055 -0.2728  1.4552 -1.2167
 1908SOL    HW217187   1.562   2.425   5.122 -1.4852 -2.1745  3.5721
 1909SOL     OW17188   0.400   0.165   4.538 -0.0850 -0.0864  0.0999
 1909SOL    HW117189   0.418   0.235   4.600  2.2238  0.8021 -1.5882
 1909SOL    HW217190   0.478   0.163   4.482  0.2757  1.5286  0.5589
 1910SOL     OW17191   4.212   2.004   8.736  0.2275 -0.7981 -0.1077
 1910SOL    HW117192   4.276   1.957   8.789 -0.1416  2.1285  2.9556
 1910SOL    HW217193   4.256   2.084   8.709  0.7227 -0.4743  1.6528
 1911SOL     OW17194   0.776   1.000   1.931  0.2026 -0.0419 -0.0218
 1911SOL    HW117195   0.801   1.070   1.872 -1.5104  0.2068 -0.4500
 1911SOL    HW217196   0.854   0.944   1.931  0.4271  0.2782  2.2969
 1912SOL     OW17197   1.779   3.252   7.235  0.2964  0.3447 -0.3175
 1912SOL    HW117198   1.790   3.158   7.253 -2.2764  0.3994  1.4878
 1912SOL    HW217199   1.765   3.246   7.140  0.1883 -1.5133 -0.1865
 1913SOL     OW17200   2.538   1.673   3.030  0.1315  0.6974 -0.4553
 1913SOL    HW117201   2.525   1.753   3.081 -0.1581  0.0043  0.5614
 1913SOL    HW217202   2.561   1.610   3.098  1.2920 -1.2048 -2.6312
 1914SOL     OW17203   2.459   1.180   4.241  0.0019  0.4998 -0.6059
 1914SOL    HW117204   2.377   1.221   4.270  0.5126  1.8537 -1.0699
 1914SOL    HW217205   2.441   1.188   4.147  2.6142 -0.9236 -1.2081
 1915SOL     OW17206   0.642   3.578   0.769 -0.0218  0.1615  0.0091
 1915SOL    HW117207   0.721   3.547   0.814  0.8732 -0.2070 -1.8244
 1915SOL    HW217208   0.575   3.511   0.784 -3.3444  2.9073 -2.7986
 1916SOL     OW17209   3.510   4.365   2.332  0.1069 -0.5286 -0.5279
 1916SOL    HW117210   3.564   4.302   2.283  0.9479 -0.4738  0.3400
 1916SOL    HW217211   3.461   4.305   2.388  1.9891 -1.2174  0.3702
 1917SOL     OW17212   2.572   2.660   1.925  0.2012  0.1205 -0.1346
 1917SOL    HW117213   2.659   2.699   1.918  1.0792 -1.6453  0.9170
 1917SOL    HW217214   2.573   2.584   1.868 -1.1755  2.0855 -2.7582
 1918SOL     OW17215   0.978   0.351   7.791 -0.0414  0.2582 -0.1604
 1918SOL    HW117216   0.898   0.400   7.812 -0.4912 -0.9389  0.8870
 1918SOL    HW217217   0.963   0.327   7.700 -0.5642 -0.6695  0.1752
 1919SOL     OW17218   1.655   2.827  14.123 -0.1948 -0.0109 -0.1032
 1919SOL    HW117219   1.660   2.873  14.038  1.1440  2.6903  1.4189
 1919SOL    HW217220   1.576   2.774  14.111 -0.3369 -0.2390  1.8401
 1920SOL     OW17221   2.824   3.264   7.694 -0.5764 -0.0581 -0.1519
 1920SOL    HW117222   2.805   3.170   7.695  2.6285 -0.7070 -1.5765
 1920SOL    HW217223   2.746   3.294   7.742  0.8464 -0.2942  2.2985
 1921SOL     OW17224   2.159   3.195   2.126  0.6767 -0.2931  0.0192
 1921SOL    HW117225   2.133   3.117   2.078  3.0308 -1.8001  1.2356
 1921SOL    HW217226   2.253   3.181   2.134  0.3057 -1.6966  1.7050
 1922SOL     OW17227   0.979   2.631   4.132 -0.0101  0.2375  0.4921
 1922SOL    HW117228   0.895   2.656   4.171 -0.8162 -1.5489 -0.1026
 1922SOL    HW217229   0.966   2.544   4.095  2.3251  0.7765 -1.5340
 1923SOL     OW17230   2.298   1.434   6.082  0.0238 -0.4966 -0.2546
 1923SOL    HW117231   2.381   1.388   6.099 -0.7628 -2.2176 -1.0281
 1923SOL    HW217232   2.303   1.505   6.145  1.0541 -1.5494  0.8600
 1924SOL     OW17233   2.214   3.259   2.866 -0.1781 -0.0377 -0.4793
 1924SOL    HW117234   2.134   3.285   2.911  0.5042  1.2119  0.0230
 1924SOL    HW217235   2.183   3.248   2.776  0.4625 -1.8156 -0.4848
 1925SOL     OW17236   1.102   0.808   7.478 -0.5952  0.5570  0.3266
 1925SOL    HW117237   1.093   0.746   7.550 -0.7779 -0.5794 -0.6790
 1925SOL    HW217238   1.026   0.862   7.500  0.0537  1.6607 -0.0938
 1926SOL     OW17239   4.234   4.366  11.781  0.1850  0.5158 -0.3005
 1926SOL    HW117240   4.247   4.282  11.825 -0.3746 -0.9631 -3.0098
 1926SOL    HW217241   4.270   4.339  11.697 -0.7125 -0.8238 -0.2562
 1927SOL     OW17242   3.024   2.145   2.815 -0.0784  0.7608 -0.7448
 1927SOL    HW117243   3.030   2.077   2.748  1.4837  0.2429 -0.0713
 1927SOL    HW217244   3.098   2.120   2.870 -0.9333  0.4910  0.2861
 1928SOL     OW17245   2.338   4.528  11.270  0.0999  0.5948  0.4272
 1928SOL    HW117246   2.351   4.455  11.331 -1.3813 -0.0915 -0.0903
 1928SOL    HW217247   2.352   4.603  11.329  1.7719 -0.4085  1.3022
 1929SOL     OW17248   3.314   2.782  13.898 -0.2386 -0.3018  0.5680
 1929SOL    HW117249   3.258   2.777  13.976  2.3647  1.8629  2.5948
 1929SOL    HW217250   3.358   2.863  13.923 -0.5527  0.3940 -1.1272
 1930SOL     OW17251   0.466   0.021   6.842  0.1989 -0.5107 -0.2791
 1930SOL    HW117252   0.458   0.113   6.865 -0.2720 -0.3929 -0.9432
 1930SOL    HW217253   0.549   4.716   6.879  0.2108  0.0176  0.1338
 1931SOL     OW17254   2.528   0.462  14.470  0.4331  1.3035 -0.3100
 1931SOL    HW117255   2.442   0.485  14.435  0.2238  2.5981  1.0434
 1931SOL    HW217256   2.534   0.370  14.443  0.2044  1.1723  0.0833
 1932SOL     OW17257   3.181   2.880  10.151 -0.2783  0.0550 -0.2729
 1932SOL    HW117258   3.177   2.823  10.228  1.3938  0.3584  0.0188
 1932SOL    HW217259   3.088   2.897  10.135 -0.5072  1.1316  2.1350
 1933SOL     OW17260   1.868   4.000   3.590  0.7931  0.3368 -0.3206
 1933SOL    HW117261   1.955   4.028   3.563  0.5080 -0.2892 -1.8566
 1933SOL    HW217262   1.830   3.970   3.507 -4.8145  2.9283  1.2729
 1934SOL     OW17263   0.350   2.456  15.008 -0.0453 -0.0162 -0.3608
 1934SOL    HW117264   0.279   2.517  15.027 -0.2019 -0.5338  0.7064
 1934SOL    HW217265   0.311   2.375  15.040 -1.9351  0.4928 -1.3506
 1935SOL     OW17266   2.592   4.163  17.403  0.7667 -0.2257  0.1446
 1935SOL    HW117267   2.686   4.180  17.401  0.3743  1.7686 -0.4993
 1935SOL    HW217268   2.549   4.229  17.348  2.9145  1.2289  0.2169
 1936SOL     OW17269   0.499   1.239   9.890  0.1849 -0.1948 -0.1144
 1936SOL    HW117270   0.556   1.262   9.964 -0.9489 -0.0578  0.7177
 1936SOL    HW217271   0.509   1.311   9.828 -0.6577 -0.9070 -1.0693
 1937SOL     OW17272   2.105   3.148   8.964 -0.0285  0.4218 -0.8138
 1937SOL    HW117273   2.170   3.194   9.017 -1.6220  1.0903  0.5623
 1937SOL    HW217274   2.049   3.225   8.953  0.5820  1.0180  0.3135
 1938SOL     OW17275   2.726   0.196   3.861 -0.4878  0.1189  0.1954
 1938SOL    HW117276   2.701   0.106   3.882  2.3721 -1.0173 -1.4210
 1938SOL    HW217277   2.650   0.223   3.809  0.8026  2.1156 -0.6367
 1939SOL     OW17278   4.569   2.703   6.176  0.4935  0.5520  0.0536
 1939SOL    HW117279   4.582   2.644   6.250 -1.1688  1.8974  1.4301
 1939SOL    HW217280   4.563   2.645   6.100 -1.5766  0.3168  0.3746
 1940SOL     OW17281   2.901   2.174   5.418  0.4334 -0.1678 -0.2315
 1940SOL    HW117282   2.843   2.111   5.375  0.4988 -1.2234  1.2034
 1940SOL    HW217283   2.871   2.199   5.505 -0.2463  0.4674 -0.6508
 1941SOL     OW17284   0.754   3.149   8.941 -0.5484  0.3194 -0.2326
 1941SOL    HW117285   0.840   3.127   8.978 -0.8617 -0.0517  0.2565
 1941SOL    HW217286   0.727   3.227   8.989  0.5393 -0.8137  2.2144
 1942SOL     OW17287   2.358   3.970  14.524 -0.3133 -0.0772  0.0876
 1942SOL    HW117288   2.342   4.048  14.471 -0.7515  0.2588  0.7076
 1942SOL    HW217289   2.304   3.908  14.475 -0.5105  0.5945 -0.5504
 1943SOL     OW17290   2.670   2.263   9.332 -0.5914  0.3788  0.0919
 1943SOL    HW117291   2.597   2.304   9.285  0.0347  1.5272  0.1047
 1943SOL    HW217292   2.719   2.339   9.363  0.6879 -0.7347  0.7838
 1944SOL     OW17293   1.969   4.622   0.796 -0.2768 -0.4611  0.2462
 1944SOL    HW117294   1.993   4.601   0.706 -3.2435  1.1575 -0.9192
 1944SOL    HW217295   1.889   4.569   0.803  1.6418 -3.1977  1.0632
 1945SOL     OW17296   1.994   3.555   9.485 -0.9598 -0.5471  0.1928
 1945SOL    HW117297   1.917   3.611   9.498 -0.4817  0.2802 -0.5909
 1945SOL    HW217298   1.965   3.466   9.463 -1.3434  0.0826 -1.8992
 1946SOL     OW17299   4.029   1.923  12.529 -0.7070 -0.2738 -0.2874
 1946SOL    HW117300   3.971   1.887  12.462  0.9247 -0.6513 -1.4940
 1946SOL    HW217301   4.004   2.015  12.523 -3.4262 -0.9734  0.3633
 1947SOL     OW17302   0.952   1.016   8.846 -0.6197  0.1007  0.3486
 1947SOL    HW117303   1.018   0.947   8.856 -0.0995  0.6137  0.4180
 1947SOL    HW217304   0.911   0.980   8.767 -0.3013 -3.2506  1.6866
 1948SOL     OW17305   1.625   4.464   3.852 -0.3663  0.7714  0.0558
 1948SOL    HW117306   1.540   4.477   3.810 -1.3783 -2.5474  1.1310
 1948SOL    HW217307   1.676   4.421   3.783 -1.3127  2.4702 -1.7095
 1949SOL     OW17308   4.391   2.439   6.498  0.1551  0.4222  0.0954
 1949SOL    HW117309   4.385   2.400   6.585 -0.6012  0.7017  0.1711
 1949SOL    HW217310   4.315   2.496   6.508 -1.7745 -2.0111 -0.6784
 1950SOL     OW17311   1.294   0.838   7.272  0.7187 -0.2845  0.0884
 1950SOL    HW117312   1.219   0.839   7.332  1.6660  0.7066  1.2510
 1950SOL    HW217313   1.296   0.744   7.256  3.4833 -0.2458  0.2680
 1951SOL     OW17314   2.035   2.437  13.248  0.1454 -0.6688 -0.1862
 1951SOL    HW117315   2.033   2.408  13.339  0.8004 -1.1576 -0.3264
 1951SOL    HW217316   2.059   2.352  13.210  1.0247  0.0800 -1.2776
 1952SOL     OW17317   1.910   0.909   5.049  0.6931 -0.3595 -0.2915
 1952SOL    HW117318   1.834   0.851   5.052  2.2542 -2.3503  0.7820
 1952SOL    HW217319   1.945   0.899   5.137 -0.4256 -0.1152  0.1766
 1953SOL     OW17320   0.195   0.962  16.576  0.3215 -0.1639  0.1592
 1953SOL    HW117321   0.262   1.027  16.597  0.2268 -0.1228  0.3340
 1953SOL    HW217322   0.116   1.013  16.595 -0.1009 -0.1135 -1.7172
 1954SOL     OW17323   0.633   2.581   5.866  0.0453 -0.1848 -0.0286
 1954SOL    HW117324   0.624   2.660   5.814  0.8413  1.4605  2.3359
 1954SOL    HW217325   0.574   2.613   5.934  0.2968 -2.2074  1.1610
 1955SOL     OW17326   4.064   0.780   8.738  0.6523  0.0323  0.4044
 1955SOL    HW117327   4.118   0.785   8.659 -0.3256 -0.0113 -0.2680
 1955SOL    HW217328   4.022   0.866   8.739  2.2541  0.7843  2.3335
 1956SOL     OW17329   1.366   4.598  10.316  0.4388  0.7754 -0.0684
 1956SOL    HW117330   1.405   4.557  10.239  2.9721  1.1110  1.0523
 1956SOL    HW217331   1.436   4.660  10.335 -1.3351  3.5701 -2.6983
 1957SOL     OW17332   0.922   1.302  13.024 -0.4057  0.6867  0.7650
 1957SOL    HW117333   1.002   1.275  12.980 -0.1262  0.2542  1.5397
 1957SOL    HW217334   0.874   1.219  13.028  1.7927 -0.6085  0.1698
 1958SOL     OW17335   2.584   1.528   4.193  0.0547 -0.0729 -0.0408
 1958SOL    HW117336   2.602   1.531   4.099 -1.5065  1.1850 -0.3112
 1958SOL    HW217337   2.612   1.612   4.230 -0.9419  1.7991 -3.5247
 1959SOL     OW17338   3.639   1.254   1.338 -0.3915  0.2611  0.0364
 1959SOL    HW117339   3.548   1.253   1.309 -0.0446 -0.7549 -1.0028
 1959SOL    HW217340   3.660   1.346   1.321 -2.3353  0.7340  0.2101
 1960SOL     OW17341   0.823   3.874   7.279 -0.1874  0.4030  0.5223
 1960SOL    HW117342   0.878   3.797   7.277 -0.3699  0.3494 -2.5122
 1960SOL    HW217343   0.759   3.853   7.347  1.0962 -0.0634  1.5642
 1961SOL     OW17344   1.320   2.531   6.632 -0.0487  0.1258 -0.0569
 1961SOL    HW117345   1.334   2.486   6.549  0.2604  0.3599 -0.1314
 1961SOL    HW217346   1.363   2.615   6.614  2.0038 -0.5836  1.6310
 1962SOL     OW17347   3.775   3.156   5.610 -0.4065 -0.2065  0.2423
 1962SOL    HW117348   3.853   3.175   5.557 -0.9772 -1.0143 -0.8538
 1962SOL    HW217349   3.711   3.189   5.547  0.7070  3.2555  0.8754
 1963SOL     OW17350   1.507   4.186   8.314  0.2992  0.5273 -0.0021
 1963SOL    HW117351   1.411   4.188   8.312  0.2112 -2.3439  2.3366
 1963SOL    HW217352   1.533   4.267   8.358  2.3148 -1.0914  1.7536
 1964SOL     OW17353   2.715   0.776  14.061  0.2205  0.1809  0.3205
 1964SOL    HW117354   2.705   0.827  14.141  0.6736  0.0270  0.4762
 1964SOL    HW217355   2.809   0.788  14.051  0.2296  0.4348  0.7216
 1965SOL     OW17356   0.669   2.325   4.424 -0.1795  0.1265 -0.3696
 1965SOL    HW117357   0.725   2.269   4.478  1.0499  2.4730  0.8187
 1965SOL    HW217358   0.691   2.316   4.332 -2.1046  0.2170 -0.8507
 1966SOL     OW17359   4.660   2.276   3.050 -0.5800 -0.9776 -0.0527
 1966SOL    HW117360   4.678   2.221   3.127 -0.2638 -0.5065  0.2061
 1966SOL    HW217361   0.005   2.249   2.990  0.4193 -0.7178  0.9926
 1967SOL     OW17362   4.164   3.572   1.917 -0.2149  0.3972 -0.7398
 1967SOL    HW117363   4.150   3.652   1.868 -2.1993  1.3677  1.4135
 1967SOL    HW217364   4.209   3.519   1.851  1.1167  0.6550 -0.0423
 1968SOL     OW17365   3.660   4.200  13.187  0.6039 -0.0191 -0.0816
 1968SOL    HW117366   3.660   4.172  13.095  1.3669  1.1459 -0.4272
 1968SOL    HW217367   3.743   4.246  13.197  0.1122  0.9179 -0.2815
 1969SOL     OW17368   2.635   3.277   0.316 -0.1789  0.2220 -0.0872
 1969SOL    HW117369   2.612   3.235   0.398  2.0165 -1.6223 -0.4018
 1969SOL    HW217370   2.730   3.271   0.328 -0.1355  1.5220  0.1946
 1970SOL     OW17371   3.335   2.721  11.863 -0.9675  0.2093  0.7128
 1970SOL    HW117372   3.386   2.692  11.939 -1.7361 -0.6140  0.9168
 1970SOL    HW217373   3.345   2.815  11.878  1.5636  0.2841 -1.3968
 1971SOL     OW17374   1.139   3.834  11.081  0.3857  0.7786  0.1560
 1971SOL    HW117375   1.205   3.822  11.149  1.1160  0.9932 -0.5099
 1971SOL    HW217376   1.188   3.894  11.024 -1.9424  1.1057 -1.4889
 1972SOL     OW17377   0.900   0.776  17.574 -0.2801  0.4548 -0.4498
 1972SOL    HW117378   0.904   0.755  17.668  3.7587  1.7809 -0.2979
 1972SOL    HW217379   0.817   0.737  17.546  1.5479 -1.1724 -3.5455
 1973SOL     OW17380   1.968   3.027   9.859  0.1468 -0.3838 -0.5989
 1973SOL    HW117381   2.006   3.091   9.920  3.2457 -2.7201 -0.1329
 1973SOL    HW217382   1.882   3.068   9.849  0.0699 -0.2521  0.6988
 1974SOL     OW17383   2.600   3.737   3.506 -0.0907 -0.0748  0.9450
 1974SOL    HW117384   2.586   3.787   3.426 -1.4060  1.9209  2.4097
 1974SOL    HW217385   2.696   3.742   3.513  0.1396 -0.3675 -2.3435
 1975SOL     OW17386   3.667   0.108   3.414  0.7153 -0.1966 -0.5335
 1975SOL    HW117387   3.678   0.104   3.509 -0.7419  1.0475 -0.3144
 1975SOL    HW217388   3.582   0.067   3.402  0.1567  1.0644 -0.8708
 1976SOL     OW17389   0.847   4.591   5.171  0.0075 -0.4327  0.3094
 1976SOL    HW117390   0.883   4.676   5.145 -0.9003 -0.2163 -0.2284
 1976SOL    HW217391   0.911   4.563   5.237  0.0352 -3.5165 -1.0110
 1977SOL     OW17392   0.559   1.754  15.142 -0.5984 -0.2382  0.4450
 1977SOL    HW117393   0.502   1.804  15.201  0.4715 -0.4604  1.6487
 1977SOL    HW217394   0.565   1.806  15.062 -0.4661 -1.4567 -0.3307
 1978SOL     OW17395   0.452   3.155   2.524  0.1744 -0.0292 -0.3209
 1978SOL    HW117396   0.499   3.074   2.503 -0.6995  0.0173 -2.4498
 1978SOL    HW217397   0.402   3.167   2.443  0.6842 -0.3323 -0.6875
 1979SOL     OW17398   0.841   4.176   2.731 -0.4883  0.0602 -0.9344
 1979SOL    HW117399   0.911   4.194   2.668  0.1470 -1.4117 -0.6500
 1979SOL    HW217400   0.829   4.082   2.717 -1.1965  0.3027 -1.9323
 1980SOL     OW17401   4.085   0.784   0.307 -0.8489  0.6025 -0.6278
 1980SOL    HW117402   4.170   0.816   0.338  1.1779 -2.6511 -2.7795
 1980SOL    HW217403   4.085   0.830   0.223 -2.3978  1.0301 -0.3931
 1981SOL     OW17404   4.299   4.381   4.096 -0.5461 -0.0115 -0.3596
 1981SOL    HW117405   4.294   4.341   4.182  2.5784  0.3530 -0.0042
 1981SOL    HW217406   4.271   4.315   4.032  0.5394 -0.8390  0.0257
 1982SOL     OW17407   0.053   1.643   3.645 -0.0764 -0.0331 -0.2893
 1982SOL    HW117408   0.109   1.608   3.715 -0.7878 -1.6780 -0.5461
 1982SOL    HW217409   0.042   1.732   3.680  0.9715 -0.6143  1.5267
 1983SOL     OW17410   1.557   0.176   2.064  0.3442 -0.1128 -0.2327
 1983SOL    HW117411   1.478   0.122   2.067  1.1424 -1.2785  0.1700
 1983SOL    HW217412   1.625   0.109   2.075  1.0444  0.3272 -1.8386
 1984SOL     OW17413   4.609   1.743   0.657 -0.6754 -0.7172 -0.0495
 1984SOL    HW117414   4.665   1.812   0.620  1.0922  0.4714  4.8784
 1984SOL    HW217415   4.653   1.728   0.740 -0.3934  2.0175  0.3046
 1985SOL     OW17416   0.675   1.362  14.650 -0.0066  0.2433 -0.1149
 1985SOL    HW117417   0.659   1.336  14.560 -0.0824 -0.5727  0.1361
 1985SOL    HW217418   0.614   1.313  14.704  1.9580 -0.7281  1.2416
 1986SOL     OW17419   1.581   0.697   3.103 -0.5688  0.0592 -0.1955
 1986SOL    HW117420   1.502   0.650   3.129 -0.9778  1.2784  0.7625
 1986SOL    HW217421   1.551   0.712   3.014 -1.2781  2.9377  0.5277
 1987SOL     OW17422   2.859   1.673  12.314  0.1659 -0.5866  0.1175
 1987SOL    HW117423   2.815   1.618  12.380 -2.7196  1.0489 -0.4496
 1987SOL    HW217424   2.879   1.617  12.240  1.8366 -0.7018  0.6527
 1988SOL     OW17425   4.021   0.887   0.049  0.6779  0.1766  0.4015
 1988SOL    HW117426   4.116   0.892   0.051  0.8820 -2.2632 -1.7313
 1988SOL    HW217427   3.996   0.949  17.683  0.5887  0.9843  1.1833
 1989SOL     OW17428   3.697   0.825   1.470  0.3542 -0.4213 -0.0854
 1989SOL    HW117429   3.701   0.734   1.498 -0.1936 -0.4093  0.0252
 1989SOL    HW217430   3.782   0.845   1.430  0.2581 -0.4556 -0.3042
 1990SOL     OW17431   0.916   2.237   4.548 -0.3166  0.1254 -0.7830
 1990SOL    HW117432   0.930   2.150   4.586 -3.2314 -0.3771 -0.8462
 1990SOL    HW217433   0.943   2.284   4.627  0.4194 -1.3450 -0.1346
 1991SOL     OW17434   0.933   3.330  11.073  0.2095  0.6681  0.0552
 1991SOL    HW117435   0.970   3.243  11.089  0.9716  0.8920 -0.5033
 1991SOL    HW217436   0.845   3.318  11.109  0.1641  2.0743  0.4074
 1992SOL     OW17437   0.480   4.571   2.679  0.1297 -0.3192  0.0091
 1992SOL    HW117438   0.386   4.585   2.689  0.1599 -0.6699  0.7759
 1992SOL    HW217439   0.478   4.565   2.583  1.4550 -0.0775 -0.0380
 1993SOL     OW17440   1.567   4.140   6.600  0.4270  0.2781  0.0370
 1993SOL    HW117441   1.633   4.169   6.663  0.1922  1.8421 -0.4361
 1993SOL    HW217442   1.555   4.052   6.634 -1.0249  0.4968  0.0837
 1994SOL     OW17443   2.739   0.658   8.469  0.1200 -0.1460 -0.3126
 1994SOL    HW117444   2.696   0.736   8.506 -2.1565 -0.6664 -1.8455
 1994SOL    HW217445   2.830   0.683   8.481 -0.1109  0.3928  0.2983
 1995SOL     OW17446   2.309   1.026   7.358 -0.5331 -0.3213 -0.1957
 1995SOL    HW117447   2.346   1.033   7.271 -0.7397  0.1421 -0.2447
 1995SOL    HW217448   2.373   0.986   7.417 -0.9150 -0.4549  0.1317
 1996SOL     OW17449   4.680   1.797   8.156  0.1760 -0.3967 -0.2030
 1996SOL    HW117450   0.020   1.773   8.223 -0.6447 -2.2949 -0.0693
 1996SOL    HW217451   4.720   1.761   8.077  2.5736 -0.0120  0.8310
 1997SOL     OW17452   3.495   2.903   7.664  0.0223  0.0933 -0.0813
 1997SOL    HW117453   3.492   2.809   7.645 -0.1389  0.1176 -0.1734
 1997SOL    HW217454   3.421   2.944   7.619 -1.9412 -0.6177  2.4985
 1998SOL     OW17455   0.882   0.960   5.319 -0.0045  0.2530 -0.6619
 1998SOL    HW117456   0.857   1.053   5.321 -0.0884  0.1764  1.4884
 1998SOL    HW217457   0.906   0.948   5.227  3.4018  0.3360  0.1894
 1999SOL     OW17458   0.864   1.816  16.282 -0.0893  0.5850  0.3369
 1999SOL    HW117459   0.783   1.842  16.238  0.3523  4.0606  1.5622
 1999SOL    HW217460   0.884   1.878  16.353 -0.4227  0.8465  0.2070
 2000SOL     OW17461   2.773   4.624   8.446  0.0655 -0.4533  0.0631
 2000SOL    HW117462   2.771   4.662   8.358 -1.3345 -1.7176 -0.4466
 2000SOL    HW217463   2.680   4.602   8.454  0.0811 -0.8548 -0.7778
 2001SOL     OW17464   2.527   4.106  14.276  0.3419  0.2979  0.8167
 2001SOL    HW117465   2.563   4.182  14.322  1.7168  0.5158 -0.6084
 2001SOL    HW217466   2.435   4.120  14.295 -0.2659 -1.8840 -0.5106
 2002SOL     OW17467   2.535   4.581   0.660 -0.2007  0.9284  0.2007
 2002SOL    HW117468   2.516   4.518   0.590 -1.7169  1.3221  0.2537
 2002SOL    HW217469   2.539   4.528   0.739  0.2315  0.2758 -0.2639
 2003SOL     OW17470   2.014   0.715  16.930  0.6112 -0.4861 -0.0704
 2003SOL    HW117471   2.041   0.761  17.009  0.1051  1.0393 -0.7655
 2003SOL    HW217472   2.096   0.696  16.883 -0.0974 -2.3328 -0.5650
 2004SOL     OW17473   2.588   0.976   6.842  0.0553  0.3571  0.2318
 2004SOL    HW117474   2.543   0.995   6.760 -0.2513  1.8971  0.7632
 2004SOL    HW217475   2.600   0.882   6.828  2.6800  0.6330  0.5804
 2005SOL     OW17476   4.271   0.970  13.723  0.1915 -0.3828  0.4822
 2005SOL    HW117477   4.291   1.037  13.658  0.6256 -0.6589  0.3346
 2005SOL    HW217478   4.354   0.961  13.770  1.0215 -0.6201 -1.0411
 2006SOL     OW17479   4.303   2.469  15.718  0.1152  0.2155  0.3053
 2006SOL    HW117480   4.240   2.528  15.758 -1.4207 -1.4551  0.3231
 2006SOL    HW217481   4.310   2.393  15.776 -1.7212  0.8409  1.3039
 2007SOL     OW17482   1.485   0.454  16.684  0.2501 -0.2460  0.2060
 2007SOL    HW117483   1.399   0.430  16.649  0.3672  2.8434 -2.2386
 2007SOL    HW217484   1.545   0.417  16.619 -3.2743 -1.8567 -2.1535
 2008SOL     OW17485   3.834   0.674   5.501 -0.8476 -0.5042 -0.0758
 2008SOL    HW117486   3.863   0.585   5.482  0.3750 -0.1008 -0.1380
 2008SOL    HW217487   3.767   0.692   5.436  0.9294  1.7092 -1.3075
 2009SOL     OW17488   2.566   0.701   3.414  0.0251 -0.0057  0.4294
 2009SOL    HW117489   2.580   0.606   3.410 -0.9428 -0.2533  3.0831
 2009SOL    HW217490   2.658   0.722   3.432 -0.0748  0.3207  0.5544
 2010SOL     OW17491   0.084   1.440   6.259  0.1853  0.0432  0.0695
 2010SOL    HW117492   0.060   1.369   6.319 -1.9213  0.1703 -0.6357
 2010SOL    HW217493   0.003   1.491   6.251  0.6839  1.0556  1.5766
 2011SOL     OW17494   3.776   0.030   0.798  0.1323 -0.3073  0.1477
 2011SOL    HW117495   3.712   4.685   0.814  1.0215 -1.0769  0.3763
 2011SOL    HW217496   3.836   4.718   0.733  1.7195  1.9291  0.3536
 2012SOL     OW17497   3.618   4.275   5.587 -0.5883 -0.2983  0.0332
 2012SOL    HW117498   3.649   4.221   5.659  0.8479  1.0267  0.4000
 2012SOL    HW217499   3.524   4.294   5.596 -0.2096  0.9557  1.2658
 2013SOL     OW17500   0.982   2.308   8.217 -0.5809 -0.6613 -0.6025
 2013SOL    HW117501   1.076   2.313   8.198 -0.8460  0.5107 -1.6512
 2013SOL    HW217502   0.949   2.388   8.175  0.6422  0.2251  0.1278
 2014SOL     OW17503   2.091   3.428  16.883  0.2119  0.1660 -0.0747
 2014SOL    HW117504   2.061   3.349  16.839 -0.5591  1.5739 -2.0395
 2014SOL    HW217505   2.107   3.400  16.974  1.2333 -0.4881 -0.4588
 2015SOL     OW17506   1.899   0.972   6.990 -0.4934 -0.6667  0.0478
 2015SOL    HW117507   1.892   0.899   7.051  0.4036  0.7832  1.9193
 2015SOL    HW217508   1.846   0.934   6.920 -1.2058 -0.2579  0.3668
 2016SOL     OW17509   1.529   2.438   8.597  0.3146 -0.1123 -0.5535
 2016SOL    HW117510   1.470   2.368   8.626 -0.2006  1.6500  2.7809
 2016SOL    HW217511   1.614   2.419   8.636 -0.1473  1.1717  1.0943
 2017SOL     OW17512   2.128   3.639  14.505  0.0292  0.0585 -0.1620
 2017SOL    HW117513   2.142   3.711  14.443  0.7406  1.3447  1.4797
 2017SOL    HW217514   2.169   3.568  14.456  0.1858  1.3613 -1.9557
 2018SOL     OW17515   0.293   4.706  10.282 -0.3229  0.4367  0.0931
 2018SOL    HW117516   0.289   0.000  10.375 -1.3288  0.0261  0.1248
 2018SOL    HW217517   0.200   4.709  10.262 -0.2588 -0.0088 -0.2629
 2019SOL     OW17518   1.031   4.266   9.431  0.7465  0.1168  0.6238
 2019SOL    HW117519   1.094   4.245   9.362  1.1005  2.6517  0.1732
 2019SOL    HW217520   0.984   4.186   9.452  0.0388 -0.4320 -3.0054
 2020SOL     OW17521   3.727   1.619  10.703  0.1466  0.4009  0.5572
 2020SOL    HW117522   3.803   1.611  10.646  0.1047 -0.0767  0.5671
 2020SOL    HW217523   3.661   1.572  10.652  1.4451 -3.0893  2.0754
 2021SOL     OW17524   4.722   2.933   6.157 -0.4919  0.5980 -0.2773
 2021SOL    HW117525   0.068   2.897   6.209 -1.2550  2.2295  1.8555
 2021SOL    HW217526   4.656   2.864   6.165  0.0197  0.2219  0.6046
 2022SOL     OW17527   2.261   2.090  12.875 -0.3356 -0.0880 -0.1897
 2022SOL    HW117528   2.257   2.185  12.870 -1.9058 -0.2198 -1.3126
 2022SOL    HW217529   2.331   2.056  12.819 -0.5534  0.8087 -0.9975
 2023SOL     OW17530   1.016   2.465  10.715 -0.1190 -0.4811  0.1561
 2023SOL    HW117531   0.929   2.427  10.701  0.9627 -2.6833 -0.5353
 2023SOL    HW217532   0.999   2.557  10.737 -0.2860 -0.5007  0.1100
 2024SOL     OW17533   0.855   1.933   2.745 -0.0291  0.0770 -0.1231
 2024SOL    HW117534   0.795   1.978   2.805  1.2777  1.4760  0.1395
 2024SOL    HW217535   0.882   2.007   2.691 -0.1403  0.1228 -0.1166
 2025SOL     OW17536   0.694   0.225   5.295  0.0596  0.0807 -0.1967
 2025SOL    HW117537   0.638   0.163   5.340 -0.9245  0.6989 -0.5725
 2025SOL    HW217538   0.671   0.210   5.203  0.8679  0.0648 -0.4027
 2026SOL     OW17539   3.734   3.080  15.329 -0.1275 -0.4426  1.1491
 2026SOL    HW117540   3.700   3.165  15.358  0.7833  0.7517 -1.3628
 2026SOL    HW217541   3.804   3.110  15.272  0.5725 -1.3479  1.5382
 2027SOL     OW17542   0.941   2.273   3.300 -0.4800 -0.2326 -0.2659
 2027SOL    HW117543   0.846   2.280   3.312  0.0841  1.6802  3.0971
 2027SOL    HW217544   0.959   2.179   3.305  0.9934  0.0557 -0.0229
 2028SOL     OW17545   1.960   0.677   4.535 -0.2071  0.1427  0.2893
 2028SOL    HW117546   2.037   0.712   4.491 -2.1477  1.9331 -1.7141
 2028SOL    HW217547   1.917   0.760   4.556  0.5616 -0.1757  3.0505
 2029SOL     OW17548   1.526   4.346  14.491  0.2397 -0.9447 -0.2188
 2029SOL    HW117549   1.455   4.285  14.470 -0.6784 -0.0823  0.4097
 2029SOL    HW217550   1.594   4.317  14.431  0.0659 -0.1150 -0.8159
 2030SOL     OW17551   3.395   4.061   5.877 -0.2764  0.8433 -0.0315
 2030SOL    HW117552   3.467   3.999   5.890 -0.5992  0.4120 -0.3445
 2030SOL    HW217553   3.396   4.072   5.782  0.8103 -0.8906 -0.2173
 2031SOL     OW17554   4.582   0.884   4.853  0.2685 -0.0912  0.4635
 2031SOL    HW117555   4.641   0.949   4.816  0.3710 -0.3329  0.1998
 2031SOL    HW217556   4.617   0.801   4.819  0.8545  1.4276 -2.5848
 2032SOL     OW17557   0.032   3.233   2.194  0.8089  0.1264 -0.1875
 2032SOL    HW117558   0.015   3.139   2.194 -0.7392  0.3974 -1.6822
 2032SOL    HW217559   4.667   3.262   2.207  0.5621  0.5920 -2.8773
 2033SOL     OW17560   1.469   1.974   8.359 -0.0995  0.2384  0.1230
 2033SOL    HW117561   1.546   1.927   8.326  0.3672  1.0826 -0.0162
 2033SOL    HW217562   1.430   1.907   8.414 -0.6045  0.1999 -0.2805
 2034SOL     OW17563   3.933   3.494   9.325 -0.2251  0.0864  0.4694
 2034SOL    HW117564   4.006   3.502   9.264  0.6199 -0.2854  1.4292
 2034SOL    HW217565   3.883   3.423   9.285  0.3424 -1.0058  1.6684
 2035SOL     OW17566   4.015   3.827   2.792 -0.2956 -0.1612  0.0334
 2035SOL    HW117567   4.097   3.779   2.800 -0.9545 -1.3169 -0.2200
 2035SOL    HW217568   4.038   3.907   2.840  0.8604 -0.9462  0.7939
 2036SOL     OW17569   2.250   3.257   7.987 -0.4141 -0.6788  0.4386
 2036SOL    HW117570   2.317   3.326   7.982  0.9092 -1.9420  0.4901
 2036SOL    HW217571   2.208   3.274   8.071 -0.2902  0.5863  0.2438
 2037SOL     OW17572   0.824   0.529   5.036 -0.1983  0.8149  0.0333
 2037SOL    HW117573   0.904   0.565   4.997 -1.5551  2.7137 -0.9617
 2037SOL    HW217574   0.778   0.488   4.963 -1.4897 -1.4109  2.0959
 2038SOL     OW17575   2.173   4.293   4.647  0.2463  0.1970  0.2676
 2038SOL    HW117576   2.081   4.275   4.626  0.6134 -2.3188  0.9125
 2038SOL    HW217577   2.196   4.218   4.701  0.2594  0.4796  0.6602
 2039SOL     OW17578   3.266   1.265   6.801  0.8212  0.0996  0.8830
 2039SOL    HW117579   3.238   1.266   6.709  0.1079  2.2612  1.1198
 2039SOL    HW217580   3.262   1.360   6.814  0.0304  0.2023 -0.1099
 2040SOL     OW17581   4.260   0.255   0.945  0.5052  0.1913  0.3114
 2040SOL    HW117582   4.268   0.346   0.974 -0.2546  0.2419  0.3519
 2040SOL    HW217583   4.331   0.206   0.986  1.3627  0.2537 -1.0863
 2041SOL     OW17584   1.066   2.362   8.478  0.1027 -0.1826 -0.6167
 2041SOL    HW117585   1.059   2.322   8.391 -0.2978 -0.1641 -0.5933
 2041SOL    HW217586   1.097   2.286   8.528  1.3609 -0.5741 -1.9887
 2042SOL     OW17587   2.957   1.676  13.077  0.3967  0.4652  0.8130
 2042SOL    HW117588   3.009   1.597  13.089 -1.2548 -0.7576 -0.2125
 2042SOL    HW217589   2.903   1.660  13.000 -1.6430  2.4189  1.8356
 2043SOL     OW17590   4.106   2.589  15.890 -0.9245 -0.3794  0.0449
 2043SOL    HW117591   4.154   2.657  15.937 -1.9210  0.0048  0.5191
 2043SOL    HW217592   4.029   2.643  15.874  0.4833  1.4630 -0.5249
 2044SOL     OW17593   3.586   0.717   7.686  0.4013  0.1965 -0.8841
 2044SOL    HW117594   3.676   0.740   7.662  1.3841 -3.1223 -0.3666
 2044SOL    HW217595   3.538   0.754   7.612 -0.4934 -3.0613 -1.9499
 2045SOL     OW17596   0.723   1.796   3.292 -0.5922 -0.3486 -0.4277
 2045SOL    HW117597   0.754   1.727   3.351 -1.0910 -1.1707 -1.1372
 2045SOL    HW217598   0.728   1.748   3.209  0.9927 -0.5290 -0.2288
 2046SOL     OW17599   3.008   2.669   9.738  0.3157  0.2698 -0.3237
 2046SOL    HW117600   3.051   2.740   9.787  0.9973  0.6689 -1.5002
 2046SOL    HW217601   3.024   2.596   9.798 -0.1316  0.1835 -0.3105
 2047SOL     OW17602   0.388   3.422  14.757  0.0179 -0.1347 -0.6026
 2047SOL    HW117603   0.324   3.374  14.809  0.4700  0.5410  0.5848
 2047SOL    HW217604   0.372   3.516  14.763 -1.2475 -0.2976 -1.4376
 2048SOL     OW17605   0.944   3.927   7.012 -0.0512 -0.3566  0.0072
 2048SOL    HW117606   1.038   3.939   7.001 -0.1365  0.6514  0.4188
 2048SOL    HW217607   0.943   3.862   7.083  0.3247  1.1734  1.4003
 2049SOL     OW17608   0.819   3.451   5.387 -0.7025  0.4416 -0.1474
 2049SOL    HW117609   0.840   3.529   5.336  0.2229  1.6293  2.0477
 2049SOL    HW217610   0.814   3.493   5.473 -0.0499 -1.9077  1.0269
 2050SOL     OW17611   0.691   4.681   6.968  0.0589  0.2306 -0.1285
 2050SOL    HW117612   0.748   4.604   6.957 -0.5523 -0.1924 -0.3285
 2050SOL    HW217613   0.724   4.709   7.053  1.0252 -5.3323  1.3146
 2051SOL     OW17614   3.631   1.276   5.808  0.9135 -0.4614 -0.7191
 2051SOL    HW117615   3.681   1.225   5.872 -1.3119 -0.3918  1.0656
 2051SOL    HW217616   3.572   1.204   5.787  1.8864 -1.9343  1.5766
 2052SOL     OW17617   0.828   1.744  13.868 -0.6946 -0.1917 -0.1538
 2052SOL    HW117618   0.800   1.825  13.827 -0.6068 -0.2852 -0.3948
 2052SOL    HW217619   0.922   1.760  13.861 -1.2096  3.3164  0.8357
 2053SOL     OW17620   2.908   2.576   8.251  0.1470  0.3107 -0.3881
 2053SOL    HW117621   2.995   2.578   8.211 -0.0206  1.1567 -0.6999
 2053SOL    HW217622   2.882   2.488   8.221 -1.4587  1.5516 -2.6398
 2054SOL     OW17623   1.960   0.551   2.215 -0.2286  0.0508 -0.2222
 2054SOL    HW117624   1.980   0.559   2.308  2.5563 -1.2155 -0.7294
 2054SOL    HW217625   1.879   0.603   2.212  0.5814  1.4193  1.5052
 2055SOL     OW17626   3.504   2.553   4.903  0.2855 -0.4962  0.3933
 2055SOL    HW117627   3.596   2.563   4.879 -0.1986  0.1847 -1.1471
 2055SOL    HW217628   3.506   2.534   4.997  2.0768  2.7350  0.9953
 2056SOL     OW17629   1.286   4.658   1.526 -0.2388 -0.0506  0.1366
 2056SOL    HW117630   1.334   0.013   1.502  0.8691 -0.7946 -0.1519
 2056SOL    HW217631   1.228   4.682   1.598 -3.3646 -3.3541 -1.2812
 2057SOL     OW17632   2.560   1.943   7.585 -0.2268 -0.3001 -0.0897
 2057SOL    HW117633   2.567   1.863   7.533 -1.8224 -1.9366  2.2001
 2057SOL    HW217634   2.469   1.933   7.612 -0.2782  0.4933  0.0083
 2058SOL     OW17635   0.628   4.194   5.365  0.0839 -0.4325  0.0427
 2058SOL    HW117636   0.710   4.148   5.387 -0.3953 -1.9227 -1.2667
 2058SOL    HW217637   0.652   4.284   5.386 -0.6659 -0.1573 -0.2961
 2059SOL     OW17638   3.273   3.481   5.451  0.0455  0.2079 -0.1452
 2059SOL    HW117639   3.226   3.519   5.377  2.1623 -1.3621 -2.2610
 2059SOL    HW217640   3.352   3.534   5.447 -0.6467  1.3871  1.6926
 2060SOL     OW17641   4.569   0.539   9.883  0.5703  0.1562  0.1413
 2060SOL    HW117642   4.575   0.616   9.939  2.6339 -0.5593  0.8964
 2060SOL    HW217643   4.568   0.581   9.797  1.1210  0.8179  0.4551
 2061SOL     OW17644   0.836   2.825   6.177  0.0352 -0.7485 -0.2087
 2061SOL    HW117645   0.742   2.841   6.172  0.4505  2.2910  1.5112
 2061SOL    HW217646   0.860   2.877   6.100  2.4805 -0.1560  0.9525
 2062SOL     OW17647   3.228   3.383   8.785 -0.3145 -0.2453  0.0184
 2062SOL    HW117648   3.134   3.368   8.790 -0.2080 -0.9615 -0.0217
 2062SOL    HW217649   3.229   3.477   8.770 -2.3392 -0.1052  0.7685
 2063SOL     OW17650   2.748   4.002  14.469  0.5672 -0.3431 -0.0281
 2063SOL    HW117651   2.680   3.985  14.404 -0.1249  0.8598  0.3740
 2063SOL    HW217652   2.794   4.079  14.436  1.4540 -1.1331 -0.6268
 2064SOL     OW17653   3.445   3.003   4.671 -0.4100  0.2576  0.4930
 2064SOL    HW117654   3.375   3.066   4.657 -0.4334  0.3064  0.8329
 2064SOL    HW217655   3.463   2.987   4.578  0.3448 -1.6616  0.9763
 2065SOL     OW17656   1.906   0.095   8.638  0.2491 -0.4958  0.2520
 2065SOL    HW117657   1.928   0.059   8.724 -2.2267 -3.5076 -0.3874
 2065SOL    HW217658   1.937   0.185   8.639 -0.1453 -0.3858  1.8708
 2066SOL     OW17659   0.739   2.679   3.960 -0.3653  0.1457  0.3886
 2066SOL    HW117660   0.683   2.623   4.013 -0.2570  0.0048  0.3522
 2066SOL    HW217661   0.700   2.681   3.872  0.7835 -2.0648 -0.1464
 2067SOL     OW17662   2.761   0.647   3.175  0.0653  0.0865 -0.5892
 2067SOL    HW117663   2.673   0.626   3.145 -1.3402  4.1083  0.8421
 2067SOL    HW217664   2.735   0.713   3.239  1.0478  0.2207 -0.3275
 2068SOL     OW17665   3.323   0.456   6.793 -0.6670  0.1419 -0.2461
 2068SOL    HW117666   3.243   0.506   6.780 -1.4412 -0.9385  0.3885
 2068SOL    HW217667   3.325   0.454   6.889 -1.7765 -0.3884 -0.2323
 2069SOL     OW17668   3.377   4.394  12.630  0.2878 -0.2443  0.8765
 2069SOL    HW117669   3.327   4.470  12.658 -1.5211 -1.1024  0.0004
 2069SOL    HW217670   3.310   4.358  12.571  0.9213  0.2176 -0.1284
 2070SOL     OW17671   0.414   4.332   0.861  0.4299 -0.3759  0.0320
 2070SOL    HW117672   0.342   4.318   0.800  0.0547 -1.7557  0.7948
 2070SOL    HW217673   0.443   4.416   0.826 -1.5056  0.0553 -0.5318
 2071SOL     OW17674   1.979   0.363  11.732 -0.5769  0.5902 -0.0048
 2071SOL    HW117675   1.965   0.269  11.721  1.9217  0.5688 -3.0745
 2071SOL    HW217676   1.979   0.390  11.640 -0.8682  0.3959 -0.0597
 2072SOL     OW17677   3.841   1.314  16.733  0.1648  0.3398  0.6142
 2072SOL    HW117678   3.757   1.299  16.775 -1.0540 -0.3547 -2.0327
 2072SOL    HW217679   3.812   1.381  16.671  1.8024  1.1106  0.6713
 2073SOL     OW17680   1.298   3.282   7.016 -0.2299 -0.4842  0.1602
 2073SOL    HW117681   1.385   3.269   6.978 -0.9712  0.4612 -1.8497
 2073SOL    HW217682   1.259   3.324   6.940  0.1361 -1.3190 -0.4843
 2074SOL     OW17683   0.422   3.638  16.065 -0.3467 -0.3293 -0.3539
 2074SOL    HW117684   0.330   3.627  16.043 -0.4736 -3.2258  1.4888
 2074SOL    HW217685   0.449   3.699  15.997  1.3487 -1.8625 -1.0609
 2075SOL     OW17686   0.175   3.586   3.499 -0.1239 -0.0091  0.0744
 2075SOL    HW117687   0.084   3.593   3.528  0.0361 -2.0490  1.0888
 2075SOL    HW217688   0.228   3.584   3.579 -0.1012  0.1590  0.0635
 2076SOL     OW17689   1.309   2.714   5.926 -0.7080  0.0809  0.3473
 2076SOL    HW117690   1.221   2.694   5.894  0.9915 -2.0993 -3.0062
 2076SOL    HW217691   1.343   2.752   5.845 -0.7996 -0.7753 -0.0870
 2077SOL     OW17692   2.184   0.656   8.512 -0.1423  0.6481  0.1350
 2077SOL    HW117693   2.274   0.669   8.540 -0.2822  3.8409 -0.9706
 2077SOL    HW217694   2.162   0.746   8.488 -2.7134 -0.6032 -2.3154
 2078SOL     OW17695   2.730   4.074   3.507 -0.3608 -0.4409 -0.0930
 2078SOL    HW117696   2.742   4.025   3.426  0.0631 -0.0620 -0.2577
 2078SOL    HW217697   2.660   4.136   3.487  0.2105  0.4556  0.6666
 2079SOL     OW17698   2.997   2.876   8.092  0.1975 -0.0302 -0.5093
 2079SOL    HW117699   2.947   2.818   8.149 -1.7624  1.9751 -0.1561
 2079SOL    HW217700   3.086   2.842   8.099  0.1501 -0.5253 -2.4947
 2080SOL     OW17701   1.318   2.274   0.650  0.3339 -0.2943  0.3437
 2080SOL    HW117702   1.311   2.212   0.577  0.3212 -0.5435  0.5582
 2080SOL    HW217703   1.229   2.309   0.647 -0.0251 -1.2482  0.0764
 2081SOL     OW17704   0.287   4.089  15.115 -0.1765 -0.2972  0.7928
 2081SOL    HW117705   0.240   4.153  15.169  1.0326  1.7297 -0.5413
 2081SOL    HW217706   0.352   4.146  15.073 -0.0339 -0.8399  0.2795
 2082SOL     OW17707   2.872   0.646  11.020 -0.3847 -0.0406  0.3581
 2082SOL    HW117708   2.933   0.576  11.042  0.1825 -0.6520 -3.1719
 2082SOL    HW217709   2.805   0.595  10.976  1.0938 -0.6278 -1.2092
 2083SOL     OW17710   0.904   4.338  16.569  0.0020 -0.2318 -0.0927
 2083SOL    HW117711   0.828   4.372  16.523 -0.2537 -0.7506 -0.0575
 2083SOL    HW217712   0.956   4.303  16.497 -0.2792 -0.6817 -0.0799
 2084SOL     OW17713   0.275   2.004   8.723  0.2744 -0.5722 -0.3532
 2084SOL    HW117714   0.268   2.056   8.803  2.0468 -1.0972  0.1477
 2084SOL    HW217715   0.226   2.061   8.663  1.5742  1.1461  0.2000
 2085SOL     OW17716   4.664   2.970  13.063  0.3249 -0.4326 -0.0502
 2085SOL    HW117717   4.649   3.044  13.123  2.6101 -1.0292  1.2749
 2085SOL    HW217718   4.685   3.014  12.981  2.2683  2.6375  2.0780
 2086SOL     OW17719   3.603   1.565   6.929  0.1118 -0.1332 -0.2996
 2086SOL    HW117720   3.556   1.482   6.917 -0.8082  0.2543  0.5472
 2086SOL    HW217721   3.691   1.536   6.952  1.2083  2.0570 -1.7731
 2087SOL     OW17722   4.485   3.319   9.834  0.1029 -0.5416 -0.0727
 2087SOL    HW117723   4.406   3.275   9.802 -1.8221  2.9402 -0.0758
 2087SOL    HW217724   4.455   3.404   9.865 -1.5477 -1.3845  0.6769
 2088SOL     OW17725   3.695   3.995   9.367  0.1344  0.5771  0.7751
 2088SOL    HW117726   3.648   4.029   9.444  0.1788 -0.8401  1.4284
 2088SOL    HW217727   3.657   3.908   9.367  0.1547  0.5686  0.1927
 2089SOL     OW17728   0.034   3.531   8.668 -0.3260  0.1002 -0.2215
 2089SOL    HW117729   0.119   3.572   8.651 -0.0754 -0.0835  0.5851
 2089SOL    HW217730   4.711   3.611   8.689 -0.4471 -0.0399  0.0258
 2090SOL     OW17731   0.773   2.768  14.235  0.2737  0.0620  0.1727
 2090SOL    HW117732   0.727   2.684  14.242  0.0142  0.4192  2.6862
 2090SOL    HW217733   0.863   2.740  14.214  0.6330 -0.6760  2.6679
 2091SOL     OW17734   1.730   3.522   8.080 -0.2544  0.2072 -0.0137
 2091SOL    HW117735   1.741   3.517   7.985  0.5226  2.8254 -0.0621
 2091SOL    HW217736   1.819   3.544   8.106 -0.3579 -1.8679  2.0883
 2092SOL     OW17737   4.374   2.130   5.142 -0.3831  0.0410  0.2969
 2092SOL    HW117738   4.468   2.122   5.159 -0.4700 -2.1586 -0.3115
 2092SOL    HW217739   4.335   2.079   5.212 -2.7847 -0.7115 -1.5627
 2093SOL     OW17740   0.246   0.027  10.000  0.4945  0.0271  0.0754
 2093SOL    HW117741   0.242   4.695  10.077  0.1907 -0.7510 -0.5209
 2093SOL    HW217742   0.164   4.718   9.966 -0.2049 -0.4980  2.3100
 2094SOL     OW17743   2.929   2.849   1.794  0.3227  0.1186  0.3568
 2094SOL    HW117744   2.902   2.901   1.870  0.5220  0.1382  0.4143
 2094SOL    HW217745   2.853   2.877   1.744  1.5860  2.7606 -0.0735
 2095SOL     OW17746   3.892   0.975   3.146 -0.2583 -0.0601 -0.6152
 2095SOL    HW117747   3.885   0.879   3.150 -0.3602 -0.0097  0.6891
 2095SOL    HW217748   3.971   0.978   3.092 -0.9972 -0.4295 -1.7103
 2096SOL     OW17749   3.855   2.449   4.671  0.7596  1.0125 -0.6290
 2096SOL    HW117750   3.854   2.462   4.766 -1.8231 -0.8399 -0.4019
 2096SOL    HW217751   3.773   2.403   4.656 -0.1100  2.4318 -0.2411
 2097SOL     OW17752   2.655   3.143   1.903  0.7735 -0.1906  0.4571
 2097SOL    HW117753   2.630   3.226   1.863 -0.6125 -0.5394  0.5685
 2097SOL    HW217754   2.653   3.086   1.826 -1.8299 -0.4335  0.7082
 2098SOL     OW17755   0.814   4.399   1.905 -0.1555 -0.1369 -0.0136
 2098SOL    HW117756   0.741   4.422   1.847  2.6512 -0.0179 -3.4471
 2098SOL    HW217757   0.861   4.345   1.842 -0.3555  2.9089 -2.7843
 2099SOL     OW17758   0.577   4.683   4.163  0.2103  0.3983 -0.3469
 2099SOL    HW117759   0.593   4.592   4.187 -1.5292 -0.4949 -2.4908
 2099SOL    HW217760   0.484   4.691   4.186  0.6942 -0.3289  1.8259
 2100SOL     OW17761   4.515   2.979   0.849  0.5711  0.2181 -0.1307
 2100SOL    HW117762   4.468   3.053   0.810  0.9020  1.8844  2.6703
 2100SOL    HW217763   4.589   3.026   0.886  1.1098 -0.1408 -0.7471
 2101SOL     OW17764   0.766   3.444   2.214 -0.3064  0.2185  0.0080
 2101SOL    HW117765   0.782   3.354   2.241  2.0097  0.1043 -1.7638
 2101SOL    HW217766   0.798   3.443   2.123  0.3184  1.0173  0.2249
 2102SOL     OW17767   4.606   2.505  16.089 -0.0688 -0.2191  0.0492
 2102SOL    HW117768   4.686   2.473  16.131 -1.5996 -2.5120  1.2156
 2102SOL    HW217769   4.534   2.448  16.114 -2.1294  2.3328 -0.0353
 2103SOL     OW17770   2.510   3.835   4.728 -0.5620  0.1261 -0.3744
 2103SOL    HW117771   2.507   3.872   4.816 -0.6514 -0.1226 -0.2732
 2103SOL    HW217772   2.438   3.772   4.730 -0.9642  0.6061  0.0466
 2104SOL     OW17773   2.746   2.890   1.105  0.2658  0.1371  0.0630
 2104SOL    HW117774   2.655   2.863   1.117  0.0798  0.6822 -0.1104
 2104SOL    HW217775   2.784   2.848   1.183  0.5998 -0.3240 -0.3496
 2105SOL     OW17776   1.001   0.727   9.152  0.1233 -0.4150 -0.3651
 2105SOL    HW117777   1.008   0.634   9.171  0.7060 -0.4617 -0.8104
 2105SOL    HW217778   0.916   0.730   9.108 -0.1158  2.7383  0.2584
 2106SOL     OW17779   1.362   4.393   9.435 -0.3542  0.1365 -0.7256
 2106SOL    HW117780   1.334   4.405   9.344 -0.8412  0.7883 -0.4946
 2106SOL    HW217781   1.454   4.417   9.425 -0.2433 -0.1828 -0.4713
 2107SOL     OW17782   0.627   3.031  13.324 -0.5264 -0.0814 -0.0890
 2107SOL    HW117783   0.683   3.107  13.335 -1.1796 -0.1380  3.5043
 2107SOL    HW217784   0.551   3.075  13.285 -3.0966 -3.6107  0.8368
 2108SOL     OW17785   3.854   0.222   5.223  0.2108 -0.1340  0.3735
 2108SOL    HW117786   3.766   0.230   5.185  1.0299  2.5208 -0.9498
 2108SOL    HW217787   3.843   0.143   5.276 -0.6040 -0.3005 -0.0486
 2109SOL     OW17788   2.516   1.434   3.658  0.1174 -0.1184 -0.5583
 2109SOL    HW117789   2.516   1.526   3.629 -1.3114  0.2891  0.7446
 2109SOL    HW217790   2.536   1.392   3.574  0.7720  1.5005 -1.2301
 2110SOL     OW17791   2.255   0.195   3.168 -0.0900  0.3051  0.1650
 2110SOL    HW117792   2.240   0.131   3.098  0.5156 -0.6909  0.9354
 2110SOL    HW217793   2.203   0.160   3.240  2.0286  0.7619  1.9087
 2111SOL     OW17794   1.369   4.195   9.127 -0.6085 -0.6356  0.1030
 2111SOL    HW117795   1.274   4.193   9.113 -0.5246 -0.9976 -0.3972
 2111SOL    HW217796   1.403   4.135   9.061 -0.5185 -0.8105  0.3101
 2112SOL     OW17797   2.362   0.883   8.232  0.5611 -0.0939 -0.4075
 2112SOL    HW117798   2.321   0.931   8.160  0.1338 -0.1469 -0.1985
 2112SOL    HW217799   2.284   0.854   8.280  1.7729 -0.8777  1.0585
 2113SOL     OW17800   1.511   0.227   7.032  0.5346  0.2186 -0.3103
 2113SOL    HW117801   1.549   0.144   7.004 -1.8433 -2.1527  3.3914
 2113SOL    HW217802   1.512   0.282   6.954  0.1820  0.5429 -0.0849
 2114SOL     OW17803   0.473   0.760   6.551 -0.2871  0.3189 -0.4966
 2114SOL    HW117804   0.509   0.697   6.488  0.0967  0.7269 -0.6888
 2114SOL    HW217805   0.536   0.750   6.623 -0.1629 -2.8237 -1.0645
 2115SOL     OW17806   3.160   4.189   8.792 -0.0780 -0.1983  0.0658
 2115SOL    HW117807   3.248   4.216   8.820  0.0245  2.3235 -2.7087
 2115SOL    HW217808   3.113   4.272   8.783 -2.3198 -1.5217 -0.4602
 2116SOL     OW17809   1.868   2.952   8.471 -0.0883 -0.0478 -0.5328
 2116SOL    HW117810   1.801   2.922   8.533 -0.0799  1.3790  0.1619
 2116SOL    HW217811   1.845   2.899   8.395  2.4481 -2.4922  0.4067
 2117SOL     OW17812   2.417   2.320  14.353  0.6951  0.3858  0.4187
 2117SOL    HW117813   2.412   2.391  14.417  2.0842  0.3178  0.6080
 2117SOL    HW217814   2.504   2.285  14.377 -0.4048 -2.7918 -0.2532
 2118SOL     OW17815   2.931   3.487  11.107  0.1400  0.1863 -0.4927
 2118SOL    HW117816   2.984   3.451  11.036 -0.8536 -3.0931  0.4058
 2118SOL    HW217817   2.871   3.412  11.106  0.4715 -0.0727 -1.0667
 2119SOL     OW17818   3.689   2.944   6.854  0.5214 -0.5960  0.0214
 2119SOL    HW117819   3.600   2.910   6.850  1.2774 -2.5176 -0.8226
 2119SOL    HW217820   3.666   3.032   6.882 -1.4930 -1.8805  2.4042
 2120SOL     OW17821   0.368   0.047   2.461 -0.3954  0.6016 -0.5914
 2120SOL    HW117822   0.389   4.680   2.449  0.3996  0.3448  2.7943
 2120SOL    HW217823   0.312   0.061   2.385 -0.0956 -2.4457 -1.3507
 2121SOL     OW17824   3.428   2.290  11.135  0.0920 -0.5678  0.0418
 2121SOL    HW117825   3.391   2.271  11.049  2.8128  0.5044 -1.3664
 2121SOL    HW217826   3.403   2.382  11.138 -1.4604 -0.9625 -1.2300
 2122SOL     OW17827   0.799   0.017   1.830  0.6714  0.0142  0.1095
 2122SOL    HW117828   0.751   4.714   1.908  1.8608  1.0774  1.2329
 2122SOL    HW217829   0.806   0.111   1.847 -1.9153 -0.3230  2.9825
 2123SOL     OW17830   3.863   1.374   7.031  0.1552  0.2383 -0.4945
 2123SOL    HW117831   3.925   1.351   6.961  0.1134  0.5874 -0.6463
 2123SOL    HW217832   3.875   1.467   7.052 -1.1802  0.4573 -0.7192
 2124SOL     OW17833   3.424   2.819   1.505 -0.0492 -0.6148  0.0076
 2124SOL    HW117834   3.402   2.726   1.507 -0.3456 -0.5738 -1.4955
 2124SOL    HW217835   3.431   2.831   1.600 -2.3514 -2.3167  0.3934
 2125SOL     OW17836   3.178   2.031   8.396 -0.5308  0.0659  0.1551
 2125SOL    HW117837   3.212   2.023   8.485 -2.4018  0.3319  0.8945
 2125SOL    HW217838   3.251   1.986   8.354 -0.4045  0.9124 -0.5131
 2126SOL     OW17839   0.964   3.740   9.477 -0.0227  0.3389 -0.1171
 2126SOL    HW117840   0.992   3.707   9.391 -0.8805 -2.0661  0.5370
 2126SOL    HW217841   0.998   3.682   9.544  2.9930 -0.3781 -2.2764
 2127SOL     OW17842   4.593   1.240   8.916 -0.8640 -0.0840 -0.0503
 2127SOL    HW117843   4.657   1.170   8.901 -0.6819 -0.2021  1.2736
 2127SOL    HW217844   4.509   1.196   8.930 -2.4151  3.1985  1.0889
 2128SOL     OW17845   3.435   1.368  15.039  0.0334 -0.0216  0.2391
 2128SOL    HW117846   3.359   1.405  15.084  0.9144  2.4995 -0.3465
 2128SOL    HW217847   3.397   1.317  14.968 -1.0057  1.0976 -0.0170
 2129SOL     OW17848   2.275   2.510   6.204  0.2968  0.2679  0.0630
 2129SOL    HW117849   2.335   2.508   6.278 -0.3460  1.3107  0.6029
 2129SOL    HW217850   2.216   2.581   6.231  0.7817  0.4503  0.6250
 2130SOL     OW17851   3.780   4.139   9.831 -0.1028  0.3640 -0.0788
 2130SOL    HW117852   3.793   4.231   9.855  0.4478  0.7991 -2.0336
 2130SOL    HW217853   3.807   4.137   9.739  0.6021  1.7968  0.0805
 2131SOL     OW17854   4.496   0.784  16.166  0.3813 -1.0280 -0.1964
 2131SOL    HW117855   4.501   0.827  16.251 -2.6640 -2.3956  0.6696
 2131SOL    HW217856   4.584   0.790  16.129  1.1164 -1.3175  1.4959
 2132SOL     OW17857   4.526   2.565   8.109 -0.6623 -0.0622 -0.4669
 2132SOL    HW117858   4.526   2.659   8.122  0.6375 -0.0868 -0.2451
 2132SOL    HW217859   4.582   2.521   8.173  0.8639  1.7945 -0.5231
 2133SOL     OW17860   0.160   4.134   8.884  0.7600  0.1434 -0.4292
 2133SOL    HW117861   0.092   4.077   8.919 -0.5251  1.8742 -0.1372
 2133SOL    HW217862   0.223   4.124   8.955  1.0343  0.7562 -0.5834
 2134SOL     OW17863   1.195   1.471  16.090  0.2949 -0.3416  0.4450
 2134SOL    HW117864   1.251   1.548  16.103  0.0516  0.2856 -2.2903
 2134SOL    HW217865   1.125   1.500  16.149  1.0870 -2.7446  2.5733
 2135SOL     OW17866   3.745   3.885   2.224 -0.2429 -0.2293  0.3942
 2135SOL    HW117867   3.804   3.934   2.281  0.8375  1.2834 -1.9893
 2135SOL    HW217868   3.762   3.941   2.147  0.2360 -2.9442 -1.4720
 2136SOL     OW17869   2.300   2.567   7.409 -0.0680 -0.3494 -0.4578
 2136SOL    HW117870   2.297   2.623   7.486 -1.3964  0.9980 -1.4926
 2136SOL    HW217871   2.389   2.533   7.415  0.2733  0.7009  0.3260
 2137SOL     OW17872   0.622   3.830   0.777 -0.4703 -0.1505 -0.1955
 2137SOL    HW117873   0.676   3.856   0.703  3.1783 -1.6443  1.9795
 2137SOL    HW217874   0.629   3.735   0.775  0.3086 -0.1192  1.0762
 2138SOL     OW17875   2.670   0.933   8.522  0.4692  0.1128  0.0380
 2138SOL    HW117876   2.761   0.961   8.532  0.9725 -1.3069 -0.5666
 2138SOL    HW217877   2.626   0.939   8.607 -1.0024  0.0951 -0.7206
 2139SOL     OW17878   0.627   2.867   8.209  0.0209 -0.2090  0.3071
 2139SOL    HW117879   0.632   2.772   8.214 -1.5381 -0.2359  1.3935
 2139SOL    HW217880   0.706   2.900   8.251  0.5413  0.8615 -1.5119
 2140SOL     OW17881   2.655   2.933   2.230 -0.3976  0.4735 -0.0700
 2140SOL    HW117882   2.566   2.924   2.197  0.6269 -2.3214 -2.0882
 2140SOL    HW217883   2.655   2.867   2.299  0.3718 -0.6036 -1.0847
 2141SOL     OW17884   2.169   1.758   5.484 -0.2348 -0.3786  0.3915
 2141SOL    HW117885   2.263   1.777   5.487  0.0421 -1.4351 -1.3192
 2141SOL    HW217886   2.156   1.686   5.422 -4.3076 -0.4043  1.2903
 2142SOL     OW17887   3.820   1.734   5.427 -0.0990 -0.2737 -0.1789
 2142SOL    HW117888   3.890   1.795   5.404 -2.3644  2.8900  1.4001
 2142SOL    HW217889   3.741   1.787   5.430 -0.2366 -0.5020  0.2800
 2143SOL     OW17890   0.939   2.604   3.042  0.1711 -0.1375 -0.3751
 2143SOL    HW117891   0.921   2.676   2.982  2.2599  0.9824  0.3744
 2143SOL    HW217892   1.004   2.553   2.995  0.9659 -0.7766  1.4371
 2144SOL     OW17893   3.040   3.424   6.771  0.2645  0.4661 -0.5274
 2144SOL    HW117894   3.135   3.437   6.760  0.3755 -1.6198 -2.0714
 2144SOL    HW217895   3.010   3.515   6.764  0.3330  0.5026 -0.3397
 2145SOL     OW17896   2.863   0.091  11.855  0.5169  0.4670 -0.1205
 2145SOL    HW117897   2.777   0.125  11.878  2.1602  4.4003  0.1111
 2145SOL    HW217898   2.921   0.146  11.907 -1.2481  1.1543  1.1270
 2146SOL     OW17899   3.953   1.539  10.537 -0.0869 -0.3236 -0.5563
 2146SOL    HW117900   3.989   1.530  10.449  1.2698  2.5761 -0.2937
 2146SOL    HW217901   4.013   1.491  10.594  0.9950  1.1233 -0.4661
 2147SOL     OW17902   0.982   4.509   7.203  0.3992 -0.0865 -0.0676
 2147SOL    HW117903   0.948   4.436   7.254 -1.1594 -0.4826 -1.6724
 2147SOL    HW217904   0.988   4.572   7.274 -0.4158 -1.0477  0.8542
 2148SOL     OW17905   2.678   1.234   9.612 -1.2368  0.4525  0.0011
 2148SOL    HW117906   2.692   1.315   9.563  1.2404 -0.5998 -1.0407
 2148SOL    HW217907   2.738   1.171   9.574 -2.2418 -0.6443  0.2152
 2149SOL     OW17908   1.043   4.611   1.944 -0.1783 -0.6725  0.3975
 2149SOL    HW117909   1.017   4.683   2.001 -0.7124 -0.6054  0.0723
 2149SOL    HW217910   0.959   4.592   1.901 -0.2249  0.8754 -0.1632
 2150SOL     OW17911   0.510   0.024  14.900 -0.2441  0.1776 -0.1633
 2150SOL    HW117912   0.557   4.668  14.920 -0.9984 -0.8535 -2.6376
 2150SOL    HW217913   0.546   0.082  14.967  0.7437  0.3585 -0.8428
 2151SOL     OW17914   0.379   1.679   4.781 -0.1802  0.3293 -0.5566
 2151SOL    HW117915   0.468   1.655   4.759  0.2866  3.0137 -1.6334
 2151SOL    HW217916   0.380   1.676   4.877 -0.1576 -1.8855 -0.6276
 2152SOL     OW17917   2.477   2.101   9.476 -0.5441 -0.2818  0.3998
 2152SOL    HW117918   2.493   2.011   9.450  0.6458  0.4561 -1.4255
 2152SOL    HW217919   2.541   2.150   9.425 -2.0249  0.5806 -0.6085
 2153SOL     OW17920   1.545   3.889   5.560 -0.2767  0.0202  0.3865
 2153SOL    HW117921   1.589   3.841   5.489 -0.7589  0.4652 -0.2120
 2153SOL    HW217922   1.549   3.823   5.629 -1.4566  0.3198  0.7331
 2154SOL     OW17923   2.850   2.448   7.342  0.5120 -0.1200  0.5519
 2154SOL    HW117924   2.858   2.354   7.329  2.4957  0.1952 -0.4552
 2154SOL    HW217925   2.839   2.454   7.437 -0.6823  4.8834  0.1097
 2155SOL     OW17926   3.321   0.788   6.968 -0.0245 -0.0558  0.1835
 2155SOL    HW117927   3.327   0.821   6.879  1.2817 -0.2212  0.2143
 2155SOL    HW217928   3.299   0.869   7.014 -2.3686  1.2698 -3.3386
 2156SOL     OW17929   0.335   0.254   6.993 -0.0349  0.4262  0.2386
 2156SOL    HW117930   0.422   0.268   7.031 -0.1946  1.6191  0.1791
 2156SOL    HW217931   0.275   0.296   7.054 -0.5344 -1.7769  1.2506
 2157SOL     OW17932   3.770   1.701  11.012 -0.7185 -0.6355 -0.4375
 2157SOL    HW117933   3.729   1.763  11.072 -0.9763 -2.1300  0.9379
 2157SOL    HW217934   3.718   1.714  10.932 -2.4493  1.4860  1.0101
 2158SOL     OW17935   3.790   3.783  11.259 -0.0933 -0.1906 -0.3589
 2158SOL    HW117936   3.875   3.783  11.216 -1.6992  0.7179 -3.5109
 2158SOL    HW217937   3.740   3.744  11.188  0.4262 -0.2307 -0.7005
 2159SOL     OW17938   2.966   1.291   8.569  0.1344  0.1555  0.4895
 2159SOL    HW117939   2.921   1.213   8.537  0.2833 -0.7480  2.5160
 2159SOL    HW217940   2.889   1.347   8.577 -0.1851 -0.0394 -1.2254
 2160SOL     OW17941   0.437   2.043  17.661  0.6602 -0.0353 -0.2185
 2160SOL    HW117942   0.439   2.127   0.005 -1.9200  0.3288 -0.7832
 2160SOL    HW217943   0.523   2.036  17.620  0.5914 -1.6799 -0.0544
 2161SOL     OW17944   2.373   3.199   3.695  0.2254  0.2627 -0.0448
 2161SOL    HW117945   2.463   3.221   3.671  0.6406 -1.0024  0.3777
 2161SOL    HW217946   2.360   3.122   3.639 -1.2854  0.0309  0.6236
 2162SOL     OW17947   4.359   0.323  10.233 -0.3839  0.5861 -0.5512
 2162SOL    HW117948   4.349   0.358  10.145 -1.3506 -0.6762 -0.9545
 2162SOL    HW217949   4.402   0.389  10.286  2.1376 -2.4844  1.2696
 2163SOL     OW17950   2.498   0.879  11.240 -0.3942  0.0874 -0.0762
 2163SOL    HW117951   2.592   0.861  11.234 -0.0747  1.6454  0.2046
 2163SOL    HW217952   2.478   0.955  11.184  0.1322  1.5687  1.7565
 2164SOL     OW17953   1.651   0.133   9.127 -0.2934 -0.3474 -0.2804
 2164SOL    HW117954   1.575   0.085   9.160 -1.6809  0.7783 -1.7692
 2164SOL    HW217955   1.678   0.074   9.056  0.3836  1.2593 -1.3787
 2165SOL     OW17956   3.847   4.033  15.885 -0.5246 -0.3815 -0.1992
 2165SOL    HW117957   3.822   3.973  15.815  0.0673 -0.7044 -0.1273
 2165SOL    HW217958   3.933   3.996  15.902 -0.3546  0.3434  0.5124
 2166SOL     OW17959   0.295   4.190   6.921  0.2378 -0.1088  0.7117
 2166SOL    HW117960   0.273   4.258   6.857 -1.8705 -2.7256 -1.3806
 2166SOL    HW217961   0.383   4.220   6.944  0.2222  1.3096 -1.0260
 2167SOL     OW17962   2.714   4.014  13.168  0.2126 -0.4620  0.0969
 2167SOL    HW117963   2.658   3.975  13.235  0.6012  0.9558  1.2456
 2167SOL    HW217964   2.762   3.937  13.136  2.5676  0.0146  2.5145
 2168SOL     OW17965   3.820   2.076   7.523  0.3866  0.1147 -0.0539
 2168SOL    HW117966   3.756   2.006   7.511  0.7098  0.2020 -2.1995
 2168SOL    HW217967   3.900   2.023   7.514  0.7551  0.6531  0.0613
 2169SOL     OW17968   2.044   4.542   3.798  0.0021  0.6074 -0.1594
 2169SOL    HW117969   2.134   4.575   3.792 -0.4415  2.0650  1.3784
 2169SOL    HW217970   1.989   4.611   3.834 -2.6789 -2.5743  1.8844
 2170SOL     OW17971   2.740   4.662  10.708 -0.6396 -0.2311 -0.4748
 2170SOL    HW117972   2.768   4.573  10.686 -0.3177 -0.3599  0.4973
 2170SOL    HW217973   2.735   4.662  10.803 -2.2462  0.4657 -0.5566
 2171SOL     OW17974   1.880   4.568   3.567  0.1826  0.0565  1.0414
 2171SOL    HW117975   1.968   4.570   3.528  0.1856 -0.6249  1.0166
 2171SOL    HW217976   1.895   4.635   3.633 -2.6041  1.2474  0.4407
 2172SOL     OW17977   1.917   2.838   7.870 -0.0051 -0.0788  0.6690
 2172SOL    HW117978   1.887   2.925   7.845 -1.7566 -0.5248  1.2347
 2172SOL    HW217979   1.876   2.786   7.800  1.4582  1.2610 -1.1762
 2173SOL     OW17980   4.589   2.975   1.377 -0.0501  0.4467  0.3135
 2173SOL    HW117981   4.558   2.899   1.427 -1.1156  0.9591  0.4260
 2173SOL    HW217982   4.626   3.039   1.437  0.8749 -0.5021  0.7645
 2174SOL     OW17983   2.615   2.569  16.664 -0.0512  0.0147 -0.1219
 2174SOL    HW117984   2.668   2.601  16.738 -0.0532  1.2624 -0.6493
 2174SOL    HW217985   2.532   2.616  16.673 -0.0669 -0.4812  2.4046
 2175SOL     OW17986   0.606   3.227   3.226  0.0723  0.1550 -0.4799
 2175SOL    HW117987   0.688   3.275   3.240  0.1083 -0.4640  1.4847
 2175SOL    HW217988   0.556   3.274   3.293  0.7302 -1.0342  0.8566
 2176SOL     OW17989   0.499   2.752   0.597 -0.7256 -0.3695 -0.1660
 2176SOL    HW117990   0.410   2.739   0.563 -0.5900 -0.5906 -0.4389
 2176SOL    HW217991   0.489   2.818   0.665  1.0277 -0.4628  0.1699
 2177SOL     OW17992   4.344   4.155   3.253  0.1925 -0.0875  0.2524
 2177SOL    HW117993   4.282   4.137   3.323 -1.0486 -1.2279 -1.1496
 2177SOL    HW217994   4.281   4.217   3.217  0.0491 -0.5058 -0.2131
 2178SOL     OW17995   0.343   2.937   7.204 -0.7538  0.3461 -0.0978
 2178SOL    HW117996   0.309   2.876   7.139 -3.0895  1.2353  0.2853
 2178SOL    HW217997   0.403   2.976   7.140 -0.5458 -0.2742 -0.2768
 2179SOL     OW17998   2.749   1.133  15.909 -0.5805  0.0419 -0.3280
 2179SOL    HW117999   2.674   1.115  15.852 -1.9492  0.7430  1.2636
 2179SOL    HW218000   2.795   1.050  15.902 -1.6539 -0.4910 -1.2132
 2180SOL     OW18001   4.324   1.166   5.092 -0.1480  0.4587 -0.3476
 2180SOL    HW118002   4.386   1.150   5.162 -0.5501 -2.3819 -0.6502
 2180SOL    HW218003   4.375   1.213   5.025  1.0335  2.1934  1.7835
 2181SOL     OW18004   2.227   2.096   5.463  0.1112 -0.3965  0.8205
 2181SOL    HW118005   2.308   2.102   5.413  0.6408 -0.0241  1.7421
 2181SOL    HW218006   2.263   2.127   5.546  1.5315  0.0180  0.0562
 2182SOL     OW18007   4.518   1.955   7.549 -0.4684 -0.3034 -0.1206
 2182SOL    HW118008   4.505   2.026   7.486  0.0133  1.2139  1.4684
 2182SOL    HW218009   4.590   1.909   7.507  1.1452  1.6112  0.5616
 2183SOL     OW18010   3.199   3.043  11.993 -0.5846  0.8162  0.0158
 2183SOL    HW118011   3.148   3.123  11.977 -1.5446  0.3509  0.7717
 2183SOL    HW218012   3.172   3.025  12.083 -0.7311 -0.9518 -0.3925
 2184SOL     OW18013   2.175   3.501  15.009 -0.4751  0.0776 -0.1263
 2184SOL    HW118014   2.256   3.539  15.042  0.6377 -0.8421 -1.8530
 2184SOL    HW218015   2.155   3.547  14.928 -0.5366 -0.9184 -0.6723
 2185SOL     OW18016   3.257   1.100   2.634 -0.1998 -0.0354 -0.0876
 2185SOL    HW118017   3.352   1.108   2.645 -0.2275  1.5600 -0.9929
 2185SOL    HW218018   3.248   1.007   2.653  0.4214 -0.4270 -1.7082
 2186SOL     OW18019   0.664   2.058   2.902  0.2132 -0.4759  0.0165
 2186SOL    HW118020   0.647   2.056   2.996 -0.5443 -1.9665 -0.1555
 2186SOL    HW218021   0.579   2.067   2.858 -0.5514 -1.4509  1.3048
 2187SOL     OW18022   2.414   3.619  16.504 -0.1168 -0.2362  0.0990
 2187SOL    HW118023   2.377   3.534  16.528  0.6679 -0.9200 -1.0971
 2187SOL    HW218024   2.344   3.676  16.537 -0.4576 -1.6478  1.7827
 2188SOL     OW18025   4.150   4.157   4.657 -0.1729 -0.6701  0.5756
 2188SOL    HW118026   4.184   4.088   4.601  0.0341  0.7497 -1.0327
 2188SOL    HW218027   4.059   4.140   4.631 -0.1252  1.2867 -0.9003
 2189SOL     OW18028   1.126   3.067   4.738 -0.1964  0.0828 -0.2904
 2189SOL    HW118029   1.090   3.090   4.653 -0.0321 -0.9594 -0.6446
 2189SOL    HW218030   1.050   3.084   4.794 -0.1280 -0.3802 -0.0537
 2190SOL     OW18031   1.095   4.125   2.930  0.1631 -0.2616 -0.1789
 2190SOL    HW118032   1.024   4.146   2.869  1.0285  0.5050 -0.9358
 2190SOL    HW218033   1.172   4.166   2.890  0.1539  0.1775  0.2452
 2191SOL     OW18034   3.533   1.385   1.011  0.2597  0.3992 -0.1167
 2191SOL    HW118035   3.464   1.363   0.949  1.1669 -2.2619 -0.2145
 2191SOL    HW218036   3.510   1.320   1.078  0.8887  1.7292  1.4132
 2192SOL     OW18037   2.506   3.249  14.846  0.5955 -0.5757 -0.1912
 2192SOL    HW118038   2.580   3.310  14.836 -0.1038  0.5442  1.4436
 2192SOL    HW218039   2.477   3.277  14.933  1.4022 -0.7323  0.1297
 2193SOL     OW18040   3.072   0.867   3.077 -0.5435 -0.1745 -0.3085
 2193SOL    HW118041   3.164   0.872   3.099 -0.9118  0.1790  1.1555
 2193SOL    HW218042   3.020   0.896   3.153  1.2425 -0.1561  0.9009
 2194SOL     OW18043   0.784   1.758   8.446 -0.0209 -0.6436 -0.2448
 2194SOL    HW118044   0.878   1.768   8.428 -0.6058  4.0921 -0.5782
 2194SOL    HW218045   0.777   1.801   8.531  0.2989  0.4122 -0.7563
 2195SOL     OW18046   0.752   0.909   4.355 -0.3825  0.5280 -0.1384
 2195SOL    HW118047   0.764   0.998   4.386 -0.9335  0.6885 -0.3777
 2195SOL    HW218048   0.793   0.910   4.268 -0.0119  2.5347  0.0680
 2196SOL     OW18049   0.476   0.661   5.247 -0.4287 -0.1239 -0.3491
 2196SOL    HW118050   0.425   0.588   5.214  1.9374 -1.9291 -0.0270
 2196SOL    HW218051   0.558   0.626   5.283  0.1460  0.5638 -0.9853
 2197SOL     OW18052   3.606   3.007  12.243 -0.0324  0.1897  0.2710
 2197SOL    HW118053   3.609   2.912  12.255 -0.8515 -0.1658 -2.2025
 2197SOL    HW218054   3.606   3.048  12.329 -1.8875  1.1919 -0.2188
 2198SOL     OW18055   1.892   1.926  13.339 -0.1377  0.0962  0.4768
 2198SOL    HW118056   1.811   1.907  13.388 -0.2917 -0.8814 -0.1562
 2198SOL    HW218057   1.947   1.862  13.383 -0.5077 -0.8960 -0.5077
 2199SOL     OW18058   0.851   1.654   2.075  0.0512  0.1508 -0.7190
 2199SOL    HW118059   0.878   1.604   1.998  0.9797  1.4685 -1.2413
 2199SOL    HW218060   0.837   1.742   2.040  2.3812 -0.3343 -2.8579
 2200SOL     OW18061   4.365   0.342   9.734  0.2495 -0.2516  0.6995
 2200SOL    HW118062   4.389   0.433   9.717 -1.2482  0.2354  1.1854
 2200SOL    HW218063   4.335   0.359   9.824 -0.7691  0.1774  0.2761
 2201SOL     OW18064   1.914   1.206  14.735 -0.0953  0.3804  0.0670
 2201SOL    HW118065   1.958   1.122  14.725 -2.0393 -0.4393 -1.4694
 2201SOL    HW218066   1.859   1.188  14.810 -0.1901  1.0056  0.1534
 2202SOL     OW18067   1.166   3.407   6.518 -0.0111  0.1364  0.5382
 2202SOL    HW118068   1.133   3.461   6.446  0.1176 -0.4415  0.0474
 2202SOL    HW218069   1.257   3.437   6.517 -0.0851  0.4189  2.7565
 2203SOL     OW18070   3.186   0.844   6.401 -0.2858 -0.2431 -0.2378
 2203SOL    HW118071   3.258   0.821   6.342 -0.5535  1.3014 -1.1595
 2203SOL    HW218072   3.233   0.896   6.466 -1.0647 -0.4992  0.5196
 2204SOL     OW18073   0.785   4.001   9.064  0.5291  0.2853 -0.1278
 2204SOL    HW118074   0.747   3.973   9.148 -0.9733  2.7178  0.0416
 2204SOL    HW218075   0.877   4.025   9.075  0.4894  0.8948 -1.1616
 2205SOL     OW18076   0.268   3.631   6.394  0.4680  0.1227 -1.0022
 2205SOL    HW118077   0.227   3.715   6.415  0.6732 -0.0761  0.1764
 2205SOL    HW218078   0.285   3.634   6.299 -1.1640 -0.8248 -1.3308
 2206SOL     OW18079   4.218   2.291   3.297 -0.2817 -0.7766 -0.1392
 2206SOL    HW118080   4.303   2.323   3.266  0.0427 -1.3149  0.1953
 2206SOL    HW218081   4.180   2.268   3.212  0.2610  0.1940 -0.6428
 2207SOL     OW18082   3.416   2.975   8.811 -0.2451 -0.3093  0.3249
 2207SOL    HW118083   3.347   3.020   8.859 -0.8286 -0.4830 -0.3553
 2207SOL    HW218084   3.499   3.000   8.852 -1.5419 -1.8407  3.8675
 2208SOL     OW18085   4.322   3.666   8.808  0.1086  0.3482 -0.3454
 2208SOL    HW118086   4.404   3.638   8.767 -1.1160 -0.7726 -2.0331
 2208SOL    HW218087   4.324   3.597   8.874 -1.3894  0.7852  0.1536
 2209SOL     OW18088   2.954   3.499   7.657 -0.1357  0.0431  0.2049
 2209SOL    HW118089   3.039   3.510   7.699 -0.7508  2.5374  0.7651
 2209SOL    HW218090   2.907   3.440   7.716 -0.4346  0.0106 -0.0612
 2210SOL     OW18091   1.946   0.780   7.869 -0.6025  0.1423  0.1887
 2210SOL    HW118092   1.959   0.841   7.797 -0.5885 -0.0969 -0.0130
 2210SOL    HW218093   1.857   0.804   7.896 -0.6067  0.6887 -0.3108
 2211SOL     OW18094   1.929   1.445   3.906 -0.7587  0.0436 -0.2378
 2211SOL    HW118095   1.890   1.369   3.861 -2.5677  0.7603  0.1171
 2211SOL    HW218096   1.870   1.458   3.980  1.0104 -0.7440  1.3113
 2212SOL     OW18097   1.383   3.596   6.122  0.2403 -0.3739  0.2588
 2212SOL    HW118098   1.397   3.509   6.161 -0.3326 -0.5366  0.1033
 2212SOL    HW218099   1.475   3.624   6.125  0.1546 -0.2128  1.3871
 2213SOL     OW18100   3.517   1.415   2.194 -1.2031  0.2119  0.2445
 2213SOL    HW118101   3.444   1.417   2.256 -1.2253 -0.0101  0.2259
 2213SOL    HW218102   3.487   1.359   2.123 -1.6741  0.0819  0.5482
 2214SOL     OW18103   2.949   4.533   0.236 -0.3047 -0.0729  0.0751
 2214SOL    HW118104   2.890   4.569   0.170  3.3887  0.2127 -3.0484
 2214SOL    HW218105   2.877   4.520   0.298 -1.2517  0.1749 -0.9867
 2215SOL     OW18106   2.332   3.262  14.622  0.2030  0.2061  0.3632
 2215SOL    HW118107   2.385   3.341  14.613 -1.2926  1.1030 -0.4842
 2215SOL    HW218108   2.308   3.261  14.530 -1.2116  0.5206  0.7252
 2216SOL     OW18109   1.041   3.298   1.816  0.5220 -0.6653  0.0229
 2216SOL    HW118110   1.057   3.241   1.741  1.1045 -0.2711 -0.1538
 2216SOL    HW218111   0.947   3.290   1.827  0.2854  2.1540  0.1272
 2217SOL     OW18112   2.152   1.993   8.870  0.5666 -0.4255 -0.2917
 2217SOL    HW118113   2.214   2.065   8.863 -0.4659  0.8022  2.9502
 2217SOL    HW218114   2.092   2.031   8.934  0.2635  1.7576 -1.8676
 2218SOL     OW18115   2.804   1.796   4.090 -0.7966 -0.5720  0.0212
 2218SOL    HW118116   2.888   1.793   4.137 -0.4005  2.5846 -0.5275
 2218SOL    HW218117   2.748   1.840   4.154 -0.8287  0.6662 -0.8707
 2219SOL     OW18118   4.303   0.675   6.594 -0.1342  0.0410  0.1458
 2219SOL    HW118119   4.356   0.615   6.646  0.7289  0.8937  0.2421
 2219SOL    HW218120   4.216   0.666   6.632  0.3284  0.3436  1.2883
 2220SOL     OW18121   3.315   0.553  12.181  1.1110  0.2096 -0.0748
 2220SOL    HW118122   3.287   0.461  12.182  2.5831 -0.2361 -1.1332
 2220SOL    HW218123   3.389   0.551  12.242  2.8037  1.0139 -2.1230
 2221SOL     OW18124   3.478   3.984  13.453  0.3055 -0.6774  0.2410
 2221SOL    HW118125   3.523   4.054  13.500  0.2064  0.2503 -1.0801
 2221SOL    HW218126   3.427   3.944  13.524 -0.6022 -1.9788 -1.1547
 2222SOL     OW18127   1.193   0.123  10.046 -0.9748  0.2901  0.0628
 2222SOL    HW118128   1.263   0.116  10.111  0.0684  0.9233 -0.9699
 2222SOL    HW218129   1.135   0.182  10.093 -0.6397  1.1409 -0.5820
 2223SOL     OW18130   0.834   3.700   5.297 -0.2047 -0.0270  0.1273
 2223SOL    HW118131   0.741   3.714   5.278  0.0177 -0.1132 -1.0389
 2223SOL    HW218132   0.864   3.768   5.237  1.0114  0.1323  0.9137
 2224SOL     OW18133   0.345   0.954   7.507  0.4827  0.0234  0.0122
 2224SOL    HW118134   0.418   0.912   7.463  0.5054  0.8378 -0.7364
 2224SOL    HW218135   0.297   0.879   7.541 -1.2470  0.9017 -0.4679
 2225SOL     OW18136   2.901   3.858  17.093 -0.2469  0.3341  0.3741
 2225SOL    HW118137   2.948   3.941  17.094  0.0922  0.1514 -0.8392
 2225SOL    HW218138   2.807   3.873  17.107 -0.5681  0.3368 -1.8689
 2226SOL     OW18139   3.231   3.141   4.693  0.0502  0.0944 -0.3087
 2226SOL    HW118140   3.268   3.191   4.766  0.9972  0.2477 -0.8992
 2226SOL    HW218141   3.170   3.196   4.643 -2.6974 -2.5050  0.1979
 2227SOL     OW18142   1.821   3.899   6.896  0.1484  0.0251  0.2679
 2227SOL    HW118143   1.762   3.847   6.951  0.7941 -1.7065 -0.6726
 2227SOL    HW218144   1.855   3.940   6.976  0.8815  0.3584 -0.2211
 2228SOL     OW18145   1.905   1.182   4.437 -0.3241  0.3333  0.2756
 2228SOL    HW118146   1.965   1.243   4.480  1.8139 -0.8830 -1.0219
 2228SOL    HW218147   1.889   1.128   4.514 -0.3584 -0.1592 -0.0828
 2229SOL     OW18148   2.132   2.138  16.059 -0.0708 -0.4716  0.5992
 2229SOL    HW118149   2.122   2.104  15.970  1.0887 -0.3173  0.4059
 2229SOL    HW218150   2.226   2.132  16.075  0.2850  0.8950 -1.0497
 2230SOL     OW18151   3.054   3.471  13.129 -0.2114 -0.1704  0.4403
 2230SOL    HW118152   2.982   3.412  13.151  0.7499 -2.2794 -2.0955
 2230SOL    HW218153   3.101   3.445  13.208 -0.4070 -0.2136  0.5441
 2231SOL     OW18154   2.323   3.383  16.545 -0.6373  0.7723  0.1822
 2231SOL    HW118155   2.372   3.302  16.553 -0.5579  0.5434 -2.6571
 2231SOL    HW218156   2.276   3.354  16.467 -0.4041  2.2188 -0.4926
 2232SOL     OW18157   1.910   0.710  15.558 -0.1053 -0.1510 -0.4510
 2232SOL    HW118158   1.997   0.733  15.525  1.5121  0.1376  3.9270
 2232SOL    HW218159   1.933   0.656  15.633  1.0603 -0.4469 -1.0290
 2233SOL     OW18160   4.102   4.503   4.982  0.4600  0.7343  0.2778
 2233SOL    HW118161   4.192   4.515   4.951  0.4795  0.4955  0.2486
 2233SOL    HW218162   4.082   4.417   4.946  1.7747  0.9690 -1.0030
 2234SOL     OW18163   1.453   3.211   8.058 -0.1495  0.5862  0.1061
 2234SOL    HW118164   1.474   3.195   7.966 -0.1566 -2.8398  0.6914
 2234SOL    HW218165   1.529   3.259   8.090 -0.3770  0.0671  1.4203
 2235SOL     OW18166   1.962   2.745   4.031  0.2140 -0.0083 -0.4112
 2235SOL    HW118167   1.943   2.685   3.958 -3.7994  2.2870 -1.2741
 2235SOL    HW218168   1.879   2.744   4.078 -0.8299  0.3672 -2.2464
 2236SOL     OW18169   4.519   4.419   7.307  0.1859 -0.6547 -0.5210
 2236SOL    HW118170   4.464   4.412   7.385  1.1290 -1.4389  0.0621
 2236SOL    HW218171   4.461   4.435   7.232 -0.1074  3.0941  0.4594
 2237SOL     OW18172   0.736   0.168   8.204  0.2230  0.1103  0.2326
 2237SOL    HW118173   0.717   0.262   8.203 -0.8336 -0.1037  0.6665
 2237SOL    HW218174   0.782   0.144   8.285  0.4360  1.2909  0.4560
 2238SOL     OW18175   2.151   2.004   6.899  0.2288  0.1005  0.1537
 2238SOL    HW118176   2.120   2.093   6.879 -1.5228 -0.5753 -0.1509
 2238SOL    HW218177   2.243   2.003   6.874 -0.6709 -0.8986 -3.0823
 2239SOL     OW18178   3.166   1.166   2.311 -0.1312  0.2842  0.3556
 2239SOL    HW118179   3.248   1.215   2.315 -0.0918  0.3015 -0.5827
 2239SOL    HW218180   3.111   1.235   2.273 -0.8513  0.6527  2.0927
 2240SOL     OW18181   2.709   3.523   7.563  0.2620 -0.4531 -0.0995
 2240SOL    HW118182   2.675   3.578   7.634 -0.8189  0.6488 -1.4801
 2240SOL    HW218183   2.796   3.501   7.597 -0.5009  0.2112  2.2506
 2241SOL     OW18184   1.433   1.435   8.822 -0.1827 -0.1506  0.5788
 2241SOL    HW118185   1.388   1.397   8.898 -0.9577  0.2805  0.3338
 2241SOL    HW218186   1.506   1.373   8.820 -1.1107 -1.2470  0.6348
 2242SOL     OW18187   1.774   1.624   8.527  0.0391 -0.8248  0.2545
 2242SOL    HW118188   1.679   1.628   8.527 -0.0111 -2.0254  0.5411
 2242SOL    HW218189   1.796   1.716   8.514 -2.1631 -0.2889  0.4098
 2243SOL     OW18190   3.089   3.508   2.927 -0.3017  0.5414  0.2285
 2243SOL    HW118191   3.113   3.578   2.865 -1.8562 -1.6822 -2.8863
 2243SOL    HW218192   3.171   3.462   2.909 -0.1966  0.3290  1.2625
 2244SOL     OW18193   0.748   1.513   9.016 -0.6763  0.2216  0.0167
 2244SOL    HW118194   0.739   1.569   9.093 -1.4211  0.4005 -0.2033
 2244SOL    HW218195   0.666   1.464   9.013 -2.1207  2.4734  2.5005
 2245SOL     OW18196   2.787   3.741   4.192  0.5452 -0.3849  0.4679
 2245SOL    HW118197   2.826   3.741   4.105  1.2452 -1.8241  0.7791
 2245SOL    HW218198   2.820   3.825   4.222  1.3208 -0.5726  0.1283
 2246SOL     OW18199   4.683   3.175   0.973 -0.1956  0.4705 -0.2778
 2246SOL    HW118200   4.608   3.204   1.025 -1.1638 -0.1168 -1.3468
 2246SOL    HW218201   4.710   3.093   1.013 -2.6482 -1.3092 -2.2536
 2247SOL     OW18202   1.132   3.024   7.007  0.5677  0.4616  0.1183
 2247SOL    HW118203   1.076   3.008   6.931 -0.6845  0.8811  0.9362
 2247SOL    HW218204   1.175   3.107   6.986  0.1638  1.1057  1.8363
 2248SOL     OW18205   2.367   4.192  16.987  0.4043  0.0245  0.1299
 2248SOL    HW118206   2.345   4.143  17.066  0.1266  0.2725  0.2039
 2248SOL    HW218207   2.408   4.124  16.933 -0.8078  0.5776 -1.5110
 2249SOL     OW18208   2.896   0.236   7.149 -0.8113 -0.1818 -0.2103
 2249SOL    HW118209   2.948   0.220   7.228  0.4980 -0.4237 -1.1165
 2249SOL    HW218210   2.967   0.257   7.089 -0.0149  1.2173  1.2386
 2250SOL     OW18211   3.816   1.871   1.813  0.1006  0.2993  0.1360
 2250SOL    HW118212   3.896   1.925   1.809 -0.5719  1.3734  1.2386
 2250SOL    HW218213   3.807   1.848   1.721  0.5664 -1.1524  0.4567
 2251SOL     OW18214   0.297   2.930   4.893 -0.3146 -0.4378  0.3827
 2251SOL    HW118215   0.380   2.964   4.861 -0.1855 -2.1646 -1.1460
 2251SOL    HW218216   0.326   2.864   4.956 -0.0207 -0.5014  0.1797
 2252SOL     OW18217   0.750   0.690   8.983  0.2273  0.2251 -0.4796
 2252SOL    HW118218   0.770   0.599   8.960  0.4504  0.0065  0.6161
 2252SOL    HW218219   0.737   0.737   8.900  0.2333  0.2043 -0.4925
 2253SOL     OW18220   1.383   2.152   6.730  0.2910 -0.1690 -0.5969
 2253SOL    HW118221   1.359   2.148   6.637 -0.7760 -0.5957 -0.2992
 2253SOL    HW218222   1.292   2.157   6.760  0.4832  1.3989 -0.3209
 2254SOL     OW18223   1.561   0.643   6.526 -0.3992  0.2939 -0.1223
 2254SOL    HW118224   1.485   0.595   6.556 -1.9809  1.9897 -1.3746
 2254SOL    HW218225   1.538   0.734   6.547 -0.1197  0.7479 -1.7369
 2255SOL     OW18226   1.940   3.928   6.129 -0.3483  0.2409 -0.2142
 2255SOL    HW118227   1.990   3.987   6.186 -1.3723  1.2426 -0.3535
 2255SOL    HW218228   1.987   3.847   6.147  2.4891  2.0302  0.4817
 2256SOL     OW18229   4.678   4.619   3.360  0.0405 -0.6065 -0.7060
 2256SOL    HW118230   4.621   4.615   3.283 -2.0270 -0.4185  0.8206
 2256SOL    HW218231   4.665   4.530   3.393  0.0304  0.1812  1.3595
 2257SOL     OW18232   1.678   1.880   2.626  0.3247 -0.5014 -0.0422
 2257SOL    HW118233   1.646   1.835   2.548  2.0397 -1.2212 -0.3272
 2257SOL    HW218234   1.599   1.881   2.680  0.3096 -0.5978 -0.0633
 2258SOL     OW18235   4.715   1.918   3.754 -0.1423 -0.2927  0.1233
 2258SOL    HW118236   0.080   1.942   3.733 -0.0652 -1.9294 -1.4154
 2258SOL    HW218237   4.666   2.000   3.763 -0.4210 -0.4624  0.1351
 2259SOL     OW18238   3.261   4.038  17.292  0.3731  0.4318  0.2937
 2259SOL    HW118239   3.271   4.010  17.201  1.7871  0.6315  0.3863
 2259SOL    HW218240   3.168   4.020  17.306  0.5940 -0.6698  0.3383
 2260SOL     OW18241   2.194   2.325   3.477  0.3490  0.8059 -0.4842
 2260SOL    HW118242   2.274   2.367   3.509 -0.8848  1.4885  1.6560
 2260SOL    HW218243   2.125   2.391   3.477 -1.5964 -1.2094 -0.7793
 2261SOL     OW18244   0.032   4.301   7.263 -0.8530 -0.2300  0.4850
 2261SOL    HW118245   4.719   4.215   7.282 -1.3619 -0.5547 -2.0429
 2261SOL    HW218246   4.675   4.350   7.272 -1.8287 -1.7752  0.0177
 2262SOL     OW18247   4.699   0.387   2.917  0.0194  0.0741 -0.2842
 2262SOL    HW118248   0.066   0.404   2.934 -0.5822  2.4328  0.6740
 2262SOL    HW218249   4.652   0.463   2.951  2.9792  1.9129 -0.2999
 2263SOL     OW18250   0.687   4.441  16.448  0.0224  0.2118  0.0340
 2263SOL    HW118251   0.625   4.415  16.379 -0.7278  0.5073  0.6052
 2263SOL    HW218252   0.632   4.490  16.508  0.8172 -2.8000  3.2590
 2264SOL     OW18253   4.304   0.111   0.399  0.1886 -0.5051 -0.6091
 2264SOL    HW118254   4.240   0.075   0.460 -0.2940  1.1415 -0.1401
 2264SOL    HW218255   4.250   0.165   0.342  0.4278  1.0163  0.6018
 2265SOL     OW18256   4.699   3.175   3.107 -0.0996  0.1054  0.2402
 2265SOL    HW118257   0.008   3.087   3.097 -0.9702 -0.2475  0.3205
 2265SOL    HW218258   4.622   3.155   3.160 -1.5548 -0.2824 -1.9791
 2266SOL     OW18259   3.540   3.334   5.374  0.2966 -0.4198 -0.0508
 2266SOL    HW118260   3.515   3.246   5.401 -0.0803 -0.1952  0.3200
 2266SOL    HW218261   3.472   3.357   5.310  0.6126 -2.3319 -1.0765
 2267SOL     OW18262   3.878   4.102  10.330  0.4817  0.3304  0.3169
 2267SOL    HW118263   3.797   4.118  10.282  0.4822 -0.4615  0.0493
 2267SOL    HW218264   3.902   4.182  10.376  1.6100 -1.2961  2.5786
 2268SOL     OW18265   0.109   2.566   1.336 -0.1717 -0.6222  0.0284
 2268SOL    HW118266   0.121   2.660   1.348  1.8092 -0.7598 -0.8422
 2268SOL    HW218267   0.160   2.525   1.406 -0.0309 -0.5006 -0.0040
 2269SOL     OW18268   3.626   3.888   6.826 -0.1458  0.4384  0.1212
 2269SOL    HW118269   3.601   3.803   6.863 -1.9225  1.8989  2.2596
 2269SOL    HW218270   3.708   3.909   6.870  0.4026 -0.0093 -0.6867
 2270SOL     OW18271   2.646   1.924   6.198  0.5663  0.0948 -0.1293
 2270SOL    HW118272   2.589   1.988   6.242  0.2449 -1.5359  1.8258
 2270SOL    HW218273   2.734   1.945   6.228  1.0761 -0.8117 -1.0088
 2271SOL     OW18274   4.638   2.482   1.874 -0.4720 -0.0211  0.1330
 2271SOL    HW118275   4.620   2.506   1.965 -0.9056 -2.9336  0.8135
 2271SOL    HW218276   4.553   2.498   1.832 -1.1407 -0.9982  1.1350
 2272SOL     OW18277   0.472   1.134  13.331  0.1493 -0.9711 -0.0422
 2272SOL    HW118278   0.486   1.042  13.306 -0.1494 -1.2229  0.6897
 2272SOL    HW218279   0.513   1.187  13.263  0.6743  3.3579  3.6838
 2273SOL     OW18280   4.001   0.836  11.843  0.1245 -0.0849  0.1374
 2273SOL    HW118281   4.017   0.858  11.751  1.5199  0.5161  0.5150
 2273SOL    HW218282   4.034   0.746  11.840 -3.7165 -1.4700  0.1892
 2274SOL     OW18283   3.520   1.780   3.139  0.1307  0.3120 -0.1867
 2274SOL    HW118284   3.595   1.727   3.166  0.6368  0.3641 -1.4739
 2274SOL    HW218285   3.568   1.861   3.123  1.1578  0.2101  2.3696
 2275SOL     OW18286   0.449   2.409   0.525 -0.1709 -0.2005  0.3312
 2275SOL    HW118287   0.483   2.434   0.610  1.7810 -1.6360 -0.0167
 2275SOL    HW218288   0.521   2.432   0.467 -0.2080 -3.3769 -0.9848
 2276SOL     OW18289   3.725   0.589   2.802 -0.0084 -0.1823 -0.0361
 2276SOL    HW118290   3.791   0.635   2.750 -0.0829  1.2587  1.1251
 2276SOL    HW218291   3.660   0.577   2.734  0.4555  3.0152 -1.0344
 2277SOL     OW18292   3.842   3.308   3.059  0.2297 -0.5254 -0.1972
 2277SOL    HW118293   3.936   3.328   3.056 -0.4418  1.9780 -4.8057
 2277SOL    HW218294   3.798   3.391   3.040 -0.6896 -1.1933 -1.0263
 2278SOL     OW18295   2.567   0.501  17.446  0.6738  0.3794 -0.2533
 2278SOL    HW118296   2.644   0.533  17.400  1.7929 -0.7555  0.7989
 2278SOL    HW218297   2.504   0.567  17.418 -0.1838 -0.3297 -0.0134
 2279SOL     OW18298   1.423   4.479   2.200  0.0809  0.4943  0.0042
 2279SOL    HW118299   1.442   4.389   2.174 -1.9977  0.3818 -1.1187
 2279SOL    HW218300   1.510   4.498   2.236  0.0871 -2.4154  1.5412
 2280SOL     OW18301   1.976   2.798   2.865  0.1171  0.3397 -0.4303
 2280SOL    HW118302   1.896   2.766   2.823 -0.8715  2.9976 -0.5482
 2280SOL    HW218303   1.954   2.891   2.868 -1.4225 -0.0632  0.8396
 2281SOL     OW18304   0.788   2.027   5.893 -0.6524 -0.5257 -0.1882
 2281SOL    HW118305   0.828   2.114   5.900  0.7257 -1.2641  1.0474
 2281SOL    HW218306   0.808   2.008   5.801  2.7275 -2.2637  0.9175
 2282SOL     OW18307   4.572   2.506   7.590 -0.4876 -0.0117 -0.4194
 2282SOL    HW118308   4.571   2.481   7.683  0.6172  1.6134  0.0403
 2282SOL    HW218309   4.626   2.583   7.608  1.4133 -0.7960 -2.8482
 2283SOL     OW18310   4.193   2.806   3.438  0.0315 -0.3565 -0.5478
 2283SOL    HW118311   4.133   2.864   3.391  1.3621  1.3209 -0.1485
 2283SOL    HW218312   4.155   2.721   3.414  0.2723 -0.8726  0.8795
 2284SOL     OW18313   2.680   0.897   0.185 -0.1446  0.7816 -0.3066
 2284SOL    HW118314   2.675   0.878   0.092  1.8718 -1.4937  0.0588
 2284SOL    HW218315   2.653   0.813   0.223 -1.3111  2.8047  3.3881
 2285SOL     OW18316   2.956   3.903  16.660  0.0510  0.0616  0.7171
 2285SOL    HW118317   2.883   3.965  16.655  0.1095  0.0304 -0.4507
 2285SOL    HW218318   2.919   3.815  16.648 -0.9542  0.5099  0.5656
 2286SOL     OW18319   0.104   2.929   5.591  0.1725 -0.4563  0.0905
 2286SOL    HW118320   0.010   2.929   5.605  0.0750 -1.8517 -0.5295
 2286SOL    HW218321   0.107   3.020   5.562 -0.0498 -0.6141 -0.4329
 2287SOL     OW18322   1.520   1.826  11.602  0.2010  0.1577 -0.5922
 2287SOL    HW118323   1.516   1.867  11.688 -0.7968  1.2450 -1.1550
 2287SOL    HW218324   1.428   1.818  11.577  0.1192  0.9681 -0.5709
 2288SOL     OW18325   2.333   3.071   0.473 -0.5305  0.5113 -0.2029
 2288SOL    HW118326   2.302   3.013   0.543  0.2126  1.0192  0.5456
 2288SOL    HW218327   2.255   3.126   0.459  0.8487  2.4384 -0.2644
 2289SOL     OW18328   1.665   0.860   3.327  0.2289  0.0029  0.3848
 2289SOL    HW118329   1.696   0.913   3.253 -0.8016  0.2487  0.1350
 2289SOL    HW218330   1.655   0.779   3.277 -2.5662  0.2582  0.5090
 2290SOL     OW18331   0.860   3.714  11.020 -0.0739 -0.0537  0.2311
 2290SOL    HW118332   0.849   3.639  10.961  1.0815 -2.2752  2.8496
 2290SOL    HW218333   0.955   3.723  11.025 -0.0183 -1.3025  1.2782
 2291SOL     OW18334   2.661   1.129   6.172 -0.5367 -0.0355 -0.6351
 2291SOL    HW118335   2.667   1.047   6.124 -1.1922 -2.2004  2.9970
 2291SOL    HW218336   2.688   1.100   6.259  0.4532 -0.0678 -0.9608
 2292SOL     OW18337   0.107   3.443   6.560 -0.3481 -0.5083 -0.1593
 2292SOL    HW118338   0.172   3.493   6.510  1.7684 -2.3950  0.6957
 2292SOL    HW218339   0.103   3.361   6.511  1.0986 -0.0291 -1.0582
 2293SOL     OW18340   2.580   4.505   7.205 -0.4940 -0.3541  0.1215
 2293SOL    HW118341   2.667   4.486   7.169  0.6859  1.1615  2.1520
 2293SOL    HW218342   2.533   4.422   7.197 -0.0955 -0.4204 -1.5944
 2294SOL     OW18343   1.585   4.348  14.748 -0.1682 -0.6008  0.0940
 2294SOL    HW118344   1.675   4.372  14.725 -0.4613 -0.0100 -0.4064
 2294SOL    HW218345   1.549   4.329  14.662 -0.6203 -0.9595  0.3616
 2295SOL     OW18346   4.307   0.070  10.339  0.0718  0.4683  0.1561
 2295SOL    HW118347   4.344   0.151  10.304  0.2906  0.5547  0.5871
 2295SOL    HW218348   4.216   0.097  10.345 -0.3260 -0.5076 -1.2832
 2296SOL     OW18349   4.275   3.323   3.516  0.1829  0.3912  0.7076
 2296SOL    HW118350   4.192   3.315   3.470  1.0280  1.1458 -0.9305
 2296SOL    HW218351   4.257   3.269   3.593 -1.0521 -0.3479 -0.0869
 2297SOL     OW18352   1.084   1.923   5.888  0.6112 -0.0514 -0.1566
 2297SOL    HW118353   1.158   1.875   5.852 -1.6617 -3.4706 -0.3159
 2297SOL    HW218354   1.052   1.946   5.801  3.9044  0.0284 -1.3124
 2298SOL     OW18355   1.930   1.928  14.841  0.1041  0.1005  0.0527
 2298SOL    HW118356   1.858   1.960  14.786  0.6567  0.1014 -0.6681
 2298SOL    HW218357   1.936   1.839  14.806  0.6216 -0.1710  0.8329
 2299SOL     OW18358   4.294   3.422   0.915 -0.4018 -0.1140  0.3203
 2299SOL    HW118359   4.322   3.420   1.007 -2.3155  3.2961  1.0112
 2299SOL    HW218360   4.299   3.516   0.896 -2.7990 -0.2048 -0.7929
 2300SOL     OW18361   1.071   0.459   3.374 -0.3835 -0.2450 -0.1203
 2300SOL    HW118362   1.158   0.470   3.413 -1.6167  1.5251  2.1405
 2300SOL    HW218363   1.015   0.435   3.448  0.4366 -0.6183  0.3888
 2301SOL     OW18364   0.456   3.615   2.440 -0.3249 -0.0551 -0.7271
 2301SOL    HW118365   0.412   3.530   2.448  0.7748 -0.5368  0.1738
 2301SOL    HW218366   0.387   3.667   2.398 -0.0076 -0.2422 -1.4955
 2302SOL     OW18367   3.521   0.253  16.149  0.1506 -0.7272  0.2314
 2302SOL    HW118368   3.515   0.348  16.140 -1.4867 -0.7585  0.9563
 2302SOL    HW218369   3.435   0.239  16.190 -0.3553  0.0985 -0.5508
 2303SOL     OW18370   1.596   0.990   2.174 -0.0880 -0.1057 -0.4141
 2303SOL    HW118371   1.634   1.078   2.172  1.9529 -0.9791 -0.6905
 2303SOL    HW218372   1.552   0.989   2.089 -0.7094 -0.6182 -0.0823
 2304SOL     OW18373   4.449   1.513   2.901  0.0417 -0.3957  0.0084
 2304SOL    HW118374   4.496   1.535   2.820  2.7923 -1.0695  1.4394
 2304SOL    HW218375   4.358   1.520   2.872 -0.3270  1.4957  1.6537
 2305SOL     OW18376   3.162   4.566  12.722 -0.8818  0.4049  0.0171
 2305SOL    HW118377   3.207   4.559  12.807  0.1074 -0.4853 -0.5835
 2305SOL    HW218378   3.073   4.588  12.753 -1.0571 -3.3408  2.2050
 2306SOL     OW18379   1.408   1.692   0.066 -0.2938  0.3268 -0.0818
 2306SOL    HW118380   1.453   1.644   0.136  0.4536  1.8630  0.4881
 2306SOL    HW218381   1.388   1.615   0.013 -0.6701  0.6247 -0.3737
 2307SOL     OW18382   2.164   4.025   2.483 -0.4322  0.4221 -0.2381
 2307SOL    HW118383   2.093   4.009   2.545 -0.1305 -1.0116 -0.2782
 2307SOL    HW218384   2.136   4.096   2.425 -0.2049  0.2649 -0.5432
 2308SOL     OW18385   2.010   3.864   2.289 -0.3476  0.0328 -0.0766
 2308SOL    HW118386   2.085   3.923   2.290 -2.2157  2.4234  0.0316
 2308SOL    HW218387   1.969   3.878   2.203 -0.1459  1.7517  0.1047
 2309SOL     OW18388   0.029   2.062   8.051  0.5162  0.3211  0.1262
 2309SOL    HW118389   4.682   2.082   7.991 -0.1448 -0.7736  0.5539
 2309SOL    HW218390   4.718   1.997   8.111  0.1855  1.2019  0.8688
 2310SOL     OW18391   0.741   0.969   0.687 -0.1184 -0.2882 -0.7870
 2310SOL    HW118392   0.831   0.955   0.656  0.5836 -1.0609  1.5748
 2310SOL    HW218393   0.724   0.912   0.762  2.3072 -1.9358 -1.5087
 2311SOL     OW18394   0.567   3.634   6.897 -0.2456  0.2519 -0.2311
 2311SOL    HW118395   0.640   3.572   6.903 -2.4185 -2.3423 -0.5653
 2311SOL    HW218396   0.614   3.717   6.890  0.5762 -0.4839 -3.4855
 2312SOL     OW18397   0.138   0.658   6.119  0.1759  0.2454 -0.2311
 2312SOL    HW118398   0.135   0.563   6.105 -0.0750  0.0756  1.0153
 2312SOL    HW218399   0.180   0.686   6.038  0.1357 -1.1697 -0.7472
 2313SOL     OW18400   1.225   0.937   6.723 -0.0586 -0.0126 -0.2393
 2313SOL    HW118401   1.264   1.003   6.666  1.4590 -1.7800 -1.2511
 2313SOL    HW218402   1.134   0.935   6.694 -0.5184 -1.0373  1.2785
 2314SOL     OW18403   1.235   1.922   0.527 -0.1989  0.1160 -0.4539
 2314SOL    HW118404   1.267   2.012   0.520  0.2977  0.3249  4.0524
 2314SOL    HW218405   1.297   1.879   0.469 -0.4776  0.3172 -0.9013
 2315SOL     OW18406   4.379   2.297   6.261 -0.4072 -0.6366 -0.6061
 2315SOL    HW118407   4.384   2.340   6.346 -0.6237 -0.1877 -0.8205
 2315SOL    HW218408   4.473   2.295   6.245 -0.8710 -2.5862 -3.1274
 2316SOL     OW18409   1.083   2.978  17.121 -0.3763 -0.4699  0.4610
 2316SOL    HW118410   1.155   2.915  17.130 -1.0135 -0.9497  2.0867
 2316SOL    HW218411   1.030   2.937  17.052 -0.0195  0.8925 -0.6159
 2317SOL     OW18412   1.952   2.086   5.502  0.2419 -0.8134  0.1674
 2317SOL    HW118413   2.047   2.075   5.497  0.3649  0.3970 -0.2912
 2317SOL    HW218414   1.922   2.019   5.563 -0.8457 -0.9291 -0.4829
 2318SOL     OW18415   0.612   1.754   5.730  1.0983 -0.2159  0.4794
 2318SOL    HW118416   0.530   1.704   5.729 -0.1169  1.7344  2.1773
 2318SOL    HW218417   0.605   1.805   5.811  2.3884 -0.7466  0.9301
 2319SOL     OW18418   3.609   0.782   5.295 -0.4102  0.3919 -0.5710
 2319SOL    HW118419   3.542   0.715   5.276 -1.2640  1.1810 -0.3434
 2319SOL    HW218420   3.560   0.839   5.354 -1.7755 -1.6176  0.2623
 2320SOL     OW18421   0.378   4.588   5.762 -0.1985  0.0094  0.4357
 2320SOL    HW118422   0.287   4.613   5.747 -0.0164 -0.7744 -2.0766
 2320SOL    HW218423   0.405   4.649   5.830  0.2781 -0.6208  0.8123
 2321SOL     OW18424   0.669   3.624   3.454 -0.0705  0.9076 -0.1747
 2321SOL    HW118425   0.726   3.650   3.526  0.1333 -0.6419  0.2393
 2321SOL    HW218426   0.745   3.621   3.396  0.5259 -0.4786  0.6550
 2322SOL     OW18427   1.242   4.405   5.144  0.4985  0.0823 -0.4444
 2322SOL    HW118428   1.306   4.373   5.208  0.7290  0.9453 -0.2436
 2322SOL    HW218429   1.173   4.339   5.154  1.0006 -0.5712 -1.2274
 2323SOL     OW18430   3.234   2.601   6.810 -0.2984  0.1092 -0.7053
 2323SOL    HW118431   3.145   2.615   6.777  0.1814  0.3167 -1.9254
 2323SOL    HW218432   3.240   2.514   6.771 -0.3195  1.2544 -3.2312
 2324SOL     OW18433   2.711   0.061   5.553 -0.3303 -0.5392 -0.4628
 2324SOL    HW118434   2.671   0.126   5.610 -1.8403 -1.3509 -0.6060
 2324SOL    HW218435   2.635   0.042   5.498 -0.2484 -0.2301 -0.6787
 2325SOL     OW18436   4.126   0.426   3.587 -0.8038  0.2310 -0.4177
 2325SOL    HW118437   4.173   0.392   3.510 -3.4842  0.9212 -2.3626
 2325SOL    HW218438   4.066   0.353   3.603  2.5097 -2.0906  1.2916
 2326SOL     OW18439   2.790   4.211   3.112 -0.3290 -0.0445  0.2730
 2326SOL    HW118440   2.794   4.156   3.191 -3.7019 -2.5155 -1.2643
 2326SOL    HW218441   2.841   4.162   3.047  0.3460  1.1874 -0.1252
 2327SOL     OW18442   3.668   3.936   8.433  0.6142  0.3083 -0.3977
 2327SOL    HW118443   3.726   3.903   8.364  2.2634  0.0107  1.1359
 2327SOL    HW218444   3.590   3.880   8.424  2.9805 -3.1039  0.7031
 2328SOL     OW18445   2.833   2.962   2.017 -0.2042 -0.3987  0.3374
 2328SOL    HW118446   2.800   3.045   1.983 -1.9759  0.2400  3.6491
 2328SOL    HW218447   2.767   2.939   2.082  0.0751 -0.0286  0.7599
 2329SOL     OW18448   1.472   2.682   8.494 -0.1607  0.4876  0.3994
 2329SOL    HW118449   1.427   2.653   8.414  0.7147 -1.6839  0.6924
 2329SOL    HW218450   1.491   2.600   8.540  0.2051  1.2113  1.5383
 2330SOL     OW18451   0.592   4.549  15.468  0.2986  0.5206  0.3206
 2330SOL    HW118452   0.628   4.627  15.511 -1.7718  0.3947  2.2568
 2330SOL    HW218453   0.609   4.479  15.530 -3.1669 -0.6531 -0.0903
 2331SOL     OW18454   3.765   1.240   8.724  0.2639  0.0440 -0.2701
 2331SOL    HW118455   3.687   1.186   8.736  0.0281  0.0881 -1.6470
 2331SOL    HW218456   3.778   1.279   8.811  2.5733  2.1145 -1.5266
 2332SOL     OW18457   4.045   3.408  15.021 -0.2140  0.0755 -0.5101
 2332SOL    HW118458   4.092   3.440  15.098  1.4975 -0.8137 -1.1792
 2332SOL    HW218459   4.101   3.335  14.992  0.2846  0.2725 -0.0527
 2333SOL     OW18460   4.240   1.954   4.153 -0.1592  0.5753 -0.1876
 2333SOL    HW118461   4.324   1.909   4.159 -0.3891  0.1806  0.0685
 2333SOL    HW218462   4.203   1.928   4.238  0.2102 -2.7310 -1.0226
 2334SOL     OW18463   3.607   3.876   5.905 -0.1675  0.4987 -0.0642
 2334SOL    HW118464   3.690   3.828   5.913 -0.2040  0.1692 -1.6416
 2334SOL    HW218465   3.550   3.815   5.858  0.8788  0.8435 -1.8129
 2335SOL     OW18466   0.528   4.317   8.525  0.0127  0.1806  0.1889
 2335SOL    HW118467   0.604   4.374   8.540  0.9242 -0.8597 -0.4557
 2335SOL    HW218468   0.538   4.291   8.433  0.5277 -1.8427  0.8105
 2336SOL     OW18469   2.947   4.056   1.789  0.1572 -0.2081  0.2261
 2336SOL    HW118470   2.977   4.028   1.703 -3.1263 -0.6974 -0.7784
 2336SOL    HW218471   2.972   3.976   1.835 -0.9700 -1.3580 -1.1645
 2337SOL     OW18472   2.600   4.322   8.333 -0.4421 -0.3397 -0.0736
 2337SOL    HW118473   2.694   4.333   8.345 -0.3811 -0.8495 -0.0776
 2337SOL    HW218474   2.587   4.233   8.367 -3.1134  0.1465  0.1600
 2338SOL     OW18475   1.931   3.956   5.840  0.3720  0.1039 -0.3224
 2338SOL    HW118476   1.957   3.870   5.808 -0.6665 -0.8042  1.2589
 2338SOL    HW218477   1.926   3.930   5.932  0.2614  0.2013 -0.3014
 2339SOL     OW18478   2.850   2.812  16.612  0.3501  0.0433 -0.1672
 2339SOL    HW118479   2.927   2.760  16.590  0.8803  0.7707 -0.0182
 2339SOL    HW218480   2.776   2.760  16.580  0.8469  0.9847 -2.8812
 2340SOL     OW18481   1.207   4.338   8.675  0.0740  0.3302 -0.2609
 2340SOL    HW118482   1.205   4.355   8.581  0.3593 -0.8093 -0.4753
 2340SOL    HW218483   1.179   4.422   8.711 -1.0635  0.1502 -0.7114
 2341SOL     OW18484   1.684   4.367   1.099 -0.0442 -0.1310 -0.1287
 2341SOL    HW118485   1.718   4.437   1.155  2.3297 -0.1853 -1.5303
 2341SOL    HW218486   1.589   4.382   1.107 -0.1161 -0.3902 -0.5275
 2342SOL     OW18487   2.161   2.705  15.615  0.7670  0.0699  0.4270
 2342SOL    HW118488   2.239   2.730  15.664  0.4810  0.6041  0.6228
 2342SOL    HW218489   2.092   2.761  15.652 -0.4274  0.5047 -2.4877
 2343SOL     OW18490   2.225   1.134  14.988  0.1053  0.7595  0.0409
 2343SOL    HW118491   2.163   1.185  15.040 -0.4419  1.0081 -0.8598
 2343SOL    HW218492   2.182   1.068  14.933  0.1842  0.2233  0.6083
 2344SOL     OW18493   0.427   3.073  16.982  0.0902  0.3223  0.4136
 2344SOL    HW118494   0.358   3.057  17.047  0.8216  0.0180  1.1202
 2344SOL    HW218495   0.503   3.062  17.039  0.7900 -1.2411 -0.8282
 2345SOL     OW18496   2.697   1.648   6.758  0.2857 -0.4244  0.1796
 2345SOL    HW118497   2.737   1.625   6.674 -2.5570  0.5557 -1.4620
 2345SOL    HW218498   2.759   1.609   6.820  0.1393  0.3335  0.8012
 2346SOL     OW18499   4.514   1.010   6.108  0.0440  0.4664 -0.2722
 2346SOL    HW118500   4.478   0.956   6.037  1.7472  0.7266 -1.3249
 2346SOL    HW218501   4.569   0.946   6.153 -0.1462  1.0233  0.7405
 2347SOL     OW18502   0.837   0.609  10.268 -0.2550  0.2697  0.0288
 2347SOL    HW118503   0.786   0.654  10.201 -1.0778 -0.3578  0.2370
 2347SOL    HW218504   0.922   0.598  10.224 -0.9374  0.3703 -1.3226
 2348SOL     OW18505   1.941   4.381   6.881  0.5420  0.1376 -0.0771
 2348SOL    HW118506   2.016   4.439   6.878  1.7224 -1.3719  0.4199
 2348SOL    HW218507   1.923   4.382   6.975 -0.0755 -4.0805 -0.1435
 2349SOL     OW18508   1.505   0.574  16.921  0.0593  0.2305 -0.1414
 2349SOL    HW118509   1.501   0.667  16.896 -1.5870  0.0779 -0.3886
 2349SOL    HW218510   1.496   0.538  16.833  2.2105  1.5577 -0.9148
 2350SOL     OW18511   1.900   3.678  10.554  0.2166 -0.1954  0.1046
 2350SOL    HW118512   1.842   3.602  10.566  2.4263 -1.9575 -0.3806
 2350SOL    HW218513   1.862   3.734  10.487 -1.5288 -2.0557 -0.4828
 2351SOL     OW18514   0.511   0.577   2.180  0.0955 -0.3889 -0.3588
 2351SOL    HW118515   0.480   0.613   2.097 -0.1617  0.2243  0.0090
 2351SOL    HW218516   0.506   0.657   2.232  1.4703 -0.0869 -0.7111
 2352SOL     OW18517   3.090   2.362   6.684  0.1016  0.1304 -0.4201
 2352SOL    HW118518   3.012   2.336   6.635 -0.4095 -1.4130  1.2278
 2352SOL    HW218519   3.151   2.296   6.650  1.1791  0.4041  0.9760
 2353SOL     OW18520   2.305   1.834   7.334  0.6276 -0.3487  0.1590
 2353SOL    HW118521   2.254   1.914   7.320 -2.8240 -2.5556  0.1451
 2353SOL    HW218522   2.396   1.852   7.310  0.7597 -1.9325 -0.5462
 2354SOL     OW18523   2.829   2.413   3.906 -0.0640  0.2078 -0.3885
 2354SOL    HW118524   2.834   2.498   3.950  1.5742  0.8819 -1.8767
 2354SOL    HW218525   2.745   2.376   3.933  0.1934 -1.4035 -1.7660
 2355SOL     OW18526   3.537   2.612   8.580  0.5394  0.1965 -0.2266
 2355SOL    HW118527   3.519   2.640   8.670 -3.0888 -0.8735 -0.6611
 2355SOL    HW218528   3.464   2.655   8.535  0.3085 -0.4123 -0.4234
 2356SOL     OW18529   4.414   1.189  13.654 -0.0003 -0.5747 -0.1753
 2356SOL    HW118530   4.499   1.217  13.689 -0.9281  0.9436  0.8660
 2356SOL    HW218531   4.362   1.223  13.727  1.3793 -0.2080  0.6410
 2357SOL     OW18532   4.489   0.489  10.406  0.6646  0.4925  0.1478
 2357SOL    HW118533   4.498   0.554  10.475 -2.1319 -1.7202  2.5796
 2357SOL    HW218534   4.582   0.465  10.396  0.3917 -0.9479  1.2133
 2358SOL     OW18535   3.770   1.279   2.855  0.4057 -0.9865 -0.1096
 2358SOL    HW118536   3.767   1.347   2.788 -0.3511 -0.3406  0.5752
 2358SOL    HW218537   3.763   1.204   2.796  1.1582 -1.3134  0.2218
 2359SOL     OW18538   0.870   0.448   8.939  0.2565  0.0665  0.1745
 2359SOL    HW118539   0.820   0.382   8.891  2.7489 -1.1415 -0.7587
 2359SOL    HW218540   0.901   0.496   8.862  2.0943 -0.3714  0.6419
 2360SOL     OW18541   4.453   4.425   4.900 -0.5163  0.2631 -0.5942
 2360SOL    HW118542   4.430   4.477   4.822  0.2929 -0.1831 -1.1236
 2360SOL    HW218543   4.478   4.342   4.860  0.7241  0.3109  0.0900
 2361SOL     OW18544   2.097   4.448  15.913 -0.0887 -0.2446  0.0350
 2361SOL    HW118545   2.039   4.469  15.840 -0.2891  0.2711  0.3445
 2361SOL    HW218546   2.131   4.534  15.938 -1.1130  0.4236 -0.9034
 2362SOL     OW18547   0.194   0.745   0.218  0.0900  0.1686  0.3628
 2362SOL    HW118548   0.242   0.799   0.281  2.8418 -0.2542 -1.3469
 2362SOL    HW218549   0.138   0.810   0.176  1.8521  0.4585 -1.5476
 2363SOL     OW18550   2.828   3.649   3.929 -0.2876  0.3984 -0.1796
 2363SOL    HW118551   2.740   3.614   3.915  0.6383 -1.3497 -1.6551
 2363SOL    HW218552   2.884   3.625   3.855  0.1565 -3.2376  1.2933
 2364SOL     OW18553   0.939   3.839   7.945 -0.0218  0.0571  0.1004
 2364SOL    HW118554   0.986   3.898   7.887  1.3800 -1.6894 -0.5706
 2364SOL    HW218555   1.015   3.800   7.989  0.3692 -0.2115 -0.8276
 2365SOL     OW18556   0.912   4.627   4.641  0.3597  0.1891  0.7310
 2365SOL    HW118557   0.920   4.660   4.551  0.0472 -4.9854 -1.2032
 2365SOL    HW218558   1.002   4.600   4.654  1.2773  2.9062  0.1188
 2366SOL     OW18559   1.814   3.003   7.194 -0.7804 -0.3138 -0.4550
 2366SOL    HW118560   1.869   2.925   7.197 -0.1018  0.1951  0.3349
 2366SOL    HW218561   1.733   2.972   7.153 -2.7791  0.2427  3.1385
 2367SOL     OW18562   1.537   4.107  13.855  0.0861 -0.3923  0.3365
 2367SOL    HW118563   1.501   4.106  13.943  2.5996 -0.5074  1.3510
 2367SOL    HW218564   1.461   4.103  13.797 -1.4887  1.9438  2.2317
 2368SOL     OW18565   3.404   4.053   6.410  0.3919  0.6284  0.2481
 2368SOL    HW118566   3.336   4.121   6.410  0.5029  0.7418 -0.2665
 2368SOL    HW218567   3.353   3.972   6.402 -0.1467  0.8003  2.0246
 2369SOL     OW18568   3.401   3.171   5.154 -0.3940 -0.1929 -0.0925
 2369SOL    HW118569   3.335   3.164   5.223 -3.4715  2.0658 -2.8078
 2369SOL    HW218570   3.457   3.094   5.167  2.2380  1.5816 -1.0026
 2370SOL     OW18571   3.195   3.238  11.677  0.3866  0.3253 -0.0559
 2370SOL    HW118572   3.237   3.276  11.754  0.1389  0.1668  0.1579
 2370SOL    HW218573   3.255   3.174  11.637  0.8264  0.1643  0.8600
 2371SOL     OW18574   1.034   1.063  13.535  0.2881 -0.0689  0.3439
 2371SOL    HW118575   1.065   1.065  13.444 -0.3389  1.5526  0.1564
 2371SOL    HW218576   0.942   1.045  13.518  0.0481  1.2886  0.2022
 2372SOL     OW18577   0.096   0.881  15.435  0.0416 -0.2045  0.6355
 2372SOL    HW118578   0.041   0.847  15.365 -1.6878 -0.9518  2.3728
 2372SOL    HW218579   0.150   0.805  15.455  1.3947  0.8455  0.9887
 2373SOL     OW18580   0.004   3.645  12.932 -0.5243  0.0592 -0.1197
 2373SOL    HW118581   4.675   3.662  13.009 -1.2293  0.9493 -0.8157
 2373SOL    HW218582   0.019   3.550  12.929 -0.6731 -0.0150  1.5018
 2374SOL     OW18583   0.755   2.312   8.725  0.2809 -0.4259  0.7768
 2374SOL    HW118584   0.778   2.350   8.810  1.8666  0.9347 -0.2674
 2374SOL    HW218585   0.709   2.232   8.750 -1.8616  0.5670  0.0334
 2375SOL     OW18586   0.530   0.895  13.198  0.7637  0.4597  0.5359
 2375SOL    HW118587   0.519   0.924  13.108  1.1442 -1.3358 -0.0955
 2375SOL    HW218588   0.625   0.900  13.210  0.8527 -0.2021  0.0813
 2376SOL     OW18589   2.438   3.479   2.518  0.2081 -0.1098  0.2755
 2376SOL    HW118590   2.494   3.407   2.548  0.3050  0.0272  0.4173
 2376SOL    HW218591   2.425   3.528   2.599 -0.0903  0.0293  0.1443
 2377SOL     OW18592   2.392   0.875   3.510 -0.1809 -0.2659  0.1531
 2377SOL    HW118593   2.449   0.800   3.492  0.8901  0.6637 -0.3602
 2377SOL    HW218594   2.363   0.893   3.421 -0.1626 -0.3233  0.1357
 2378SOL     OW18595   1.921   3.201  17.649  0.1221  0.3184 -0.6472
 2378SOL    HW118596   1.927   3.236  17.561 -3.3715 -2.2793 -1.9156
 2378SOL    HW218597   1.961   3.115  17.637 -1.9768 -0.8540  0.5555
 2379SOL     OW18598   3.759   0.443   7.161  0.0535  0.2280  0.0381
 2379SOL    HW118599   3.826   0.473   7.099  0.3695  0.6546  0.5869
 2379SOL    HW218600   3.778   0.479   7.248  2.4104  0.2516 -0.4719
 2380SOL     OW18601   2.224   2.261   1.500  0.2361 -0.1122  0.1256
 2380SOL    HW118602   2.163   2.324   1.460  0.5226  0.4257  0.5334
 2380SOL    HW218603   2.162   2.198   1.537  1.2491 -1.0265  0.2645
 2381SOL     OW18604   3.428   2.864  15.665 -0.4540 -0.6100  0.0835
 2381SOL    HW118605   3.408   2.957  15.675  2.9789  0.1247  0.3398
 2381SOL    HW218606   3.507   2.869  15.611  0.3102 -0.8476  1.1738
 2382SOL     OW18607   3.011   4.223   9.747  0.1309  0.2869  0.1694
 2382SOL    HW118608   3.033   4.152   9.807  2.4126  0.7333 -0.1587
 2382SOL    HW218609   2.953   4.187   9.680 -0.0725  0.1413  0.4215
 2383SOL     OW18610   3.625   2.447  15.908 -0.0560 -0.0367 -0.4264
 2383SOL    HW118611   3.592   2.531  15.939  0.4087 -0.1920  0.4899
 2383SOL    HW218612   3.604   2.445  15.815 -1.0336  1.5078 -0.2385
 2384SOL     OW18613   2.320   1.184  12.162  0.5605  0.1026 -0.1887
 2384SOL    HW118614   2.333   1.129  12.240  1.0791  1.9412  1.0261
 2384SOL    HW218615   2.253   1.243  12.197 -0.1235 -0.7416 -0.0910
 2385SOL     OW18616   1.056   0.250   8.177 -0.2599 -0.2350  0.2665
 2385SOL    HW118617   1.067   0.333   8.223 -0.4502 -0.3185  0.4644
 2385SOL    HW218618   0.964   0.228   8.192 -0.4136 -0.3507 -0.9164
 2386SOL     OW18619   4.162   0.385   4.006 -0.0932 -0.6063 -0.0068
 2386SOL    HW118620   4.114   0.467   4.017 -2.8274 -2.0747 -0.7450
 2386SOL    HW218621   4.247   0.411   4.040  0.1845  0.8793 -1.8526
 2387SOL     OW18622   3.614   2.787   4.429  0.1334 -0.5501 -0.1368
 2387SOL    HW118623   3.568   2.738   4.361  0.3349 -3.5995  1.9199
 2387SOL    HW218624   3.586   2.877   4.411 -0.7694 -0.8765 -0.3836
 2388SOL     OW18625   0.379   0.567   7.007 -0.2097  0.6580 -0.0354
 2388SOL    HW118626   0.385   0.594   6.915 -2.6186  1.7236  0.1029
 2388SOL    HW218627   0.307   0.504   7.001  1.1095 -0.9352  0.8622
 2389SOL     OW18628   4.597   3.311   6.281 -0.0356 -0.1472  0.3736
 2389SOL    HW118629   4.532   3.381   6.276 -0.0864 -0.1379  1.1411
 2389SOL    HW218630   4.649   3.318   6.201 -0.5807  0.4018  0.0730
 2390SOL     OW18631   2.398   4.618  11.756  0.2001  0.2949 -0.1601
 2390SOL    HW118632   2.314   4.587  11.790 -0.0149  2.2982  1.1835
 2390SOL    HW218633   2.443   4.536  11.739  0.6885  0.8483 -1.5210
 2391SOL     OW18634   2.645   3.627   1.070  0.0827 -0.4016  0.2755
 2391SOL    HW118635   2.593   3.701   1.040 -1.2379 -1.0549  0.9326
 2391SOL    HW218636   2.626   3.556   1.008 -1.4840  0.5246 -0.3067
 2392SOL     OW18637   2.559   3.994   7.616 -0.6704 -0.6392 -0.0701
 2392SOL    HW118638   2.631   3.990   7.678 -0.9370 -0.1849  0.2734
 2392SOL    HW218639   2.606   3.981   7.534  1.6880  2.4890  0.7804
 2393SOL     OW18640   3.485   4.488   9.006 -0.5057 -0.4105  0.9042
 2393SOL    HW118641   3.524   4.477   9.093  0.2999 -0.4157  0.5450
 2393SOL    HW218642   3.559   4.519   8.954 -0.2219 -2.9406 -0.2149
 2394SOL     OW18643   2.614   4.310   2.866  0.0046 -0.4824  0.5251
 2394SOL    HW118644   2.635   4.402   2.885 -4.6734  0.9388 -1.1261
 2394SOL    HW218645   2.679   4.299   2.797  0.7801 -1.1514  1.3690
 2395SOL     OW18646   0.726   3.292  13.315 -0.3336 -0.2416 -0.3170
 2395SOL    HW118647   0.745   3.354  13.245 -0.4226  1.5392  1.2401
 2395SOL    HW218648   0.777   3.337  13.382 -1.1317 -2.3460  1.7004
 2396SOL     OW18649   3.846   1.329   2.552  0.0848 -0.1818  0.2018
 2396SOL    HW118650   3.939   1.317   2.568  0.6230  1.1667 -1.8944
 2396SOL    HW218651   3.836   1.420   2.524  0.8437  0.2006  1.1925
 2397SOL     OW18652   4.138   2.767  17.449 -0.0439 -0.1057  0.1885
 2397SOL    HW118653   4.139   2.755  17.544  1.0255  1.5286  0.3821
 2397SOL    HW218654   4.098   2.853  17.438  1.9241  0.6547 -1.0263
 2398SOL     OW18655   4.071   0.026   6.130 -0.2007 -0.0114  0.1000
 2398SOL    HW118656   4.165   0.029   6.149 -0.2428 -0.8655  0.4463
 2398SOL    HW218657   4.054   4.659   6.148 -0.2104 -0.0533 -0.1241
 2399SOL     OW18658   2.825   0.544  12.103  0.3021  0.2332  0.0458
 2399SOL    HW118659   2.801   0.506  12.187 -0.2749 -1.9163 -1.0834
 2399SOL    HW218660   2.744   0.579  12.066 -0.1962 -1.1294 -0.1331
 2400SOL     OW18661   3.731   2.577   1.989 -0.4635  0.2482 -0.3926
 2400SOL    HW118662   3.715   2.670   1.971 -1.6843 -0.1118 -1.1422
 2400SOL    HW218663   3.660   2.567   2.053  0.2990 -1.8607  0.1163
 2401SOL     OW18664   3.495   1.495   5.922  0.4738  0.1506  0.6354
 2401SOL    HW118665   3.488   1.429   5.990  3.3436 -0.5444  0.2978
 2401SOL    HW218666   3.589   1.477   5.916  0.3240  0.0359 -1.3256
 2402SOL     OW18667   0.597   2.239   3.946 -0.3748 -0.4641  0.1720
 2402SOL    HW118668   0.559   2.324   3.967 -2.3776 -0.6237 -2.7792
 2402SOL    HW218669   0.622   2.198   4.028  2.1453 -0.7508 -0.7129
 2403SOL     OW18670   1.849   4.620   2.490  0.1614 -0.9496  0.4222
 2403SOL    HW118671   1.828   4.683   2.559 -0.2154 -0.1623 -0.4311
 2403SOL    HW218672   1.924   4.667   2.455 -1.0087 -0.4895 -1.4384
 2404SOL     OW18673   2.420   2.761   5.379 -0.2682 -0.5729  0.3127
 2404SOL    HW118674   2.462   2.795   5.300 -1.5978  0.2387 -0.0325
 2404SOL    HW218675   2.425   2.669   5.353  1.2024 -0.7405  1.1892
 2405SOL     OW18676   0.236   0.132  16.007  0.0042  0.1530  0.3771
 2405SOL    HW118677   0.221   0.049  16.052 -0.3924 -0.1363 -0.2935
 2405SOL    HW218678   0.171   0.190  16.048 -0.6126 -1.1458  1.2266
 2406SOL     OW18679   2.057   4.678  11.226  0.2112  0.0306 -0.3819
 2406SOL    HW118680   2.013   4.596  11.247  1.2333 -0.0280  1.5367
 2406SOL    HW218681   2.147   4.646  11.220  0.0328  0.2924 -4.1986
 2407SOL     OW18682   0.171   1.746   8.793 -0.0564 -0.4124  0.2846
 2407SOL    HW118683   0.202   1.836   8.782  0.9489 -0.7773  0.1347
 2407SOL    HW218684   0.089   1.766   8.836  1.0667  2.6363  0.9831
 2408SOL     OW18685   2.097   4.248   9.314 -0.0221 -0.1743  0.1679
 2408SOL    HW118686   2.013   4.217   9.347 -0.0011  1.4567  1.7947
 2408SOL    HW218687   2.157   4.241   9.389  1.4990 -1.1164 -1.1591
 2409SOL     OW18688   2.292   2.007   7.632  0.0579  0.3148  0.5662
 2409SOL    HW118689   2.199   1.985   7.622  0.6785 -2.7101  1.5182
 2409SOL    HW218690   2.277   2.099   7.653 -0.3854  1.1989 -3.7093
 2410SOL     OW18691   0.444   0.829   6.882  0.1673 -0.5255 -0.1187
 2410SOL    HW118692   0.379   0.828   6.953  2.3377 -2.5809  1.8447
 2410SOL    HW218693   0.438   0.925   6.881 -0.7860 -0.5562  1.5536
 2411SOL     OW18694   2.212   4.157   3.214 -0.6964  0.3653 -0.1133
 2411SOL    HW118695   2.121   4.178   3.234 -0.0928  0.8907  2.0522
 2411SOL    HW218696   2.220   4.063   3.229 -2.0180  0.7140  2.6598
 2412SOL     OW18697   2.551   1.848   8.638 -0.0232  0.5118  0.3653
 2412SOL    HW118698   2.595   1.865   8.554  0.8312  0.6183  0.8261
 2412SOL    HW218699   2.462   1.840   8.605  0.5525  0.7798 -1.2870
 2413SOL     OW18700   1.888   4.695   0.385  0.4669 -0.9243  1.1302
 2413SOL    HW118701   1.839   4.718   0.306  0.3703 -0.8538  1.2099
 2413SOL    HW218702   1.977   4.676   0.356 -0.9367 -1.6972 -2.6894
 2414SOL     OW18703   1.416   2.210   7.747 -0.1688  0.3921  0.1130
 2414SOL    HW118704   1.410   2.133   7.691  1.3155 -0.0047  0.5012
 2414SOL    HW218705   1.511   2.223   7.759 -0.1754  0.8479 -0.3163
 2415SOL     OW18706   4.367   3.662  11.898 -0.0902 -0.0318 -1.1526
 2415SOL    HW118707   4.329   3.688  11.814 -0.3925  0.0324 -0.9967
 2415SOL    HW218708   4.304   3.702  11.958 -0.2845 -1.1898 -0.5774
 2416SOL     OW18709   1.905   2.404   8.572 -0.1145 -0.2208  0.4435
 2416SOL    HW118710   1.993   2.442   8.572 -0.1348 -0.1666 -0.0272
 2416SOL    HW218711   1.907   2.352   8.652  0.7789 -2.6720 -1.1731
 2417SOL     OW18712   0.047   3.248  11.408  0.4718  0.1714  0.0413
 2417SOL    HW118713   4.706   3.211  11.466 -0.8982  2.0100 -0.3682
 2417SOL    HW218714   0.038   3.189  11.333  1.9026  1.4615 -1.1393
 2418SOL     OW18715   2.087   1.224   7.303 -0.1597 -0.4118  0.5313
 2418SOL    HW118716   2.102   1.283   7.376  1.6142 -1.1517  0.7689
 2418SOL    HW218717   2.130   1.149   7.345 -0.3205 -0.0310  1.3684
 2419SOL     OW18718   3.146   0.312   7.048 -0.3494 -0.4129 -0.1243
 2419SOL    HW118719   3.184   0.342   7.132  2.0889  2.0746 -2.1042
 2419SOL    HW218720   3.126   0.397   7.008 -1.1029  0.3601  1.8834
 2420SOL     OW18721   1.293   0.483  16.467 -0.3652  0.4316  0.1722
 2420SOL    HW118722   1.334   0.399  16.447  0.7480  1.1114 -0.4191
 2420SOL    HW218723   1.302   0.531  16.384  1.8445  0.4587  0.4245
 2421SOL     OW18724   2.619   1.737   9.974 -0.3490  0.1117  0.2412
 2421SOL    HW118725   2.527   1.722   9.954 -0.0631 -0.0974 -0.9731
 2421SOL    HW218726   2.655   1.780   9.896  0.0418  0.4730  0.6200
 2422SOL     OW18727   0.503   3.279   4.150 -0.4589  0.0381  0.6853
 2422SOL    HW118728   0.482   3.208   4.090 -0.8399  1.3211 -0.7121
 2422SOL    HW218729   0.598   3.275   4.161 -0.3981 -0.9221 -0.2829
 2423SOL     OW18730   3.216   3.066   5.341  0.4306 -0.7709  0.0876
 2423SOL    HW118731   3.241   3.023   5.422  1.0288 -0.9266 -0.1813
 2423SOL    HW218732   3.156   3.133   5.374 -0.2822 -1.2011 -0.3084
 2424SOL     OW18733   2.631   2.482   8.338  0.2444 -0.1584 -0.0575
 2424SOL    HW118734   2.615   2.391   8.363 -2.4616  0.5879  0.8637
 2424SOL    HW218735   2.713   2.506   8.381 -1.1854  0.4713  2.3037
 2425SOL     OW18736   2.503   0.792   4.838 -0.3743 -0.0156 -0.4571
 2425SOL    HW118737   2.408   0.801   4.844 -0.2771  0.0336  1.2045
 2425SOL    HW218738   2.521   0.790   4.744  1.0019 -3.7761 -0.1367
 2426SOL     OW18739   2.959   2.184   7.932 -0.2004 -0.2457  0.0502
 2426SOL    HW118740   2.892   2.128   7.892 -0.1465  1.0836 -1.9290
 2426SOL    HW218741   3.025   2.190   7.862 -0.5666 -0.3917 -0.3100
 2427SOL     OW18742   0.137   1.759  16.561  0.4709 -0.4892 -0.3565
 2427SOL    HW118743   0.051   1.718  16.567  0.5319 -0.8550 -2.0756
 2427SOL    HW218744   0.176   1.765  16.649  0.7881 -2.4247 -0.3691
 2428SOL     OW18745   2.369   0.625   5.673  0.1660 -0.7184 -0.7364
 2428SOL    HW118746   2.390   0.539   5.709  1.2988  0.4082  1.2761
 2428SOL    HW218747   2.274   0.616   5.677  0.1841  0.6949  2.7607
 2429SOL     OW18748   1.289   1.785   5.491  0.5157  0.0776  0.0696
 2429SOL    HW118749   1.276   1.852   5.423 -0.5849 -0.4967 -0.2863
 2429SOL    HW218750   1.256   1.704   5.451 -0.5698  0.4651  0.1815
 2430SOL     OW18751   0.033   1.606   0.942 -0.1270  0.3176  0.6593
 2430SOL    HW118752   0.089   1.581   0.870 -0.4107  0.2596  0.4581
 2430SOL    HW218753   0.072   1.564   1.018  0.2893 -1.5382 -0.5916
 2431SOL     OW18754   1.001   2.333   6.501  0.0297  0.1390 -0.4864
 2431SOL    HW118755   0.992   2.240   6.477  0.6119  0.6687 -2.7117
 2431SOL    HW218756   1.043   2.365   6.422  1.2996  1.2300  0.6228
 2432SOL     OW18757   4.272   3.650  14.963 -0.1467 -0.5853  0.4177
 2432SOL    HW118758   4.186   3.626  14.997  0.3167 -0.5630  1.6150
 2432SOL    HW218759   4.332   3.648  15.037  0.1964 -2.0771  0.1011
 2433SOL     OW18760   3.733   4.639   8.371  0.0151  0.2716 -0.2943
 2433SOL    HW118761   3.785   4.568   8.335 -1.5999 -0.8011 -0.5097
 2433SOL    HW218762   3.782   4.708   8.325  1.2774  0.3641  1.2199
 2434SOL     OW18763   2.373   4.412   3.071  0.2016 -0.3286 -0.5366
 2434SOL    HW118764   2.313   4.412   2.996 -0.5465 -0.5191  0.0613
 2434SOL    HW218765   2.328   4.365   3.142  0.9688 -2.2256 -1.3168
 2435SOL     OW18766   3.140   3.402   3.885  0.0228 -0.3430 -0.2300
 2435SOL    HW118767   3.179   3.379   3.801 -0.5043 -0.5130 -0.4265
 2435SOL    HW218768   3.096   3.487   3.878  0.7694  0.1763  1.3577
 2436SOL     OW18769   0.491   2.873   3.146  0.1889 -0.4851 -0.0895
 2436SOL    HW118770   0.580   2.879   3.110 -0.0124 -1.7213 -0.7919
 2436SOL    HW218771   0.470   2.967   3.151  0.5934 -0.5519  2.8703
 2437SOL     OW18772   0.759   1.264   6.217  0.2311  0.5359  0.4311
 2437SOL    HW118773   0.676   1.225   6.245  0.4358  0.1879  0.5508
 2437SOL    HW218774   0.728   1.303   6.135 -1.5040 -0.8920  0.4099
 2438SOL     OW18775   2.850   3.047   0.020  0.7617 -0.2370  0.1875
 2438SOL    HW118776   2.894   2.962   0.017  1.2031 -0.0226  0.5847
 2438SOL    HW218777   2.830   3.068  17.631  2.2224 -1.2458 -0.3837
 2439SOL     OW18778   0.246   0.558  12.543 -0.5574 -0.5773 -0.8310
 2439SOL    HW118779   0.160   0.519  12.560 -0.7003 -1.0342 -2.6498
 2439SOL    HW218780   0.299   0.480  12.527  4.2741  2.5054  0.1799
 2440SOL     OW18781   4.257   1.986   1.491  0.4071  0.1082 -0.2109
 2440SOL    HW118782   4.300   1.961   1.409 -0.7978 -1.8087 -0.2518
 2440SOL    HW218783   4.165   1.990   1.465  0.2111  0.7631  0.5790
 2441SOL     OW18784   2.557   3.672   8.546  0.4423 -0.1920  0.4048
 2441SOL    HW118785   2.652   3.659   8.546  0.4705  0.0129 -1.9969
 2441SOL    HW218786   2.558   3.717   8.631 -0.5350  1.9976 -0.7460
 2442SOL     OW18787   3.946   1.901   6.897  0.1172 -0.0611  0.1116
 2442SOL    HW118788   4.001   1.951   6.958  1.5864 -4.1227  2.1605
 2442SOL    HW218789   3.938   1.817   6.943  2.0441  0.3991  1.3047
 2443SOL     OW18790   0.403   0.922  13.630 -0.2981  0.1064  0.9732
 2443SOL    HW118791   0.426   0.910  13.722  1.2007  1.4748  0.7755
 2443SOL    HW218792   0.397   1.014  13.604  0.7816  0.1656  0.9282
 2444SOL     OW18793   2.374   1.213   3.096  0.3185 -0.3695  0.4644
 2444SOL    HW118794   2.450   1.237   3.043 -0.5220  1.9188  0.2536
 2444SOL    HW218795   2.350   1.127   3.062 -0.9533 -0.8037  2.4471
 2445SOL     OW18796   2.838   0.946  10.090 -0.7770 -0.0257 -0.4734
 2445SOL    HW118797   2.834   0.990  10.176  1.3493  0.1862 -0.4779
 2445SOL    HW218798   2.797   0.860  10.098 -0.6677 -0.2229 -2.0729
 2446SOL     OW18799   2.802   0.509   4.338  0.0328  0.0365  0.5891
 2446SOL    HW118800   2.775   0.426   4.298  0.8076 -0.3098  0.7753
 2446SOL    HW218801   2.751   0.578   4.298 -3.2907 -2.0435  1.2327
 2447SOL     OW18802   2.464   1.140   3.569  0.2709 -0.5845 -0.2588
 2447SOL    HW118803   2.420   1.055   3.565  0.6462 -0.6616 -2.9196
 2447SOL    HW218804   2.394   1.193   3.530 -0.4735 -1.6726 -0.4101
 2448SOL     OW18805   1.911   3.158   5.374 -0.3129  0.0085  0.5119
 2448SOL    HW118806   2.000   3.178   5.346 -1.1354  1.3455 -1.1432
 2448SOL    HW218807   1.883   3.111   5.296  0.8036 -1.3636  0.9372
 2449SOL     OW18808   3.118   2.600   5.420 -0.5464  0.4290 -0.2770
 2449SOL    HW118809   3.054   2.598   5.350 -0.7024  2.3744 -0.1837
 2449SOL    HW218810   3.107   2.685   5.462 -1.5561  0.8539 -1.3947
 2450SOL     OW18811   3.537   1.318   6.891  0.4030 -0.0644  0.0969
 2450SOL    HW118812   3.463   1.260   6.874  2.2925 -2.4761  0.1011
 2450SOL    HW218813   3.584   1.256   6.948 -2.5329 -1.7365  0.6740
 2451SOL     OW18814   2.629   0.590   2.032 -0.0222  0.0004  0.7490
 2451SOL    HW118815   2.545   0.578   1.988 -0.6218  1.4285  1.5264
 2451SOL    HW218816   2.641   0.684   2.018 -0.9566 -0.2434 -1.7002
 2452SOL     OW18817   4.277   3.809  11.654  0.1171 -0.0459 -0.1971
 2452SOL    HW118818   4.365   3.808  11.616  0.9941  1.4906  1.7392
 2452SOL    HW218819   4.217   3.842  11.587 -0.4327  1.5157  1.0517
 2453SOL     OW18820   3.138   4.111   5.317 -0.3389  0.1518  0.4467
 2453SOL    HW118821   3.085   4.180   5.357 -0.2379  0.6957 -0.3353
 2453SOL    HW218822   3.185   4.162   5.251 -0.6879  1.1458  0.9728
 2454SOL     OW18823   1.008   3.503   6.306  0.0780 -0.1262 -0.2260
 2454SOL    HW118824   1.042   3.588   6.280 -1.4243  0.7824  0.7444
 2454SOL    HW218825   0.914   3.515   6.322  0.0991  0.0035 -0.2066
 2455SOL     OW18826   3.814   1.120   1.483  0.2629 -0.0501 -0.4140
 2455SOL    HW118827   3.884   1.086   1.428  1.8734 -1.4824  2.5327
 2455SOL    HW218828   3.754   1.158   1.418 -0.5842 -1.2361 -0.3144
 2456SOL     OW18829   2.845   4.223   7.762 -0.1047  0.0830  0.1129
 2456SOL    HW118830   2.749   4.225   7.761 -0.0752  0.6025 -1.0015
 2456SOL    HW218831   2.864   4.188   7.675  1.3508 -1.4100  1.0198
 2457SOL     OW18832   2.771   2.382   9.583 -0.4166  0.1880 -0.4331
 2457SOL    HW118833   2.854   2.384   9.631 -0.6181  2.4624 -0.2246
 2457SOL    HW218834   2.738   2.297   9.614  1.6922 -0.0091  1.2780
 2458SOL     OW18835   1.853   0.535   6.585  0.1738  1.0589  0.9064
 2458SOL    HW118836   1.888   0.624   6.597 -0.0145  0.9491  2.2017
 2458SOL    HW218837   1.776   0.539   6.642 -1.2783 -1.4740 -0.8897
 2459SOL     OW18838   3.498   2.734   9.244  0.1533 -0.0981  0.1773
 2459SOL    HW118839   3.442   2.811   9.236 -1.1640 -0.9807  0.8929
 2459SOL    HW218840   3.466   2.696   9.326  0.5402  1.0469  0.8510
 2460SOL     OW18841   2.391   3.646   6.982 -0.1302  0.2218  0.0849
 2460SOL    HW118842   2.452   3.683   6.919  1.4403 -0.1301  1.3964
 2460SOL    HW218843   2.314   3.624   6.930  0.8973 -1.9152 -0.5453
 2461SOL     OW18844   2.250   1.446   9.438 -0.0063  0.2082  0.3080
 2461SOL    HW118845   2.190   1.498   9.492  0.7207  0.4467  0.8886
 2461SOL    HW218846   2.293   1.397   9.508  0.7313 -1.3707 -1.2556
 2462SOL     OW18847   4.160   2.696   5.251  0.0982 -0.1824  0.1579
 2462SOL    HW118848   4.102   2.623   5.272 -0.1584 -0.2473 -0.7707
 2462SOL    HW218849   4.158   2.745   5.333  2.6525 -0.4926  0.4154
 2463SOL     OW18850   3.767   2.150  14.213  0.6711  0.3812 -0.1168
 2463SOL    HW118851   3.850   2.197  14.204  0.9829 -0.1636 -0.1095
 2463SOL    HW218852   3.724   2.184  14.135  1.6120 -1.8165 -1.6181
 2464SOL     OW18853   0.046   4.244   7.712 -0.3343  0.0495 -0.2313
 2464SOL    HW118854   0.052   4.186   7.788 -1.8364  0.2157  0.0018
 2464SOL    HW218855   0.086   4.200   7.638 -0.6949  0.9882 -0.9873
 2465SOL     OW18856   0.287   3.289   8.798  0.4396 -0.4389  0.8287
 2465SOL    HW118857   0.220   3.318   8.860 -1.0107 -0.0371 -0.9195
 2465SOL    HW218858   0.302   3.196   8.813 -2.1768 -0.9677  0.1793
 2466SOL     OW18859   1.758   0.387   6.149 -0.2824 -0.1596  0.7240
 2466SOL    HW118860   1.819   0.436   6.204 -0.4183 -0.5281  1.2025
 2466SOL    HW218861   1.677   0.439   6.155 -0.1893  0.1919 -1.1441
 2467SOL     OW18862   2.628   1.638   7.429  0.2383 -0.0868 -0.3293
 2467SOL    HW118863   2.686   1.561   7.427 -2.7727 -2.2924 -2.0836
 2467SOL    HW218864   2.549   1.606   7.474 -0.5667  0.3682 -1.4446
 2468SOL     OW18865   3.029   4.176  11.338 -0.7484  0.3378  0.5167
 2468SOL    HW118866   3.034   4.267  11.366 -0.2031  0.9812 -1.6581
 2468SOL    HW218867   2.978   4.166  11.258 -0.4585 -2.0861  0.6171
 2469SOL     OW18868   4.665   3.366   1.827  0.2274 -0.0039  0.3695
 2469SOL    HW118869   4.598   3.424   1.789  1.4277  2.1371  1.4990
 2469SOL    HW218870   4.623   3.281   1.841 -4.4885  2.2828  0.4138
 2470SOL     OW18871   2.580   4.423   5.264  0.4371 -0.0944 -0.9157
 2470SOL    HW118872   2.565   4.354   5.199 -0.9560 -0.1592 -0.5208
 2470SOL    HW218873   2.552   4.380   5.345 -1.5444  1.9592 -0.5222
 2471SOL     OW18874   2.087   0.136   1.386 -0.9932  0.2112 -0.2574
 2471SOL    HW118875   2.032   0.195   1.437  0.8277  1.7963 -0.1305
 2471SOL    HW218876   2.161   0.126   1.446 -1.0007 -1.3670 -0.5071
 2472SOL     OW18877   1.594   4.067   0.286  0.2288 -1.0858 -0.0783
 2472SOL    HW118878   1.614   4.149   0.331 -0.3446 -1.0091  0.0388
 2472SOL    HW218879   1.633   4.089   0.201  0.5109  0.5414  0.4699
 2473SOL     OW18880   1.709   1.427   4.662  0.0534 -0.0657 -0.0380
 2473SOL    HW118881   1.708   1.457   4.752  1.2723 -0.3967  0.0882
 2473SOL    HW218882   1.801   1.400   4.656 -0.8160 -2.5842 -2.1245
 2474SOL     OW18883   0.217   4.608   3.177  0.0175 -0.4316  0.0035
 2474SOL    HW118884   0.159   4.599   3.101  0.0879 -0.8176 -0.0011
 2474SOL    HW218885   0.169   4.669   3.233  1.9958 -0.3754  1.6324
 2475SOL     OW18886   1.651   0.624   3.660 -0.7748 -0.1957  0.0060
 2475SOL    HW118887   1.644   0.534   3.626 -1.0307 -0.5105  0.9050
 2475SOL    HW218888   1.593   0.622   3.736  1.7931 -0.1879  1.9490
 2476SOL     OW18889   4.570   4.705   7.277  0.2343 -0.1203 -0.1650
 2476SOL    HW118890   4.579   4.610   7.283  1.6132 -0.0023 -0.4828
 2476SOL    HW218891   4.537   4.720   7.365 -2.1736  0.2233 -1.1164
 2477SOL     OW18892   0.365   2.727   7.592 -0.2557 -0.0983  0.4715
 2477SOL    HW118893   0.428   2.755   7.526 -1.0059  0.6792  0.0883
 2477SOL    HW218894   0.359   2.798   7.656  0.9625 -1.0271  1.6272
 2478SOL     OW18895   2.991   3.833   1.952  0.3042  0.3098 -0.0628
 2478SOL    HW118896   2.896   3.830   1.962  0.5377  1.1786  2.4634
 2478SOL    HW218897   3.019   3.748   1.985 -2.5560  0.5704  3.0655
 2479SOL     OW18898   0.049   3.866   4.460  0.9869  0.0136  0.3400
 2479SOL    HW118899   4.687   3.827   4.456  1.5256 -1.0133 -1.2891
 2479SOL    HW218900   0.051   3.880   4.555 -2.0531  2.1022  0.1040
 2480SOL     OW18901   2.199   4.003   3.959  0.8746  0.5510 -0.0382
 2480SOL    HW118902   2.167   4.093   3.963  1.1307  0.6469 -0.1455
 2480SOL    HW218903   2.176   3.973   3.871  0.1588 -0.4990  0.5021
 2481SOL     OW18904   0.417   1.486   8.459 -0.5830 -0.1615 -0.2761
 2481SOL    HW118905   0.446   1.540   8.532 -1.9968 -0.4029  0.4625
 2481SOL    HW218906   0.500   1.440   8.444 -0.1040  0.4249  0.5983
 2482SOL     OW18907   2.684   4.192   4.675 -0.4226  0.0585  0.5241
 2482SOL    HW118908   2.667   4.260   4.611 -0.1658  0.0239  0.4185
 2482SOL    HW218909   2.723   4.129   4.614 -2.8287 -2.9507  2.0756
 2483SOL     OW18910   4.305   3.122   2.472 -0.5736  0.0288 -0.4829
 2483SOL    HW118911   4.355   3.169   2.404  2.1355 -2.1614  0.0045
 2483SOL    HW218912   4.309   3.036   2.432 -0.7383 -0.6041  0.8648
 2484SOL     OW18913   0.222   1.838   2.541  0.0315 -0.2370 -0.5693
 2484SOL    HW118914   0.191   1.923   2.510 -2.6183 -0.8621  0.3950
 2484SOL    HW218915   0.162   1.777   2.499 -1.3044 -0.5855  1.8284
 2485SOL     OW18916   1.931   0.611   6.286 -0.7387  0.3032 -0.1225
 2485SOL    HW118917   1.962   0.700   6.300 -2.1752  0.7773  0.0178
 2485SOL    HW218918   1.931   0.583   6.378  1.9873 -2.0139 -0.8166
 2486SOL     OW18919   3.576   0.231  11.277  0.6199 -0.1640  0.3198
 2486SOL    HW118920   3.587   0.161  11.341 -1.6534 -1.8873 -1.1861
 2486SOL    HW218921   3.597   0.305  11.334  1.7414 -2.1419  2.5030
 2487SOL     OW18922   2.090   3.700   2.481 -0.3344  0.3329 -0.0297
 2487SOL    HW118923   2.145   3.747   2.543 -3.1396 -0.0891  2.8164
 2487SOL    HW218924   2.077   3.770   2.418 -1.0789 -0.1209 -0.3827
 2488SOL     OW18925   1.846   0.815   4.240 -0.1172 -0.3781  0.1805
 2488SOL    HW118926   1.930   0.859   4.224 -1.3805  1.2629 -1.8768
 2488SOL    HW218927   1.878   0.730   4.268 -0.8925 -1.0397 -0.9390
 2489SOL     OW18928   1.039   4.262   5.835 -0.3812  0.2689  0.0188
 2489SOL    HW118929   1.011   4.178   5.872  1.2216 -0.6685 -0.8876
 2489SOL    HW218930   0.966   4.296   5.783 -0.0575 -0.0093 -0.6150
 2490SOL     OW18931   2.265   1.236  10.149  0.5632 -0.5720 -0.3556
 2490SOL    HW118932   2.294   1.265  10.236  2.0980  1.5234 -1.5873
 2490SOL    HW218933   2.353   1.240  10.112  0.3500  1.1743 -0.6331
 2491SOL     OW18934   0.372   1.085   5.905 -0.1381 -0.3402  0.1971
 2491SOL    HW118935   0.452   1.071   5.855 -0.3946  0.7297 -0.5122
 2491SOL    HW218936   0.366   1.181   5.910 -0.8735 -0.2399 -2.4764
 2492SOL     OW18937   2.701   4.318  15.913 -0.6445  0.5001  0.0101
 2492SOL    HW118938   2.791   4.299  15.942 -1.4074 -0.3246  1.8733
 2492SOL    HW218939   2.676   4.280  15.997  1.2733 -2.5597 -0.7897
 2493SOL     OW18940   3.311   4.618   3.638  0.3986 -0.4145  0.6398
 2493SOL    HW118941   3.322   4.524   3.620 -1.0043 -0.3124 -0.6537
 2493SOL    HW218942   3.404   4.636   3.626  0.3293 -1.1760 -1.0119
 2494SOL     OW18943   4.235   4.214   2.023 -0.1489  0.6411  0.4620
 2494SOL    HW118944   4.318   4.241   1.984 -0.0327  2.0240  1.6798
 2494SOL    HW218945   4.173   4.287   2.016  0.7770  1.3410 -0.5619
 2495SOL     OW18946   4.151   1.061   2.406  0.4871 -0.3334 -0.1123
 2495SOL    HW118947   4.117   1.120   2.473 -0.6765 -0.4304 -0.5981
 2495SOL    HW218948   4.192   0.989   2.453 -0.3698 -0.7702 -0.0264
 2496SOL     OW18949   1.563   2.858   3.879  0.1698 -0.2566 -0.0803
 2496SOL    HW118950   1.513   2.927   3.835  0.5217 -0.1677 -0.3373
 2496SOL    HW218951   1.560   2.892   3.968 -2.9208  0.2263 -0.3818
 2497SOL     OW18952   2.266   2.239   9.602 -0.2199  0.2044  0.3067
 2497SOL    HW118953   2.335   2.215   9.540 -0.0748 -1.5108  1.1203
 2497SOL    HW218954   2.316   2.221   9.682  2.8893 -0.5366 -1.7834
 2498SOL     OW18955   1.357   1.890   7.626  0.1306 -0.5568 -0.0780
 2498SOL    HW118956   1.281   1.838   7.600 -1.3136  1.3873  0.2631
 2498SOL    HW218957   1.401   1.893   7.541  1.4249  1.4259  0.6609
 2499SOL     OW18958   1.223   1.335  14.065  0.8725  1.2229 -0.5077
 2499SOL    HW118959   1.163   1.346  14.139 -1.2842 -0.7780 -1.9542
 2499SOL    HW218960   1.294   1.279  14.095  1.2294  0.8391 -2.0595
 2500SOL     OW18961   1.101   2.912   2.469  0.2521 -0.0245  0.2732
 2500SOL    HW118962   1.075   2.892   2.379  1.1258 -0.4104  0.1131
 2500SOL    HW218963   1.175   2.969   2.451 -0.3370 -0.0096 -2.0936
 2501SOL     OW18964   1.216   3.813   6.298 -0.4213 -0.3213 -0.0039
 2501SOL    HW118965   1.300   3.855   6.318 -1.4290  0.8473  1.8557
 2501SOL    HW218966   1.240   3.733   6.251  1.4768  0.4456 -0.3434
 2502SOL     OW18967   1.486   1.001  16.932 -0.3164  0.3124 -0.2295
 2502SOL    HW118968   1.575   1.012  16.899  0.2940  2.5401  2.0861
 2502SOL    HW218969   1.457   0.929  16.877 -2.7171  1.7488 -0.8487
 2503SOL     OW18970   1.558   0.848   1.746 -0.4341 -0.4712 -0.7205
 2503SOL    HW118971   1.609   0.778   1.788  1.7148  2.0479  0.8590
 2503SOL    HW218972   1.593   0.844   1.657  2.5300 -0.0189  0.4106
 2504SOL     OW18973   2.908   2.653   7.135 -0.7881  0.4990  0.1261
 2504SOL    HW118974   2.963   2.598   7.080 -0.7678  1.5202 -0.8804
 2504SOL    HW218975   2.909   2.602   7.216  2.1713  0.8567  0.3095
 2505SOL     OW18976   4.395   4.623   0.226 -0.5015 -0.3749  0.0831
 2505SOL    HW118977   4.473   4.675   0.204 -0.8506 -0.4275 -1.2311
 2505SOL    HW218978   4.350   4.678   0.290  1.0703  0.4608  0.4693
 2506SOL     OW18979   4.603   0.316   6.436 -0.4336  0.2123 -0.1399
 2506SOL    HW118980   4.568   0.393   6.480  0.3109 -0.2024  1.1871
 2506SOL    HW218981   4.641   0.260   6.504 -2.0723 -0.6942  0.0250
 2507SOL     OW18982   2.894   2.106   0.040 -0.3765 -0.0238  0.0312
 2507SOL    HW118983   2.865   2.022   0.076 -2.7653  0.3970 -0.9256
 2507SOL    HW218984   2.975   2.100   0.090  0.4079  1.7101 -1.0403
 2508SOL     OW18985   3.298   2.485  16.849 -0.3327 -0.0920 -0.0521
 2508SOL    HW118986   3.374   2.460  16.796 -0.6511  2.1844 -1.5811
 2508SOL    HW218987   3.244   2.408  16.830  0.3384 -0.7216  0.5805
 2509SOL     OW18988   0.254   3.034  17.190 -0.3443  0.7530 -0.7226
 2509SOL    HW118989   0.298   2.952  17.212  0.4910  1.7099  1.1283
 2509SOL    HW218990   0.163   3.019  17.218 -0.5374  0.3616 -1.5488
 2510SOL     OW18991   2.148   0.195   5.546 -0.2745  0.2077  0.2556
 2510SOL    HW118992   2.154   0.141   5.467 -0.4212  0.3167  0.1693
 2510SOL    HW218993   2.069   0.248   5.530  0.4217  1.7929  1.9560
 2511SOL     OW18994   3.264   3.429   6.199 -0.0044 -0.6545  0.1584
 2511SOL    HW118995   3.299   3.507   6.155  0.1023 -0.6463  0.2591
 2511SOL    HW218996   3.190   3.471   6.241 -0.1217 -0.4681 -0.2332
 2512SOL     OW18997   2.346   2.737   7.612 -0.1160 -0.4169 -0.0516
 2512SOL    HW118998   2.285   2.773   7.677  0.8785 -2.1427  1.8333
 2512SOL    HW218999   2.411   2.807   7.609 -1.2438  0.6898  0.8144
 2513SOL     OW19000   2.438   1.251  14.131  0.2307 -0.3338 -0.1731
 2513SOL    HW119001   2.492   1.210  14.064  2.1775  1.8239  0.0973
 2513SOL    HW219002   2.504   1.285  14.190 -0.4604  0.6028  0.0553
 2514SOL     OW19003   4.040   4.144  10.898  0.0430  0.1919  0.0498
 2514SOL    HW119004   4.064   4.231  10.929 -0.2940  0.2444  0.1624
 2514SOL    HW219005   4.013   4.164  10.808 -1.1044  0.0265  0.3625
 2515SOL     OW19006   0.122   0.450   4.486  0.4518  0.2048  0.2182
 2515SOL    HW119007   0.176   0.510   4.539  0.2433  0.9806 -0.4609
 2515SOL    HW219008   0.068   0.402   4.549 -0.1537 -1.3420 -1.5096
 2516SOL     OW19009   4.654   1.019   2.998  0.2707 -0.4271 -0.4310
 2516SOL    HW119010   4.601   1.086   2.954 -0.3193 -1.4343 -1.2398
 2516SOL    HW219011   4.577   0.965   3.015 -0.0577  0.7163  1.7242
 2517SOL     OW19012   2.432   0.599   6.822  0.2940  0.0706  0.3232
 2517SOL    HW119013   2.398   0.676   6.775 -1.7162 -0.3765  1.0447
 2517SOL    HW219014   2.359   0.536   6.821  0.5469 -0.2337  1.5730
 2518SOL     OW19015   0.917   0.523  15.890 -0.1864 -0.2144  0.7405
 2518SOL    HW119016   0.879   0.554  15.972  0.3926  0.8533  0.6037
 2518SOL    HW219017   1.006   0.557  15.905 -1.4088  1.6719  3.6697
 2519SOL     OW19018   2.673   0.131   2.665 -0.4448  0.7204  0.7441
 2519SOL    HW119019   2.628   0.062   2.712 -0.9529  1.2888  1.0891
 2519SOL    HW219020   2.638   0.139   2.576  1.9461  2.9449 -0.0055
 2520SOL     OW19021   0.404   3.811  15.857  0.2072 -0.5429 -0.0635
 2520SOL    HW119022   0.415   3.906  15.860 -0.4439 -0.3944 -2.2357
 2520SOL    HW219023   0.314   3.815  15.824 -0.8839  1.6571  3.1199
 2521SOL     OW19024   1.462   4.242  14.946 -0.5330 -0.3472 -0.0188
 2521SOL    HW119025   1.501   4.296  14.877  1.3449 -1.6390  0.0598
 2521SOL    HW219026   1.389   4.207  14.895 -0.0916 -0.8314 -0.3135
 2522SOL     OW19027   2.994   0.308   5.313  0.2585  0.2415 -0.2018
 2522SOL    HW119028   3.011   0.226   5.360 -0.3885 -0.6438 -1.5203
 2522SOL    HW219029   3.064   0.308   5.248 -1.0852  0.1879 -1.6415
 2523SOL     OW19030   3.440   2.194   5.290 -0.4555  0.0721 -0.3242
 2523SOL    HW119031   3.521   2.233   5.322 -1.3373  1.7378 -0.1658
 2523SOL    HW219032   3.377   2.243   5.341 -1.1598 -1.2094  0.0328
 2524SOL     OW19033   3.788   1.492   9.196 -0.2610  0.4919 -0.2126
 2524SOL    HW119034   3.879   1.475   9.172  0.3828 -1.5104  3.6311
 2524SOL    HW219035   3.769   1.581   9.167 -0.9070  0.7928  1.1297
 2525SOL     OW19036   2.116   4.299   8.156 -0.6630  0.1629 -0.2425
 2525SOL    HW119037   2.208   4.311   8.134 -0.9928 -0.8956 -2.1981
 2525SOL    HW219038   2.093   4.232   8.092  0.6962 -0.9765  0.4536
 2526SOL     OW19039   0.115   2.326  14.818 -0.0197 -0.0326 -0.3800
 2526SOL    HW119040   0.092   2.416  14.842 -0.5324  0.4669 -2.7540
 2526SOL    HW219041   0.132   2.346  14.726  2.2482  1.3432  0.3281
 2527SOL     OW19042   3.542   1.174   5.180  0.5653 -0.0608 -0.3123
 2527SOL    HW119043   3.614   1.236   5.186  0.5680 -0.0466 -0.5035
 2527SOL    HW219044   3.507   1.165   5.269 -2.7805 -0.1475 -1.6480
 2528SOL     OW19045   3.911   1.555   3.084 -0.4244  0.1331 -0.0041
 2528SOL    HW119046   3.994   1.596   3.108 -0.5370  0.7187 -0.6235
 2528SOL    HW219047   3.920   1.460   3.095 -2.8724 -0.3683 -2.3200
 2529SOL     OW19048   4.655   0.299   7.835  0.6785  0.3003 -0.7748
 2529SOL    HW119049   4.681   0.206   7.830 -0.5383 -0.0366 -0.8151
 2529SOL    HW219050   0.012   0.339   7.862  0.4546 -0.1487  0.5736
 2530SOL     OW19051   3.434   1.968   7.981 -0.3379  0.0387  0.4207
 2530SOL    HW119052   3.409   1.978   8.073  2.9755  0.5052  1.2634
 2530SOL    HW219053   3.350   1.963   7.936 -1.1657  0.9996  1.8697
 2531SOL     OW19054   3.839   2.426  15.228 -0.5668  0.2713 -0.2857
 2531SOL    HW119055   3.849   2.337  15.262  1.4087  0.2042 -0.9991
 2531SOL    HW219056   3.905   2.403  15.162  0.9830 -1.9561  2.0694
 2532SOL     OW19057   0.259   0.237  12.313 -0.7961  0.1530 -0.1277
 2532SOL    HW119058   0.304   0.283  12.384 -0.9066 -0.2403  0.2002
 2532SOL    HW219059   0.242   0.156  12.362  0.8834 -0.6368 -0.8115
 2533SOL     OW19060   2.703   4.387   5.927 -1.0991  0.6896 -0.0504
 2533SOL    HW119061   2.676   4.297   5.911  0.4396  0.4176 -1.1257
 2533SOL    HW219062   2.689   4.426   5.841  1.1867  0.3431 -0.5821
 2534SOL     OW19063   3.873   3.162   8.527 -0.1481 -0.0402 -0.1767
 2534SOL    HW119064   3.951   3.217   8.524 -1.0900  1.2976 -0.1534
 2534SOL    HW219065   3.917   3.078   8.543  1.3136  0.7706  0.0201
 2535SOL     OW19066   0.423   3.301   8.378  0.2057  0.5342  0.5248
 2535SOL    HW119067   0.427   3.237   8.307 -0.8720 -0.0421  0.9830
 2535SOL    HW219068   0.473   3.253   8.443  1.8612 -1.2863 -2.0910
 2536SOL     OW19069   0.981   2.390   7.443 -0.5180 -0.1487  0.2400
 2536SOL    HW119070   0.958   2.456   7.509  0.0658  0.2963  0.0019
 2536SOL    HW219071   1.073   2.385   7.471 -0.7216 -0.4830  0.8415
 2537SOL     OW19072   1.409   4.411   1.128  0.0500  0.7291 -0.5271
 2537SOL    HW119073   1.401   4.507   1.128  0.9531  0.8012 -0.9219
 2537SOL    HW219074   1.319   4.383   1.139 -0.7833  3.7691  0.4252
 2538SOL     OW19075   2.947   3.603   7.379 -0.3588 -0.2265  0.1198
 2538SOL    HW119076   2.926   3.541   7.449 -0.3810 -1.9214 -1.3750
 2538SOL    HW219077   3.042   3.604   7.366 -0.2840 -3.0671  0.3392
 2539SOL     OW19078   0.123   2.511  13.364 -0.0315 -0.7171 -0.4575
 2539SOL    HW119079   0.208   2.475  13.388 -0.5855 -0.8873  1.2961
 2539SOL    HW219080   0.086   2.538  13.448 -0.9660  0.0469 -1.1087
 2540SOL     OW19081   2.129   1.077   3.173 -0.0018  0.2547  0.2141
 2540SOL    HW119082   2.185   1.150   3.150  1.3483 -0.6088  0.7647
 2540SOL    HW219083   2.061   1.127   3.219 -0.4649  0.0719 -0.2660
 2541SOL     OW19084   2.013   4.536   2.034  0.0059  0.4515  0.0908
 2541SOL    HW119085   2.090   4.511   1.983  0.1972 -1.2176  1.2300
 2541SOL    HW219086   2.027   4.630   2.050 -0.8320  0.3076  1.5869
 2542SOL     OW19087   0.194   0.413   6.483 -0.2913 -0.1857 -0.0662
 2542SOL    HW119088   0.197   0.410   6.387 -0.4909 -0.5681 -0.0624
 2542SOL    HW219089   0.125   0.356   6.515  0.5243 -0.9417  0.3295
 2543SOL     OW19090   1.600   4.350   7.586  1.1792  0.6768 -0.4075
 2543SOL    HW119091   1.564   4.402   7.514  0.4626 -0.0013 -0.5405
 2543SOL    HW219092   1.694   4.361   7.568  0.8342  0.1962 -2.5715
 2544SOL     OW19093   0.622   2.459   0.313 -0.2401 -0.4735 -0.6208
 2544SOL    HW119094   0.644   2.552   0.320 -0.8553 -0.5611  2.5525
 2544SOL    HW219095   0.636   2.449   0.219  0.6169 -0.6285 -0.4855
 2545SOL     OW19096   2.971   0.222  15.688  0.6007  0.5303  0.4970
 2545SOL    HW119097   2.970   0.253  15.598 -1.0329  0.8981  0.6338
 2545SOL    HW219098   3.065   0.209  15.701  0.1922 -1.8509  1.0369
 2546SOL     OW19099   0.409   1.575   0.113 -0.7880  0.3635 -0.0179
 2546SOL    HW119100   0.496   1.615   0.107 -1.3083  1.1724 -2.1659
 2546SOL    HW219101   0.358   1.638   0.063 -2.6271 -0.7495  0.4616
 2547SOL     OW19102   2.258   4.707   5.199  0.5394 -0.5046  0.5177
 2547SOL    HW119103   2.168   4.722   5.171  0.2186 -2.0585  0.6835
 2547SOL    HW219104   2.310   0.029   5.134  0.6915 -1.7130 -0.2500
 2548SOL     OW19105   3.333   3.097  12.613  0.1203  0.3126 -0.0284
 2548SOL    HW119106   3.415   3.143  12.630 -0.5971  0.2202  3.6130
 2548SOL    HW219107   3.363   3.011  12.586 -0.3443 -0.2081  1.1057
 2549SOL     OW19108   0.785   3.482   1.929  0.0788 -0.4223  0.2982
 2549SOL    HW119109   0.759   3.517   1.844  2.4627  1.1783  0.2088
 2549SOL    HW219110   0.778   3.389   1.908 -1.8554 -0.3149  0.4813
 2550SOL     OW19111   1.385   4.630   6.910  0.5472  0.6258 -0.1460
 2550SOL    HW119112   1.377   4.590   6.997  0.2954 -0.1569 -0.5235
 2550SOL    HW219113   1.402   4.550   6.859 -1.8898  0.4345 -0.6929
 2551SOL     OW19114   1.359   4.177   6.429 -0.6243  0.3471  0.3838
 2551SOL    HW119115   1.428   4.154   6.491  0.7132  3.8415  0.1800
 2551SOL    HW219116   1.288   4.177   6.493 -1.2455  0.6587 -0.3054
 2552SOL     OW19117   4.322   0.293  11.220 -0.1875  0.4776 -0.3909
 2552SOL    HW119118   4.338   0.345  11.298 -0.2900  1.6501 -1.1492
 2552SOL    HW219119   4.402   0.300  11.168  0.1710 -0.1445  0.0881
 2553SOL     OW19120   1.889   3.699  14.265  0.0834 -0.9241  0.1935
 2553SOL    HW119121   1.938   3.782  14.268 -1.3018 -0.0608 -0.9486
 2553SOL    HW219122   1.914   3.672  14.176  0.7067  0.8035 -0.1589
 2554SOL     OW19123   4.253   0.883   4.205 -0.0656  0.2360  0.2340
 2554SOL    HW119124   4.281   0.906   4.294  0.2444 -3.2203  1.0256
 2554SOL    HW219125   4.160   0.906   4.208 -0.1242 -0.0020  0.2324
 2555SOL     OW19126   0.712   1.468  16.632 -0.0560  0.5272  0.1208
 2555SOL    HW119127   0.787   1.499  16.684 -0.1452 -3.3978  2.6056
 2555SOL    HW219128   0.712   1.534  16.563 -0.8446  1.7689  1.3123
 2556SOL     OW19129   3.468   1.616  17.236  0.3627 -0.1631 -0.2848
 2556SOL    HW119130   3.409   1.607  17.162  0.8714 -1.9217 -0.4729
 2556SOL    HW219131   3.472   1.525  17.266 -1.1248  0.2218  1.1069
 2557SOL     OW19132   1.590   2.074  13.322  0.1104 -0.1823  0.1855
 2557SOL    HW119133   1.619   1.992  13.360  1.1461 -0.8116 -1.9706
 2557SOL    HW219134   1.588   2.128  13.401 -1.0257  0.8877 -0.5692
 2558SOL     OW19135   0.657   3.835   3.222 -0.3372 -0.4002 -0.2102
 2558SOL    HW119136   0.568   3.802   3.215  0.1567 -2.1497  1.8939
 2558SOL    HW219137   0.695   3.776   3.287 -0.1863  0.1002  0.1569
 2559SOL     OW19138   2.165   2.978  12.965 -0.3629 -0.1353 -0.1979
 2559SOL    HW119139   2.258   3.000  12.964 -0.5349  0.5403 -1.6867
 2559SOL    HW219140   2.143   3.008  13.053  2.8034  0.5252  0.3570
 2560SOL     OW19141   3.144   2.860   6.914 -0.2855  0.1097 -0.4195
 2560SOL    HW119142   3.064   2.913   6.917 -0.8311 -0.7228 -0.2841
 2560SOL    HW219143   3.113   2.779   6.873  1.0757 -1.8179  2.3732
 2561SOL     OW19144   3.275   3.416  11.143  0.2057  0.3588  0.5180
 2561SOL    HW119145   3.303   3.507  11.141  0.3953  0.3284  1.7311
 2561SOL    HW219146   3.216   3.402  11.217  0.2309  1.1654  0.6888
 2562SOL     OW19147   4.719   2.964   1.134  0.4385  0.4115 -0.1571
 2562SOL    HW119148   4.660   2.990   1.204  2.1160 -1.5275  1.9498
 2562SOL    HW219149   4.689   2.873   1.130 -1.3236  0.9228  1.7690
 2563SOL     OW19150   1.763   0.416  15.243 -0.1492  0.2602  0.1355
 2563SOL    HW119151   1.721   0.343  15.198  0.9177  0.7876 -1.7331
 2563SOL    HW219152   1.854   0.396  15.220 -1.3288 -2.2342 -2.3465
 2564SOL     OW19153   3.893   4.405   3.715 -0.3785 -0.3692 -0.1765
 2564SOL    HW119154   3.891   4.457   3.634 -1.9087  0.4999  0.4287
 2564SOL    HW219155   3.805   4.369   3.716 -0.6039  0.1600 -0.8868
 2565SOL     OW19156   3.375   2.302  15.938  0.0378  0.5745 -0.2019
 2565SOL    HW119157   3.408   2.356  15.866 -0.5674  0.7673 -0.3352
 2565SOL    HW219158   3.429   2.223  15.935 -1.1490 -0.2963  1.4898
 2566SOL     OW19159   0.172   4.321  16.218 -0.5177  0.5725 -0.1046
 2566SOL    HW119160   0.133   4.252  16.271 -1.0208 -0.5736 -1.9446
 2566SOL    HW219161   0.091   4.340  16.171 -0.0980 -1.4698 -1.6589
 2567SOL     OW19162   2.273   4.392  16.833  0.4961  0.4034 -0.3703
 2567SOL    HW119163   2.295   4.306  16.869 -0.2378  0.6110  0.5776
 2567SOL    HW219164   2.203   4.361  16.775  0.3461  0.4554 -0.2175
 2568SOL     OW19165   2.033   0.347   4.405 -0.2739  0.3167 -0.2641
 2568SOL    HW119166   1.982   0.349   4.486 -0.9253  2.2490 -0.7121
 2568SOL    HW219167   1.987   0.276   4.360  0.2812 -0.3060  0.1679
 2569SOL     OW19168   1.814   2.003   2.204 -0.1310 -0.1853 -0.0525
 2569SOL    HW119169   1.846   1.942   2.270 -0.5504 -1.0209 -0.6096
 2569SOL    HW219170   1.781   2.072   2.261  0.4641 -0.6075  0.7999
 2570SOL     OW19171   2.377   3.378   9.475  0.4512  0.2774  0.7367
 2570SOL    HW119172   2.295   3.351   9.516  0.7958  0.1298  1.3242
 2570SOL    HW219173   2.426   3.389   9.556  1.6084  0.9442 -0.0502
 2571SOL     OW19174   2.274   1.741   1.172 -0.3869  0.2793 -0.4370
 2571SOL    HW119175   2.265   1.698   1.086  1.8235 -1.3571  0.1402
 2571SOL    HW219176   2.367   1.761   1.164 -0.4929  0.3585 -1.5041
 2572SOL     OW19177   0.299   2.479   8.926 -0.1184 -0.4848  0.0235
 2572SOL    HW119178   0.369   2.543   8.910 -0.6680 -0.3028 -1.6611
 2572SOL    HW219179   0.307   2.471   9.021 -2.7137 -0.1887  0.2696
 2573SOL     OW19180   3.441   2.082   4.775  0.5028  0.0084 -0.2582
 2573SOL    HW119181   3.465   2.079   4.683  2.2638  1.0989  0.1659
 2573SOL    HW219182   3.368   2.143   4.780 -0.0106 -0.6000 -0.3140
 2574SOL     OW19183   2.504   2.823   5.117  0.1755 -0.0145  0.1264
 2574SOL    HW119184   2.414   2.806   5.089 -0.1908  1.4415  0.4183
 2574SOL    HW219185   2.513   2.918   5.105  0.3390 -0.1915 -1.1514
 2575SOL     OW19186   2.286   2.158  15.787  0.2166 -0.8625 -0.3239
 2575SOL    HW119187   2.373   2.118  15.801  0.8590  0.7101  0.1736
 2575SOL    HW219188   2.280   2.177  15.693  2.1431  0.4622 -0.1869
 2576SOL     OW19189   1.604   0.689   4.125  0.0283  0.6242  0.3632
 2576SOL    HW119190   1.549   0.723   4.196 -0.5250  0.5235 -0.0175
 2576SOL    HW219191   1.686   0.719   4.163  0.1481  1.6498 -0.7265
 2577SOL     OW19192   3.745   1.913  11.810 -0.0766 -0.0745  1.1184
 2577SOL    HW119193   3.814   1.921  11.744 -1.7524  0.0373 -0.6199
 2577SOL    HW219194   3.725   2.005  11.826 -1.7278 -0.2308 -0.1087
 2578SOL     OW19195   1.133   3.212   3.821  0.2536  0.0656 -0.3946
 2578SOL    HW119196   1.089   3.150   3.879 -0.7935  0.1348 -1.1224
 2578SOL    HW219197   1.053   3.239   3.776 -0.6987 -0.0450  1.2350
 2579SOL     OW19198   1.679   2.213   7.723 -0.1944 -0.2064  0.3622
 2579SOL    HW119199   1.735   2.170   7.659 -0.0518 -0.1603  0.4548
 2579SOL    HW219200   1.741   2.214   7.797  2.0799 -1.2572 -1.5316
 2580SOL     OW19201   4.092   0.103  14.179 -0.1986  0.0555 -0.0238
 2580SOL    HW119202   4.117   0.034  14.241  1.7115 -0.2452 -1.1300
 2580SOL    HW219203   4.120   0.176  14.234  0.1213 -0.1729  0.1172
 2581SOL     OW19204   1.962   2.525  10.198  0.1312 -0.1999  0.1920
 2581SOL    HW119205   1.968   2.618  10.179 -1.0579 -0.3561 -0.9717
 2581SOL    HW219206   1.916   2.495  10.119 -0.5322 -0.2354  0.5913
 2582SOL     OW19207   3.124   1.147   7.610 -0.4084 -0.6738  0.0260
 2582SOL    HW119208   3.075   1.122   7.688 -2.0169  0.1056 -0.7312
 2582SOL    HW219209   3.057   1.102   7.558 -0.0276 -1.0917 -0.0972
 2583SOL     OW19210   2.455   0.929   4.340  0.2178 -0.0372 -0.6387
 2583SOL    HW119211   2.442   1.022   4.320 -0.5793 -0.2617 -1.1652
 2583SOL    HW219212   2.530   0.914   4.282  0.3881  0.0324 -0.4374
 2584SOL     OW19213   2.975   4.101   2.398 -0.1831 -0.2884  0.0071
 2584SOL    HW119214   2.955   4.008   2.401  1.2338 -0.5643  1.4112
 2584SOL    HW219215   2.920   4.116   2.322 -1.0229  0.9826  0.8647
 2585SOL     OW19216   0.955   3.142   4.381  0.2476  0.1127 -0.2872
 2585SOL    HW119217   0.893   3.147   4.453  2.0941 -1.2303  1.3952
 2585SOL    HW219218   1.001   3.226   4.381 -0.9085  0.7388  2.3541
 2586SOL     OW19219   3.060   0.983   0.544  0.1982  0.4518  0.3128
 2586SOL    HW119220   2.990   0.978   0.479 -0.1829 -1.2913  0.8293
 2586SOL    HW219221   3.064   0.903   0.597 -0.1328  0.1992 -0.0446
 2587SOL     OW19222   2.731   3.273  11.467 -0.1994  0.8805  0.2230
 2587SOL    HW119223   2.806   3.254  11.411 -0.9979 -0.5766 -0.3418
 2587SOL    HW219224   2.773   3.298  11.550 -0.2862 -2.0724  1.1491
 2588SOL     OW19225   0.942   3.688   6.083  0.5805  0.6029 -0.8164
 2588SOL    HW119226   1.013   3.731   6.037  2.3188 -3.0498 -1.6029
 2588SOL    HW219227   0.869   3.738   6.047 -0.2833  0.1145  0.2441
 2589SOL     OW19228   0.747   2.831   7.806  0.5307 -0.0650 -0.5030
 2589SOL    HW119229   0.753   2.909   7.751 -0.1060 -0.4372 -1.0996
 2589SOL    HW219230   0.660   2.831   7.846 -0.0785  2.2180 -1.8418
 2590SOL     OW19231   3.342   1.289   8.501 -0.4944 -0.1930  0.1095
 2590SOL    HW119232   3.430   1.271   8.467 -0.3032  2.2177 -0.6393
 2590SOL    HW219233   3.375   1.354   8.564 -0.3873 -0.7176  0.5967
 2591SOL     OW19234   2.858   3.195  14.862 -0.0715  0.1976  0.1010
 2591SOL    HW119235   2.835   3.280  14.824 -1.0500 -0.2986 -0.4164
 2591SOL    HW219236   2.899   3.214  14.946  1.5395  0.9235 -0.8367
 2592SOL     OW19237   4.029   4.262   2.628 -0.0317 -0.3402 -0.0930
 2592SOL    HW119238   4.119   4.287   2.608  0.0056 -1.7406 -1.7041
 2592SOL    HW219239   4.034   4.215   2.710  2.1036  2.8992  1.6338
 2593SOL     OW19240   4.363   3.982   2.531  0.2640  0.3074  0.4160
 2593SOL    HW119241   4.355   4.071   2.564  0.9857 -0.0314  1.5202
 2593SOL    HW219242   4.432   3.956   2.592 -0.9626  0.8142  2.0084
 2594SOL     OW19243   3.275   2.525  11.701 -0.3448  0.3553 -0.4457
 2594SOL    HW119244   3.273   2.596  11.765 -2.3643 -1.3594  1.4087
 2594SOL    HW219245   3.249   2.586  11.632  1.8001  1.7878  0.0258
 2595SOL     OW19246   0.760   0.311   3.076 -0.5564  0.2267  1.0209
 2595SOL    HW119247   0.731   0.313   2.985 -1.5323 -2.6779  1.2675
 2595SOL    HW219248   0.695   0.255   3.118 -0.9161 -0.6276 -0.6663
 2596SOL     OW19249   0.206   0.167   3.813  0.2187 -0.3753  0.4904
 2596SOL    HW119250   0.148   0.234   3.777 -0.7389 -1.0377  0.7736
 2596SOL    HW219251   0.140   0.104   3.844  1.0304 -1.7420 -0.5977
 2597SOL     OW19252   2.388   2.183   3.727 -0.3166 -0.4302 -0.2596
 2597SOL    HW119253   2.366   2.105   3.676 -2.6862  0.4001 -0.5108
 2597SOL    HW219254   2.460   2.210   3.671  0.1325 -0.6079  0.2280
 2598SOL     OW19255   4.154   0.841  15.183 -0.3963  0.1796  0.3666
 2598SOL    HW119256   4.228   0.901  15.192 -0.9211  0.9324 -0.2682
 2598SOL    HW219257   4.075   0.893  15.167 -1.6179 -2.3383 -1.6236
 2599SOL     OW19258   4.713   3.901   5.876  0.4484  0.4009  0.6968
 2599SOL    HW119259   4.630   3.853   5.875  1.1213 -0.7093 -1.2224
 2599SOL    HW219260   4.721   3.921   5.970  0.0936  1.4694  0.4955
 2600SOL     OW19261   0.455   1.634  10.434 -0.5925  0.2699  0.4816
 2600SOL    HW119262   0.413   1.684  10.505  0.9684 -0.5171  1.9609
 2600SOL    HW219263   0.464   1.705  10.370 -0.6379 -0.4006 -0.2544
 2601SOL     OW19264   3.965   3.688   5.009  0.0720  0.6537 -0.2564
 2601SOL    HW119265   3.886   3.735   5.037 -0.1733  0.8238 -1.2506
 2601SOL    HW219266   3.924   3.641   4.936  0.5410 -0.0884 -0.0458
 2602SOL     OW19267   1.608   4.138   3.634 -0.0778  0.3595  0.7721
 2602SOL    HW119268   1.671   4.209   3.647  0.8790 -0.6036  1.3425
 2602SOL    HW219269   1.654   4.072   3.686  0.9977 -0.1038 -0.8038
 2603SOL     OW19270   0.430   0.698  17.182  0.2982  0.2835  0.6350
 2603SOL    HW119271   0.356   0.692  17.121 -0.8796  1.2720  1.9864
 2603SOL    HW219272   0.411   0.772  17.239  1.5112  0.0859  1.2932
 2604SOL     OW19273   2.332   1.056   8.043 -0.2652  0.3897 -0.6887
 2604SOL    HW119274   2.426   1.064   8.026 -0.0703 -1.3745 -0.3827
 2604SOL    HW219275   2.307   1.045   7.951 -2.7592  1.5104 -0.1544
 2605SOL     OW19276   1.159   2.564   7.129 -0.4607 -0.9067 -0.0716
 2605SOL    HW119277   1.144   2.546   7.036 -1.2271 -0.5873 -0.0070
 2605SOL    HW219278   1.069   2.558   7.161  0.5095  0.2602  2.8545
 2606SOL     OW19279   4.275   3.263  16.647  0.4145 -0.3115  0.2404
 2606SOL    HW119280   4.223   3.325  16.596 -0.7731 -0.5273  1.1840
 2606SOL    HW219281   4.217   3.247  16.721 -0.7571 -0.5325 -0.7209
 2607SOL     OW19282   2.915   0.405   3.908 -0.2634 -0.4184 -0.2250
 2607SOL    HW119283   2.841   0.345   3.897 -1.1797  0.6747 -0.0064
 2607SOL    HW219284   2.872   0.486   3.883 -0.1577  0.1518  1.4329
 2608SOL     OW19285   4.329   2.196  12.254 -0.1511  0.8700 -0.3276
 2608SOL    HW119286   4.359   2.119  12.205 -2.3302 -0.2627  0.0914
 2608SOL    HW219287   4.304   2.157  12.338 -0.1062  0.0174 -0.7019
 2609SOL     OW19288   3.677   0.374   6.875  0.3389 -0.1632  0.4404
 2609SOL    HW119289   3.683   0.406   6.965 -2.0960 -0.6135  0.7560
 2609SOL    HW219290   3.629   0.295   6.896 -1.9945  1.7557  2.2687
 2610SOL     OW19291   4.375   2.001   9.568  0.0240 -0.2836  0.2384
 2610SOL    HW119292   4.339   1.915   9.550  0.6244 -0.3469 -0.6911
 2610SOL    HW219293   4.310   2.040   9.625 -1.4766 -1.3052 -0.7831
 2611SOL     OW19294   2.195   3.704   6.499 -0.8100 -0.3430 -0.3572
 2611SOL    HW119295   2.245   3.782   6.480  2.2021 -2.3486 -0.5730
 2611SOL    HW219296   2.119   3.739   6.546 -0.1279  0.2837  0.2575
 2612SOL     OW19297   4.136   1.940   7.930  0.1799 -0.1448 -0.0173
 2612SOL    HW119298   4.169   1.986   8.007 -0.7357 -2.0642  1.5313
 2612SOL    HW219299   4.200   1.965   7.863  0.3473  0.8866  0.5334
 2613SOL     OW19300   1.705   3.556   9.676  0.2070  0.0757 -0.3575
 2613SOL    HW119301   1.674   3.639   9.712 -2.6303 -0.7855 -0.7837
 2613SOL    HW219302   1.736   3.596   9.594  3.3948  0.1718  0.8882
 2614SOL     OW19303   2.596   3.140   0.549  0.6570  0.0247  0.5298
 2614SOL    HW119304   2.508   3.103   0.542  0.6326 -0.2982  2.6376
 2614SOL    HW219305   2.612   3.138   0.643 -0.3791 -1.8193  0.6611
 2615SOL     OW19306   4.461   0.977  13.919 -0.5582  0.1654  0.1720
 2615SOL    HW119307   4.529   0.997  13.984 -0.6771 -1.2302  0.7408
 2615SOL    HW219308   4.416   1.061  13.915 -1.9153 -0.4585  2.7282
 2616SOL     OW19309   3.247   4.397   8.306 -0.1490 -0.2870  0.2475
 2616SOL    HW119310   3.225   4.438   8.222 -0.7503  1.2509  1.1442
 2616SOL    HW219311   3.341   4.383   8.304 -0.5928 -3.2045  0.7594
 2617SOL     OW19312   3.918   3.580  16.253  0.1514 -0.0436  0.3654
 2617SOL    HW119313   3.986   3.648  16.251 -1.5206  1.6151 -0.4126
 2617SOL    HW219314   3.891   3.591  16.345 -0.1938 -1.1794  0.3982
 2618SOL     OW19315   2.573   0.052   6.279  0.3842  0.6266  0.6968
 2618SOL    HW119316   2.602   4.710   6.217 -1.2834  0.5764 -0.0156
 2618SOL    HW219317   2.513   0.094   6.218  1.5478  0.4397 -0.5778
 2619SOL     OW19318   2.464   0.078   9.405 -0.0473  0.1363  0.1489
 2619SOL    HW119319   2.556   0.061   9.386 -0.3429 -3.4306  1.8104
 2619SOL    HW219320   2.425   4.716   9.409 -1.5658  0.8283  0.4118
 2620SOL     OW19321   1.491   4.434   5.952 -0.1102 -0.2205 -0.4793
 2620SOL    HW119322   1.473   4.356   5.899  0.0727 -0.5933  0.0047
 2620SOL    HW219323   1.442   4.403   6.029  0.5872 -1.1824 -0.4286
 2621SOL     OW19324   2.089   4.545  11.533 -0.0444  0.5833 -0.1578
 2621SOL    HW119325   2.176   4.572  11.504  0.2877 -1.8079 -1.4234
 2621SOL    HW219326   2.077   4.480  11.464 -1.1519 -0.6877  1.2219
 2622SOL     OW19327   2.219   2.801   8.576 -0.0478 -0.0951  0.5291
 2622SOL    HW119328   2.171   2.791   8.494 -0.9862 -1.8609  1.2975
 2622SOL    HW219329   2.166   2.863   8.626 -0.3723  0.1746 -0.1496
 2623SOL     OW19330   0.473   3.341   2.741 -0.7512 -0.4557 -0.0185
 2623SOL    HW119331   0.412   3.412   2.718 -0.6834 -1.0720 -2.0790
 2623SOL    HW219332   0.497   3.292   2.662 -2.1933 -0.3528 -0.5270
 2624SOL     OW19333   4.183   2.889   5.439  0.4714 -0.5616  0.4009
 2624SOL    HW119334   4.094   2.919   5.419  0.7630  1.7082  2.4137
 2624SOL    HW219335   4.236   2.966   5.416 -0.4496  0.1383  0.6257
 2625SOL     OW19336   1.507   1.108   9.443 -0.3006  0.3558 -0.6602
 2625SOL    HW119337   1.465   1.187   9.409 -0.7551  0.0410 -0.8428
 2625SOL    HW219338   1.554   1.080   9.364  0.1957 -1.2586  0.2115
 2626SOL     OW19339   0.760   0.172  13.784 -0.3415  0.0958 -0.4786
 2626SOL    HW119340   0.801   0.170  13.870  1.7299 -0.2571 -1.4533
 2626SOL    HW219341   0.745   0.081  13.759 -0.4873 -0.2034  0.7221
 2627SOL     OW19342   2.453   4.058  13.998 -0.0587 -0.5255 -0.4756
 2627SOL    HW119343   2.457   4.087  14.089  0.7586 -1.8003 -0.1065
 2627SOL    HW219344   2.545   4.044  13.976  0.3286  0.3506  0.5458
 2628SOL     OW19345   0.512   3.840   5.465  0.2035 -0.3271  0.2743
 2628SOL    HW119346   0.504   3.914   5.525  0.5107  1.0635 -1.4016
 2628SOL    HW219347   0.570   3.783   5.516  2.6440  1.0835 -0.8793
 2629SOL     OW19348   1.033   2.695   5.828  0.5942 -0.4264 -0.0084
 2629SOL    HW119349   0.989   2.672   5.746 -2.8601 -0.2655  1.7814
 2629SOL    HW219350   0.976   2.757   5.875 -2.6064 -3.3833  0.0313
 2630SOL     OW19351   3.045   3.578   6.329  0.1010  0.4129 -0.0436
 2630SOL    HW119352   3.029   3.517   6.400  0.8616  1.0273  0.6549
 2630SOL    HW219353   2.971   3.559   6.271 -0.9753 -1.1447  1.8142
 2631SOL     OW19354   2.185   0.141  15.994 -0.1006  0.1038  0.1362
 2631SOL    HW119355   2.175   0.208  15.926  1.3264 -0.5828 -0.7574
 2631SOL    HW219356   2.246   0.078  15.956 -0.9988 -1.2587  0.9785
 2632SOL     OW19357   0.766   0.633  16.783 -0.5095 -0.6347 -0.0767
 2632SOL    HW119358   0.841   0.691  16.774 -0.7741 -0.2302  0.3668
 2632SOL    HW219359   0.742   0.645  16.691 -0.2740  2.3607  0.2586
 2633SOL     OW19360   1.441   0.687   8.096 -0.3975  0.0450 -0.0728
 2633SOL    HW119361   1.428   0.758   8.159  2.3726  1.2202 -0.8084
 2633SOL    HW219362   1.533   0.670   8.117 -0.7178 -0.3931  0.9901
 2634SOL     OW19363   1.589   0.308   4.682 -0.2087  0.3202 -0.2413
 2634SOL    HW119364   1.627   0.384   4.638  0.7730 -0.4995 -0.7981
 2634SOL    HW219365   1.671   0.266   4.709 -1.1012 -0.8743  0.6199
 2635SOL     OW19366   1.905   2.372   5.507 -1.0087  0.3073 -0.0963
 2635SOL    HW119367   1.960   2.409   5.438  0.4484  0.1337  0.9981
 2635SOL    HW219368   1.931   2.280   5.517 -0.8400  0.6590  2.6183
 2636SOL     OW19369   1.606   1.022  11.846  0.6500  0.0275  0.3661
 2636SOL    HW119370   1.524   1.022  11.896 -0.2073 -3.5066 -1.0736
 2636SOL    HW219371   1.653   0.944  11.875 -0.3997 -0.7567 -0.0483
 2637SOL     OW19372   3.225   1.370  11.676 -0.1838 -0.1361 -0.4961
 2637SOL    HW119373   3.163   1.339  11.740  0.6586 -2.4616 -0.8225
 2637SOL    HW219374   3.257   1.289  11.636 -0.3284 -0.3615 -0.1493
 2638SOL     OW19375   4.048   3.145   1.091 -0.4183 -0.2513 -0.1657
 2638SOL    HW119376   4.005   3.229   1.076  1.0740  0.7752  1.3186
 2638SOL    HW219377   4.080   3.122   1.004 -1.1551 -0.9716 -0.2487
 2639SOL     OW19378   3.268   3.895   4.756 -0.3116  0.9555 -0.0627
 2639SOL    HW119379   3.221   3.812   4.758  2.5793 -0.7471 -2.2378
 2639SOL    HW219380   3.359   3.864   4.749 -0.6775 -0.0286 -0.4170
 2640SOL     OW19381   1.432   0.255  10.204 -0.0134 -0.2340  0.4554
 2640SOL    HW119382   1.395   0.302  10.278  1.0668  0.1083  0.7696
 2640SOL    HW219383   1.485   0.183  10.237 -0.3433 -0.2662  0.9068
 2641SOL     OW19384   2.309   1.513   0.996 -0.3971 -0.1495  0.6451
 2641SOL    HW119385   2.348   1.485   0.914 -1.3868  0.0262  0.1069
 2641SOL    HW219386   2.217   1.502   0.970  0.0498 -1.9821 -0.1314
 2642SOL     OW19387   1.149   1.587   8.699  0.2400 -0.2759 -0.4721
 2642SOL    HW119388   1.189   1.533   8.767  0.8125  0.8780  0.1059
 2642SOL    HW219389   1.087   1.522   8.665  1.5863  0.3163 -4.0894
 2643SOL     OW19390   4.582   4.091  15.753 -0.6385  0.0524  0.2487
 2643SOL    HW119391   4.497   4.063  15.788 -1.6144  1.2129 -1.2304
 2643SOL    HW219392   4.575   4.058  15.664  1.2198 -0.8478  0.4434
 2644SOL     OW19393   0.759   0.866   6.271 -0.0002 -0.5664  0.0224
 2644SOL    HW119394   0.690   0.892   6.210 -0.2142 -0.0544  0.4932
 2644SOL    HW219395   0.716   0.786   6.301 -0.2425 -0.0453  1.0284
 2645SOL     OW19396   1.017   4.181  13.652 -0.0475 -0.3340 -0.3697
 2645SOL    HW119397   0.993   4.271  13.629  0.5894 -0.3557 -1.1392
 2645SOL    HW219398   0.953   4.129  13.602 -0.0503  0.3585 -1.0934
 2646SOL     OW19399   3.262   1.877   3.465 -0.7122  0.5040  0.1600
 2646SOL    HW119400   3.347   1.883   3.508 -0.1936 -1.1999 -0.6597
 2646SOL    HW219401   3.286   1.805   3.407  0.0517  0.6259  0.3222
 2647SOL     OW19402   0.145   2.623   6.431 -0.2462 -0.5113 -0.1459
 2647SOL    HW119403   0.147   2.554   6.365 -1.2693 -4.0266  3.4993
 2647SOL    HW219404   0.049   2.623   6.429 -0.2711 -0.0499  0.8259
 2648SOL     OW19405   2.323   4.602   2.478 -0.0919 -0.0241  0.6454
 2648SOL    HW119406   2.235   4.640   2.473  0.4823  1.3627  1.2681
 2648SOL    HW219407   2.298   4.515   2.510  1.5837 -0.4942  0.6563
 2649SOL     OW19408   1.867   2.622   0.301  0.4687  0.1388  0.9583
 2649SOL    HW119409   1.859   2.544   0.247 -0.7296  0.7733  0.2339
 2649SOL    HW219410   1.832   2.682   0.235  1.6405  0.6821  0.8331
 2650SOL     OW19411   1.467   1.541  15.736 -0.3902 -0.0778  0.5410
 2650SOL    HW119412   1.435   1.587  15.658  0.4401 -1.5655 -0.6551
 2650SOL    HW219413   1.385   1.498  15.763 -1.2013  1.0096 -0.1922
 2651SOL     OW19414   2.263   0.305   7.708  0.3790 -0.1892  0.3055
 2651SOL    HW119415   2.264   0.211   7.690 -1.1530 -0.2993  0.7658
 2651SOL    HW219416   2.310   0.333   7.630  0.1166 -2.2844 -0.6114
 2652SOL     OW19417   3.212   3.296   3.645 -0.4433 -0.1334  1.0619
 2652SOL    HW119418   3.284   3.324   3.588 -1.1477  0.9944  0.7449
 2652SOL    HW219419   3.222   3.201   3.650 -0.9566 -0.2890 -0.8240
 2653SOL     OW19420   2.849   4.066   6.050  0.0861 -0.8749 -0.8270
 2653SOL    HW119421   2.932   4.092   6.010 -0.6372  0.0820 -1.6988
 2653SOL    HW219422   2.796   4.117   5.988  0.4112  0.3360 -0.1100
 2654SOL     OW19423   2.225   3.485  13.581 -0.0284  0.5071 -0.5751
 2654SOL    HW119424   2.136   3.455  13.600  0.7771 -1.6404 -0.1487
 2654SOL    HW219425   2.266   3.402  13.605 -2.5734 -0.4966  0.3363
 2655SOL     OW19426   1.505   1.416   3.061  0.2115 -0.0615 -0.2419
 2655SOL    HW119427   1.486   1.329   3.097 -0.8082 -0.6159 -2.1215
 2655SOL    HW219428   1.415   1.447   3.051 -0.1590 -0.6469  1.2741
 2656SOL     OW19429   2.746   4.093   5.423 -0.2123 -0.3687  0.2627
 2656SOL    HW119430   2.749   4.046   5.507  0.8260 -1.7620 -0.5491
 2656SOL    HW219431   2.821   4.152   5.424  0.1218 -0.7689 -1.2622
 2657SOL     OW19432   3.909   1.087   5.733  0.4707  0.2883 -0.0022
 2657SOL    HW119433   3.847   1.077   5.805 -0.1065  1.2066 -0.3762
 2657SOL    HW219434   3.853   1.076   5.656 -0.0931  1.4763  0.2440
 2658SOL     OW19435   1.878   0.801  12.937  0.2344  0.0736 -0.3482
 2658SOL    HW119436   1.788   0.828  12.957 -0.2703 -0.3898 -2.0078
 2658SOL    HW219437   1.853   0.735  12.872 -0.1160 -0.1864  0.0517
 2659SOL     OW19438   3.414   2.306   9.211 -0.4459  0.2437  0.1357
 2659SOL    HW119439   3.491   2.307   9.267 -0.8490  0.6485  0.6738
 2659SOL    HW219440   3.345   2.268   9.265 -0.7166  0.3718 -0.1176
 2660SOL     OW19441   2.937   2.298   1.753  0.0662  0.2942  0.2231
 2660SOL    HW119442   2.860   2.247   1.730  0.5623 -0.3478 -0.0196
 2660SOL    HW219443   2.986   2.305   1.671 -2.1215  1.6100 -0.9533
 2661SOL     OW19444   0.143   1.642   8.302 -0.3063 -0.2110  0.3128
 2661SOL    HW119445   0.161   1.554   8.268 -0.9808 -0.0405 -0.4950
 2661SOL    HW219446   0.080   1.632   8.373 -4.0612 -0.1112 -3.0452
 2662SOL     OW19447   3.783   3.191   4.184 -0.0101 -0.1347 -0.2664
 2662SOL    HW119448   3.766   3.235   4.267 -1.1851 -0.6343 -0.2481
 2662SOL    HW219449   3.695   3.161   4.163 -0.5596  3.3522 -2.8796
 2663SOL     OW19450   4.696   1.102   0.963 -0.2305 -0.5441  0.3338
 2663SOL    HW119451   0.039   1.138   0.906 -1.8919  0.7215 -0.8423
 2663SOL    HW219452   4.648   1.042   0.906  1.5786 -2.3681  0.7298
 2664SOL     OW19453   4.495   3.805   5.020  0.4067 -0.0745 -0.1570
 2664SOL    HW119454   4.530   3.786   5.107 -1.1129 -1.2952  0.1870
 2664SOL    HW219455   4.558   3.763   4.961 -0.7379 -1.2028 -0.5632
 2665SOL     OW19456   0.512   1.290   3.449  0.1947 -0.3170 -0.7268
 2665SOL    HW119457   0.526   1.237   3.370 -0.3037 -1.4105 -0.0813
 2665SOL    HW219458   0.446   1.243   3.500  0.2411  0.4506  0.0383
 2666SOL     OW19459   4.589   2.296  12.817  0.2584 -0.0582 -0.2732
 2666SOL    HW119460   4.539   2.218  12.793 -3.3879  1.9778  0.7214
 2666SOL    HW219461   4.573   2.347  12.737  0.6165 -0.1332 -0.3927
 2667SOL     OW19462   2.082   2.098   0.697  0.0894 -0.6226  0.2114
 2667SOL    HW119463   2.052   2.185   0.724  1.3657 -1.1260  3.2226
 2667SOL    HW219464   2.023   2.081   0.624  0.1485 -3.2777  0.7667
 2668SOL     OW19465   3.464   2.793   6.840  0.1884 -0.3415  0.1395
 2668SOL    HW119466   3.375   2.765   6.861 -0.5069 -0.0568 -2.4217
 2668SOL    HW219467   3.488   2.721   6.781 -2.0624  0.3685 -1.6080
 2669SOL     OW19468   4.609   0.138  14.307  0.6795 -0.0073  0.2780
 2669SOL    HW119469   4.574   0.224  14.283  2.5082  0.6963  0.2098
 2669SOL    HW219470   4.533   0.079  14.311  0.8487 -0.3653 -1.5472
 2670SOL     OW19471   2.867   2.567   9.247  0.3550 -0.0278 -0.5685
 2670SOL    HW119472   2.820   2.578   9.164  2.6228  1.6950 -1.6035
 2670SOL    HW219473   2.855   2.646   9.299  0.9040 -0.4771  0.2380
 2671SOL     OW19474   0.328   2.701   1.732  0.3136  0.5397 -0.1931
 2671SOL    HW119475   0.252   2.667   1.780  0.1205  1.5782  0.2350
 2671SOL    HW219476   0.283   2.769   1.682  0.3005 -0.1221 -1.0872
 2672SOL     OW19477   0.215   3.321  11.046  0.0071 -0.3245  0.1187
 2672SOL    HW119478   0.166   3.400  11.070 -1.6058 -1.3546  0.2534
 2672SOL    HW219479   0.157   3.249  11.071 -0.8620 -0.2095 -1.5385
 2673SOL     OW19480   1.277   2.550   9.620 -0.0750 -0.3691 -0.4197
 2673SOL    HW119481   1.211   2.483   9.601 -0.7209  0.6564 -1.8283
 2673SOL    HW219482   1.247   2.628   9.573  0.9822 -1.2270 -2.5505
 2674SOL     OW19483   2.483   2.458   8.735 -0.3516 -0.1482  0.5401
 2674SOL    HW119484   2.444   2.500   8.812  0.5476  0.4918  0.6412
 2674SOL    HW219485   2.576   2.461   8.757 -0.5735  0.2460  1.4380
 2675SOL     OW19486   1.855   3.983   4.034 -0.0320 -0.3710  0.2970
 2675SOL    HW119487   1.783   4.026   3.989  0.2837 -0.9306 -0.7522
 2675SOL    HW219488   1.922   3.971   3.967  0.5226 -2.7436  1.2650
 2676SOL     OW19489   4.149   0.868   5.902  1.0127  0.4411  0.1336
 2676SOL    HW119490   4.086   0.828   5.962  0.5676 -0.3683 -0.8682
 2676SOL    HW219491   4.113   0.837   5.819  0.0574 -1.3780  1.2193
 2677SOL     OW19492   1.936   2.972   4.555  0.0280  0.0675  0.0759
 2677SOL    HW119493   1.915   2.985   4.463 -1.6421 -0.4654  0.3842
 2677SOL    HW219494   1.990   3.048   4.577 -0.5213  0.1474  1.1487
 2678SOL     OW19495   1.605   3.641   6.731 -0.4051 -0.8011 -0.0173
 2678SOL    HW119496   1.695   3.625   6.758  0.1669 -1.5871 -2.3996
 2678SOL    HW219497   1.597   3.733   6.756  1.7943 -0.6153  0.0016
 2679SOL     OW19498   0.651   4.212   1.657  0.0762  0.0320 -0.3437
 2679SOL    HW119499   0.725   4.161   1.691 -0.9327 -1.0971  0.1780
 2679SOL    HW219500   0.699   4.272   1.600 -0.1528  2.0266  1.5681
 2680SOL     OW19501   2.896   3.815   2.417  0.0418  0.3845  0.1673
 2680SOL    HW119502   2.838   3.784   2.347 -0.8159  2.1940  0.0528
 2680SOL    HW219503   2.881   3.770   2.499 -1.3110 -1.4899 -1.1225
 2681SOL     OW19504   3.754   2.632  10.488  0.2143  0.1594  0.1693
 2681SOL    HW119505   3.663   2.610  10.466 -0.1915  1.5977  0.4151
 2681SOL    HW219506   3.788   2.543  10.482  0.8975  0.5674 -2.0646
 2682SOL     OW19507   2.223   0.872  13.386 -0.0703  0.4554  0.3567
 2682SOL    HW119508   2.247   0.836  13.301  1.3450  2.1894  0.0329
 2682SOL    HW219509   2.204   0.794  13.438 -0.7751  0.6188  0.3489
 2683SOL     OW19510   1.116   0.346   6.900  0.0032 -0.9565  0.4543
 2683SOL    HW119511   1.051   0.370   6.833  0.1330  2.1317  1.4323
 2683SOL    HW219512   1.107   0.251   6.901 -0.8454 -0.8801  0.7006
 2684SOL     OW19513   3.668   0.718   8.733  0.2057 -0.4520 -0.2503
 2684SOL    HW119514   3.696   0.755   8.817 -1.1913  0.6775 -0.2959
 2684SOL    HW219515   3.756   0.691   8.706  0.3062  0.1832 -0.5437
 2685SOL     OW19516   4.306   2.016  12.459  0.1158 -0.1685  0.8719
 2685SOL    HW119517   4.229   1.960  12.450  1.6345 -2.2751  1.1408
 2685SOL    HW219518   4.370   1.946  12.445  0.7065  0.8479 -1.5862
 2686SOL     OW19519   1.877   1.124   3.370  0.0500 -0.1846  0.1165
 2686SOL    HW119520   1.952   1.094   3.421  0.8833  0.1767 -0.8753
 2686SOL    HW219521   1.848   1.197   3.424 -0.1834  1.2503 -1.9666
 2687SOL     OW19522   1.148   0.541   0.008 -0.0889  0.0465 -0.5832
 2687SOL    HW119523   1.165   0.475   0.075 -0.9460  0.1129 -0.2923
 2687SOL    HW219524   1.083   0.597   0.052 -0.6690 -0.8264 -0.3188
 2688SOL     OW19525   1.788   3.707   3.306 -0.0105 -0.0403  0.0717
 2688SOL    HW119526   1.865   3.696   3.250  0.3148 -0.4880  0.6051
 2688SOL    HW219527   1.782   3.801   3.324  0.2688 -0.2486  1.2637
 2689SOL     OW19528   0.974   1.674   7.717  0.0648 -0.4157  0.5106
 2689SOL    HW119529   1.051   1.667   7.660 -1.3631  0.4201 -1.5402
 2689SOL    HW219530   0.919   1.725   7.658  3.0355  0.9970 -1.0366
 2690SOL     OW19531   3.282   4.104   8.561  0.2052 -0.0644 -0.2532
 2690SOL    HW119532   3.226   4.097   8.639  1.1277 -0.4563  0.3843
 2690SOL    HW219533   3.365   4.099   8.608  0.8091 -0.9206 -1.4224
 2691SOL     OW19534   4.061   3.111   6.562  0.2023 -0.0466  0.3718
 2691SOL    HW119535   4.111   3.103   6.643  0.6885 -1.8959 -0.1129
 2691SOL    HW219536   4.130   3.082   6.503 -1.5173  0.3987 -1.8293
 2692SOL     OW19537   4.279   0.303   3.383  0.1246  0.0490  0.0350
 2692SOL    HW119538   4.339   0.283   3.455 -0.1724  0.7619  0.4804
 2692SOL    HW219539   4.293   0.237   3.315 -0.5475  0.0561 -0.1097
 2693SOL     OW19540   3.676   3.940   4.140 -0.6511 -0.1669  0.0068
 2693SOL    HW119541   3.679   3.876   4.070  1.8195 -0.3197  0.2437
 2693SOL    HW219542   3.659   3.886   4.217 -1.4239 -1.9686 -1.4577
 2694SOL     OW19543   1.661   3.943   7.617 -0.5469  0.0177 -0.3626
 2694SOL    HW119544   1.706   3.859   7.612 -0.6446 -0.0372 -0.3253
 2694SOL    HW219545   1.728   4.004   7.648  0.4878 -0.4656 -1.6781
 2695SOL     OW19546   1.342   3.172   7.414  0.2138 -0.1087  0.5940
 2695SOL    HW119547   1.294   3.207   7.338  0.4288 -2.0661 -0.4406
 2695SOL    HW219548   1.309   3.236   7.477  4.6660  1.9343  0.8324
 2696SOL     OW19549   0.236   2.191   1.977 -0.0578  0.0325  0.0465
 2696SOL    HW119550   0.258   2.234   2.059  0.4655  0.2668 -0.2190
 2696SOL    HW219551   0.271   2.263   1.924  1.0267  1.2405  2.4138
 2697SOL     OW19552   1.869   3.606   6.824  0.2236  0.3779 -0.2675
 2697SOL    HW119553   1.891   3.577   6.912  0.9575  0.7888 -0.3139
 2697SOL    HW219554   1.888   3.699   6.818  0.1060  0.3670 -0.9035
 2698SOL     OW19555   0.841   0.403   9.992 -0.1503 -0.3426  0.2744
 2698SOL    HW119556   0.802   0.416   9.905  0.1383  0.1641  0.2235
 2698SOL    HW219557   0.897   0.480   9.995  1.2668 -1.3120 -0.9729
 2699SOL     OW19558   0.168   0.296   7.263  0.0386 -0.8602 -0.4487
 2699SOL    HW119559   0.150   0.231   7.331  0.8167 -2.5638 -1.8623
 2699SOL    HW219560   0.097   0.357   7.283  0.3900  0.3401 -2.8959
 2700SOL     OW19561   4.604   3.952   2.072  0.1249 -0.0734 -0.3538
 2700SOL    HW119562   4.694   3.938   2.043  0.5060 -0.6090  1.0542
 2700SOL    HW219563   4.573   3.862   2.058 -1.6265  0.2751  1.2484
 2701SOL     OW19564   1.157   0.684   7.983 -0.0449  0.2566 -0.0660
 2701SOL    HW119565   1.122   0.685   7.895 -1.5793 -0.2541  0.5389
 2701SOL    HW219566   1.242   0.642   7.973  0.1050  0.1119  1.7474
 2702SOL     OW19567   2.132   2.661   5.956  0.2305 -0.0755 -0.0331
 2702SOL    HW119568   2.068   2.695   6.018  1.0822  0.2500  0.6657
 2702SOL    HW219569   2.196   2.732   5.956 -0.3655  0.4638  1.0823
 2703SOL     OW19570   0.073   4.227   3.451 -0.5405  0.2601 -0.0806
 2703SOL    HW119571   4.706   4.253   3.455 -0.3168  1.0344  0.2063
 2703SOL    HW219572   0.079   4.240   3.356 -2.0130 -0.9715 -0.3345
 2704SOL     OW19573   1.670   3.656  10.838 -0.0004  0.9360  0.1678
 2704SOL    HW119574   1.730   3.608  10.781 -1.0542  1.3118 -1.2617
 2704SOL    HW219575   1.688   3.744  10.805 -2.7255  0.3390 -2.9213
 2705SOL     OW19576   1.720   3.512   7.809  0.2429 -0.2662  0.2184
 2705SOL    HW119577   1.731   3.424   7.773  2.8482 -0.0171  0.3849
 2705SOL    HW219578   1.734   3.567   7.731  3.1736  2.4292  2.6488
 2706SOL     OW19579   1.898   0.311   1.846  0.0450  0.2078  0.3541
 2706SOL    HW119580   1.805   0.321   1.867  0.0343  1.4841 -0.3116
 2706SOL    HW219581   1.898   0.272   1.758 -0.8264  0.5498  0.1989
 2707SOL     OW19582   1.852   3.231   1.962 -0.3279 -0.0220 -0.0922
 2707SOL    HW119583   1.834   3.242   2.056 -2.5615  0.5102 -0.5960
 2707SOL    HW219584   1.786   3.165   1.942  0.7466 -1.7619  2.1221
 2708SOL     OW19585   1.795   2.009   3.607 -0.4713  0.2189 -0.5883
 2708SOL    HW119586   1.798   1.963   3.690  1.8845  1.5321  0.0385
 2708SOL    HW219587   1.716   2.063   3.612 -0.0856  0.7759 -0.4869
 2709SOL     OW19588   0.321   3.359  13.692 -0.2678 -0.0406 -0.0257
 2709SOL    HW119589   0.329   3.405  13.775  1.8356 -1.6089  0.6611
 2709SOL    HW219590   0.341   3.437  13.641  0.9147  0.5866  1.4118
 2710SOL     OW19591   3.514   0.574  14.238  0.0922  0.4793 -0.6001
 2710SOL    HW119592   3.542   0.583  14.147 -1.6039 -0.0374 -1.1789
 2710SOL    HW219593   3.423   0.601  14.231  0.1220  0.8344  0.4967
 2711SOL     OW19594   1.017   3.042   3.469  0.3474  1.0778 -0.2751
 2711SOL    HW119595   0.922   3.043   3.461  0.0629 -1.7123  2.8238
 2711SOL    HW219596   1.032   3.130   3.436  0.3418 -0.1598 -3.6267
 2712SOL     OW19597   1.560   1.763   3.094 -0.8330 -0.0548 -0.3362
 2712SOL    HW119598   1.466   1.741   3.093 -0.8696  0.1144 -0.7939
 2712SOL    HW219599   1.600   1.713   3.165 -0.5054 -2.0039 -1.8745
 2713SOL     OW19600   1.743   1.583   4.083  0.0712 -0.1213 -0.3164
 2713SOL    HW119601   1.693   1.638   4.022  0.9685 -1.2753 -2.0707
 2713SOL    HW219602   1.821   1.635   4.100 -0.9022  0.6841  1.7791
 2714SOL     OW19603   4.551   0.324   2.282  0.3015 -0.9678 -0.1645
 2714SOL    HW119604   4.639   0.343   2.315  0.4809 -1.5346 -0.3098
 2714SOL    HW219605   4.496   0.301   2.357 -2.4390 -0.5531 -2.0646
 2715SOL     OW19606   2.684   0.819  15.205  0.1153  1.1124  0.6273
 2715SOL    HW119607   2.626   0.813  15.281 -0.6107 -2.5009 -0.2420
 2715SOL    HW219608   2.764   0.832  15.256 -0.3882 -0.9713  1.9289
 2716SOL     OW19609   1.130   1.209  16.099  0.5211 -0.2390 -0.2414
 2716SOL    HW119610   1.035   1.220  16.098  0.4281 -1.1961 -1.7985
 2716SOL    HW219611   1.161   1.300  16.099  1.0030 -0.4021  0.8957
 2717SOL     OW19612   1.694   2.014   5.047  0.1434 -0.0406  0.1111
 2717SOL    HW119613   1.774   2.043   5.090  0.5614 -0.2216 -0.5594
 2717SOL    HW219614   1.705   2.054   4.961 -0.9456  1.2983  0.5802
 2718SOL     OW19615   2.938   0.178   6.752 -0.3146  0.3635  0.1283
 2718SOL    HW119616   2.880   0.219   6.688 -0.4346 -0.1950 -0.1171
 2718SOL    HW219617   3.022   0.209   6.717 -0.1883 -1.0569 -0.8278
 2719SOL     OW19618   0.492   4.314   2.854 -0.5914 -0.2189  0.1963
 2719SOL    HW119619   0.585   4.294   2.865 -0.8521 -0.9642  1.0535
 2719SOL    HW219620   0.482   4.398   2.810 -1.6432  0.1127  1.0709
 2720SOL     OW19621   3.282   0.063   7.483  0.4475  0.2222  0.4611
 2720SOL    HW119622   3.366   0.019   7.465  0.1451  1.0047 -2.7888
 2720SOL    HW219623   3.307   0.154   7.470 -0.4153  0.4569  0.5037
 2721SOL     OW19624   2.759   3.230   5.108 -0.6249 -0.5797 -0.2342
 2721SOL    HW119625   2.751   3.298   5.175 -0.6207 -1.0283  0.2201
 2721SOL    HW219626   2.786   3.157   5.164 -0.2085  0.2775  0.6811
 2722SOL     OW19627   1.695   4.634   7.096 -0.3613 -0.1881  0.3440
 2722SOL    HW119628   1.721   4.639   7.188 -1.0749 -0.1976  0.5409
 2722SOL    HW219629   1.650   4.549   7.092  0.0367 -0.3041 -1.8300
 2723SOL     OW19630   1.032   2.503  16.765  0.4159  0.2910 -0.1479
 2723SOL    HW119631   1.067   2.590  16.786  2.3502  0.1618 -2.7013
 2723SOL    HW219632   1.056   2.498  16.672 -1.1259 -1.0207 -0.4748
 2724SOL     OW19633   2.332   2.958   3.479  0.5968  0.3233 -0.2220
 2724SOL    HW119634   2.241   2.977   3.500  0.2474 -0.3838 -1.0861
 2724SOL    HW219635   2.363   2.912   3.557 -0.3704  0.9606  0.5412
 2725SOL     OW19636   2.412   1.285   2.686 -0.4028  0.9681 -0.9041
 2725SOL    HW119637   2.502   1.291   2.717 -0.9212  1.9246  0.4301
 2725SOL    HW219638   2.366   1.266   2.768 -0.4036  0.7110 -0.9635
 2726SOL     OW19639   1.506   3.885   4.003 -0.7222  0.0051  0.3569
 2726SOL    HW119640   1.589   3.891   4.052 -0.3753  1.3257 -0.3975
 2726SOL    HW219641   1.489   3.979   3.992 -0.5355  0.0837  0.7349
 2727SOL     OW19642   3.109   3.639   9.934 -0.0161 -0.3027  0.5234
 2727SOL    HW119643   3.037   3.579   9.955  0.6745 -1.4131 -0.2917
 2727SOL    HW219644   3.144   3.657  10.021  1.4451 -0.8667  0.0495
 2728SOL     OW19645   1.264   4.339   3.291  0.2849 -0.1247 -0.4277
 2728SOL    HW119646   1.280   4.251   3.325  1.2431  0.9852  2.0742
 2728SOL    HW219647   1.181   4.330   3.244  0.5491  0.2386 -0.9662
 2729SOL     OW19648   1.141   4.343   4.585  0.0413  0.1544  0.0169
 2729SOL    HW119649   1.230   4.309   4.599  1.0180  2.5151 -0.4917
 2729SOL    HW219650   1.138   4.410   4.653  3.3599  1.2322 -0.8947
 2730SOL     OW19651   2.366   4.692   6.602 -0.1221  0.3795 -0.8444
 2730SOL    HW119652   2.393   0.058   6.610  0.9350 -0.0166  0.0623
 2730SOL    HW219653   2.437   4.641   6.641  1.6593  2.3770 -1.4744
 2731SOL     OW19654   3.273   3.663  11.239 -0.0457  0.3429 -0.6795
 2731SOL    HW119655   3.241   3.747  11.207  0.1013 -0.2597 -2.4353
 2731SOL    HW219656   3.260   3.682  11.332  0.1138 -0.5057 -0.4840
 2732SOL     OW19657   1.930   1.649  12.896  0.1238 -0.3430 -0.5750
 2732SOL    HW119658   1.948   1.743  12.891  0.4254 -0.4328 -1.1384
 2732SOL    HW219659   1.900   1.650  12.987  1.0175 -0.5779 -0.2802
 2733SOL     OW19660   2.824   1.408   3.926  0.5424 -0.1619  0.1134
 2733SOL    HW119661   2.851   1.493   3.890 -0.2944  0.6531  1.3949
 2733SOL    HW219662   2.734   1.430   3.949  0.9001 -0.5429  1.8721
 2734SOL     OW19663   1.096   2.344   5.045 -0.4065  0.4410  0.1627
 2734SOL    HW119664   1.011   2.344   5.088  0.1908 -2.0079  1.3272
 2734SOL    HW219665   1.161   2.300   5.100  0.7973 -1.9987 -3.1478
 2735SOL     OW19666   4.288   3.606   1.489 -0.1696  0.3626  0.6104
 2735SOL    HW119667   4.315   3.673   1.427  0.5652 -0.8182 -0.3286
 2735SOL    HW219668   4.197   3.630   1.507  0.1835  1.4569  0.9734
 2736SOL     OW19669   1.471   4.053  11.765  0.1614  0.1455 -0.4049
 2736SOL    HW119670   1.545   4.024  11.819  0.6215  1.2057 -0.4662
 2736SOL    HW219671   1.403   3.991  11.793  1.2360 -0.2781  1.2969
 2737SOL     OW19672   0.154   0.477   3.221  0.1022  0.8240  0.0153
 2737SOL    HW119673   0.230   0.427   3.252 -0.4630  0.9583  1.6410
 2737SOL    HW219674   0.094   0.481   3.295 -1.2180  1.1582 -1.0871
 2738SOL     OW19675   4.547   0.558   3.078  0.0955  0.0980  0.4871
 2738SOL    HW119676   4.456   0.534   3.095 -0.0465  1.4507  1.6212
 2738SOL    HW219677   4.596   0.520   3.151 -0.5414  2.1538  2.0059
 2739SOL     OW19678   4.449   3.089  16.533 -0.8446 -0.6618  0.4630
 2739SOL    HW119679   4.381   3.064  16.471  0.7816  0.0508 -1.6142
 2739SOL    HW219680   4.395   3.155  16.578  1.3990  1.0005  0.7343
 2740SOL     OW19681   0.058   0.550   4.231  0.0195 -0.0605  0.6169
 2740SOL    HW119682   0.063   0.524   4.323 -2.4709  0.3519  0.8669
 2740SOL    HW219683   0.003   0.628   4.238 -1.5518 -1.1512  0.4624
 2741SOL     OW19684   4.303   4.269   2.568 -0.3334 -0.4405  0.7246
 2741SOL    HW119685   4.339   4.356   2.549 -1.1505 -0.2524  0.0220
 2741SOL    HW219686   4.282   4.236   2.480  0.5524  1.7670 -0.3274
 2742SOL     OW19687   1.580   4.451  16.409  0.1008 -0.4411  0.0213
 2742SOL    HW119688   1.557   4.399  16.332 -2.3806  0.8974 -0.1539
 2742SOL    HW219689   1.503   4.508  16.412 -0.1049 -0.7118 -0.1051
 2743SOL     OW19690   0.180   2.948   4.435  0.2131 -0.1844  0.1649
 2743SOL    HW119691   0.173   2.956   4.530 -2.8455  0.5074 -0.1338
 2743SOL    HW219692   0.164   2.854   4.429  2.0342 -0.4763 -0.1380
 2744SOL     OW19693   3.366   4.386   5.560  0.2671 -0.0032  0.1084
 2744SOL    HW119694   3.302   4.456   5.548  1.2535  1.1760  1.6182
 2744SOL    HW219695   3.388   4.377   5.468  0.3105 -2.4682  0.3613
 2745SOL     OW19696   3.946   0.754   3.844 -0.1648  0.0757 -0.2234
 2745SOL    HW119697   3.935   0.849   3.856 -0.6270 -0.0866  0.6581
 2745SOL    HW219698   3.958   0.732   3.936 -0.4494 -0.0146 -0.2070
 2746SOL     OW19699   2.894   3.169   0.400  0.1630 -0.3935 -0.1104
 2746SOL    HW119700   2.950   3.095   0.377  0.1144  0.0413 -1.6597
 2746SOL    HW219701   2.900   3.169   0.495 -0.0415  0.5477 -0.0959
 2747SOL     OW19702   2.021   1.387   4.942  0.4065 -0.1259  0.1330
 2747SOL    HW119703   2.004   1.480   4.956 -3.5114 -1.0419  1.2807
 2747SOL    HW219704   2.105   1.384   4.988 -0.1004 -0.6300  1.0035
 2748SOL     OW19705   2.466   1.708   6.920 -0.1204 -0.1426 -0.3392
 2748SOL    HW119706   2.548   1.680   6.880 -1.6331 -1.4102 -2.5300
 2748SOL    HW219707   2.494   1.735   7.008  0.4552  0.1989 -0.6324
 2749SOL     OW19708   4.289   3.751   2.746  0.0959  0.1360  0.1999
 2749SOL    HW119709   4.336   3.776   2.825  0.1981 -0.4471  0.3216
 2749SOL    HW219710   4.346   3.687   2.701 -0.7804 -1.2466  1.0705
 2750SOL     OW19711   4.589   4.677   3.635  0.3214 -0.1059  0.0998
 2750SOL    HW119712   4.611   4.677   3.542 -2.5891  1.3578 -0.5717
 2750SOL    HW219713   4.509   0.004   3.631 -1.4957 -2.6792  2.6514
 2751SOL     OW19714   3.070   4.043  12.887 -0.0814 -0.7933  0.2242
 2751SOL    HW119715   3.124   4.051  12.966 -0.8677  0.4631  0.6295
 2751SOL    HW219716   3.092   3.950  12.875  1.9269 -0.1233 -1.3209
 2752SOL     OW19717   1.111   3.696   7.505  0.2565  0.9867  0.0253
 2752SOL    HW119718   1.151   3.615   7.537  1.1150  1.5094  0.2813
 2752SOL    HW219719   1.126   3.755   7.579 -0.6342 -0.1139  1.0729
 2753SOL     OW19720   2.848   4.089   3.748 -0.0264  0.0764  0.0406
 2753SOL    HW119721   2.839   4.181   3.773  1.3278 -0.5463  2.7630
 2753SOL    HW219722   2.812   4.091   3.659  3.2732  2.5695 -1.2935
 2754SOL     OW19723   3.266   3.392   9.871  0.1261  0.0237 -0.6960
 2754SOL    HW119724   3.204   3.465   9.873 -2.4710 -2.2015 -0.0334
 2754SOL    HW219725   3.325   3.421   9.941 -0.2490  2.0464 -1.2219
 2755SOL     OW19726   2.552   1.182  13.895  0.3229 -0.2194  0.4705
 2755SOL    HW119727   2.480   1.171  13.832  0.0443 -1.7411  1.0581
 2755SOL    HW219728   2.626   1.144  13.848  2.7985  2.6725  2.0371
 2756SOL     OW19729   3.650   2.589  15.107  0.0344  0.4781  0.2488
 2756SOL    HW119730   3.631   2.523  15.039 -1.0995  1.7239 -0.6318
 2756SOL    HW219731   3.704   2.532  15.162  2.8229  2.2886 -0.6208
 2757SOL     OW19732   0.485   2.178   3.709 -0.4766 -0.2091 -0.5757
 2757SOL    HW119733   0.527   2.178   3.795 -1.1227 -2.3876 -0.2500
 2757SOL    HW219734   0.395   2.157   3.734 -0.4717  1.9438  1.2992
 2758SOL     OW19735   2.777   3.615   2.622 -0.1143  0.2943 -0.2174
 2758SOL    HW119736   2.783   3.573   2.536 -2.0369 -0.0111 -0.1941
 2758SOL    HW219737   2.816   3.549   2.679  0.0182 -2.0855 -3.0869
 2759SOL     OW19738   1.646   4.096  15.065 -0.2755  0.6453 -0.1823
 2759SOL    HW119739   1.639   4.007  15.031 -1.0306  0.9248 -0.7542
 2759SOL    HW219740   1.578   4.142  15.016  0.5252  2.2645  0.2111
 2760SOL     OW19741   0.762   1.343   0.093 -0.0472 -0.0455  0.1218
 2760SOL    HW119742   0.764   1.437   0.075 -1.1669  0.1396  0.9450
 2760SOL    HW219743   0.750   1.306   0.006 -0.6420  0.9843 -0.2275
 2761SOL     OW19744   3.220   2.441   1.775 -0.5604 -0.1584  0.1810
 2761SOL    HW119745   3.175   2.407   1.697 -1.0186 -0.7599  0.7156
 2761SOL    HW219746   3.216   2.358   1.822  1.0439 -0.7493 -0.7091
 2762SOL     OW19747   0.561   0.046   9.634  0.3373  0.3264 -0.5961
 2762SOL    HW119748   0.543   4.725   9.716 -1.6165  1.7080 -0.2492
 2762SOL    HW219749   0.502   0.121   9.644  1.6992  1.7144 -3.0593
 2763SOL     OW19750   1.437   3.255   3.121  0.7221 -0.4922  0.1018
 2763SOL    HW119751   1.401   3.342   3.106 -0.9568 -1.3137 -0.6953
 2763SOL    HW219752   1.427   3.244   3.215 -1.8231  2.2644  0.1377
 2764SOL     OW19753   0.079   0.701   6.449 -0.3305 -0.4167 -0.3273
 2764SOL    HW119754   0.133   0.624   6.464  0.8999  0.4670 -0.2232
 2764SOL    HW219755   4.713   0.670   6.450 -1.0584  1.7201  1.5277
 2765SOL     OW19756   2.115   4.177  15.946  0.1160  0.0609 -0.4024
 2765SOL    HW119757   2.055   4.201  16.017  1.6048  2.7606 -0.0572
 2765SOL    HW219758   2.149   4.265  15.930 -1.3796  0.6341 -0.4923
 2766SOL     OW19759   0.196   2.839   1.332 -0.0500  0.5028  0.2507
 2766SOL    HW119760   0.176   2.875   1.246  2.1432 -4.3888 -2.3041
 2766SOL    HW219761   0.223   2.923   1.369  0.6002  0.0069  0.8942
 2767SOL     OW19762   2.262   1.712   0.191 -0.0211  0.9672 -0.1425
 2767SOL    HW119763   2.181   1.743   0.232  0.9869  3.5265 -0.0894
 2767SOL    HW219764   2.281   1.791   0.142  0.2086  1.5623  0.9146
 2768SOL     OW19765   1.355   1.131   8.798  0.2441  0.5053  0.0125
 2768SOL    HW119766   1.437   1.080   8.799  0.9947  1.7117  0.4712
 2768SOL    HW219767   1.379   1.199   8.735 -0.3189  2.5329  1.9820
 2769SOL     OW19768   4.461   0.859   5.589  0.2173  0.2396  0.7261
 2769SOL    HW119769   4.550   0.890   5.573 -0.0678  0.1382 -1.0896
 2769SOL    HW219770   4.421   0.863   5.502 -0.8654  0.5735  1.2507
 2770SOL     OW19771   4.546   1.078  11.267  0.4176  0.6062  0.6332
 2770SOL    HW119772   4.583   1.167  11.274  0.5738  0.8173 -2.8705
 2770SOL    HW219773   4.467   1.074  11.321  1.0450 -2.8302  1.2977
 2771SOL     OW19774   1.132   3.966   9.254 -0.1999  0.1597 -0.7902
 2771SOL    HW119775   1.205   3.905   9.263  0.5513  1.4485  1.9879
 2771SOL    HW219776   1.079   3.950   9.332  0.0189  2.1984 -0.2034
 2772SOL     OW19777   3.497   0.863   8.181 -0.3402 -0.2665 -0.1218
 2772SOL    HW119778   3.456   0.791   8.133 -1.7951  0.8096 -0.4933
 2772SOL    HW219779   3.519   0.916   8.105  2.3203 -0.8470  0.2412
 2773SOL     OW19780   0.291   1.422   4.967 -0.7990  0.3477  0.3088
 2773SOL    HW119781   0.303   1.468   5.050 -2.9112  2.1746 -0.3942
 2773SOL    HW219782   0.369   1.367   4.962 -3.0978 -2.8790 -0.0086
 2774SOL     OW19783   1.420   4.686   9.169 -0.4309  0.2181 -0.0659
 2774SOL    HW119784   1.384   4.599   9.186 -1.0426  0.5786  0.4946
 2774SOL    HW219785   1.355   4.709   9.104  0.7792 -0.6484 -1.5775
 2775SOL     OW19786   1.664   1.995   0.906 -0.3279  0.0693 -0.0315
 2775SOL    HW119787   1.633   2.068   0.851  0.9234  0.3517 -0.3891
 2775SOL    HW219788   1.749   2.029   0.936  1.6077 -4.0909 -0.8500
 2776SOL     OW19789   1.845   3.926  13.506  0.8357  0.2242 -0.2035
 2776SOL    HW119790   1.832   3.832  13.492  0.9114  0.2315 -0.3211
 2776SOL    HW219791   1.816   3.950  13.418 -0.4335  1.2834  0.5056
 2777SOL     OW19792   0.407   1.383   1.916 -0.5189  0.3915  0.1403
 2777SOL    HW119793   0.450   1.310   1.960 -1.6027 -1.4606 -1.8669
 2777SOL    HW219794   0.322   1.339   1.904 -1.1568  1.6883 -0.0447
 2778SOL     OW19795   3.817   4.037   6.058  0.3908 -0.3494  1.0370
 2778SOL    HW119796   3.883   4.079   6.004 -2.3636  0.2029 -1.8960
 2778SOL    HW219797   3.751   4.104   6.074 -0.2102 -0.7427  0.2156
 2779SOL     OW19798   3.563   2.041   9.601 -0.7029  0.2929  0.0951
 2779SOL    HW119799   3.570   1.954   9.561 -1.0434 -1.1246  3.0759
 2779SOL    HW219800   3.476   2.039   9.641  0.8357 -2.0085  3.3309
 2780SOL     OW19801   4.116   3.597   8.618 -0.4018 -0.2008  0.2076
 2780SOL    HW119802   4.191   3.645   8.654  0.0914  0.8212 -2.2109
 2780SOL    HW219803   4.039   3.652   8.633  0.2150  0.6165  0.3820
 2781SOL     OW19804   2.339   1.349  14.734 -0.1192 -0.2247  0.1149
 2781SOL    HW119805   2.397   1.407  14.784  1.6900  0.1353 -2.3781
 2781SOL    HW219806   2.260   1.365  14.786 -0.0227  0.5153  0.0300
 2782SOL     OW19807   0.105   4.258   2.086  0.2781 -0.3251 -0.4279
 2782SOL    HW119808   0.129   4.211   2.005 -0.7386  1.9213 -2.0300
 2782SOL    HW219809   0.013   4.235   2.081  0.3867 -1.0346  0.8720
 2783SOL     OW19810   3.589   2.744  12.276 -0.2989 -0.5742  0.4178
 2783SOL    HW119811   3.535   2.686  12.222  1.8304  0.2664 -2.5624
 2783SOL    HW219812   3.648   2.681  12.319  2.3167  1.1910 -0.6039
 2784SOL     OW19813   1.351   1.313   9.331  0.0894 -0.2782 -0.2100
 2784SOL    HW119814   1.327   1.384   9.391  0.4713 -0.2880 -0.0485
 2784SOL    HW219815   1.349   1.358   9.247 -0.9766  0.9363  0.4639
 2785SOL     OW19816   3.099   4.515   7.026 -0.6844 -0.2151 -0.4083
 2785SOL    HW119817   3.036   4.528   7.097 -1.4407  0.4907 -1.2129
 2785SOL    HW219818   3.070   4.578   6.960 -0.6476 -0.6776 -0.8626
 2786SOL     OW19819   2.385   1.281   9.632 -0.3027 -0.2257  0.2078
 2786SOL    HW119820   2.364   1.193   9.599  0.0830 -0.1679 -0.1851
 2786SOL    HW219821   2.476   1.270   9.656  0.3523  4.4269 -0.1044
 2787SOL     OW19822   3.176   2.387   8.565 -0.2773 -0.4021 -0.1594
 2787SOL    HW119823   3.255   2.345   8.597 -1.0454 -0.1540  2.0780
 2787SOL    HW219824   3.216   2.450   8.504 -0.4171  0.1302  0.2933
 2788SOL     OW19825   1.673   1.041   9.630 -0.1106 -0.2866 -0.1926
 2788SOL    HW119826   1.649   0.950   9.618  2.1430 -1.1048  1.4118
 2788SOL    HW219827   1.608   1.080   9.572 -0.5584 -0.3858  0.2388
 2789SOL     OW19828   3.895   3.016   8.205  0.1567 -0.1954 -0.0012
 2789SOL    HW119829   3.932   2.944   8.256  0.8903  1.8063  2.3225
 2789SOL    HW219830   3.887   2.977   8.118 -1.2675  2.5632 -1.1180
 2790SOL     OW19831   1.469   1.098   2.393  0.3054 -0.2156  0.2815
 2790SOL    HW119832   1.383   1.096   2.352  0.5840 -2.1788 -0.1821
 2790SOL    HW219833   1.520   1.035   2.342 -2.8577 -0.5103 -2.4730
 2791SOL     OW19834   0.695   3.870   6.876 -0.1991  0.3987 -0.0633
 2791SOL    HW119835   0.711   3.869   6.781  0.9234  2.4280  0.1092
 2791SOL    HW219836   0.777   3.897   6.917  0.7854 -0.8936 -1.1621
 2792SOL     OW19837   2.587   1.934   3.792  0.3328  0.0316  0.2948
 2792SOL    HW119838   2.612   1.914   3.882  1.2632 -0.4153 -0.0674
 2792SOL    HW219839   2.666   1.979   3.762 -0.7009  0.3590 -1.9235
 2793SOL     OW19840   1.315   1.891   7.926 -0.1964  0.0587  0.3548
 2793SOL    HW119841   1.371   1.814   7.931  2.6652  2.1821  0.6165
 2793SOL    HW219842   1.312   1.896   7.830 -0.0164 -0.0794  0.3433
 2794SOL     OW19843   1.224   3.152   9.024  0.8976 -0.4106  0.2849
 2794SOL    HW119844   1.255   3.236   9.056 -1.9140  1.4063 -1.7875
 2794SOL    HW219845   1.293   3.097   9.062  0.4881 -0.9226  0.2827
 2795SOL     OW19846   3.292   2.212  17.373 -0.3000  0.0160 -0.5385
 2795SOL    HW119847   3.379   2.189  17.342  0.0749  1.2217 -0.3741
 2795SOL    HW219848   3.286   2.134  17.428 -1.0763  1.1298  0.9598
 2796SOL     OW19849   0.387   3.232   5.074 -0.5096 -0.9631  0.2087
 2796SOL    HW119850   0.412   3.314   5.117  1.3507 -1.3160 -0.2276
 2796SOL    HW219851   0.463   3.193   5.031 -0.7380 -0.2813 -0.8165
 2797SOL     OW19852   2.289   4.477   6.123 -0.6548 -0.1740 -0.1044
 2797SOL    HW119853   2.305   4.383   6.135 -0.3423 -0.1460 -0.3031
 2797SOL    HW219854   2.330   4.521   6.197 -1.9766 -1.2580  1.2866
 2798SOL     OW19855   3.896   3.599   2.369  0.1502 -0.2777 -0.1521
 2798SOL    HW119856   3.888   3.686   2.408  1.0546 -0.4582  0.4265
 2798SOL    HW219857   3.818   3.597   2.314  0.6705  2.0934 -0.9630
 2799SOL     OW19858   3.172   2.262   3.121  0.0759 -0.1150  0.2522
 2799SOL    HW119859   3.249   2.308   3.087  0.0445 -1.1867 -1.2621
 2799SOL    HW219860   3.160   2.311   3.202  0.8316 -1.3594  1.1123
 2800SOL     OW19861   3.696   2.702  16.223  0.2066  0.0571  0.3769
 2800SOL    HW119862   3.697   2.797  16.212  0.9887 -0.0039 -0.0799
 2800SOL    HW219863   3.792   2.699  16.218  0.0498 -0.4624 -2.2419
 2801SOL     OW19864   2.555   2.409  13.894  0.0421  0.0750  0.1947
 2801SOL    HW119865   2.563   2.451  13.979 -2.5698  1.0761 -0.0288
 2801SOL    HW219866   2.646   2.414  13.866 -0.8536 -2.0902 -3.1577
 2802SOL     OW19867   3.184   3.567  12.240  0.3029  0.2473 -0.5824
 2802SOL    HW119868   3.247   3.626  12.283 -0.5564 -1.1521  2.5919
 2802SOL    HW219869   3.204   3.481  12.276  0.5167 -0.7988 -3.2320
 2803SOL     OW19870   4.305   1.021  11.383  1.0730 -0.8206  0.1160
 2803SOL    HW119871   4.291   0.994  11.474  1.5904 -2.1268 -0.1854
 2803SOL    HW219872   4.221   1.057  11.354  0.8763 -1.2275  0.1831
 2804SOL     OW19873   2.018   3.971  17.574  0.2200  0.0960  0.2601
 2804SOL    HW119874   2.096   3.957  17.628 -1.1374 -2.0185  1.7063
 2804SOL    HW219875   1.959   3.992  17.646  0.8615  0.1715  0.7605
 2805SOL     OW19876   3.110   2.305   1.531 -0.1030  0.1201  0.2588
 2805SOL    HW119877   3.059   2.258   1.466  5.1490 -1.3782 -2.7054
 2805SOL    HW219878   3.165   2.362   1.476  0.1877 -0.6265 -0.2142
 2806SOL     OW19879   4.376   1.780   4.764  0.1902  0.5393  0.2677
 2806SOL    HW119880   4.320   1.842   4.717  2.8846  1.3783 -1.8517
 2806SOL    HW219881   4.450   1.761   4.706 -0.1642  0.4165 -0.1520
 2807SOL     OW19882   2.929   4.617   3.701  0.1507  0.0116 -0.2100
 2807SOL    HW119883   2.981   4.641   3.624 -0.8171 -0.1395 -0.9104
 2807SOL    HW219884   2.989   4.641   3.771 -0.1348  0.7740 -0.2248
 2808SOL     OW19885   0.355   1.052   0.680  0.3001 -0.3006  1.1267
 2808SOL    HW119886   0.384   1.089   0.597 -0.0302 -0.8434  0.7702
 2808SOL    HW219887   0.437   1.031   0.725  0.3510 -0.6278  0.8833
 2809SOL     OW19888   1.884   2.216  11.317  0.7284  0.0400 -0.0645
 2809SOL    HW119889   1.962   2.238  11.265  2.7147 -0.9076  2.5278
 2809SOL    HW219890   1.913   2.230  11.407 -0.6304  2.3049  0.0093
 2810SOL     OW19891   1.757   0.499  13.050  0.4525  0.2472 -0.3317
 2810SOL    HW119892   1.690   0.466  13.110  1.8429 -1.8743  0.0829
 2810SOL    HW219893   1.711   0.580  13.029  0.5714  0.8020  1.5337
 2811SOL     OW19894   4.246   4.087   3.504 -0.0497 -0.4128  0.0589
 2811SOL    HW119895   4.195   4.138   3.566  1.2965  2.1078 -0.8712
 2811SOL    HW219896   4.328   4.059   3.545  0.8771 -0.2842 -1.6800
 2812SOL     OW19897   0.695   2.064  15.341 -0.1744  0.2366  0.1562
 2812SOL    HW119898   0.749   2.143  15.345  0.6632 -0.3079 -0.6015
 2812SOL    HW219899   0.613   2.099  15.376 -0.3692  0.4319 -0.5154
 2813SOL     OW19900   1.131   0.023   7.205  0.2290 -0.1143  0.7190
 2813SOL    HW119901   1.219   0.058   7.213  0.1960 -0.0261  0.6979
 2813SOL    HW219902   1.137   4.675   7.143 -1.2197  0.2984  0.0685
 2814SOL     OW19903   0.807   1.349   2.094 -0.2271  0.1494 -0.0327
 2814SOL    HW119904   0.874   1.391   2.041 -0.6636 -3.0343 -3.1331
 2814SOL    HW219905   0.729   1.404   2.090 -0.5981 -0.1441  3.2605
 2815SOL     OW19906   3.703   3.052   2.958  0.4652  0.2490  0.4046
 2815SOL    HW119907   3.736   3.112   2.891 -0.1183 -0.4955 -0.5631
 2815SOL    HW219908   3.783   3.009   2.987 -0.5577 -2.0678 -0.1937
 2816SOL     OW19909   3.413   1.586  16.584  0.1988 -0.2921  0.0008
 2816SOL    HW119910   3.350   1.573  16.656 -0.6704  0.1173 -0.6788
 2816SOL    HW219911   3.379   1.663  16.539 -0.8254 -1.4738 -1.2292
 2817SOL     OW19912   0.712   3.504   6.348  0.2146 -0.0136 -0.2222
 2817SOL    HW119913   0.628   3.472   6.379  0.7446 -0.4247  0.7888
 2817SOL    HW219914   0.720   3.482   6.255 -0.6030 -0.7028 -0.1230
 2818SOL     OW19915   1.342   0.716  17.640  0.4162 -0.3730 -0.0726
 2818SOL    HW119916   1.287   0.639  17.649 -0.0001  0.4165  3.8360
 2818SOL    HW219917   1.276   0.784  17.625  1.4967  0.6595 -0.2422
 2819SOL     OW19918   3.412   1.619  15.560  0.1379 -0.0081  0.3106
 2819SOL    HW119919   3.457   1.697  15.592  0.7746 -0.4395  0.4561
 2819SOL    HW219920   3.373   1.581  15.639 -1.7384 -2.0464 -1.5908
 2820SOL     OW19921   2.218   2.121   9.228  0.2755  0.1898 -0.1024
 2820SOL    HW119922   2.265   2.059   9.173  0.5202  1.9084 -1.7984
 2820SOL    HW219923   2.220   2.067   9.308  3.1552  1.8704  0.9764
 2821SOL     OW19924   2.257   1.473   6.812  0.0155  0.2506 -0.6321
 2821SOL    HW119925   2.282   1.383   6.836  0.6276  1.1171  1.9483
 2821SOL    HW219926   2.344   1.514   6.805  0.6455 -0.8633  0.7013
 2822SOL     OW19927   1.842   3.091   4.331  0.1755 -0.1970  0.1040
 2822SOL    HW119928   1.880   3.174   4.362 -1.0549  0.2906  0.2816
 2822SOL    HW219929   1.880   3.083   4.243  0.1777  1.5259 -0.0553
 2823SOL     OW19930   1.490   1.274   2.597 -0.5717 -0.1465  0.1397
 2823SOL    HW119931   1.467   1.352   2.547 -1.0791  0.6463  1.6096
 2823SOL    HW219932   1.498   1.202   2.534  0.6247  0.7583 -0.7523
 2824SOL     OW19933   4.264   4.647   8.509 -0.1275 -0.0423 -0.7770
 2824SOL    HW119934   4.205   4.656   8.584  0.8220 -1.0422  0.0824
 2824SOL    HW219935   4.214   4.580   8.464 -0.0074 -0.3895 -0.3918
 2825SOL     OW19936   0.107   2.906   4.079  0.4423  0.5761  0.1400
 2825SOL    HW119937   0.065   2.846   4.141 -0.1214  0.3162 -0.4999
 2825SOL    HW219938   0.102   2.857   3.997 -0.7297  0.6552  0.1608
 2826SOL     OW19939   0.248   3.804  13.643  0.3151 -0.3541  0.0345
 2826SOL    HW119940   0.294   3.736  13.692  1.0336  1.2914  1.6417
 2826SOL    HW219941   0.248   3.776  13.551 -1.5401  0.3380 -0.1764
 2827SOL     OW19942   1.319   0.221   4.546  0.3853  0.8039 -0.1748
 2827SOL    HW119943   1.395   0.278   4.536 -2.0070  4.2512  1.6955
 2827SOL    HW219944   1.253   0.289   4.558 -1.2834 -0.6403 -1.0500
 2828SOL     OW19945   2.978   4.324   3.959  0.4956 -0.4549 -0.9710
 2828SOL    HW119946   2.988   4.380   4.037 -2.6670 -0.8807 -0.2613
 2828SOL    HW219947   2.888   4.350   3.938  0.9685  0.8999 -1.2692
 2829SOL     OW19948   1.922   2.338  12.902  0.6076  0.3511  0.5544
 2829SOL    HW119949   1.938   2.432  12.907  0.6306  0.3136  1.2783
 2829SOL    HW219950   1.885   2.308  12.986 -0.7212  1.5722  0.4042
 2830SOL     OW19951   3.149   2.879   4.648  0.0543  0.0850  0.3492
 2830SOL    HW119952   3.189   2.960   4.680 -0.3325  1.6498 -3.1680
 2830SOL    HW219953   3.062   2.916   4.642 -1.0215 -2.2629  1.3605
 2831SOL     OW19954   3.284   2.642   3.216 -0.6465  0.3406  0.1815
 2831SOL    HW119955   3.308   2.658   3.125 -0.0582 -0.7096  0.1531
 2831SOL    HW219956   3.360   2.595   3.250 -0.6510  0.7370  0.7347
 2832SOL     OW19957   3.890   0.084  17.323  0.5917 -0.8540  0.6060
 2832SOL    HW119958   3.947   0.034  17.381 -0.1894 -2.6720 -0.1842
 2832SOL    HW219959   3.881   0.012  17.260 -1.0785 -2.2167  2.4247
 2833SOL     OW19960   2.578   0.618   8.172 -0.1090 -0.3137  0.2378
 2833SOL    HW119961   2.539   0.587   8.253 -1.5286  0.9600  0.0491
 2833SOL    HW219962   2.582   0.710   8.197 -0.2222 -0.0400 -0.7249
 2834SOL     OW19963   0.459   3.494   7.111 -0.1287 -0.1536 -0.1355
 2834SOL    HW119964   0.482   3.559   7.045  0.2000  0.9776  1.0865
 2834SOL    HW219965   0.541   3.444   7.115  1.7081  2.9455  0.7015
 2835SOL     OW19966   2.739   1.721   2.838 -0.1783  0.1281 -0.6601
 2835SOL    HW119967   2.727   1.809   2.875  0.7513 -0.5694  1.3105
 2835SOL    HW219968   2.680   1.665   2.888 -1.7307  2.0186 -0.3705
 2836SOL     OW19969   2.125   2.910   9.200  0.0271 -0.0610 -0.0658
 2836SOL    HW119970   2.050   2.890   9.256  1.3150  0.5747  1.8578
 2836SOL    HW219971   2.121   3.006   9.199  0.0443 -0.0585  0.2732
 2837SOL     OW19972   3.957   3.895   4.116 -0.3795 -0.3880 -0.5414
 2837SOL    HW119973   3.928   3.810   4.151 -0.9322  0.5748  1.3773
 2837SOL    HW219974   3.874   3.925   4.078 -1.9292 -0.9533  2.3234
 2838SOL     OW19975   0.753   3.113   3.685 -0.2027 -0.0975 -0.4678
 2838SOL    HW119976   0.753   3.087   3.593  0.3367  1.3347 -0.8610
 2838SOL    HW219977   0.682   3.178   3.683 -0.1535  0.0165  1.1327
 2839SOL     OW19978   3.022   2.971   0.603  0.3732 -0.4683  0.2482
 2839SOL    HW119979   2.935   2.937   0.623 -0.5587 -0.1065 -3.2537
 2839SOL    HW219980   3.060   2.906   0.544  2.2716  1.2993 -0.5156
 2840SOL     OW19981   1.371   3.394   9.077 -0.2831 -0.1507 -0.4903
 2840SOL    HW119982   1.459   3.398   9.116 -1.1424  0.6571  1.3997
 2840SOL    HW219983   1.383   3.471   9.021 -0.5887 -0.4479 -0.9577
 2841SOL     OW19984   2.694   1.031  17.201  0.1512 -0.2579 -0.3675
 2841SOL    HW119985   2.746   1.063  17.127  1.5572  0.0537  0.7569
 2841SOL    HW219986   2.676   0.942  17.172 -1.7364  0.6296 -1.9765
 2842SOL     OW19987   0.983   1.827   6.777  0.1580 -0.4445 -0.4170
 2842SOL    HW119988   0.906   1.877   6.748 -0.3981 -0.4834  0.9812
 2842SOL    HW219989   0.987   1.764   6.705  0.2586  2.5428 -3.0441
 2843SOL     OW19990   2.948   0.470   5.077 -0.0846  0.0822 -0.2405
 2843SOL    HW119991   2.904   0.411   5.138 -0.1482  1.7147  1.2865
 2843SOL    HW219992   2.945   0.413   5.000  0.0636 -0.8997  0.4769
 2844SOL     OW19993   2.045   0.322   6.509 -0.5119 -0.2616 -0.5022
 2844SOL    HW119994   1.952   0.310   6.490 -0.6411 -0.9811  0.5564
 2844SOL    HW219995   2.038   0.311   6.604  2.2238  1.0926 -0.1588
 2845SOL     OW19996   4.367   3.609   3.529 -0.3735 -0.3723  0.0922
 2845SOL    HW119997   4.353   3.586   3.621  2.7384  0.8269  0.8618
 2845SOL    HW219998   4.320   3.532   3.497 -1.6030 -0.2007  1.4958
 2846SOL     OW19999   0.078   1.139   3.499 -0.8645 -0.5376  0.4066
 2846SOL    HW120000   0.004   1.128   3.439 -0.0717 -0.7471 -0.5410
 2846SOL    HW220001   0.129   1.197   3.443  3.0616 -1.9278  2.4740
 2847SOL     OW20002   3.657   1.216  15.399 -0.4150 -0.3899 -0.2984
 2847SOL    HW120003   3.668   1.140  15.455  1.5604  0.9557  1.1579
 2847SOL    HW220004   3.710   1.194  15.322 -0.4674  1.4596 -0.8656
 2848SOL     OW20005   0.566   0.222   6.621 -0.2398 -0.1414  0.2316
 2848SOL    HW120006   0.627   0.273   6.675  0.3192 -0.5591 -0.0025
 2848SOL    HW220007   0.521   0.165   6.683 -3.0504  1.8718  0.0548
 2849SOL     OW20008   3.018   0.990  14.478 -0.1740  0.1313  0.1924
 2849SOL    HW120009   3.022   0.919  14.413 -1.3438  1.0856 -0.9173
 2849SOL    HW220010   2.931   1.023  14.455  1.4110  2.9584 -1.6697
 2850SOL     OW20011   3.726   0.477  11.368 -0.1971  0.1973 -0.5403
 2850SOL    HW120012   3.633   0.501  11.372  0.2550  1.8201  0.4396
 2850SOL    HW220013   3.763   0.499  11.453 -2.0120 -0.8749  0.5372
 2851SOL     OW20014   2.898   1.917   6.832  0.4552 -0.2435 -0.0642
 2851SOL    HW120015   2.873   1.827   6.854 -2.7084 -0.0569 -2.8733
 2851SOL    HW220016   2.871   1.968   6.909  0.7862  0.4520 -0.4104
 2852SOL     OW20017   1.970   1.439  11.780  0.6254  0.3382  0.9918
 2852SOL    HW120018   1.878   1.466  11.778  0.3816 -0.6825 -1.2742
 2852SOL    HW220019   2.017   1.515  11.748  1.5162 -1.1039 -1.1299
 2853SOL     OW20020   0.361   1.154   5.608 -0.3730 -0.2357 -0.2304
 2853SOL    HW120021   0.434   1.175   5.550  0.2962 -0.5083  0.5294
 2853SOL    HW220022   0.362   1.059   5.598 -2.7696 -0.1610 -1.4200
 2854SOL     OW20023   4.651   1.952   6.943 -0.1626  0.3187  0.3913
 2854SOL    HW120024   4.638   2.046   6.947  1.6683  0.5368  1.2412
 2854SOL    HW220025   4.599   1.923   6.868  0.8916 -0.6907  0.0398
 2855SOL     OW20026   1.824   4.626   5.970 -0.1238 -0.1919  0.3382
 2855SOL    HW120027   1.920   4.620   5.970 -0.0439  0.9357  1.1353
 2855SOL    HW220028   1.811   4.721   5.982 -0.2626  0.2444 -3.2079
 2856SOL     OW20029   2.484   0.310   3.736  0.4804 -0.1059  0.2029
 2856SOL    HW120030   2.402   0.275   3.700  0.4770  1.2986 -1.1271
 2856SOL    HW220031   2.447   0.339   3.819 -1.0252 -1.3347 -0.0234
 2857SOL     OW20032   4.137   0.349   5.369  0.7992 -0.1700 -0.2207
 2857SOL    HW120033   4.191   0.414   5.324 -0.1688  0.7136 -0.1095
 2857SOL    HW220034   4.064   0.404   5.397 -0.8722 -2.0942 -0.8133
 2858SOL     OW20035   4.294   2.304  15.950 -0.1365  0.0044  0.6678
 2858SOL    HW120036   4.340   2.281  16.031  2.2653 -0.0559 -0.7042
 2858SOL    HW220037   4.227   2.358  15.992  0.1121  0.9815 -0.1807
 2859SOL     OW20038   2.604   3.894   4.984  0.3457  0.6774 -0.4288
 2859SOL    HW120039   2.517   3.899   5.024  1.0535 -0.1660  1.2188
 2859SOL    HW220040   2.631   3.961   5.047 -1.8335  1.6102 -0.4900
 2860SOL     OW20041   0.970   4.038   5.961  0.3091 -0.8834  0.1357
 2860SOL    HW120042   0.998   4.058   6.050 -1.4046  0.7199  0.3069
 2860SOL    HW220043   0.897   3.976   5.974 -0.9375  0.7938  1.1323
 2861SOL     OW20044   4.442   2.203  15.196 -1.0441 -0.0858  0.1516
 2861SOL    HW120045   4.445   2.245  15.282 -3.1727  0.9513 -0.2802
 2861SOL    HW220046   4.364   2.235  15.151 -1.3143  0.1573  0.7835
 2862SOL     OW20047   2.390   1.849   6.713  0.0004 -0.5320 -0.1446
 2862SOL    HW120048   2.391   1.784   6.783 -0.5580 -0.4879 -0.0954
 2862SOL    HW220049   2.416   1.926   6.763 -1.4629 -0.5503  0.6531
 2863SOL     OW20050   0.796   1.246   5.830 -0.2306  0.2576  0.0910
 2863SOL    HW120051   0.721   1.306   5.830  0.1197  0.6836  1.7061
 2863SOL    HW220052   0.748   1.163   5.832 -2.2141  1.4703  2.7594
 2864SOL     OW20053   4.105   0.104  11.304 -0.3225  0.1192  0.6126
 2864SOL    HW120054   4.101   0.166  11.377  2.1711 -1.3068  1.9505
 2864SOL    HW220055   4.031   0.135  11.251 -0.2352  1.3677  1.2173
 2865SOL     OW20056   3.690   4.186   8.220 -0.0848 -0.3532 -0.0792
 2865SOL    HW120057   3.702   4.131   8.297 -1.2571 -0.2205  0.2057
 2865SOL    HW220058   3.685   4.123   8.148  1.0622 -0.8851  0.3077
 2866SOL     OW20059   0.569   4.319   7.626 -0.2903 -0.2278  0.4013
 2866SOL    HW120060   0.497   4.381   7.633 -0.5368  0.0404 -4.3527
 2866SOL    HW220061   0.544   4.268   7.549  2.4968 -0.6859 -0.2120
 2867SOL     OW20062   2.722   4.618   7.411  0.1406 -0.2453 -0.0520
 2867SOL    HW120063   2.693   4.614   7.502 -0.7402 -0.0435 -0.3299
 2867SOL    HW220064   2.647   4.594   7.357 -1.3108  2.3030  0.8220
 2868SOL     OW20065   2.669   1.441   5.672  0.1908 -0.1246 -0.2517
 2868SOL    HW120066   2.701   1.413   5.586 -0.1219 -0.7074 -0.1766
 2868SOL    HW220067   2.741   1.493   5.706  1.0552 -2.3298  1.2671
 2869SOL     OW20068   3.026   0.681  13.975  0.9516 -0.2218 -0.5201
 2869SOL    HW120069   3.012   0.593  14.011 -0.3077  0.0717 -0.2849
 2869SOL    HW220070   3.054   0.729  14.053  0.9321  0.5747 -1.0048
 2870SOL     OW20071   0.520   2.958   5.348 -0.2102 -0.0810 -0.7878
 2870SOL    HW120072   0.577   3.034   5.338  0.0995 -0.4806 -2.0723
 2870SOL    HW220073   0.506   2.965   5.443  2.1525  0.4456 -0.4836
 2871SOL     OW20074   1.213   3.334  10.272 -0.0968 -0.4466  0.0329
 2871SOL    HW120075   1.267   3.337  10.194  0.1704 -0.1541  0.2278
 2871SOL    HW220076   1.149   3.264  10.257 -0.8723  0.0159  1.1703
 2872SOL     OW20077   2.188   1.233   8.332  0.3305  0.2425  0.3235
 2872SOL    HW120078   2.266   1.286   8.349 -0.1113  1.1768 -0.5330
 2872SOL    HW220079   2.205   1.150   8.376  0.3312 -0.1291 -0.3939
 2873SOL     OW20080   0.521   0.779   5.012  0.7934 -0.6936 -0.1705
 2873SOL    HW120081   0.523   0.744   5.102  1.5296  0.1249  0.1321
 2873SOL    HW220082   0.464   0.716   4.967  1.2270 -1.0093 -0.2810
 2874SOL     OW20083   4.056   4.489   7.106  0.0450 -0.4405  0.0527
 2874SOL    HW120084   4.079   4.571   7.149 -0.0068 -0.1946 -0.3853
 2874SOL    HW220085   4.040   4.514   7.015  0.8227 -0.4683 -0.0951
 2875SOL     OW20086   3.620   2.984   3.454  0.1675  0.7899  0.3017
 2875SOL    HW120087   3.655   2.998   3.366  1.1242  1.7938  0.8416
 2875SOL    HW220088   3.665   2.901   3.471  1.4125  1.3725 -0.1972
 2876SOL     OW20089   3.783   1.706   2.890 -0.2988  0.5781  0.0976
 2876SOL    HW120090   3.832   1.656   2.955  1.1041 -0.8002 -2.0176
 2876SOL    HW220091   3.699   1.717   2.935  0.5606  0.1857  1.7781
 2877SOL     OW20092   1.640   2.016   4.340  0.0178 -0.0824 -0.2261
 2877SOL    HW120093   1.683   1.974   4.415 -2.4257 -0.0136  1.2228
 2877SOL    HW220094   1.601   1.934   4.311 -0.8513 -0.8103  3.0250
 2878SOL     OW20095   1.511   3.458  16.049 -0.2642  0.0332 -0.1119
 2878SOL    HW120096   1.484   3.546  16.023  1.7156  1.0974  1.4941
 2878SOL    HW220097   1.594   3.454  16.001 -0.5784  0.6189 -0.7161
 2879SOL     OW20098   2.673   2.634   6.136 -0.2985 -0.0898  0.6723
 2879SOL    HW120099   2.620   2.612   6.212  0.1117  0.6601  1.1852
 2879SOL    HW220100   2.746   2.681   6.177 -0.0555  0.2170 -0.0905
 2880SOL     OW20101   2.169   4.552   4.709 -0.1009 -0.1221  0.1475
 2880SOL    HW120102   2.096   4.561   4.771 -2.4897 -2.7761 -2.3217
 2880SOL    HW220103   2.165   4.459   4.689 -2.3250  0.4844 -2.1515
 2881SOL     OW20104   4.214   3.844   0.015  0.1380 -0.2663  0.6860
 2881SOL    HW120105   4.268   3.914   0.053 -0.8148  1.2091 -0.6703
 2881SOL    HW220106   4.220   3.771   0.076 -1.0462 -0.2259  0.8492
 2882SOL     OW20107   1.624   2.166   2.348  1.2228  0.1373  0.6915
 2882SOL    HW120108   1.544   2.183   2.398  2.0697  0.4234  1.9635
 2882SOL    HW220109   1.582   2.094   2.302  1.3493 -0.4965  1.5625
 2883SOL     OW20110   3.270   0.248  12.766 -0.2246 -0.3919 -0.4856
 2883SOL    HW120111   3.183   0.209  12.774  0.8684 -2.3606  1.9891
 2883SOL    HW220112   3.306   0.219  12.850 -1.1206  1.2355  0.4749
 2884SOL     OW20113   0.847   3.755   6.319 -0.6142 -0.2796 -0.1253
 2884SOL    HW120114   0.765   3.706   6.330 -1.1734  0.8339  0.6713
 2884SOL    HW220115   0.878   3.712   6.239 -3.3216 -0.9287 -0.8447
 2885SOL     OW20116   3.909   4.069   6.411  0.1795  0.0585  0.1776
 2885SOL    HW120117   3.829   4.017   6.414 -0.8549  1.6455  0.3476
 2885SOL    HW220118   3.899   4.151   6.459 -1.8313 -0.0203 -0.1188
 2886SOL     OW20119   0.305   2.765   5.447  0.2073  0.2241 -0.4751
 2886SOL    HW120120   0.253   2.736   5.372 -0.0567  2.6943 -1.2389
 2886SOL    HW220121   0.241   2.829   5.478  0.4453 -0.7227  1.9925
 2887SOL     OW20122   3.980   2.931   1.234  0.4358  0.3008 -0.3255
 2887SOL    HW120123   3.999   3.020   1.205 -1.4039  0.6976 -0.3709
 2887SOL    HW220124   3.885   2.931   1.219  0.5552  1.5845 -1.0589
 2888SOL     OW20125   0.582   4.335   7.007 -0.1445  0.4425 -0.1558
 2888SOL    HW120126   0.655   4.280   7.035 -0.2237  1.2908  1.7011
 2888SOL    HW220127   0.573   4.413   7.061 -0.7683  0.5767 -0.4518
 2889SOL     OW20128   0.844   0.843   8.110  0.4536 -0.3183  0.0392
 2889SOL    HW120129   0.934   0.843   8.143 -0.5774  1.1918  2.8828
 2889SOL    HW220130   0.829   0.753   8.081  0.3500 -0.5048  0.6536
 2890SOL     OW20131   4.396   0.218   2.487  0.3380 -0.1629  0.3379
 2890SOL    HW120132   4.309   0.182   2.471 -0.4292  0.8022  2.3778
 2890SOL    HW220133   4.397   0.223   2.582  2.8189  3.7722  0.1469
 2891SOL     OW20134   3.490   4.154   9.522  0.3737  0.0713  0.3551
 2891SOL    HW120135   3.400   4.163   9.492  0.5443  1.2359  0.2129
 2891SOL    HW220136   3.478   4.148   9.617 -0.3232 -1.1563  0.1920
 2892SOL     OW20137   4.567   4.419   2.248  0.1919  0.6785  0.1051
 2892SOL    HW120138   4.569   4.345   2.188  0.5648  0.4216  0.4297
 2892SOL    HW220139   4.557   4.493   2.188  0.9064  0.3669 -0.3963
 2893SOL     OW20140   2.421   1.743   2.140 -0.4736 -0.1143  0.2902
 2893SOL    HW120141   2.430   1.834   2.170  0.4249 -0.3789  0.8210
 2893SOL    HW220142   2.402   1.708   2.227  2.3406  0.2302  1.0516
 2894SOL     OW20143   2.849   2.946   7.619 -0.5171  0.0456 -0.1385
 2894SOL    HW120144   2.931   2.897   7.626  0.1489  1.1157 -0.5059
 2894SOL    HW220145   2.855   2.979   7.709  0.0013  0.0621 -0.1787
 2895SOL     OW20146   1.407   4.034   6.161 -0.0282 -0.5347  0.3803
 2895SOL    HW120147   1.466   4.087   6.108  1.7939 -1.4743  1.4753
 2895SOL    HW220148   1.378   4.090   6.233 -2.1312 -1.3932  0.2204
 2896SOL     OW20149   3.035   0.477   2.343  0.1845  0.7392 -0.8084
 2896SOL    HW120150   2.991   0.515   2.268  0.2749  2.3218 -0.0706
 2896SOL    HW220151   3.005   0.535   2.413  1.3727  2.7583 -1.9775
 2897SOL     OW20152   3.511   4.023  10.539  0.7076 -0.0965  0.6878
 2897SOL    HW120153   3.474   4.112  10.535 -0.3767 -0.5155  1.6420
 2897SOL    HW220154   3.486   3.992  10.626 -0.2713  0.5272  0.6313
 2898SOL     OW20155   1.505   2.830   1.561  0.3338  0.2434  0.0549
 2898SOL    HW120156   1.480   2.827   1.653 -1.0680  2.6133 -0.2503
 2898SOL    HW220157   1.578   2.892   1.562  0.7232 -0.2033 -1.2657
 2899SOL     OW20158   1.539   1.443  13.949 -0.1874  0.1742  0.4539
 2899SOL    HW120159   1.459   1.492  13.930  0.5146  0.8667 -0.6668
 2899SOL    HW220160   1.559   1.397  13.868  0.7244 -1.1078  1.4007
 2900SOL     OW20161   0.747   3.136   8.127 -0.5924  0.3400 -0.2685
 2900SOL    HW120162   0.767   3.115   8.035 -0.5013  3.8197 -1.0423
 2900SOL    HW220163   0.803   3.076   8.176  1.2998  2.6714  0.3689
 2901SOL     OW20164   4.702   1.269  16.448  0.7700  0.0428  0.6062
 2901SOL    HW120165   4.719   1.354  16.406  1.9265 -0.9945 -0.9944
 2901SOL    HW220166   0.056   1.222  16.422  1.0777  1.2094 -0.5693
 2902SOL     OW20167   4.014   3.152   8.825  0.0125 -0.4467 -0.3394
 2902SOL    HW120168   3.973   3.088   8.767  1.4185 -0.0596 -1.7467
 2902SOL    HW220169   4.005   3.105   8.908 -0.1375 -0.0375 -0.1211
 2903SOL     OW20170   3.177   1.252  13.402  0.1264  0.3788  0.3218
 2903SOL    HW120171   3.112   1.286  13.341  0.3273  0.8371  0.3685
 2903SOL    HW220172   3.167   1.313  13.475 -0.1626  0.6672  0.0393
 2904SOL     OW20173   3.807   3.567   7.095 -0.3671 -0.0091 -0.0220
 2904SOL    HW120174   3.737   3.502   7.096 -1.5931  1.3029 -0.6503
 2904SOL    HW220175   3.795   3.592   7.186  0.4816 -0.9808  0.3544
 2905SOL     OW20176   4.397   2.715   1.559 -0.1197 -0.0058 -0.0102
 2905SOL    HW120177   4.323   2.720   1.498 -1.0997 -0.7048  1.1183
 2905SOL    HW220178   4.389   2.800   1.602  1.1135  0.5829 -0.9383
 2906SOL     OW20179   4.035   3.237   4.839  0.4702  0.6225 -0.8408
 2906SOL    HW120180   4.041   3.219   4.745 -1.1087 -2.3362 -0.3853
 2906SOL    HW220181   4.127   3.236   4.866 -0.1001  1.6303  1.0726
 2907SOL     OW20182   3.085   1.379   6.326 -0.4937  0.1187 -0.5949
 2907SOL    HW120183   3.173   1.344   6.331 -0.8291 -0.5911  0.3060
 2907SOL    HW220184   3.080   1.397   6.232  0.6516  0.9557 -0.4918
 2908SOL     OW20185   1.244   3.396   7.255 -0.5553  0.4056  0.1688
 2908SOL    HW120186   1.281   3.483   7.240  2.3483 -0.9596 -0.7215
 2908SOL    HW220187   1.273   3.341   7.181 -1.4717 -0.1362  0.2113
 2909SOL     OW20188   3.522   2.457   5.828 -0.0421  0.1210 -0.4716
 2909SOL    HW120189   3.601   2.498   5.863 -0.5779  1.0837 -0.3732
 2909SOL    HW220190   3.454   2.494   5.885  2.4177  2.3637  1.0286
 2910SOL     OW20191   2.000   1.844   6.680 -0.1862 -0.8829  0.3030
 2910SOL    HW120192   1.932   1.893   6.634  0.0199 -1.0959 -0.2325
 2910SOL    HW220193   2.040   1.913   6.734  3.4677 -0.4659 -2.8998
 2911SOL     OW20194   4.355   2.703   5.575  0.3267 -0.7230 -0.0337
 2911SOL    HW120195   4.393   2.697   5.488 -0.1208  0.6464 -0.3324
 2911SOL    HW220196   4.300   2.778   5.552 -1.1111 -2.2547 -1.5289
 2912SOL     OW20197   3.826   0.729   0.180 -0.5799 -0.4948 -0.2195
 2912SOL    HW120198   3.894   0.699   0.241 -0.0540 -0.0936 -0.6136
 2912SOL    HW220199   3.877   0.783   0.120 -1.6042  2.3386  1.4569
 2913SOL     OW20200   4.277   2.100   8.129  0.2241  0.1079  0.5784
 2913SOL    HW120201   4.335   2.172   8.103  0.0994  0.6216  1.7295
 2913SOL    HW220202   4.341   2.059   8.187  1.7030 -0.8384 -1.7203
 2914SOL     OW20203   4.536   3.395   8.333  0.0303  0.1422  0.0350
 2914SOL    HW120204   4.540   3.395   8.429  0.0360  2.5062  0.0545
 2914SOL    HW220205   4.500   3.308   8.319  0.7147  0.0076 -0.8311
 2915SOL     OW20206   0.193   4.250   4.695 -0.2583  0.0622 -0.5251
 2915SOL    HW120207   0.201   4.296   4.611  1.0805 -0.8009 -0.8675
 2915SOL    HW220208   0.198   4.157   4.672  1.2001  0.4457 -1.7202
 2916SOL     OW20209   3.494   0.263  15.541 -0.0369 -0.1928  0.2840
 2916SOL    HW120210   3.579   0.249  15.582  0.0616 -1.6539 -0.4142
 2916SOL    HW220211   3.513   0.228  15.455  1.0803  1.7258 -0.2529
 2917SOL     OW20212   3.572   0.546   2.597 -0.1397  0.1351 -0.0869
 2917SOL    HW120213   3.495   0.495   2.623 -0.8767  1.5463  0.4492
 2917SOL    HW220214   3.613   0.487   2.533 -1.0297 -0.9066  0.3034
 2918SOL     OW20215   4.563   0.567   8.024 -0.5386  0.1150 -0.3360
 2918SOL    HW120216   4.637   0.560   8.084 -1.6330 -1.9093  0.7804
 2918SOL    HW220217   4.506   0.502   8.065 -0.1709  0.7309  1.1505
 2919SOL     OW20218   3.526   2.128  17.251  0.0787 -0.3742 -0.2612
 2919SOL    HW120219   3.575   2.056  17.211 -0.1382  0.8057 -2.6246
 2919SOL    HW220220   3.489   2.175  17.177 -0.2768 -0.8796 -0.4022
 2920SOL     OW20221   3.860   3.119   2.276 -0.4102 -0.6830  0.3779
 2920SOL    HW120222   3.921   3.184   2.309  0.8653 -0.4163 -2.4810
 2920SOL    HW220223   3.859   3.129   2.180  1.5050 -0.3536  0.3961
 2921SOL     OW20224   2.429   1.095  12.734 -0.0171 -0.2761 -0.6876
 2921SOL    HW120225   2.507   1.084  12.679 -0.7854 -1.5513 -1.5251
 2921SOL    HW220226   2.468   1.115  12.819 -1.5726 -0.8161  0.1427
 2922SOL     OW20227   1.075   1.297  12.252  0.0578  0.0105 -0.0293
 2922SOL    HW120228   1.017   1.358  12.206 -2.4097 -0.6012  2.2299
 2922SOL    HW220229   1.153   1.287  12.198 -0.8225  0.2024 -1.3414
 2923SOL     OW20230   1.716   1.591  13.596 -0.2474  0.1862  0.3800
 2923SOL    HW120231   1.629   1.563  13.569  0.4983 -1.9160  0.1190
 2923SOL    HW220232   1.768   1.516  13.565  1.0548  1.3989 -0.4064
 2924SOL     OW20233   0.077   0.287   0.180  0.1326  0.5775 -0.5628
 2924SOL    HW120234   0.067   0.363   0.236 -0.1081 -0.4909  0.8339
 2924SOL    HW220235   0.158   0.301   0.130  0.8721 -1.9238 -0.0641
 2925SOL     OW20236   1.046   3.317   3.473 -0.1542 -0.0200 -0.4378
 2925SOL    HW120237   1.021   3.325   3.565 -0.0422 -3.0475 -0.1707
 2925SOL    HW220238   1.133   3.357   3.467  0.3519 -1.1906 -0.7928
 2926SOL     OW20239   3.615   3.154  13.224 -0.0032  0.1963 -0.7568
 2926SOL    HW120240   3.698   3.118  13.192  0.1858  1.9063 -2.2340
 2926SOL    HW220241   3.554   3.084  13.200  1.2413 -0.9408 -0.6002
 2927SOL     OW20242   3.903   3.272   6.801 -0.0650 -0.0311 -0.4951
 2927SOL    HW120243   3.948   3.305   6.879 -0.1328 -1.1740  0.0294
 2927SOL    HW220244   3.879   3.183   6.824 -0.0818 -0.0359 -0.5312
 2928SOL     OW20245   4.292   4.709   2.707  0.0581  0.1063  0.0620
 2928SOL    HW120246   4.228   4.708   2.636  0.9608 -0.1194 -0.7582
 2928SOL    HW220247   4.242   0.038   2.768 -0.4655  1.0293 -1.1856
 2929SOL     OW20248   0.690   4.346  12.588  0.7860 -0.3663  0.6381
 2929SOL    HW120249   0.711   4.319  12.498  3.5262  3.5878  0.0875
 2929SOL    HW220250   0.610   4.302  12.617  0.8396 -0.4462  0.6636
 2930SOL     OW20251   2.112   1.601  12.699  0.3978  0.0263  0.0942
 2930SOL    HW120252   2.032   1.622  12.747 -0.3004  1.1192 -1.5268
 2930SOL    HW220253   2.122   1.511  12.728  2.2634  0.0500 -0.4462
 2931SOL     OW20254   4.704   0.475  16.341 -0.4786  0.2280  0.4788
 2931SOL    HW120255   4.666   0.472  16.429 -0.7056  0.2659  0.3818
 2931SOL    HW220256   4.657   0.405  16.296 -1.5751  1.3268 -0.0725
 2932SOL     OW20257   2.898   0.261  15.416 -0.3265  0.8484  0.0370
 2932SOL    HW120258   2.919   0.272  15.323  1.9628 -1.3513  0.3038
 2932SOL    HW220259   2.822   0.202  15.412 -0.8209  1.6278 -2.4725
 2933SOL     OW20260   2.850   0.820   4.545  0.4848  0.1747 -0.1517
 2933SOL    HW120261   2.882   0.860   4.465  1.8107 -0.6534 -0.0246
 2933SOL    HW220262   2.816   0.895   4.595  2.4650 -1.0554  3.0864
 2934SOL     OW20263   2.899   2.289  10.158 -0.1378 -0.4064 -1.1726
 2934SOL    HW120264   2.830   2.288  10.092 -0.0527  1.6162 -1.2869
 2934SOL    HW220265   2.836   2.268  10.227  2.0001  1.1006  1.2069
 2935SOL     OW20266   0.534   1.955   6.867  0.3374 -0.3453 -0.1228
 2935SOL    HW120267   0.597   1.916   6.927 -1.2245 -1.3621  0.8450
 2935SOL    HW220268   0.580   2.038   6.855  1.3287 -0.8635  0.0843
 2936SOL     OW20269   3.552   1.395   3.246  0.3456 -0.2244 -0.1679
 2936SOL    HW120270   3.541   1.415   3.153  0.1182  0.5975  0.0402
 2936SOL    HW220271   3.571   1.482   3.281  0.6310 -0.7981  1.0904
 2937SOL     OW20272   4.479   0.612   1.883 -0.0175  0.4580  0.4797
 2937SOL    HW120273   4.426   0.565   1.819  0.1658  0.4934  0.3021
 2937SOL    HW220274   4.431   0.694   1.896  0.2117  0.3251  2.2100
 2938SOL     OW20275   3.747   3.857  16.840  0.3228  0.0399  0.2668
 2938SOL    HW120276   3.813   3.811  16.787  0.8999  2.5904 -1.2190
 2938SOL    HW220277   3.798   3.869  16.920  1.6056 -0.5788 -0.4524
 2939SOL     OW20278   0.815   1.391   3.383  0.0046 -0.8330  0.0015
 2939SOL    HW120279   0.735   1.422   3.426  0.2047 -0.6421  0.2382
 2939SOL    HW220280   0.774   1.325   3.327 -0.0664 -0.5402 -0.2912
 2940SOL     OW20281   3.651   2.388   7.815  0.2256 -0.0227 -0.0533
 2940SOL    HW120282   3.633   2.295   7.800 -0.3161  0.3431 -1.6723
 2940SOL    HW220283   3.739   2.398   7.780  0.7994  0.7016  1.6404
 2941SOL     OW20284   1.778   0.408  10.535  0.8669 -0.7801 -0.0456
 2941SOL    HW120285   1.779   0.447  10.448  1.5952  1.0817  0.7834
 2941SOL    HW220286   1.750   0.480  10.592 -2.0761 -1.5933 -0.4721
 2942SOL     OW20287   2.035   4.011   9.005 -0.0439 -0.1865  0.2042
 2942SOL    HW120288   2.083   4.086   8.969 -0.0280  0.4370  1.5046
 2942SOL    HW220289   2.037   3.948   8.934 -0.1276  0.7981 -0.6737
 2943SOL     OW20290   1.583   0.491   8.895  0.0095 -0.6883 -0.5400
 2943SOL    HW120291   1.542   0.509   8.810 -0.4565 -0.8406 -0.3434
 2943SOL    HW220292   1.671   0.509   8.862  0.1455  0.9220  0.6713
 2944SOL     OW20293   1.858   1.214   7.744  0.2137  0.0341  0.3960
 2944SOL    HW120294   1.911   1.274   7.797 -1.8166  0.3334  2.1332
 2944SOL    HW220295   1.778   1.266   7.757  0.0396 -0.9019  3.1284
 2945SOL     OW20296   2.715   2.694   4.685 -0.2065  0.0089 -0.4704
 2945SOL    HW120297   2.807   2.672   4.673 -0.3442 -0.4350 -0.6927
 2945SOL    HW220298   2.669   2.612   4.665 -1.0923 -0.0061  1.6724
 2946SOL     OW20299   2.047   3.647  14.016 -0.0065  0.4810 -0.1221
 2946SOL    HW120300   2.090   3.727  13.985  1.1471 -0.9626 -2.2389
 2946SOL    HW220301   2.073   3.588  13.945 -0.7730 -1.2951  1.0953
 2947SOL     OW20302   3.457   3.774   5.694  0.3452  0.5349 -0.5141
 2947SOL    HW120303   3.366   3.799   5.712  0.2054 -0.3364  0.0008
 2947SOL    HW220304   3.459   3.729   5.610 -0.5830 -0.7631  0.1451
 2948SOL     OW20305   1.670   2.555  12.886 -0.8129 -0.3427  0.2926
 2948SOL    HW120306   1.587   2.526  12.924 -0.7280 -1.2461 -0.2143
 2948SOL    HW220307   1.697   2.610  12.959  0.6342 -0.2758 -0.2900
 2949SOL     OW20308   0.145   1.360   6.701 -0.1174  0.3117 -0.2061
 2949SOL    HW120309   0.184   1.424   6.760 -0.3633 -2.0038  2.4450
 2949SOL    HW220310   0.149   1.277   6.748 -1.0140  0.5120  0.2237
 2950SOL     OW20311   0.310   3.631   3.256  0.1448 -0.0420 -0.0771
 2950SOL    HW120312   0.312   3.619   3.161  1.2543 -1.4468  0.1329
 2950SOL    HW220313   0.219   3.615   3.280  1.2465 -1.0925  3.3919
 2951SOL     OW20314   1.097   3.746   7.215 -0.1454 -0.0407 -0.2518
 2951SOL    HW120315   1.183   3.712   7.190 -1.1117 -2.9732  0.5085
 2951SOL    HW220316   1.110   3.792   7.298  0.3581 -1.1405  0.2812
 2952SOL     OW20317   0.080   0.757   8.065  0.3162  0.6467 -0.1637
 2952SOL    HW120318   0.135   0.679   8.073  0.5689  0.7900 -0.5052
 2952SOL    HW220319   0.135   0.811   8.009 -0.0984  0.3316 -0.8627
 2953SOL     OW20320   3.653   1.498  15.145 -0.3329  0.3022 -0.2661
 2953SOL    HW120321   3.643   1.583  15.101 -1.1411 -0.3299 -1.3087
 2953SOL    HW220322   3.582   1.450  15.103 -2.2241  2.0975  0.8853
 2954SOL     OW20323   3.500   3.776   4.775  0.1155 -0.3453 -0.1377
 2954SOL    HW120324   3.467   3.687   4.762  0.1905 -0.6917  2.0182
 2954SOL    HW220325   3.584   3.755   4.816  0.8837  1.4684 -0.7844
 2955SOL     OW20326   1.271   4.606   4.986  0.1332  0.4594  0.0754
 2955SOL    HW120327   1.250   4.686   5.035 -1.6772 -0.6870  1.1759
 2955SOL    HW220328   1.261   4.539   5.053 -1.7874 -0.6625 -1.3067
 2956SOL     OW20329   1.658   2.732   3.669  0.4286 -0.0770  0.0118
 2956SOL    HW120330   1.596   2.764   3.604 -2.3642  0.1533  2.7685
 2956SOL    HW220331   1.607   2.770   3.740 -2.2110 -0.2565 -1.8018
 2957SOL     OW20332   1.665   1.384   2.767 -0.3791 -0.1541  0.0813
 2957SOL    HW120333   1.605   1.420   2.833 -1.4257  0.4292 -1.1741
 2957SOL    HW220334   1.596   1.354   2.707  2.8583 -3.5116 -1.9537
 2958SOL     OW20335   1.628   2.438   7.247 -0.1341  0.0806 -0.2841
 2958SOL    HW120336   1.592   2.365   7.299 -1.3736  1.8462  1.3174
 2958SOL    HW220337   1.559   2.429   7.181 -0.8210 -0.5379  0.5145
 2959SOL     OW20338   0.942   0.371   3.603 -0.6927 -0.2212  0.5559
 2959SOL    HW120339   0.913   0.462   3.598 -0.2619 -0.1430 -0.7271
 2959SOL    HW220340   0.917   0.353   3.693 -0.3320  0.0830  0.7174
 2960SOL     OW20341   2.786   1.663   8.745  0.4760  0.1273 -0.3704
 2960SOL    HW120342   2.721   1.729   8.720 -0.5393 -0.9221 -0.4743
 2960SOL    HW220343   2.839   1.726   8.795 -0.5388  1.7977 -1.3806
 2961SOL     OW20344   1.864   2.411   6.764 -0.1052 -0.1076  0.1019
 2961SOL    HW120345   1.871   2.379   6.855  1.1524  0.7199  0.2867
 2961SOL    HW220346   1.771   2.394   6.750 -0.9377  2.7983  2.0917
 2962SOL     OW20347   1.034   2.305   9.311  0.6170 -0.0491  0.1611
 2962SOL    HW120348   1.068   2.294   9.222  0.4609 -3.1442  0.4898
 2962SOL    HW220349   1.018   2.216   9.342 -0.1551 -0.0522 -0.2289
 2963SOL     OW20350   2.776   1.106   0.833 -0.0590 -0.5206  0.0556
 2963SOL    HW120351   2.687   1.072   0.823  0.4225 -1.5124 -0.8099
 2963SOL    HW220352   2.821   1.082   0.752  0.8423  0.2683  0.3263
 2964SOL     OW20353   3.275   1.539   6.794 -0.5906 -0.2744  0.7458
 2964SOL    HW120354   3.358   1.567   6.756  0.0307 -1.5828  1.1380
 2964SOL    HW220355   3.204   1.588   6.752 -0.5359 -2.1045 -1.4705
 2965SOL     OW20356   2.202   3.840   4.174 -0.1395 -0.3736  0.3349
 2965SOL    HW120357   2.286   3.796   4.163  0.7388  1.3934  0.0313
 2965SOL    HW220358   2.194   3.890   4.093  1.0977 -0.6033  0.0847
 2966SOL     OW20359   2.111   4.013   2.871 -0.2349  0.2078 -0.3989
 2966SOL    HW120360   2.163   4.089   2.843  1.7569 -0.2518  2.0858
 2966SOL    HW220361   2.172   3.939   2.860 -1.0362 -0.0837 -2.8726
 2967SOL     OW20362   1.483   2.698   2.569  0.0464  0.5282 -0.1851
 2967SOL    HW120363   1.483   2.748   2.488 -2.3482  0.6811 -0.0777
 2967SOL    HW220364   1.462   2.612   2.532 -1.1639 -0.0395  1.8281
 2968SOL     OW20365   1.833   2.353   6.317  0.0448  0.2730 -0.5717
 2968SOL    HW120366   1.782   2.285   6.361  2.6252 -0.6623  0.9564
 2968SOL    HW220367   1.911   2.304   6.292  0.1857  0.5646 -0.7032
 2969SOL     OW20368   4.191   4.501   4.500  0.2769 -0.2818 -0.1426
 2969SOL    HW120369   4.097   4.482   4.510  0.0711  0.4056 -0.7722
 2969SOL    HW220370   4.212   4.436   4.433  1.1884  0.1924 -0.3086
 2970SOL     OW20371   1.790   0.396   5.693 -0.4525 -0.6722  0.0336
 2970SOL    HW120372   1.858   0.398   5.760  1.4631 -2.0078 -1.8835
 2970SOL    HW220373   1.839   0.405   5.612  0.5090 -1.0805  0.5683
 2971SOL     OW20374   0.144   3.402   4.025 -0.9993 -0.3770 -1.2709
 2971SOL    HW120375   0.188   3.320   4.048 -1.1607 -0.0765  0.1234
 2971SOL    HW220376   0.106   3.358   3.949  0.0538 -0.1447 -1.9336
 2972SOL     OW20377   3.857   1.729  14.193 -0.2501  0.0473 -0.1763
 2972SOL    HW120378   3.886   1.790  14.126  0.2063 -0.9524 -0.8879
 2972SOL    HW220379   3.874   1.781  14.272 -1.1033  2.9279 -1.9052
 2973SOL     OW20380   2.262   3.749   9.371  0.3247  0.4080 -0.4825
 2973SOL    HW120381   2.230   3.836   9.346 -2.0791 -0.5735 -0.8820
 2973SOL    HW220382   2.267   3.766   9.465 -1.0417  0.1580 -0.3653
 2974SOL     OW20383   4.202   1.971   2.612  0.3812  0.1226  0.0466
 2974SOL    HW120384   4.156   1.908   2.666 -1.7733  3.0834  1.6517
 2974SOL    HW220385   4.149   2.050   2.628 -1.2426 -1.3854  1.9990
 2975SOL     OW20386   1.022   1.805   5.218  0.4523 -0.1817  0.0521
 2975SOL    HW120387   1.077   1.875   5.253  1.2367 -0.4033 -0.7338
 2975SOL    HW220388   1.027   1.741   5.289  2.0093 -1.7695 -1.4580
 2976SOL     OW20389   1.838   2.788   4.715 -0.5332 -0.0848  0.2384
 2976SOL    HW120390   1.867   2.861   4.660  0.6109 -0.3015  0.5501
 2976SOL    HW220391   1.783   2.730   4.662 -0.5706  0.8655 -0.7650
 2977SOL     OW20392   0.388   2.725   5.152 -0.8003  0.1997  0.0263
 2977SOL    HW120393   0.463   2.670   5.175 -0.7077 -0.4915 -1.9323
 2977SOL    HW220394   0.385   2.797   5.215  2.3096  0.1915  0.1704
 2978SOL     OW20395   4.524   2.154   1.959 -0.0723  0.5565  0.0235
 2978SOL    HW120396   4.558   2.147   1.870 -3.7775  0.9890 -1.4114
 2978SOL    HW220397   4.466   2.230   1.954  1.7136  1.7956 -1.5936
 2979SOL     OW20398   1.971   0.281   0.364 -0.0810 -0.2698 -0.5541
 2979SOL    HW120399   2.007   0.326   0.287  0.2796 -0.7396 -0.6626
 2979SOL    HW220400   1.879   0.276   0.339 -0.2075 -0.0909 -0.1088
 2980SOL     OW20401   2.406   4.541   9.429  0.2173  0.6456  0.3909
 2980SOL    HW120402   2.396   4.446   9.430  1.3572  0.5131 -1.7298
 2980SOL    HW220403   2.368   4.556   9.516 -2.3272 -0.1612 -0.5852
 2981SOL     OW20404   1.840   2.953  13.465 -0.6703  0.4449  0.3620
 2981SOL    HW120405   1.860   2.860  13.455 -1.6626  0.3683 -0.8690
 2981SOL    HW220406   1.927   2.990  13.479 -0.4753  0.7714 -1.8719
 2982SOL     OW20407   1.847   3.051   5.132  0.2578 -0.1264 -0.4718
 2982SOL    HW120408   1.881   3.036   5.043  2.3724  1.2045  0.1020
 2982SOL    HW220409   1.757   3.020   5.126 -0.3100  1.8621 -2.1436
 2983SOL     OW20410   0.728   0.015   1.560 -0.2244 -0.1147  0.0237
 2983SOL    HW120411   0.744   0.029   1.653 -0.7444 -2.1006  0.4056
 2983SOL    HW220412   0.650   0.069   1.551 -0.1749  0.0436  0.5578
 2984SOL     OW20413   0.302   0.206  11.149  0.2432 -0.2803  0.4910
 2984SOL    HW120414   0.297   0.252  11.233  0.7245 -0.2112  0.4802
 2984SOL    HW220415   0.219   0.158  11.144  0.2882 -0.1689 -1.5580
 2985SOL     OW20416   0.214   0.777   5.546 -0.2775 -0.2327 -0.3591
 2985SOL    HW120417   0.281   0.808   5.607 -1.4777  1.2442  0.2352
 2985SOL    HW220418   0.216   0.682   5.553 -1.5437  0.0526  3.9349
 2986SOL     OW20419   3.948   2.861   6.893 -0.3033 -0.1467 -0.1261
 2986SOL    HW120420   3.934   2.882   6.985  1.6131 -0.9247  0.3312
 2986SOL    HW220421   3.860   2.881   6.860  0.6632  1.1380 -1.9427
 2987SOL     OW20422   4.379   0.205   7.724  0.3721  0.8095 -0.2729
 2987SOL    HW120423   4.364   0.138   7.791  0.8456  1.0102  0.0258
 2987SOL    HW220424   4.378   0.277   7.787  0.8632  1.6682 -1.2551
 2988SOL     OW20425   2.164   0.596  11.585  0.1946  0.3791 -0.0958
 2988SOL    HW120426   2.116   0.653  11.645  0.7029  0.2441  0.4341
 2988SOL    HW220427   2.098   0.531  11.561 -0.7756  0.2297  2.9552
 2989SOL     OW20428   0.700   2.572   2.017  0.1763  0.1795  0.3129
 2989SOL    HW120429   0.688   2.532   1.931 -0.4629 -1.7416  1.3122
 2989SOL    HW220430   0.792   2.546   2.022 -0.4037 -1.9503 -0.2350
 2990SOL     OW20431   2.371   0.146   4.786  0.1287  0.4266  0.3557
 2990SOL    HW120432   2.393   0.053   4.794  0.0108  0.5434  2.0111
 2990SOL    HW220433   2.385   0.167   4.694 -0.6733  0.9534  0.3549
 2991SOL     OW20434   1.001   4.311   9.714 -0.4232  0.1865  0.5931
 2991SOL    HW120435   1.051   4.392   9.725 -0.7730  0.5601 -0.6586
 2991SOL    HW220436   1.012   4.295   9.620 -1.2683  0.3621  0.4721
 2992SOL     OW20437   2.804   2.382  10.985 -0.3705  0.6789  0.4149
 2992SOL    HW120438   2.780   2.399  10.894 -0.3420 -2.0200 -0.1163
 2992SOL    HW220439   2.717   2.348  11.008 -0.2272  1.9547  2.7609
 2993SOL     OW20440   2.839   3.333   5.363 -0.0088 -0.0912  0.4281
 2993SOL    HW120441   2.911   3.386   5.330 -0.6913  0.5126 -0.0828
 2993SOL    HW220442   2.832   3.381   5.446 -0.5199 -0.9581  0.8820
 2994SOL     OW20443   0.348   3.630   6.115 -0.1416  0.4044 -0.1435
 2994SOL    HW120444   0.256   3.646   6.098 -0.4881 -1.0426  0.3208
 2994SOL    HW220445   0.360   3.558   6.052  2.6025 -0.2598  1.1156
 2995SOL     OW20446   0.445   3.408   6.414  0.2161  0.3466  0.1848
 2995SOL    HW120447   0.412   3.496   6.429  1.3797  0.7812  0.2142
 2995SOL    HW220448   0.427   3.361   6.495 -1.2922  1.1207  0.2998
 2996SOL     OW20449   2.609   4.563   6.605 -0.2670  0.8438 -0.1991
 2996SOL    HW120450   2.662   4.492   6.642 -0.0107  1.6421  0.9547
 2996SOL    HW220451   2.676   4.628   6.587 -1.0256  1.7126  0.1297
 2997SOL     OW20452   1.312   1.722  13.768  0.3034  0.6860 -0.0233
 2997SOL    HW120453   1.386   1.740  13.826  0.1062 -0.8605  0.7069
 2997SOL    HW220454   1.287   1.635  13.800  2.4665 -0.3858 -1.2724
 2998SOL     OW20455   1.542   0.777   2.835 -0.0224  0.4266 -0.4528
 2998SOL    HW120456   1.576   0.857   2.876  0.3156  0.2229 -0.3395
 2998SOL    HW220457   1.567   0.801   2.746 -2.5552 -0.8361 -1.5398
 2999SOL     OW20458   4.417   4.257  10.483 -0.4136  0.3830 -0.9131
 2999SOL    HW120459   4.399   4.178  10.533  1.7942  0.2305 -0.3439
 2999SOL    HW220460   4.480   4.303  10.539  1.7858 -3.0008 -0.5857
 3000SOL     OW20461   3.542   1.268   8.239 -0.2235 -0.0528  0.0809
 3000SOL    HW120462   3.489   1.191   8.219  0.8870  0.1725 -3.6005
 3000SOL    HW220463   3.526   1.311   8.155 -1.9117  1.3033  1.0843
 3001SOL     OW20464   1.437   1.330   8.397  0.2575 -0.4035  0.4800
 3001SOL    HW120465   1.367   1.346   8.334  0.0993  0.9961  1.0028
 3001SOL    HW220466   1.498   1.285   8.338 -1.0484 -2.1234  0.4455
 3002SOL     OW20467   2.565   0.460  12.837 -0.3187  0.1951  0.0497
 3002SOL    HW120468   2.514   0.528  12.880  0.8168 -0.3568  2.2942
 3002SOL    HW220469   2.579   0.488  12.747  0.8415 -0.5418  0.0006
 3003SOL     OW20470   1.026   2.410  16.509  0.6434  0.6436  0.1896
 3003SOL    HW120471   1.045   2.463  16.432 -1.9894  1.1340 -0.1332
 3003SOL    HW220472   0.936   2.386  16.484  1.2564  0.8867 -2.2172
 3004SOL     OW20473   4.666   1.690   6.142  0.1012 -0.1039  0.0243
 3004SOL    HW120474   0.027   1.692   6.099 -0.3823  1.6571 -0.8788
 3004SOL    HW220475   4.663   1.774   6.189 -0.5123 -0.2853  0.3033
 3005SOL     OW20476   1.929   1.945   7.074 -0.3132 -0.1192 -0.3920
 3005SOL    HW120477   1.882   1.900   7.003 -3.3624 -0.1128  1.6177
 3005SOL    HW220478   2.005   1.978   7.026  1.0156 -2.2621  0.1890
 3006SOL     OW20479   1.889   3.991   7.222  0.0538  0.2061 -0.1550
 3006SOL    HW120480   1.822   4.059   7.222 -0.8550 -0.6947  0.0964
 3006SOL    HW220481   1.967   4.041   7.196  1.5878 -1.8058  0.5010
 3007SOL     OW20482   4.684   2.830   1.880 -0.2746  0.2037  0.0455
 3007SOL    HW120483   0.051   2.818   1.861 -0.2736  0.5270 -0.1402
 3007SOL    HW220484   4.647   2.753   1.837  1.0506  0.1055 -0.9108
 3008SOL     OW20485   2.837   1.849   7.133  0.0155 -0.0444 -0.0167
 3008SOL    HW120486   2.853   1.768   7.086  1.3471  0.1564  0.0721
 3008SOL    HW220487   2.909   1.844   7.196  1.1618  0.0136 -1.3165
 3009SOL     OW20488   4.717   1.018   7.357  0.3674  0.0450 -0.4097
 3009SOL    HW120489   0.009   0.924   7.368 -0.5900 -0.2633 -1.5083
 3009SOL    HW220490   4.675   1.030   7.442 -1.5936 -2.1692 -1.0425
 3010SOL     OW20491   4.253   4.394   1.614  0.1998  0.1992 -0.0706
 3010SOL    HW120492   4.287   4.476   1.650 -0.3891 -0.0233  0.9937
 3010SOL    HW220493   4.241   4.415   1.521  1.0855  2.3194  0.2878
 3011SOL     OW20494   4.256   0.649   2.378  0.2848  0.5203 -0.2475
 3011SOL    HW120495   4.334   0.662   2.324 -2.1446  0.2962 -3.8291
 3011SOL    HW220496   4.279   0.689   2.462  2.1990 -1.7184  0.2822
 3012SOL     OW20497   3.978   1.537   6.519 -0.6416 -0.5706  0.0432
 3012SOL    HW120498   3.899   1.576   6.557  0.4942  3.1327 -1.4497
 3012SOL    HW220499   3.948   1.446   6.523  0.7103 -0.9051  2.2386
 3013SOL     OW20500   4.433   3.281   2.257 -0.6693 -0.6844 -0.1607
 3013SOL    HW120501   4.363   3.305   2.197  1.6917  3.2789 -1.3132
 3013SOL    HW220502   4.469   3.369   2.268 -2.2527  0.0680 -1.0908
 3014SOL     OW20503   4.119   4.145   0.220  0.1647 -0.2287 -0.2860
 3014SOL    HW120504   4.137   4.238   0.205  0.3620 -0.0387  1.1011
 3014SOL    HW220505   4.036   4.137   0.174  1.3568 -0.6763 -2.3559
 3015SOL     OW20506   2.112   0.270   1.096  1.1541 -0.2958 -0.3848
 3015SOL    HW120507   2.070   0.189   1.068  2.4779 -0.4904 -1.7968
 3015SOL    HW220508   2.168   0.247   1.171  2.0379 -1.2098 -1.3278
 3016SOL     OW20509   1.704   3.161  16.824  0.4804  0.4236  0.3188
 3016SOL    HW120510   1.647   3.084  16.825 -0.0481  0.7814 -1.1925
 3016SOL    HW220511   1.648   3.232  16.792 -0.6626 -1.1471 -1.1752
 3017SOL     OW20512   3.589   4.652   6.359 -0.4444  0.0376 -0.2608
 3017SOL    HW120513   3.662   4.710   6.340 -0.6578  1.1461  2.3321
 3017SOL    HW220514   3.617   4.573   6.313 -0.0582  0.8645 -1.4469
 3018SOL     OW20515   1.642   1.479   4.928  0.3295  0.5141  0.1941
 3018SOL    HW120516   1.651   1.570   4.955  0.8209  0.2415  0.9369
 3018SOL    HW220517   1.702   1.442   4.992  1.2138  0.0109 -0.9162
 3019SOL     OW20518   1.341   1.435  15.367 -0.2497  0.2473 -0.2435
 3019SOL    HW120519   1.313   1.444  15.275 -0.8822 -1.9319 -0.2776
 3019SOL    HW220520   1.338   1.340  15.375 -0.7556  0.4089  1.3327
 3020SOL     OW20521   4.062   1.847   4.437 -0.8334  0.3690  0.4311
 3020SOL    HW120522   4.019   1.808   4.360  2.2693 -2.7762  0.3222
 3020SOL    HW220523   4.103   1.767   4.470 -0.2634  0.5238  0.0835
 3021SOL     OW20524   0.386   4.143   1.689  0.2311 -0.0044  0.1499
 3021SOL    HW120525   0.408   4.051   1.671  1.4066  0.6027 -1.5258
 3021SOL    HW220526   0.472   4.180   1.666 -0.5778  0.3651 -2.2170
 3022SOL     OW20527   2.190   0.541   5.332 -0.1445  0.1194  0.3329
 3022SOL    HW120528   2.243   0.462   5.330 -2.1591 -1.2258  0.3179
 3022SOL    HW220529   2.258   0.607   5.348  1.0196 -0.5014 -1.9125
 3023SOL     OW20530   2.346   0.975   2.955 -0.3616  0.2462 -0.1502
 3023SOL    HW120531   2.379   0.964   2.866  0.9064  0.8826  0.2408
 3023SOL    HW220532   2.287   0.899   2.954 -0.4655  0.3140  2.3491
 3024SOL     OW20533   3.611   2.254   3.541  0.1592 -0.0365  0.0064
 3024SOL    HW120534   3.584   2.204   3.464 -0.4497 -1.4121  1.1261
 3024SOL    HW220535   3.603   2.187   3.609  0.7156  0.0951  0.2006
 3025SOL     OW20536   1.815   4.672  12.925  0.1983  0.1721 -0.0832
 3025SOL    HW120537   1.904   4.681  12.891  0.0439  1.1026 -0.2512
 3025SOL    HW220538   1.782   4.601  12.870  0.3487 -1.0717  1.4452
 3026SOL     OW20539   3.723   2.295   6.127  0.1123  0.1451 -0.0141
 3026SOL    HW120540   3.721   2.225   6.192 -0.5820 -1.0863 -1.3632
 3026SOL    HW220541   3.815   2.319   6.117  0.3301 -0.6465  0.0860
 3027SOL     OW20542   3.267   3.070  16.021  0.1030 -0.1830  0.4368
 3027SOL    HW120543   3.284   3.045  16.112  2.4625  1.6113  0.4914
 3027SOL    HW220544   3.317   3.151  16.018 -1.2362  0.4912 -3.0173
 3028SOL     OW20545   1.621   0.436   5.138  0.0442 -0.1811  0.2889
 3028SOL    HW120546   1.611   0.417   5.232  0.5678 -0.6821  0.2392
 3028SOL    HW220547   1.665   0.521   5.144 -0.6683  0.2304 -0.3931
 3029SOL     OW20548   0.442   0.010   3.085  0.7028 -0.1969  0.0284
 3029SOL    HW120549   0.355   4.700   3.106  0.8607 -0.0974  0.8447
 3029SOL    HW220550   0.498   4.698   3.154  0.6432  2.9580  1.7637
 3030SOL     OW20551   2.032   0.104  11.613 -1.0118  0.1121  0.1072
 3030SOL    HW120552   2.016   0.136  11.525 -1.0719 -2.3386 -0.7818
 3030SOL    HW220553   2.040   0.011  11.592  0.5716  0.1801  0.3643
 3031SOL     OW20554   1.543   3.023   7.101  0.3365  0.0827 -0.2365
 3031SOL    HW120555   1.529   3.048   7.010 -1.4480  1.8527  0.5154
 3031SOL    HW220556   1.463   2.972   7.116  1.1234 -0.9978  0.2565
 3032SOL     OW20557   0.374   3.514   3.955 -0.1907 -0.0173 -0.1454
 3032SOL    HW120558   0.287   3.480   3.978  0.3126 -1.7934 -0.8731
 3032SOL    HW220559   0.431   3.442   3.982 -1.4276 -0.5600  1.0466
 3033SOL     OW20560   2.567   3.856   8.746 -0.4110 -0.4978 -0.1382
 3033SOL    HW120561   2.606   3.808   8.819 -0.1911 -1.2138 -0.7295
 3033SOL    HW220562   2.639   3.888   8.691 -0.2211 -0.0833  0.3589
 3034SOL     OW20563   2.738   4.148   9.323  0.3348 -0.1178  0.2559
 3034SOL    HW120564   2.684   4.223   9.297 -0.6704 -0.1976  2.1341
 3034SOL    HW220565   2.802   4.127   9.256 -0.3303  1.3328 -0.8609
 3035SOL     OW20566   0.563   2.796   6.325  0.6577  0.0658 -0.5147
 3035SOL    HW120567   0.546   2.860   6.394 -0.4333 -0.0608 -0.6657
 3035SOL    HW220568   0.527   2.715   6.361  1.1646 -0.3001 -0.8433
 3036SOL     OW20569   3.917   4.210   9.585  0.4464 -0.4540 -0.1478
 3036SOL    HW120570   3.865   4.276   9.540 -1.5984 -0.4042  2.2580
 3036SOL    HW220571   3.982   4.265   9.629  1.2829 -0.6450 -1.1487
 3037SOL     OW20572   2.428   2.498   4.891 -0.7632 -0.0631 -0.0486
 3037SOL    HW120573   2.515   2.527   4.917 -0.9790  1.0923 -0.5885
 3037SOL    HW220574   2.412   2.564   4.823  0.7391 -0.9124 -1.2220
 3038SOL     OW20575   4.437   4.418   6.695 -0.3212 -0.6380  0.3385
 3038SOL    HW120576   4.403   4.405   6.606 -2.5854  0.1300  1.0823
 3038SOL    HW220577   4.496   4.493   6.687 -0.9331 -0.1828  0.0751
 3039SOL     OW20578   1.429   1.905   5.078  0.1287 -0.6062 -0.3676
 3039SOL    HW120579   1.522   1.923   5.087 -0.4991  1.8307  1.5387
 3039SOL    HW220580   1.440   1.847   5.003  0.9287  0.2918 -0.9475
 3040SOL     OW20581   1.685   2.629   4.917 -0.6712  0.3594  0.1341
 3040SOL    HW120582   1.717   2.639   4.827 -0.3416 -0.4972  0.1541
 3040SOL    HW220583   1.750   2.567   4.951  0.7039  1.5056 -0.4042
 3041SOL     OW20584   4.399   0.569   4.764  0.0135 -0.4804 -0.1874
 3041SOL    HW120585   4.473   0.621   4.736  0.0032  0.2555  1.1533
 3041SOL    HW220586   4.394   0.529   4.677 -0.7552 -1.7542  0.4348
 3042SOL     OW20587   0.379   0.236  10.213 -0.3922 -0.2332 -0.0947
 3042SOL    HW120588   0.475   0.240  10.217 -0.3601 -1.9233  0.6850
 3042SOL    HW220589   0.351   0.145  10.211  0.7378 -0.5793 -0.2440
 3043SOL     OW20590   4.606   3.660  13.203 -0.3832 -0.0523  0.2070
 3043SOL    HW120591   4.551   3.581  13.200 -0.1132 -0.1841 -1.1627
 3043SOL    HW220592   4.544   3.717  13.249  1.6516  0.9849  1.6174
 3044SOL     OW20593   4.374   0.139   8.288  0.2244 -0.1696 -0.2773
 3044SOL    HW120594   4.448   0.078   8.295 -0.4297 -0.9991 -0.5616
 3044SOL    HW220595   4.345   0.131   8.379  1.7464 -2.0353  0.0545
 3045SOL     OW20596   1.556   1.286  13.713  0.2361  0.0275  0.7524
 3045SOL    HW120597   1.592   1.292  13.625  1.6495  0.8770  1.3922
 3045SOL    HW220598   1.484   1.223  13.707  0.2119  0.0881  0.4284
 3046SOL     OW20599   3.289   2.931   9.255 -0.3794  0.2851  1.1344
 3046SOL    HW120600   3.198   2.910   9.235  0.1819 -0.1221 -1.0245
 3046SOL    HW220601   3.292   3.021   9.222  1.2976 -0.1653  0.0533
 3047SOL     OW20602   1.777   1.995  11.625  0.2820  0.1166  0.4273
 3047SOL    HW120603   1.800   1.993  11.533 -0.9809  1.8651  0.0720
 3047SOL    HW220604   1.705   1.932  11.621  0.2800  0.2603 -1.5816
 3048SOL     OW20605   1.473   1.286   6.685 -0.7851 -0.4003 -0.8477
 3048SOL    HW120606   1.490   1.343   6.760 -1.3121  0.3064 -1.2681
 3048SOL    HW220607   1.554   1.276   6.636 -0.5573 -4.5713  0.3899
 3049SOL     OW20608   0.927   4.690   2.456 -0.1824  0.1320 -0.3830
 3049SOL    HW120609   0.856   4.685   2.393 -0.9373  0.6992  0.4174
 3049SOL    HW220610   0.902   0.033   2.519  0.1851  0.7249 -0.8767
 3050SOL     OW20611   4.344   3.469   1.213 -0.2692 -0.3030 -0.2374
 3050SOL    HW120612   4.331   3.558   1.182  1.4244  0.6149  1.6303
 3050SOL    HW220613   4.256   3.465   1.250 -0.2456 -0.4790 -0.2001
 3051SOL     OW20614   3.845   3.307  14.861 -0.2669 -0.0425  0.1402
 3051SOL    HW120615   3.876   3.339  14.945 -0.2279 -2.1872  0.9518
 3051SOL    HW220616   3.929   3.304  14.816 -0.9810  0.1267 -1.2146
 3052SOL     OW20617   2.067   2.853  11.615  0.1535  0.3052  0.2278
 3052SOL    HW120618   2.061   2.886  11.704  0.1963  1.6231 -0.2594
 3052SOL    HW220619   1.985   2.885  11.576  0.6604 -0.6279 -1.6284
 3053SOL     OW20620   2.064   2.231   6.727  0.2244  0.1675 -0.2772
 3053SOL    HW120621   1.994   2.294   6.744 -1.5768 -1.4088 -1.9135
 3053SOL    HW220622   2.022   2.194   6.649  0.9005  0.5391 -0.8214
 3054SOL     OW20623   1.266   3.870   6.956 -0.4724  0.5041  0.3452
 3054SOL    HW120624   1.231   3.789   6.919  0.7484 -0.0692  0.4369
 3054SOL    HW220625   1.309   3.838   7.035 -1.0128  1.6949  1.1194
 3055SOL     OW20626   0.157   4.720   6.476 -0.1681  0.2861  0.1798
 3055SOL    HW120627   0.084   0.009   6.415 -0.0963  0.6340  0.1757
 3055SOL    HW220628   0.239   0.000   6.427  0.6054  0.1842  1.4825
 3056SOL     OW20629   2.943   1.112   2.504 -0.0976 -0.2795 -0.2852
 3056SOL    HW120630   2.905   1.071   2.427 -0.8235  1.3472 -0.7918
 3056SOL    HW220631   3.022   1.145   2.463  0.6293 -1.3900  0.2018
 3057SOL     OW20632   0.756   0.105   7.654 -0.1332 -0.6261  0.1892
 3057SOL    HW120633   0.730   0.111   7.746 -0.1193  1.2257  0.0569
 3057SOL    HW220634   0.695   0.038   7.624 -0.2865 -0.1929 -0.4560
 3058SOL     OW20635   1.884   4.385   2.656 -0.2348 -0.1215  0.1887
 3058SOL    HW120636   1.819   4.327   2.616  1.6121 -1.4156 -0.9154
 3058SOL    HW220637   1.863   4.469   2.617  2.0639  1.4418  2.3266
 3059SOL     OW20638   3.644   1.491   4.943 -0.5043  0.0093 -0.3995
 3059SOL    HW120639   3.562   1.441   4.939 -0.0340 -0.8274  0.5961
 3059SOL    HW220640   3.692   1.441   5.008 -0.1756 -0.7875 -1.2486
 3060SOL     OW20641   2.577   4.036  17.652 -0.3169  0.2926  0.5863
 3060SOL    HW120642   2.486   4.014  17.670  0.1337 -2.2606 -0.2491
 3060SOL    HW220643   2.571   4.087  17.571 -0.5818 -0.2129  0.2876
 3061SOL     OW20644   3.620   0.319   5.923  0.1151 -0.4408  0.0929
 3061SOL    HW120645   3.694   0.349   5.871 -0.5236  2.5570  0.9300
 3061SOL    HW220646   3.671   0.252   5.968  2.6584  1.9279  0.6938
 3062SOL     OW20647   3.408   0.174  14.374  0.0832 -0.3701 -0.5478
 3062SOL    HW120648   3.480   0.228  14.342 -0.1761  0.6223  0.5511
 3062SOL    HW220649   3.368   0.144  14.293  0.1574 -2.4205  0.1711
 3063SOL     OW20650   3.247   4.030   3.823  0.5512 -0.4478  0.5635
 3063SOL    HW120651   3.244   4.116   3.780  3.6744 -0.9268 -0.6279
 3063SOL    HW220652   3.235   4.042   3.917  2.2174 -4.1438  1.2643
 3064SOL     OW20653   1.956   0.417   5.480  0.4210  0.2649 -0.2573
 3064SOL    HW120654   1.959   0.354   5.408  0.6276 -1.0275  0.8650
 3064SOL    HW220655   2.038   0.462   5.461  0.6490 -0.7572 -1.7139
 3065SOL     OW20656   4.169   0.813   6.383 -0.4038 -0.0086  0.9084
 3065SOL    HW120657   4.190   0.755   6.456  0.4406  0.4494  1.0274
 3065SOL    HW220658   4.204   0.754   6.315  1.8267  1.8377  0.4535
 3066SOL     OW20659   4.102   2.401   0.700  0.1077 -0.2372  0.1919
 3066SOL    HW120660   4.027   2.444   0.659  0.1638  1.4771  1.8765
 3066SOL    HW220661   4.100   2.312   0.666  1.3529  0.3467 -1.3913
 3067SOL     OW20662   0.163   2.393  15.378 -0.0505  0.2755  0.0377
 3067SOL    HW120663   0.102   2.415  15.307  0.5588  0.1211 -0.5375
 3067SOL    HW220664   0.126   2.434  15.456  3.2953  2.8713  0.2689
 3068SOL     OW20665   1.333   1.508   3.802 -0.0698  0.6682  0.1619
 3068SOL    HW120666   1.391   1.432   3.793 -1.9256 -0.6947 -0.1261
 3068SOL    HW220667   1.373   1.571   3.742  0.6528  1.0703  1.0606
 3069SOL     OW20668   2.553   4.202  15.516 -0.0299 -0.0083 -0.3336
 3069SOL    HW120669   2.611   4.257  15.569 -1.3861 -1.7800  2.9879
 3069SOL    HW220670   2.477   4.203  15.573  1.5830  0.6139  1.8243
 3070SOL     OW20671   0.174   2.143   7.024 -0.7565 -0.8668 -0.1552
 3070SOL    HW120672   0.185   2.083   6.950 -1.0480 -0.1250 -0.8033
 3070SOL    HW220673   0.137   2.087   7.092  0.5007  1.0634  2.1313
 3071SOL     OW20674   0.762   4.625   8.986 -0.2394  0.6909 -0.4911
 3071SOL    HW120675   0.818   4.676   9.045  1.5216 -2.3945  0.5483
 3071SOL    HW220676   0.689   4.679   8.955 -0.3624  0.2514 -0.9707
 3072SOL     OW20677   4.272   2.729   2.559  0.4192 -0.4707 -0.2052
 3072SOL    HW120678   4.201   2.666   2.573 -0.9444  1.2314  0.5078
 3072SOL    HW220679   4.324   2.716   2.638  1.5459  1.6373 -0.6168
 3073SOL     OW20680   0.611   2.939   1.689 -0.0317  0.3717 -0.1061
 3073SOL    HW120681   0.594   2.887   1.768 -2.4787  0.4028 -0.5978
 3073SOL    HW220682   0.663   2.876   1.640  0.7769 -1.1870  2.7423
 3074SOL     OW20683   2.621   2.072   8.146 -0.3507  0.1149 -0.1580
 3074SOL    HW120684   2.547   2.107   8.196 -0.6061  0.3951 -0.7282
 3074SOL    HW220685   2.698   2.115   8.183  0.1162  0.6983 -1.8018
 3075SOL     OW20686   0.161   3.783   7.325  0.5649 -0.4675 -0.2784
 3075SOL    HW120687   0.127   3.711   7.272 -1.2851  0.0663  0.1881
 3075SOL    HW220688   0.134   3.744   7.407  2.3687 -0.0347  0.5376
 3076SOL     OW20689   1.504   4.337   2.651 -0.1533  0.2890  0.1171
 3076SOL    HW120690   1.574   4.315   2.590 -0.9008  0.7926 -0.9089
 3076SOL    HW220691   1.540   4.417   2.690 -0.1466  0.1254  0.4429
 3077SOL     OW20692   0.719   4.616   6.653  0.5944  0.0821  0.3831
 3077SOL    HW120693   0.744   4.539   6.705  1.1484 -0.7442 -1.0696
 3077SOL    HW220694   0.648   4.584   6.598  1.5128 -0.8792 -0.2551
 3078SOL     OW20695   1.361   3.756   8.580  0.1895  0.1607 -0.5841
 3078SOL    HW120696   1.423   3.689   8.609 -0.8024  0.7466  2.8241
 3078SOL    HW220697   1.402   3.791   8.501 -1.0086 -1.5286 -1.9486
 3079SOL     OW20698   1.248   1.139   2.034 -1.0457  0.7373  0.0553
 3079SOL    HW120699   1.264   1.055   1.993  0.4794  1.5298 -0.9727
 3079SOL    HW220700   1.311   1.196   1.989 -0.7577  1.6269  1.5588
 3080SOL     OW20701   4.152   1.780   2.205  0.3170 -0.4537 -0.0305
 3080SOL    HW120702   4.070   1.770   2.253  1.9670 -0.9991  2.7096
 3080SOL    HW220703   4.163   1.694   2.163  0.4586 -0.2539 -0.3962
 3081SOL     OW20704   2.410   3.648   5.016  0.5263 -0.1502 -0.4442
 3081SOL    HW120705   2.470   3.590   4.971 -0.8206  0.1000 -2.5507
 3081SOL    HW220706   2.338   3.585   5.015  1.2696 -0.9673 -1.2862
 3082SOL     OW20707   2.770   2.557   4.447  0.4967 -0.7188  0.3708
 3082SOL    HW120708   2.815   2.480   4.412 -2.1369 -2.4195  0.7335
 3082SOL    HW220709   2.833   2.622   4.419  1.6019 -2.2323 -0.6822
 3083SOL     OW20710   0.242   0.799   3.978  0.3433  0.6424 -0.1920
 3083SOL    HW120711   0.221   0.708   3.957  0.8927  0.7340 -1.1285
 3083SOL    HW220712   0.172   0.823   4.039  0.3188 -0.6568  0.2833
 3084SOL     OW20713   2.270   3.691   4.743 -0.4223  0.1575  0.2485
 3084SOL    HW120714   2.177   3.707   4.733 -0.1242  1.3835 -0.5040
 3084SOL    HW220715   2.267   3.608   4.791 -0.8759 -1.4090 -2.5016
 3085SOL     OW20716   0.400   1.781   8.458  0.2428 -0.1056 -0.1318
 3085SOL    HW120717   0.446   1.837   8.396 -4.1533  0.9419 -2.5120
 3085SOL    HW220718   0.354   1.711   8.411 -0.5845 -0.6191  1.4044
 3086SOL     OW20719   4.109   1.551   2.025  0.5242  0.2837 -0.2765
 3086SOL    HW120720   4.174   1.599   1.974  0.9721 -0.5176 -0.4588
 3086SOL    HW220721   4.059   1.504   1.958  1.8863  1.0167 -1.8145
 3087SOL     OW20722   1.827   0.681  15.237  0.5972 -0.0425  0.0362
 3087SOL    HW120723   1.835   0.695  15.331  1.9403  3.1443 -0.5508
 3087SOL    HW220724   1.786   0.598  15.215  3.7069 -1.8348  0.9875
 3088SOL     OW20725   1.574   0.402   9.987 -0.1788 -0.5637 -0.3939
 3088SOL    HW120726   1.524   0.482   9.975  0.1388  0.2036  3.3458
 3088SOL    HW220727   1.531   0.347  10.053  1.0630  0.7674  1.5451
 3089SOL     OW20728   1.672   2.829   5.706  0.6462 -0.2029  0.2596
 3089SOL    HW120729   1.748   2.873   5.667  0.0147  1.2620  0.6507
 3089SOL    HW220730   1.679   2.862   5.796 -0.9538 -1.0002  0.6631
 3090SOL     OW20731   2.248   2.904   6.710 -0.3652 -0.1344  0.3532
 3090SOL    HW120732   2.236   2.991   6.748  1.6763  0.6906 -0.9038
 3090SOL    HW220733   2.177   2.857   6.753  0.0887 -2.7016 -1.6661
 3091SOL     OW20734   1.630   3.448  14.639  0.7792  0.3442  0.2170
 3091SOL    HW120735   1.663   3.430  14.727 -1.3915 -0.5630  0.8630
 3091SOL    HW220736   1.705   3.494  14.603  0.2219 -0.4738 -1.9449
 3092SOL     OW20737   0.958   1.687   6.504 -0.2034 -0.3377  0.0972
 3092SOL    HW120738   0.994   1.716   6.420 -0.8747 -1.0963 -0.4521
 3092SOL    HW220739   0.868   1.719   6.502  0.3137  1.2360  1.9324
 3093SOL     OW20740   3.785   3.999   4.889 -1.1672 -0.3205  0.3547
 3093SOL    HW120741   3.812   3.993   4.981 -0.6007  1.6800  0.3230
 3093SOL    HW220742   3.801   3.912   4.852  1.6802  1.3214 -2.3147
 3094SOL     OW20743   0.156   2.521   4.090  0.7632 -0.1458  0.2337
 3094SOL    HW120744   0.229   2.561   4.043 -0.0334 -0.6244 -1.4353
 3094SOL    HW220745   0.194   2.479   4.167  1.8005  0.3860  0.0094
 3095SOL     OW20746   4.204   3.858   5.592  0.7150 -0.2567 -0.3534
 3095SOL    HW120747   4.197   3.876   5.498  0.1524  2.3682  0.1722
 3095SOL    HW220748   4.169   3.937   5.634  0.8637 -1.1183  1.3861
 3096SOL     OW20749   2.485   2.151   1.876 -0.3046 -0.0932 -0.4886
 3096SOL    HW120750   2.509   2.114   1.961  1.7110  0.0865 -0.9578
 3096SOL    HW220751   2.420   2.219   1.895 -0.9987 -1.1466  0.8413
 3097SOL     OW20752   0.989   1.137   8.525 -0.4372  0.2020 -0.2254
 3097SOL    HW120753   1.074   1.100   8.504 -0.0569  1.2389 -0.5031
 3097SOL    HW220754   0.938   1.062   8.557  1.5315 -1.2497 -0.5422
 3098SOL     OW20755   0.293   2.698  16.303 -0.1374  0.1743  0.1591
 3098SOL    HW120756   0.346   2.686  16.381 -1.6277 -1.9152  0.8418
 3098SOL    HW220757   0.275   2.607  16.280 -0.4901  0.1110  0.6948
 3099SOL     OW20758   1.356   1.903   8.726 -0.0038  0.1908  0.4045
 3099SOL    HW120759   1.272   1.929   8.763 -0.5454 -0.4154 -0.4129
 3099SOL    HW220760   1.372   1.831   8.786 -3.7578 -1.9543 -1.2113
 3100SOL     OW20761   3.784   4.329   8.463  0.0960 -0.1631 -0.4221
 3100SOL    HW120762   3.706   4.300   8.417  0.2143 -0.8276 -0.2100
 3100SOL    HW220763   3.754   4.377   8.540  2.2394 -0.2282  0.4771
 3101SOL     OW20764   0.545   0.253   8.579 -0.2057 -0.0220 -0.3089
 3101SOL    HW120765   0.460   0.241   8.621  0.1471 -1.0518  0.1071
 3101SOL    HW220766   0.562   0.169   8.537 -1.1882 -0.2424 -0.2697
 3102SOL     OW20767   3.457   4.325   3.931  0.0019 -0.2205 -0.4279
 3102SOL    HW120768   3.415   4.271   3.999 -0.3292  0.0405 -0.4256
 3102SOL    HW220769   3.407   4.404   3.951 -1.1287 -2.0199  3.9190
 3103SOL     OW20770   1.823   2.708   9.080  0.0117  1.0382  0.0467
 3103SOL    HW120771   1.760   2.669   9.020 -2.3804  0.3727  2.9420
 3103SOL    HW220772   1.762   2.727   9.151 -0.5470  0.9507 -0.4093
 3104SOL     OW20773   4.693   1.935  15.363  0.2699  0.1387 -0.3928
 3104SOL    HW120774   4.680   1.957  15.455 -1.6098  2.4041 -1.1932
 3104SOL    HW220775   4.619   1.876  15.349  0.7553 -0.3468 -0.9305
 3105SOL     OW20776   2.206   4.698   5.699 -1.1919  0.2301  0.6096
 3105SOL    HW120777   2.142   4.655   5.642 -0.2007  0.0052 -0.3446
 3105SOL    HW220778   2.212   0.056   5.653 -0.0588 -0.4032 -0.4108
 3106SOL     OW20779   3.809   2.915   7.357  0.4757  0.8184  0.3131
 3106SOL    HW120780   3.805   2.993   7.412  0.4635  1.0181  0.0322
 3106SOL    HW220781   3.720   2.880   7.366  0.4536  1.1530  1.4101
 3107SOL     OW20782   1.645   3.305  17.393  0.1523  0.5639  0.5618
 3107SOL    HW120783   1.663   3.371  17.460 -0.8261  0.2507  1.1332
 3107SOL    HW220784   1.552   3.322  17.376  0.2282 -0.7040 -1.1059
 3108SOL     OW20785   0.932   0.693   6.772  0.1747 -0.2327 -0.2763
 3108SOL    HW120786   0.935   0.597   6.776  0.1959 -0.1073  3.1395
 3108SOL    HW220787   0.911   0.711   6.681  1.7986  0.3120 -0.5470
 3109SOL     OW20788   1.525   0.247   0.483 -0.0937 -0.3778  0.1673
 3109SOL    HW120789   1.552   0.217   0.569 -0.4809  0.2850  0.5187
 3109SOL    HW220790   1.540   0.163   0.439  0.4718  0.1995 -0.7516
 3110SOL     OW20791   1.626   2.671  13.459 -0.1155  0.0818  0.2592
 3110SOL    HW120792   1.708   2.637  13.493 -0.9535 -1.7125  0.4846
 3110SOL    HW220793   1.569   2.670  13.536 -1.5366 -0.8383 -0.7819
 3111SOL     OW20794   1.203   0.640  12.007  0.4930 -0.0160 -0.3291
 3111SOL    HW120795   1.287   0.647  12.053  1.3074  0.0393 -1.8068
 3111SOL    HW220796   1.146   0.685  12.069 -0.9717  1.5154 -2.7498
 3112SOL     OW20797   0.812   0.551  11.308  0.6092  0.0611  0.2432
 3112SOL    HW120798   0.807   0.520  11.218 -0.3320 -2.2715  1.0976
 3112SOL    HW220799   0.824   0.464  11.347 -0.1332 -0.2404 -0.1941
 3113SOL     OW20800   2.183   4.365   4.990 -1.4516  0.3059  0.2922
 3113SOL    HW120801   2.130   4.314   4.929 -1.3605  0.1092  0.3774
 3113SOL    HW220802   2.138   4.447   4.973  1.1196  1.6530  0.1351
 3114SOL     OW20803   0.587   3.928   4.560 -0.5326  0.0159 -0.2690
 3114SOL    HW120804   0.615   3.912   4.650  1.7592  0.0660 -0.9579
 3114SOL    HW220805   0.611   4.021   4.556  1.1128 -0.3082  2.1040
 3115SOL     OW20806   2.480   2.232   3.299 -0.1677  0.5937  0.6035
 3115SOL    HW120807   2.470   2.327   3.312 -2.6373  0.2426  1.3783
 3115SOL    HW220808   2.469   2.236   3.204 -4.6321 -0.0473  1.0696
 3116SOL     OW20809   1.966   0.885   2.212  0.4305  0.2573  0.2028
 3116SOL    HW120810   1.928   0.853   2.130  0.1345  0.9752  0.0680
 3116SOL    HW220811   1.967   0.979   2.196  0.5005  0.7659  3.2452
 3117SOL     OW20812   3.270   0.019   9.197 -0.0850  0.0140 -0.6615
 3117SOL    HW120813   3.341   0.029   9.133  0.9733 -0.2679  0.4496
 3117SOL    HW220814   3.262   0.107   9.234 -1.8959 -2.2478  4.2657
 3118SOL     OW20815   0.886   2.350   7.804  0.2479  0.1126  0.4186
 3118SOL    HW120816   0.813   2.404   7.773  0.1559 -0.5704 -0.5259
 3118SOL    HW220817   0.961   2.406   7.784 -0.1852  0.8595  0.8598
 3119SOL     OW20818   4.385   3.223   0.775  0.2323 -0.3924  0.1120
 3119SOL    HW120819   4.310   3.175   0.740  0.6829 -0.2479 -1.0609
 3119SOL    HW220820   4.347   3.272   0.848 -1.9651  0.0777 -1.3465
 3120SOL     OW20821   3.569   1.825   4.431  0.4025 -0.5662 -0.3631
 3120SOL    HW120822   3.549   1.918   4.445  0.8354 -0.2573 -1.7779
 3120SOL    HW220823   3.622   1.811   4.510 -0.9022  0.3049  0.6795
 3121SOL     OW20824   0.880   0.421   6.753  0.1214 -0.0925 -0.3676
 3121SOL    HW120825   0.826   0.362   6.806 -0.3609  0.1537 -0.5817
 3121SOL    HW220826   0.869   0.380   6.667  0.8614  4.1707 -2.5109
 3122SOL     OW20827   0.565   1.128   5.414  0.1592 -0.0164 -0.3429
 3122SOL    HW120828   0.614   1.050   5.440 -1.2985  0.2204  3.1814
 3122SOL    HW220829   0.636   1.182   5.379 -0.1288  1.3660  1.1825
 3123SOL     OW20830   0.451   1.875   4.234  0.0543 -0.2497 -0.2770
 3123SOL    HW120831   0.508   1.903   4.305 -0.3608  0.9291 -0.4074
 3123SOL    HW220832   0.520   1.868   4.168  0.2246 -0.3661 -0.0850
 3124SOL     OW20833   4.427   2.705   9.094  0.3824 -0.0970  0.0538
 3124SOL    HW120834   4.490   2.762   9.136  0.2848  0.9866 -1.2599
 3124SOL    HW220835   4.484   2.632   9.070 -0.3247 -1.3956  2.3445
 3125SOL     OW20836   0.923   2.463   0.670  0.0972 -0.2976  0.7428
 3125SOL    HW120837   0.902   2.492   0.759  0.1241 -1.2672  1.0650
 3125SOL    HW220838   0.874   2.530   0.622  3.1311 -0.0280 -1.9317
 3126SOL     OW20839   3.198   0.049   8.160  0.1244  0.3233  0.5344
 3126SOL    HW120840   3.116   0.000   8.154 -0.1274  0.6795  1.1182
 3126SOL    HW220841   3.263   4.721   8.114  1.1167  2.2480 -0.2912
 3127SOL     OW20842   4.419   1.610   2.136  0.2214 -0.2807  0.0076
 3127SOL    HW120843   4.422   1.703   2.112  1.0397 -0.2583  0.1997
 3127SOL    HW220844   4.415   1.565   2.052 -0.8821 -1.3643  0.6528
 3128SOL     OW20845   3.560   3.632   6.889 -0.3556  0.2892 -0.4282
 3128SOL    HW120846   3.568   3.573   6.964  2.1014 -0.6729 -1.4580
 3128SOL    HW220847   3.626   3.605   6.825 -0.1352  1.2147 -0.6051
 3129SOL     OW20848   1.286   4.397   4.029  0.3550 -0.5272 -0.6660
 3129SOL    HW120849   1.206   4.437   3.996 -0.7978  0.2982  3.0502
 3129SOL    HW220850   1.329   4.467   4.079 -0.4869  0.7464 -1.7546
 3130SOL     OW20851   4.365   1.310   5.955  0.0974 -0.2558  0.5720
 3130SOL    HW120852   4.399   1.273   5.874 -2.6673  1.1123 -1.1954
 3130SOL    HW220853   4.442   1.326   6.009 -0.4794 -1.6146  1.8093
 3131SOL     OW20854   1.597   0.855   2.588 -0.1400  0.4652 -0.2955
 3131SOL    HW120855   1.526   0.900   2.542 -0.2150  0.5488 -0.0991
 3131SOL    HW220856   1.672   0.876   2.532  0.6696  0.0280  0.6254
 3132SOL     OW20857   1.668   2.385   0.530 -0.4944 -0.3231 -0.0727
 3132SOL    HW120858   1.720   2.462   0.504 -0.6418 -0.9280 -2.1161
 3132SOL    HW220859   1.602   2.393   0.462  0.1649 -1.0273 -0.7930
 3133SOL     OW20860   0.572   4.675  11.935 -0.4155  0.4602 -0.7006
 3133SOL    HW120861   0.525   4.724  12.003  0.1789  0.5938 -0.3795
 3133SOL    HW220862   0.498   4.637  11.888  0.2899  0.3486 -1.7044
 3134SOL     OW20863   1.350   0.199  14.958 -0.1344 -0.1052 -0.1006
 3134SOL    HW120864   1.320   0.260  14.891 -0.9667  1.3838  1.6319
 3134SOL    HW220865   1.394   0.263  15.014  1.4187  1.3159 -2.9740
 3135SOL     OW20866   3.231   1.143   3.287  0.7574  0.1653  0.7838
 3135SOL    HW120867   3.205   1.075   3.349 -1.2902  1.7692  1.6893
 3135SOL    HW220868   3.301   1.096   3.242  0.1735 -0.1567  0.2106
 3136SOL     OW20869   4.370   3.460  13.379 -0.5728  0.3728  0.5415
 3136SOL    HW120870   4.330   3.374  13.393 -0.2300 -0.2303 -2.1597
 3136SOL    HW220871   4.356   3.457  13.284 -0.7774  2.4533  0.5055
 3137SOL     OW20872   3.996   2.663   9.105  0.0543 -0.5268  0.5930
 3137SOL    HW120873   3.918   2.667   9.160 -0.2631  0.7883  0.0403
 3137SOL    HW220874   4.054   2.732   9.139  0.7240 -1.0188  0.4591
 3138SOL     OW20875   2.340   3.748   8.876 -0.4528  0.2777 -0.1777
 3138SOL    HW120876   2.316   3.695   8.800  1.0237  0.2946 -0.6365
 3138SOL    HW220877   2.396   3.811   8.832  0.8146 -0.7716 -0.0727
 3139SOL     OW20878   3.805   1.942   7.855 -0.4550 -0.0087 -0.2863
 3139SOL    HW120879   3.873   1.932   7.921 -1.4108 -0.8028  0.5914
 3139SOL    HW220880   3.773   1.853   7.836 -1.7224  0.3267  0.2583
 3140SOL     OW20881   0.770   0.812  13.047  0.8137  0.2422  0.3129
 3140SOL    HW120882   0.860   0.781  13.036  0.1551 -0.9401 -1.9320
 3140SOL    HW220883   0.746   0.776  13.132 -2.3813  2.4732  0.3671
 3141SOL     OW20884   0.831   4.676  11.706 -0.4535  0.2818 -0.0509
 3141SOL    HW120885   0.898   4.723  11.658 -0.6416 -2.0019 -2.6079
 3141SOL    HW220886   0.751   4.682  11.653  0.0948 -0.6175 -0.9721
 3142SOL     OW20887   4.476   1.217   7.348 -0.2669  0.2499 -0.3439
 3142SOL    HW120888   4.389   1.183   7.368  0.3845 -0.3868  1.4362
 3142SOL    HW220889   4.491   1.286   7.412  2.8901 -1.3564  0.6588
 3143SOL     OW20890   1.104   1.601  12.137  0.0500 -0.4745 -0.4690
 3143SOL    HW120891   1.093   1.586  12.231  1.4154  2.6675  0.2069
 3143SOL    HW220892   1.028   1.553  12.106 -1.2534  0.5048  1.2371
 3144SOL     OW20893   0.179   2.668   4.748  0.2571 -0.6883 -0.2008
 3144SOL    HW120894   0.219   2.583   4.730  0.5038 -0.7472  0.6169
 3144SOL    HW220895   0.144   2.638   4.832  1.2397  0.9569  0.7924
 3145SOL     OW20896   2.595   2.991   8.547 -0.2700  0.4136  0.6456
 3145SOL    HW120897   2.563   2.927   8.484  0.5257  1.7878 -1.1301
 3145SOL    HW220898   2.672   3.026   8.503 -1.9432  3.4841  0.1408
 3146SOL     OW20899   1.779   4.078  10.108  0.5629 -0.0692  0.4999
 3146SOL    HW120900   1.735   3.998  10.078  0.0539  0.5709 -0.4549
 3146SOL    HW220901   1.839   4.052  10.178  1.1354  1.8060  0.6956
 3147SOL     OW20902   3.828   3.196  15.597 -0.3988 -0.1858  0.0137
 3147SOL    HW120903   3.773   3.240  15.532 -0.8818 -0.3832  0.2893
 3147SOL    HW220904   3.825   3.269  15.658 -0.9033 -1.1238  1.1103
 3148SOL     OW20905   2.130   1.300  10.446  0.4464 -0.1655  0.0695
 3148SOL    HW120906   2.060   1.313  10.382  0.3641 -1.7011 -0.1485
 3148SOL    HW220907   2.209   1.339  10.409 -1.4795  1.2977 -2.4264
 3149SOL     OW20908   3.635   0.139   4.587 -0.2235  0.6289  0.5909
 3149SOL    HW120909   3.619   0.045   4.588 -1.6480  0.8145 -2.1180
 3149SOL    HW220910   3.725   0.139   4.557  0.5218  1.5525  2.8451
 3150SOL     OW20911   0.078   4.278   1.638 -0.2746  0.0724  0.1893
 3150SOL    HW120912   0.007   4.330   1.676 -1.6349 -1.6269 -0.0061
 3150SOL    HW220913   0.125   4.348   1.594 -0.2625 -0.5458 -0.7891
 3151SOL     OW20914   4.510   1.582   1.486  0.4243 -0.2035  0.7596
 3151SOL    HW120915   4.527   1.580   1.580  0.1451  1.5774  0.8305
 3151SOL    HW220916   4.591   1.536   1.462  0.1373  1.2909 -3.0809
 3152SOL     OW20917   1.806   2.455  12.073 -0.8041 -0.2279 -0.1839
 3152SOL    HW120918   1.850   2.448  11.988 -1.0666 -0.4316 -0.3044
 3152SOL    HW220919   1.715   2.486  12.064 -0.0896  2.1965  1.0945
 3153SOL     OW20920   2.924   1.724   3.363 -0.3059 -0.5698  0.1879
 3153SOL    HW120921   2.985   1.724   3.289 -0.2305  3.6925  0.2325
 3153SOL    HW220922   2.951   1.810   3.394 -0.2588 -0.0809 -1.1823
 3154SOL     OW20923   3.580   4.110  11.159  0.4378 -0.4096 -0.1828
 3154SOL    HW120924   3.671   4.080  11.159  0.2404 -1.0017 -2.2226
 3154SOL    HW220925   3.538   4.026  11.140  1.2052 -1.2421  1.7592
 3155SOL     OW20926   0.236   2.329  13.021 -0.2393  0.3649 -0.2595
 3155SOL    HW120927   0.285   2.342  13.102  1.1124  0.6834 -1.1383
 3155SOL    HW220928   0.303   2.331  12.953  1.5708  0.3638  1.5155
 3156SOL     OW20929   0.551   0.876   7.348 -0.1022 -0.0729  0.2802
 3156SOL    HW120930   0.541   0.947   7.284  1.4724  0.6213  0.8168
 3156SOL    HW220931   0.547   0.809   7.280  1.1221  1.0752 -0.9176
 3157SOL     OW20932   4.061   0.534  16.742 -0.3032 -0.4538  0.7353
 3157SOL    HW120933   3.977   0.493  16.762 -0.2780 -1.7917 -1.8265
 3157SOL    HW220934   4.037   0.611  16.689  1.7183 -0.3370  0.0016
 3158SOL     OW20935   2.304   2.778   9.647 -0.1748 -0.4614 -0.5228
 3158SOL    HW120936   2.332   2.831   9.721 -1.3625 -0.6911  0.0871
 3158SOL    HW220937   2.328   2.689   9.674  0.6329  0.0166  0.3394
 3159SOL     OW20938   0.503   1.700   1.891  0.2873 -0.6928  0.4534
 3159SOL    HW120939   0.456   1.784   1.885 -1.0848 -1.6504 -1.7695
 3159SOL    HW220940   0.434   1.644   1.926 -0.0335  0.6337  2.0079
 3160SOL     OW20941   4.006   2.101   1.759 -0.3424 -0.1360  0.0285
 3160SOL    HW120942   4.026   2.195   1.757  0.6573 -0.3941 -2.2182
 3160SOL    HW220943   4.033   2.086   1.849 -1.0490 -0.0396  0.2611
 3161SOL     OW20944   2.716   0.361   8.884 -0.2849  0.1262 -1.0617
 3161SOL    HW120945   2.709   0.447   8.842  2.6502  1.5746  1.4328
 3161SOL    HW220946   2.665   0.375   8.964  0.3851  2.0983 -0.9834
 3162SOL     OW20947   3.685   1.469   8.574 -0.5186 -0.3572 -0.3988
 3162SOL    HW120948   3.752   1.402   8.589 -3.4208 -2.9802  0.9406
 3162SOL    HW220949   3.695   1.494   8.482 -3.5487  1.6338 -0.1924
 3163SOL     OW20950   0.475   4.465   4.692 -0.0146 -0.9699 -0.5906
 3163SOL    HW120951   0.412   4.508   4.635  1.5586  1.7591 -0.2478
 3163SOL    HW220952   0.541   4.534   4.692 -1.2729  0.2428  2.0525
 3164SOL     OW20953   4.442   3.692   0.654  0.0054  0.5183  0.1859
 3164SOL    HW120954   4.426   3.669   0.746  1.3853  0.3997  0.3897
 3164SOL    HW220955   4.503   3.622   0.634  2.0334  1.6437  2.4424
 3165SOL     OW20956   3.284   4.280   7.452  0.3633  0.3630 -0.3174
 3165SOL    HW120957   3.300   4.343   7.523 -1.6326 -0.9033  1.2607
 3165SOL    HW220958   3.278   4.348   7.385 -1.7423 -0.0893 -0.5888
 3166SOL     OW20959   4.544   4.620   6.093  0.0468  0.3423 -0.0609
 3166SOL    HW120960   4.592   4.538   6.078  0.2954 -0.0393  2.8570
 3166SOL    HW220961   4.560   4.630   6.186 -2.1329 -0.0238  0.3473
 3167SOL     OW20962   3.193   4.692  16.801 -0.1831 -0.5299 -0.2903
 3167SOL    HW120963   3.255   4.659  16.865  2.0117  2.2273 -1.0202
 3167SOL    HW220964   3.140   4.615  16.779 -0.1570 -1.2780  2.1837
 3168SOL     OW20965   1.442   2.316   6.467 -0.0207 -0.0001 -0.4604
 3168SOL    HW120966   1.432   2.387   6.404  0.5458  0.4978  0.0083
 3168SOL    HW220967   1.377   2.257   6.430  0.3739 -1.1575  0.7175
 3169SOL     OW20968   4.698   1.738   7.153 -0.0364  0.0549  0.1452
 3169SOL    HW120969   4.687   1.792   7.075  0.8630 -0.1833 -0.1411
 3169SOL    HW220970   4.619   1.684   7.147  0.2659 -0.3345 -0.3011
 3170SOL     OW20971   2.395   2.444  11.167 -0.0294 -0.1127  0.0343
 3170SOL    HW120972   2.412   2.494  11.248 -0.1352 -0.5822  0.3454
 3170SOL    HW220973   2.438   2.359  11.174 -0.8984 -0.2554  3.7026
 3171SOL     OW20974   1.646   2.109   5.360 -0.8443  0.1373 -0.1875
 3171SOL    HW120975   1.656   2.016   5.380 -1.4749 -0.1332 -1.1912
 3171SOL    HW220976   1.639   2.113   5.265 -0.6631 -0.2004 -0.2160
 3172SOL     OW20977   0.200   3.951   3.314 -0.4274 -0.0089  0.4295
 3172SOL    HW120978   0.159   3.951   3.401  2.9982 -3.5674  2.0360
 3172SOL    HW220979   0.154   4.027   3.279 -1.7059 -1.5405 -1.1715
 3173SOL     OW20980   2.622   4.645  15.580 -0.4026 -0.1405  0.2800
 3173SOL    HW120981   2.657   4.558  15.603 -0.1428 -0.3785 -1.0138
 3173SOL    HW220982   2.578   4.654  15.664  1.3017  3.4523  0.7738
 3174SOL     OW20983   3.857   3.064   7.116  0.0223  0.3173  0.1784
 3174SOL    HW120984   3.773   3.110   7.121  0.0374  0.1402  1.9572
 3174SOL    HW220985   3.861   3.006   7.192  0.4765  2.0092  1.4167
 3175SOL     OW20986   3.414   2.586  13.277  1.1647 -0.1695 -0.0041
 3175SOL    HW120987   3.458   2.670  13.290 -1.0857  0.7468  1.8341
 3175SOL    HW220988   3.461   2.556  13.200  0.6499  2.0433 -1.1816
 3176SOL     OW20989   1.744   2.326  14.683 -0.2533 -0.0615 -0.2891
 3176SOL    HW120990   1.732   2.236  14.714 -0.3373  0.9033  2.4619
 3176SOL    HW220991   1.653   2.351  14.664 -0.5545 -0.3289  0.7896
 3177SOL     OW20992   0.679   0.638   2.858 -0.3374 -0.4124  0.3523
 3177SOL    HW120993   0.676   0.720   2.808 -1.2141 -0.4982  0.2671
 3177SOL    HW220994   0.768   0.641   2.894 -0.2556 -0.1538  0.1256
 3178SOL     OW20995   1.283   0.774  16.510 -0.3237 -0.2800  0.3719
 3178SOL    HW120996   1.281   0.712  16.438  1.9121  2.6717 -2.2281
 3178SOL    HW220997   1.192   0.803  16.506  0.5912  2.3915 -0.8509
 3179SOL     OW20998   0.130   0.856   2.950  0.7337 -0.3114 -0.0886
 3179SOL    HW120999   0.051   0.906   2.969  0.0322 -1.0645 -0.9569
 3179SOL    HW221000   0.148   0.821   3.037 -0.5407  0.0443  0.3212
 3180SOL     OW21001   1.229   4.699  14.552  0.0780 -0.5999  0.2138
 3180SOL    HW121002   1.293   0.043  14.537 -1.5627  0.4637 -2.0096
 3180SOL    HW221003   1.149   0.020  14.575  0.0236 -1.1345  1.0968
 3181SOL     OW21004   2.050   2.768   6.872  0.5569  0.1151  0.0630
 3181SOL    HW121005   2.061   2.678   6.842 -1.9190 -0.5786  1.2952
 3181SOL    HW221006   1.959   2.784   6.897  1.0421  0.6347  1.4760
 3182SOL     OW21007   3.185   0.601   2.811  0.2488 -0.4368 -0.7286
 3182SOL    HW121008   3.149   0.555   2.887  1.4659  1.3109  0.9264
 3182SOL    HW221009   3.104   0.621   2.764  0.0112  0.1027 -0.1048
 3183SOL     OW21010   0.827   3.539   6.598  0.0771  0.9056  0.1624
 3183SOL    HW121011   0.905   3.505   6.554 -1.5183 -1.6765 -0.6724
 3183SOL    HW221012   0.783   3.575   6.521  0.5426 -0.6588 -0.8475
 3184SOL     OW21013   1.998   1.323   5.373 -0.4081  0.1941 -0.2000
 3184SOL    HW121014   2.026   1.263   5.442  2.8333  1.1404 -0.6823
 3184SOL    HW221015   1.906   1.330   5.397 -0.7866 -0.2561 -1.5461
 3185SOL     OW21016   3.373   2.668   5.694 -0.1893  0.1815  0.2566
 3185SOL    HW121017   3.412   2.582   5.709 -2.2056 -0.6970  0.3718
 3185SOL    HW221018   3.280   2.650   5.708  0.1193 -0.0350  1.9933
 3186SOL     OW21019   3.664   2.304   9.800 -0.3262  0.3387 -0.3946
 3186SOL    HW121020   3.618   2.382   9.769  1.3177  2.1232  1.6339
 3186SOL    HW221021   3.710   2.345   9.874 -0.7240 -1.7393  1.0169
 3187SOL     OW21022   3.142   3.330   6.501  0.1435 -0.1958 -0.1829
 3187SOL    HW121023   3.074   3.264   6.513 -0.9101  0.9271  0.0203
 3187SOL    HW221024   3.166   3.313   6.410 -1.7144 -2.5378 -0.1954
 3188SOL     OW21025   2.176   4.384   2.575  0.3086  0.0557  0.4243
 3188SOL    HW121026   2.084   4.369   2.598  0.3480 -0.5111  0.1835
 3188SOL    HW221027   2.187   4.324   2.502  0.0835 -0.3180  0.6987
 3189SOL     OW21028   4.241   1.449   8.415 -0.0669 -0.6499  0.4478
 3189SOL    HW121029   4.273   1.412   8.333 -1.8089 -0.4417 -0.3251
 3189SOL    HW221030   4.235   1.543   8.397  0.9058 -0.9246 -1.3362
 3190SOL     OW21031   1.299   4.026   5.565  0.0364  0.0960 -0.1264
 3190SOL    HW121032   1.357   4.001   5.492  0.6314  0.7045  0.1343
 3190SOL    HW221033   1.337   3.974   5.635 -2.6832  0.5632  1.6700
 3191SOL     OW21034   2.407   4.271   6.595  0.0279  0.0511  0.2709
 3191SOL    HW121035   2.490   4.294   6.554 -0.7825  1.5987 -0.4972
 3191SOL    HW221036   2.431   4.281   6.687 -3.7646  1.0547  1.1804
 3192SOL     OW21037   0.352   2.663  10.924  0.2939 -0.3517 -0.6252
 3192SOL    HW121038   0.272   2.693  10.968  0.1767  1.7612 -2.2171
 3192SOL    HW221039   0.419   2.688  10.988 -1.5609  0.0841  1.1477
 3193SOL     OW21040   1.257   2.106   4.462 -0.6161 -0.4405  0.0207
 3193SOL    HW121041   1.255   2.202   4.463  1.2027 -0.4304  2.7962
 3193SOL    HW221042   1.281   2.085   4.553  1.1138 -1.4008 -0.6647
 3194SOL     OW21043   0.422   0.705  12.202 -0.5153 -0.1087 -0.4550
 3194SOL    HW121044   0.410   0.718  12.107 -1.8785 -2.3906 -0.5837
 3194SOL    HW221045   0.517   0.693  12.204 -0.6213 -0.9476 -0.3743
 3195SOL     OW21046   0.355   3.641   2.982  0.4901 -0.3319  0.3266
 3195SOL    HW121047   0.375   3.643   2.888 -1.5674  2.4101 -0.0450
 3195SOL    HW221048   0.357   3.734   3.004 -0.1971 -0.7265  2.0907
 3196SOL     OW21049   1.214   3.739   4.273 -0.7241 -0.0096 -0.2882
 3196SOL    HW121050   1.238   3.821   4.316 -1.3516  1.5052 -2.8271
 3196SOL    HW221051   1.127   3.728   4.311  1.1653 -0.9170  3.7835
 3197SOL     OW21052   1.906   3.016   2.624 -0.0248  0.1061  0.3381
 3197SOL    HW121053   1.919   3.005   2.718  1.0121  0.8833  0.2770
 3197SOL    HW221054   1.962   3.091   2.608  0.2219  0.2856  2.0946
 3198SOL     OW21055   4.483   4.271  10.222  0.0408  0.2258  0.4322
 3198SOL    HW121056   4.562   4.217  10.229 -0.4237 -0.7880 -2.0097
 3198SOL    HW221057   4.461   4.290  10.313 -2.0621  1.5133 -0.3346
 3199SOL     OW21058   3.895   2.697   6.608 -0.3788 -0.1169 -0.6588
 3199SOL    HW121059   3.901   2.672   6.516  2.5788 -1.8955 -0.0037
 3199SOL    HW221060   3.800   2.695   6.617 -0.2305  0.9126  1.0548
 3200SOL     OW21061   3.199   3.959  13.492  0.3928 -0.1002  0.4668
 3200SOL    HW121062   3.172   4.051  13.497  0.0159 -0.1337 -1.0179
 3200SOL    HW221063   3.234   3.941  13.579  0.6396 -0.6765  0.2448
 3201SOL     OW21064   1.332   4.579   6.373  0.0071 -0.3985  0.1988
 3201SOL    HW121065   1.245   4.617   6.362  0.7976  1.0218 -1.1012
 3201SOL    HW221066   1.337   4.525   6.294  4.7374  2.5237 -1.5173
 3202SOL     OW21067   0.048   1.442   7.104  0.6571 -0.1136  0.0531
 3202SOL    HW121068   4.704   1.503   7.130  0.4646 -0.4117  0.2522
 3202SOL    HW221069   0.010   1.360   7.137 -1.6375 -0.0472 -2.4481
 3203SOL     OW21070   0.193   2.843   8.959 -0.2419 -0.3501  0.1790
 3203SOL    HW121071   0.164   2.785   9.030 -1.5655  0.2740  0.1332
 3203SOL    HW221072   0.281   2.811   8.939 -0.8975 -2.0044 -0.1242
 3204SOL     OW21073   3.206   2.864  12.362 -0.3882 -0.1235 -0.3156
 3204SOL    HW121074   3.161   2.829  12.438  1.0821  1.1906  1.1481
 3204SOL    HW221075   3.171   2.800  12.299 -1.2666 -0.5022  0.5643
 3205SOL     OW21076   4.437   1.096  10.499 -0.2173 -0.6018  0.2906
 3205SOL    HW121077   4.506   1.132  10.555  0.2068 -1.1340  0.1124
 3205SOL    HW221078   4.364   1.143  10.538 -0.5286 -0.5893 -0.3157
 3206SOL     OW21079   3.991   2.659   8.764  0.4615 -0.0848  0.3420
 3206SOL    HW121080   3.925   2.714   8.721  1.6464  0.7041 -0.4464
 3206SOL    HW221081   4.062   2.647   8.701  0.7601  1.8993  0.3120
 3207SOL     OW21082   2.936   3.262  15.112 -0.1356 -0.0538  0.0916
 3207SOL    HW121083   2.959   3.244  15.203  1.5337 -0.8364 -0.4876
 3207SOL    HW221084   2.868   3.329  15.123  0.3079  0.0751  1.9966
 3208SOL     OW21085   1.576   2.968   4.147 -0.2974  0.1895  0.1425
 3208SOL    HW121086   1.581   3.048   4.094  0.6908  0.6169  0.8737
 3208SOL    HW221087   1.638   2.979   4.220 -1.5948 -0.3137  1.3272
 3209SOL     OW21088   1.399   4.269   4.667  0.4364  0.0251  0.0271
 3209SOL    HW121089   1.451   4.322   4.728  1.2372  0.3432 -0.9259
 3209SOL    HW221090   1.376   4.194   4.722  1.3616  0.1412  0.5949
 3210SOL     OW21091   4.075   2.027   8.308 -0.1778 -0.0147  0.1139
 3210SOL    HW121092   4.093   2.102   8.365 -2.5527  0.9810 -0.3973
 3210SOL    HW221093   4.140   2.041   8.239 -0.9072 -2.5188 -1.0762
 3211SOL     OW21094   2.163   1.136   2.474  0.8993  0.2544 -0.3192
 3211SOL    HW121095   2.236   1.166   2.419  2.0908 -0.1338  1.0550
 3211SOL    HW221096   2.186   1.175   2.558 -2.2988 -0.9219  1.1034
 3212SOL     OW21097   1.563   1.595   5.284  0.7885 -0.2088  0.5742
 3212SOL    HW121098   1.590   1.503   5.274  0.5071 -0.0731 -1.4414
 3212SOL    HW221099   1.475   1.584   5.249  0.7250  0.4544  0.5329
 3213SOL     OW21100   1.563   3.767   1.796  0.1022  0.4461  0.1875
 3213SOL    HW121101   1.564   3.765   1.892 -0.7099 -0.2409  0.1829
 3213SOL    HW221102   1.649   3.805   1.776  0.7438 -0.2429  1.6744
 3214SOL     OW21103   2.988   3.141   1.259  0.2632  0.5492  0.1217
 3214SOL    HW121104   2.978   3.227   1.301 -1.2366  1.1041 -1.3681
 3214SOL    HW221105   2.964   3.079   1.327  1.2124  0.5992  0.5079
 3215SOL     OW21106   1.082   0.997  15.490  0.0996  0.5155 -0.2133
 3215SOL    HW121107   1.141   1.068  15.464 -0.0622  0.2833 -1.2001
 3215SOL    HW221108   1.150   0.933  15.514 -0.9177 -0.3765  0.2778
 3216SOL     OW21109   4.010   4.150  14.449 -0.1350  0.2796 -0.6405
 3216SOL    HW121110   4.028   4.087  14.519 -1.2481 -0.6702 -1.1961
 3216SOL    HW221111   4.054   4.108  14.375  0.5303  3.4598 -2.0424
 3217SOL     OW21112   3.068   4.310   1.955  0.1480  0.7655 -0.5548
 3217SOL    HW121113   3.104   4.268   2.033  1.3175  1.3837 -0.7573
 3217SOL    HW221114   3.138   4.371   1.930  0.5953  1.6212  2.7585
 3218SOL     OW21115   3.229   0.469   6.188  0.2396 -0.4240 -0.0298
 3218SOL    HW121116   3.280   0.432   6.260  0.0820 -0.3436  0.1198
 3218SOL    HW221117   3.287   0.534   6.147 -0.8008 -0.4044 -1.4721
 3219SOL     OW21118   2.828   4.256  15.295  0.2427 -0.7550  0.4993
 3219SOL    HW121119   2.876   4.190  15.245 -0.1085 -1.0053  0.4977
 3219SOL    HW221120   2.903   4.282  15.350 -1.6951  3.1814  1.2497
 3220SOL     OW21121   3.672   3.268   8.136 -0.0894 -0.2516  0.0657
 3220SOL    HW121122   3.607   3.223   8.082 -1.0906  2.1724 -0.7678
 3220SOL    HW221123   3.739   3.297   8.074  1.7076 -1.0857  1.6442
 3221SOL     OW21124   2.455   4.161   3.395 -0.4975  0.4763 -0.1074
 3221SOL    HW121125   2.406   4.244   3.392 -1.1801  0.1503  2.3422
 3221SOL    HW221126   2.450   4.138   3.302  2.9836  1.3130 -0.4981
 3222SOL     OW21127   1.195   2.737   9.398 -0.0590  0.3845  0.7676
 3222SOL    HW121128   1.150   2.710   9.318  3.9991 -0.3824 -1.2358
 3222SOL    HW221129   1.269   2.788   9.365  0.2838 -0.9810 -0.5760
 3223SOL     OW21130   1.444   0.267   2.785 -0.0223 -0.0796  0.3001
 3223SOL    HW121131   1.384   0.198   2.814  1.3956 -1.3594  0.1165
 3223SOL    HW221132   1.438   0.329   2.858  0.3769  0.5030 -0.1665
 3224SOL     OW21133   1.962   0.748  14.349  0.7653  0.3857  0.2848
 3224SOL    HW121134   2.047   0.732  14.309  1.0900  1.4116  0.5838
 3224SOL    HW221135   1.964   0.843  14.351 -1.0024  0.4548 -1.2051
 3225SOL     OW21136   2.403   2.896   8.817  0.0088  0.4462  0.5644
 3225SOL    HW121137   2.315   2.930   8.801  0.7135  1.6668 -0.6972
 3225SOL    HW221138   2.434   2.851   8.739  0.0937  0.2013  0.7392
 3226SOL     OW21139   1.395   0.968   7.711  0.0980  0.1386 -0.7907
 3226SOL    HW121140   1.385   0.881   7.748 -2.3611  0.4469 -0.7493
 3226SOL    HW221141   1.367   1.023   7.785  0.1539 -0.8097 -0.0692
 3227SOL     OW21142   0.141   4.513   1.984 -0.0978 -0.0077 -0.1350
 3227SOL    HW121143   0.205   4.498   1.915  1.0397 -0.2134  0.9574
 3227SOL    HW221144   0.155   4.437   2.041  1.0649  1.5126  1.6244
 3228SOL     OW21145   0.116   3.437   4.700  0.5570  0.3347  0.0787
 3228SOL    HW121146   0.079   3.445   4.788  1.5409 -2.3146  0.7276
 3228SOL    HW221147   0.202   3.409   4.731  0.2558 -0.7394 -0.0352
 3229SOL     OW21148   4.023   0.473   8.262 -0.1684  0.8858 -0.1691
 3229SOL    HW121149   4.076   0.519   8.327  0.0091 -0.5735  0.7227
 3229SOL    HW221150   4.018   0.521   8.180 -1.9995 -1.0701 -1.1956
 3230SOL     OW21151   0.234   0.702   7.589 -0.0363 -0.3471  0.3737
 3230SOL    HW121152   0.162   0.737   7.537  0.2129 -1.6840 -0.9018
 3230SOL    HW221153   0.250   0.618   7.546  1.6573 -0.5320  1.3675
 3231SOL     OW21154   1.287   0.455   8.234  0.2011 -0.6723 -0.2428
 3231SOL    HW121155   1.239   0.535   8.214 -0.6922 -1.8229 -2.8328
 3231SOL    HW221156   1.354   0.458   8.166  0.7449 -5.4284  0.0662
 3232SOL     OW21157   4.723   0.498   8.238 -0.0398  0.1547 -0.8507
 3232SOL    HW121158   0.054   0.420   8.233  0.2085  0.2308  0.7196
 3232SOL    HW221159   0.039   0.535   8.316 -2.8942 -1.2927  1.3746
 3233SOL     OW21160   4.271   3.630  10.317  0.5126  0.3068 -0.4964
 3233SOL    HW121161   4.290   3.616  10.410  1.6482  2.4484 -0.3960
 3233SOL    HW221162   4.211   3.704  10.331 -1.6629 -1.5818  0.0239
 3234SOL     OW21163   3.793   4.240   0.997 -0.0184 -0.5064 -0.8624
 3234SOL    HW121164   3.749   4.176   1.053 -0.3507  1.6155  1.2894
 3234SOL    HW221165   3.753   4.325   1.014  1.0784  0.3697 -2.6413
 3235SOL     OW21166   4.282   4.289   4.340 -0.6005 -0.3373  0.1673
 3235SOL    HW121167   4.370   4.251   4.346 -0.2290  0.5615  0.4504
 3235SOL    HW221168   4.233   4.215   4.377  0.0721 -1.6947 -1.6884
 3236SOL     OW21169   0.167   0.630   3.491  0.1880 -0.6679 -0.0663
 3236SOL    HW121170   0.259   0.604   3.501  0.5159 -0.9035 -3.6021
 3236SOL    HW221171   0.161   0.722   3.517 -1.9659 -0.5446 -1.0030
 3237SOL     OW21172   1.983   2.760   6.150 -0.2963  0.5642  0.3499
 3237SOL    HW121173   2.042   2.709   6.205  0.4623 -1.4257 -2.3298
 3237SOL    HW221174   1.997   2.838   6.204  1.3155  0.6823 -0.2278
 3238SOL     OW21175   3.555   3.801   2.912 -0.0563  0.6908 -0.5880
 3238SOL    HW121176   3.499   3.855   2.855 -2.5316 -1.7523 -0.4807
 3238SOL    HW221177   3.496   3.727   2.927  0.3770  0.5976  0.6319
 3239SOL     OW21178   4.007   4.154   3.232 -0.7079  0.2393 -0.2078
 3239SOL    HW121179   3.969   4.229   3.185  0.4765  1.7202  1.2045
 3239SOL    HW221180   3.965   4.078   3.192 -0.3021 -0.1211  0.0478
 3240SOL     OW21181   4.153   3.826   4.902  0.6091  0.1092 -0.1888
 3240SOL    HW121182   4.104   3.865   4.830 -0.2020  1.5042  1.1070
 3240SOL    HW221183   4.072   3.784   4.930  0.2329  0.7514 -0.3075
 3241SOL     OW21184   1.579   1.375   3.400  0.6771  0.1766 -0.0245
 3241SOL    HW121185   1.658   1.406   3.445  1.5832 -0.5038 -1.1586
 3241SOL    HW221186   1.519   1.448   3.413 -0.4680 -0.8521  0.5082
 3242SOL     OW21187   1.198   3.664  16.674  0.6997 -0.3634  0.3144
 3242SOL    HW121188   1.165   3.733  16.617  1.9035  0.3633  0.4982
 3242SOL    HW221189   1.164   3.581  16.640  2.7455 -1.2733  0.4741
 3243SOL     OW21190   3.136   1.642   7.459 -0.3409 -0.6259 -0.0633
 3243SOL    HW121191   3.093   1.668   7.541 -2.5879 -0.8681 -1.1647
 3243SOL    HW221192   3.153   1.548   7.468 -0.9523 -0.8211 -0.9720
 3244SOL     OW21193   0.217   3.948   5.122  0.2589 -0.4629 -0.1743
 3244SOL    HW121194   0.202   3.905   5.207  0.2573 -0.6768 -0.2813
 3244SOL    HW221195   0.264   4.028   5.145  0.2137 -0.3745 -0.3871
 3245SOL     OW21196   3.554   0.518   6.643 -0.2228 -0.0278  0.1307
 3245SOL    HW121197   3.622   0.476   6.696  1.3616  3.4207  0.8128
 3245SOL    HW221198   3.473   0.503   6.693 -0.3658  1.1621  0.2677
 3246SOL     OW21199   4.441   3.668   9.357  0.2324  0.0762 -0.2761
 3246SOL    HW121200   4.498   3.622   9.295  0.1886  0.1935 -0.4047
 3246SOL    HW221201   4.506   3.704   9.417  1.0817 -0.8260 -0.6548
 3247SOL     OW21202   3.897   4.636   2.543  0.2833 -0.4926  0.5783
 3247SOL    HW121203   3.977   4.599   2.505  0.3061 -0.0859  0.2302
 3247SOL    HW221204   3.836   4.604   2.476 -0.9357 -1.8116  2.3140
 3248SOL     OW21205   0.052   0.210   6.654 -0.4271  0.0943  0.2163
 3248SOL    HW121206   0.077   0.174   6.739  0.6899  1.8893  0.6457
 3248SOL    HW221207   0.098   0.148   6.597 -0.7877  1.5569 -1.6704
 3249SOL     OW21208   4.336   2.653   4.174 -0.1064  0.0075  0.0950
 3249SOL    HW121209   4.256   2.688   4.135  0.5151  3.2707  1.6729
 3249SOL    HW221210   4.326   2.559   4.158  1.8741 -0.4128  1.2106
 3250SOL     OW21211   0.835   2.080   7.775  0.5467 -1.0388 -0.1821
 3250SOL    HW121212   0.830   2.176   7.770  4.0060 -0.9678 -2.0148
 3250SOL    HW221213   0.924   2.067   7.807  0.7659 -0.1289 -0.4324
 3251SOL     OW21214   0.236   1.263   3.939  0.4479 -0.2959  0.2602
 3251SOL    HW121215   0.240   1.180   3.893  0.6416 -0.6165  0.8590
 3251SOL    HW221216   0.182   1.239   4.014  0.9670 -0.6026  0.5369
 3252SOL     OW21217   3.260   1.842   8.968 -0.5135  0.3730 -0.4468
 3252SOL    HW121218   3.272   1.937   8.955  1.6580 -0.0446 -1.6162
 3252SOL    HW221219   3.353   1.819   8.960 -1.0381 -0.5402 -3.8133
 3253SOL     OW21220   3.752   1.424  11.620 -0.1995 -0.3957  0.0337
 3253SOL    HW121221   3.680   1.461  11.670  0.4953  1.9508 -0.7055
 3253SOL    HW221222   3.754   1.336  11.659  1.5266 -0.5534 -0.3869
 3254SOL     OW21223   3.378   3.847  13.197  0.0891 -0.1998  0.1238
 3254SOL    HW121224   3.355   3.754  13.199 -2.2864  0.3784 -0.8720
 3254SOL    HW221225   3.370   3.871  13.290 -2.0800  0.7270 -0.3049
 3255SOL     OW21226   0.243   2.781   8.531 -0.4703 -0.3025  0.5731
 3255SOL    HW121227   0.215   2.697   8.497  0.8890  0.5346 -2.6478
 3255SOL    HW221228   0.169   2.811   8.584 -1.0195  1.6382 -1.3013
 3256SOL     OW21229   1.058   0.900   5.549 -0.3320 -0.1651  0.2192
 3256SOL    HW121230   1.126   0.945   5.500  0.0467 -0.2268  0.6875
 3256SOL    HW221231   0.991   0.872   5.486  0.7438  0.1278 -1.0676
 3257SOL     OW21232   2.512   1.010   9.041  0.2096  0.3950 -0.7508
 3257SOL    HW121233   2.574   1.067   9.086 -1.0695  1.1786  0.0270
 3257SOL    HW221234   2.445   1.007   9.110  0.0452 -0.2371 -0.9330
 3258SOL     OW21235   2.410   0.959   7.064 -0.3200  0.4941 -0.0096
 3258SOL    HW121236   2.489   0.969   7.011 -0.9732  1.6316 -0.7777
 3258SOL    HW221237   2.345   0.922   7.004 -1.0424  2.8256 -0.6542
 3259SOL     OW21238   0.304   0.341   2.287  0.6766 -0.1575  0.0885
 3259SOL    HW121239   0.224   0.375   2.246  0.9844  0.7683  0.2381
 3259SOL    HW221240   0.360   0.359   2.212 -0.6043  0.2042 -0.7815
 3260SOL     OW21241   4.114   4.304   7.808 -0.6086 -0.3092 -0.3179
 3260SOL    HW121242   4.110   4.384   7.860  2.1245  0.1855 -0.8488
 3260SOL    HW221243   4.049   4.254   7.857  1.6606 -1.6135  1.3638
 3261SOL     OW21244   3.214   2.398   4.193  0.1159 -0.0869 -0.1303
 3261SOL    HW121245   3.216   2.451   4.114  2.7477  2.1388  1.4685
 3261SOL    HW221246   3.260   2.451   4.258  0.1568  1.4483 -1.4257
 3262SOL     OW21247   3.260   4.686   2.542 -0.2925 -0.1555 -0.1816
 3262SOL    HW121248   3.171   4.714   2.519  0.5464  1.8383 -1.0482
 3262SOL    HW221249   3.239   4.603   2.584 -2.2031  0.2783 -0.2799
 3263SOL     OW21250   1.276   0.246   9.279 -0.3324 -0.0183 -0.0303
 3263SOL    HW121251   1.225   0.179   9.234 -1.5358  0.6929  0.2553
 3263SOL    HW221252   1.360   0.205   9.299  0.4049  0.9622 -1.1355
 3264SOL     OW21253   3.452   2.932   2.901 -0.2173  0.3998 -0.4737
 3264SOL    HW121254   3.408   2.986   2.837 -0.0189  1.0422 -0.0637
 3264SOL    HW221255   3.545   2.950   2.892  0.0205 -1.1178 -1.0993
 3265SOL     OW21256   2.838   2.985   4.105  0.3407  0.1921  0.9038
 3265SOL    HW121257   2.827   2.986   4.010 -0.0610  2.3843  0.9905
 3265SOL    HW221258   2.770   3.048   4.129  1.7671  2.1376 -0.2422
 3266SOL     OW21259   0.002   2.177   4.142  0.4015 -0.1469  0.4833
 3266SOL    HW121260   4.713   2.117   4.215 -1.1703  0.3597  0.5952
 3266SOL    HW221261   0.067   2.123   4.097 -1.2926 -0.8034 -1.1748
 3267SOL     OW21262   0.869   0.527  14.989 -0.1002  0.4854  0.2047
 3267SOL    HW121263   0.791   0.477  14.966 -0.4368  1.0762  0.0363
 3267SOL    HW221264   0.836   0.613  14.961  3.2537  1.3984 -0.9830
 3268SOL     OW21265   3.482   2.909  16.135 -0.1093  0.0033  0.5728
 3268SOL    HW121266   3.469   2.976  16.202 -0.9929 -0.0776  0.4825
 3268SOL    HW221267   3.412   2.851  16.163 -0.4802 -1.1801 -2.7811
 3269SOL     OW21268   1.036   1.284   7.447 -0.2586  0.0263 -0.0466
 3269SOL    HW121269   0.952   1.257   7.410  0.0828 -2.0888  0.7192
 3269SOL    HW221270   1.109   1.254   7.392 -0.0243 -2.1075  1.4021
 3270SOL     OW21271   2.561   0.074  11.878  0.4964 -0.2699 -0.7567
 3270SOL    HW121272   2.556   0.032  11.964 -2.0619  0.9565 -0.3218
 3270SOL    HW221273   2.508   0.010  11.830 -0.0297 -1.0105  0.8032
 3271SOL     OW21274   0.583   4.340   3.880  0.5803  0.1041 -0.3881
 3271SOL    HW121275   0.563   4.271   3.817  0.1815  0.3642 -0.5442
 3271SOL    HW221276   0.635   4.405   3.832  1.0060  0.1367  0.1157
 3272SOL     OW21277   4.590   3.291   6.693  0.3943 -0.3000 -0.4051
 3272SOL    HW121278   4.672   3.324   6.657  2.0472 -1.5208  2.2902
 3272SOL    HW221279   4.610   3.203   6.724  0.9337  0.2315  0.7665
 3273SOL     OW21280   0.092   1.548   8.606  0.6658  0.3375 -0.0855
 3273SOL    HW121281   0.061   1.504   8.685 -1.0445 -1.5402 -1.8065
 3273SOL    HW221282   0.134   1.621   8.650  0.7087  0.5662 -0.5002
 3274SOL     OW21283   0.396   1.706   7.451 -0.1357 -0.0004  0.4720
 3274SOL    HW121284   0.381   1.741   7.363 -0.1185  0.1364  0.5237
 3274SOL    HW221285   0.367   1.618   7.426  3.0895 -0.9755  0.2508
 3275SOL     OW21286   3.788   1.796   8.156  0.2463  0.1603 -0.3973
 3275SOL    HW121287   3.811   1.811   8.248 -0.2552 -0.1953 -0.2132
 3275SOL    HW221288   3.711   1.741   8.170  0.0384 -0.1752 -2.9398
 3276SOL     OW21289   2.530   0.855   4.028 -0.1317  0.3275 -0.0807
 3276SOL    HW121290   2.568   0.919   3.967 -0.8431 -1.5855 -2.5594
 3276SOL    HW221291   2.438   0.881   4.032 -0.0851  0.2050  1.7549
 3277SOL     OW21292   2.424   1.953   1.695 -0.9122  0.4330 -0.2929
 3277SOL    HW121293   2.426   1.991   1.783 -1.6369 -0.3100  0.0437
 3277SOL    HW221294   2.395   1.863   1.704  1.3463 -0.5852 -3.1158
 3278SOL     OW21295   0.151   3.876   8.415  0.4314  0.0263 -0.1366
 3278SOL    HW121296   0.189   3.844   8.496  1.4983 -1.5301 -1.2429
 3278SOL    HW221297   0.191   3.810   8.357 -1.7231 -2.1450  0.8287
 3279SOL     OW21298   0.621   1.359  14.376  0.4243  0.0608  0.0806
 3279SOL    HW121299   0.538   1.378  14.331 -0.4866 -0.6889  1.4402
 3279SOL    HW221300   0.672   1.437  14.356 -3.5234  1.6575 -3.6874
 3280SOL     OW21301   0.974   3.091   7.217 -0.3184  0.5866  0.2669
 3280SOL    HW121302   0.989   3.185   7.230  1.6507  0.3803 -0.5542
 3280SOL    HW221303   1.042   3.080   7.152 -0.4556  0.5625  0.1274
 3281SOL     OW21304   3.492   4.023   2.504 -0.0505 -0.3872  0.4327
 3281SOL    HW121305   3.411   4.053   2.463 -0.0980 -1.5212 -0.2934
 3281SOL    HW221306   3.522   4.094   2.559 -1.1178 -0.9781  1.7945
 3282SOL     OW21307   0.155   0.446   1.681  0.8665 -0.1603 -0.0170
 3282SOL    HW121308   0.081   0.387   1.666  0.2854  0.4067  0.6017
 3282SOL    HW221309   0.105   0.526   1.696  1.1503  0.2521 -1.3509
 3283SOL     OW21310   3.239   4.599   4.236  0.3359  0.6478  0.1476
 3283SOL    HW121311   3.272   4.673   4.287  0.2130  1.3369 -0.7715
 3283SOL    HW221312   3.256   4.534   4.304 -1.1829  0.3118  0.1972
 3284SOL     OW21313   0.418   1.440   5.382  0.5029  0.0345 -0.5769
 3284SOL    HW121314   0.341   1.402   5.425  1.2973  0.8458  1.5510
 3284SOL    HW221315   0.379   1.523   5.355  1.3648  1.0014  1.1972
 3285SOL     OW21316   0.246   1.601   0.746  0.1895  0.1283 -0.1213
 3285SOL    HW121317   0.303   1.655   0.691  0.6884  1.7816  2.0385
 3285SOL    HW221318   0.303   1.527   0.768 -1.3625 -0.5490  1.6624
 3286SOL     OW21319   2.873   0.883  13.254 -0.0105  0.5016 -0.1611
 3286SOL    HW121320   2.869   0.944  13.329  1.9760  1.6973 -1.0371
 3286SOL    HW221321   2.966   0.872  13.236  0.5951  3.0431  1.2922
 3287SOL     OW21322   3.085   3.689   5.038 -0.5931 -0.4134  0.3170
 3287SOL    HW121323   3.104   3.631   4.964  1.0611  1.1925 -0.5272
 3287SOL    HW221324   3.014   3.746   5.007  0.4233  0.4116 -0.4912
 3288SOL     OW21325   3.694   0.002   2.331  0.0625 -0.1323  0.1862
 3288SOL    HW121326   3.746   4.683   2.264 -1.2165 -1.5232  0.1240
 3288SOL    HW221327   3.628   4.662   2.353 -0.8425  0.6368 -0.2389
 3289SOL     OW21328   2.666   3.738   6.632  0.2318  0.2627  0.6934
 3289SOL    HW121329   2.671   3.654   6.586  2.6652  0.3652  0.7192
 3289SOL    HW221330   2.679   3.804   6.564  2.5457 -0.5972  0.2938
 3290SOL     OW21331   3.263   3.059   4.024  0.7377 -0.5567 -0.3393
 3290SOL    HW121332   3.207   3.135   4.039 -0.8849 -1.4789 -1.7533
 3290SOL    HW221333   3.201   3.006   3.974 -0.5741 -0.6539  1.4123
 3291SOL     OW21334   4.300   3.381   2.744 -0.0622  0.1638  0.5375
 3291SOL    HW121335   4.292   3.412   2.654 -1.5962  1.1306  0.9948
 3291SOL    HW221336   4.207   3.378   2.767  0.2059 -0.3581  1.5657
 3292SOL     OW21337   4.030   3.387   2.847 -0.2334  0.6418 -0.0812
 3292SOL    HW121338   3.967   3.369   2.777  0.1877 -0.4306 -0.1889
 3292SOL    HW221339   3.986   3.457   2.895 -1.0976 -1.3954  2.1447
 3293SOL     OW21340   2.064   2.278  10.546  0.6411  0.3098 -0.5600
 3293SOL    HW121341   2.058   2.341  10.618  2.5935 -0.3046  0.1168
 3293SOL    HW221342   2.154   2.281  10.512  0.6484 -0.6135 -0.6084
 3294SOL     OW21343   1.266   3.905   9.693 -0.3792 -0.1857 -0.3998
 3294SOL    HW121344   1.360   3.921   9.690 -0.3405 -0.0929  1.1711
 3294SOL    HW221345   1.229   3.994   9.698  0.2807  0.0899 -0.3823
 3295SOL     OW21346   3.221   2.061   7.329  0.3751  0.6832 -0.7054
 3295SOL    HW121347   3.175   1.984   7.296 -0.7132  0.6507  0.8869
 3295SOL    HW221348   3.161   2.096   7.395  0.9977  0.0539  0.1961
 3296SOL     OW21349   3.887   0.368   6.682 -0.2688 -0.5319 -0.5850
 3296SOL    HW121350   3.827   0.391   6.752 -1.5162 -0.8834 -1.5347
 3296SOL    HW221351   3.821   0.344   6.617 -0.7325  1.4930 -0.8662
 3297SOL     OW21352   3.319   4.531  17.009 -0.1829  0.2872  0.2662
 3297SOL    HW121353   3.381   4.598  17.038  0.6002 -0.3821  0.1351
 3297SOL    HW221354   3.247   4.523  17.071 -0.2417 -0.3907  0.1119
 3298SOL     OW21355   2.265   2.315   9.871 -0.4112 -0.3679 -0.0579
 3298SOL    HW121356   2.334   2.377   9.845  0.7423 -0.5235  2.6683
 3298SOL    HW221357   2.190   2.362   9.835 -0.6456 -0.4463  0.3346
 3299SOL     OW21358   0.615   1.992  11.220  0.5060  0.0211 -0.1916
 3299SOL    HW121359   0.681   1.974  11.287 -0.6089  1.1097  1.1915
 3299SOL    HW221360   0.675   2.015  11.149 -0.4749  1.6981 -0.4648
 3300SOL     OW21361   2.297   3.390   4.403  0.0328 -0.0899 -0.3676
 3300SOL    HW121362   2.238   3.461   4.425  0.6050  0.2931 -0.0841
 3300SOL    HW221363   2.267   3.361   4.317 -0.0570 -3.2115  0.7090
 3301SOL     OW21364   3.841   2.818   4.061 -0.3165  0.7600 -0.0978
 3301SOL    HW121365   3.866   2.878   4.132  0.3922  0.4402 -0.0755
 3301SOL    HW221366   3.851   2.881   3.989  3.2200 -0.8530 -1.0334
 3302SOL     OW21367   1.589   4.542   2.429 -0.2960 -0.1489  0.5975
 3302SOL    HW121368   1.545   4.613   2.476 -1.2378 -0.8135  0.7216
 3302SOL    HW221369   1.682   4.557   2.446  0.0071 -1.5552  0.1858
 3303SOL     OW21370   4.520   4.694   6.861  0.7638  0.2357  0.0208
 3303SOL    HW121371   4.552   0.030   6.927  2.8674 -1.0022  0.1549
 3303SOL    HW221372   4.427   4.716   6.858  0.4735 -1.0323 -0.5356
 3304SOL     OW21373   0.090   1.875   6.391 -0.2947 -0.0379  0.0855
 3304SOL    HW121374   0.156   1.869   6.322 -1.4462 -0.3420 -0.9961
 3304SOL    HW221375   0.109   1.966   6.416  1.6356 -0.8691  1.6316
 3305SOL     OW21376   1.313   4.549  16.454 -0.3770 -0.6663 -0.0504
 3305SOL    HW121377   1.276   4.464  16.477  1.4947 -1.7385 -1.0194
 3305SOL    HW221378   1.319   4.588  16.541 -0.4062  0.3420 -0.5005
 3306SOL     OW21379   0.165   0.502   5.507  0.0402 -0.7389  0.1403
 3306SOL    HW121380   0.087   0.450   5.490  0.4244 -1.3690  0.3014
 3306SOL    HW221381   0.181   0.540   5.420  0.7432  1.2423  1.1320
 3307SOL     OW21382   2.566   3.322   5.309  1.2678  0.1034 -0.0246
 3307SOL    HW121383   2.657   3.340   5.332  0.6915 -0.4011  2.5941
 3307SOL    HW221384   2.538   3.257   5.373 -0.3361  0.9957  0.1719
 3308SOL     OW21385   1.818   3.884   9.181 -0.1271 -0.4316  0.0717
 3308SOL    HW121386   1.828   3.949   9.250 -0.0838  1.2198 -1.4839
 3308SOL    HW221387   1.875   3.928   9.118  2.7246 -2.1073  1.4987
 3309SOL     OW21388   4.127   2.184   2.399 -0.3788 -0.2368  0.2448
 3309SOL    HW121389   4.066   2.178   2.325 -2.2403  0.6984  1.6861
 3309SOL    HW221390   4.169   2.268   2.380  0.5787 -0.5186  1.1205
 3310SOL     OW21391   0.344   2.267   6.386 -0.3321 -0.3988  0.4360
 3310SOL    HW121392   0.300   2.233   6.464 -1.6078  0.6026  0.1482
 3310SOL    HW221393   0.435   2.252   6.413  0.0600 -1.6590 -1.5036
 3311SOL     OW21394   0.085   3.848   7.918 -0.1702 -0.6826  0.2075
 3311SOL    HW121395   0.006   3.879   7.875 -0.5472 -0.3864  1.0983
 3311SOL    HW221396   0.069   3.753   7.914  1.0299 -0.8254 -1.0241
 3312SOL     OW21397   1.453   0.262   4.302 -0.1728  0.1459  0.1819
 3312SOL    HW121398   1.443   0.357   4.300 -1.1132  0.0211 -0.5910
 3312SOL    HW221399   1.373   0.238   4.347 -0.3064 -1.4433 -0.9321
 3313SOL     OW21400   1.121   2.937   0.296  0.1592 -0.3705  0.0282
 3313SOL    HW121401   1.176   2.933   0.217 -1.1915 -0.2160 -0.9232
 3313SOL    HW221402   1.174   2.989   0.357 -0.4793  0.5579 -0.2089
 3314SOL     OW21403   1.337   0.656   5.946 -0.3567  0.2146  0.0702
 3314SOL    HW121404   1.345   0.662   5.851  0.9447 -0.2425  0.1468
 3314SOL    HW221405   1.294   0.570   5.954 -2.1623  0.9804 -1.5531
 3315SOL     OW21406   2.256   4.216  17.366 -0.5461 -0.0573  0.3605
 3315SOL    HW121407   2.201   4.294  17.360 -0.5802  0.0877  2.6087
 3315SOL    HW221408   2.319   4.244  17.432  0.1200  0.5610 -0.5431
 3316SOL     OW21409   4.201   1.217   2.858  0.0207  0.0231 -0.5859
 3316SOL    HW121410   4.169   1.225   2.948  2.1759  3.0070 -0.0930
 3316SOL    HW221411   4.185   1.307   2.828 -0.1472 -0.5037 -2.0811
 3317SOL     OW21412   3.113   2.152   4.309 -0.2623 -0.2077  0.1827
 3317SOL    HW121413   3.186   2.092   4.324  0.5350  0.5714 -0.4804
 3317SOL    HW221414   3.167   2.222   4.272  0.8817 -0.8512  0.6402
 3318SOL     OW21415   4.022   3.244   1.457 -0.6645 -0.6675  0.1163
 3318SOL    HW121416   3.938   3.205   1.477 -1.2871 -0.7437 -2.6319
 3318SOL    HW221417   4.070   3.236   1.539  1.4092 -2.0132 -1.2156
 3319SOL     OW21418   1.404   2.409   5.431  0.1853 -0.4335  0.5664
 3319SOL    HW121419   1.476   2.376   5.485  0.0340 -1.7929 -0.0687
 3319SOL    HW221420   1.435   2.444   5.347  0.3147  1.6095  1.4646
 3320SOL     OW21421   4.187   1.629   4.515  0.4916 -0.3310  0.6179
 3320SOL    HW121422   4.146   1.543   4.523  0.9392 -0.5464  0.5983
 3320SOL    HW221423   4.279   1.606   4.506  0.5500 -0.8474  2.5746
 3321SOL     OW21424   2.289   4.717   0.594  0.2158 -0.7547 -0.9059
 3321SOL    HW121425   2.250   4.632   0.573  0.8468 -1.0450 -0.9155
 3321SOL    HW221426   2.375   4.683   0.620  0.7193  2.5672  1.7555
 3322SOL     OW21427   1.479   0.814   9.226 -0.1406 -0.2974 -0.3200
 3322SOL    HW121428   1.412   0.874   9.257 -0.8684  0.0450 -2.5475
 3322SOL    HW221429   1.552   0.868   9.258 -0.1144  0.5307 -1.7900
 3323SOL     OW21430   1.992   0.274  15.266 -0.0726  0.0815 -0.5491
 3323SOL    HW121431   1.995   0.281  15.361  0.3684  1.0873 -0.6377
 3323SOL    HW221432   1.954   0.189  15.240  0.4430 -0.6030  0.9728
 3324SOL     OW21433   2.852   3.530   6.131 -0.2325  0.6326 -0.3114
 3324SOL    HW121434   2.758   3.522   6.146  0.2346 -1.2173  1.6913
 3324SOL    HW221435   2.867   3.617   6.095 -0.0884  1.6767  2.2220
 3325SOL     OW21436   3.471   1.492  11.668  0.3510  0.2075 -0.2023
 3325SOL    HW121437   3.404   1.424  11.677 -0.3070  0.9067  0.2155
 3325SOL    HW221438   3.432   1.557  11.610  0.6992 -0.0001 -0.6692
 3326SOL     OW21439   1.041   1.926  15.967  0.2480  0.5017 -0.2509
 3326SOL    HW121440   1.047   1.867  15.892 -2.1579 -1.3808  1.0580
 3326SOL    HW221441   0.948   1.943  15.953 -0.3445 -1.0281  1.8794
 3327SOL     OW21442   0.239   3.353   7.122 -0.2620  0.2411 -0.1907
 3327SOL    HW121443   0.319   3.406   7.115 -0.1144  0.1468  0.8064
 3327SOL    HW221444   0.283   3.288   7.177 -1.3137 -0.3381 -0.0311
 3328SOL     OW21445   1.173   0.808   8.923  0.2199 -0.8815 -0.2286
 3328SOL    HW121446   1.267   0.802   8.945  0.6956  0.4140 -1.9308
 3328SOL    HW221447   1.147   0.843   9.008 -0.8660 -2.2326  0.0031
 3329SOL     OW21448   2.943   2.388   2.468 -0.6791 -0.1044  0.1911
 3329SOL    HW121449   2.935   2.313   2.527  2.6746 -1.3637 -0.9650
 3329SOL    HW221450   2.915   2.351   2.385 -1.0896  0.6837 -0.0248
 3330SOL     OW21451   4.545   0.752   2.725 -0.5790 -0.3392  0.2560
 3330SOL    HW121452   4.544   0.783   2.815 -0.3694  0.4799 -0.0231
 3330SOL    HW221453   4.574   0.661   2.731 -2.3504 -1.0562 -2.0375
 3331SOL     OW21454   0.712   2.751   5.143  0.2939  0.4869 -0.3828
 3331SOL    HW121455   0.672   2.689   5.203  1.4791 -0.7380 -0.8637
 3331SOL    HW221456   0.702   2.831   5.194 -3.9045  0.2683 -0.8902
 3332SOL     OW21457   2.066   1.675  12.013 -0.4350  0.1008  0.1096
 3332SOL    HW121458   2.108   1.683  11.927 -1.4706 -0.8588 -0.4880
 3332SOL    HW221459   1.979   1.710  11.993  1.4681  4.0555 -1.3290
 3333SOL     OW21460   3.138   0.085  16.529  0.4170  0.3095 -0.4699
 3333SOL    HW121461   3.186   0.061  16.608 -0.3592  1.9668  0.5131
 3333SOL    HW221462   3.047   0.095  16.557  0.9682 -3.7555  2.6623
 3334SOL     OW21463   0.590   3.705   4.091 -0.2149 -0.0226 -0.1209
 3334SOL    HW121464   0.541   3.695   4.173  1.3068 -0.3583  0.7446
 3334SOL    HW221465   0.666   3.758   4.114 -0.8633  1.4071 -1.2711
 3335SOL     OW21466   3.708   0.531  10.654  0.1730 -0.4810  0.0105
 3335SOL    HW121467   3.739   0.446  10.685  1.2694 -0.1910 -0.2795
 3335SOL    HW221468   3.698   0.508  10.561 -0.4788 -2.0935  0.4826
 3336SOL     OW21469   1.939   2.267   0.283 -0.5634  0.4564 -0.3896
 3336SOL    HW121470   1.917   2.232   0.197 -1.0483 -0.5333  0.1369
 3336SOL    HW221471   1.918   2.358   0.260 -1.4802  0.4452  0.3882
 3337SOL     OW21472   2.426   3.280   8.640 -0.1911  0.5005 -0.2612
 3337SOL    HW121473   2.457   3.290   8.730 -2.1048  3.0526  0.1090
 3337SOL    HW221474   2.388   3.192   8.639  1.5924 -0.2644 -1.2607
 3338SOL     OW21475   0.857   0.049   7.164  0.1662 -0.4941  0.5559
 3338SOL    HW121476   0.848   0.120   7.227  0.1233 -0.4838  0.5385
 3338SOL    HW221477   0.950   0.049   7.141 -0.4417  0.8304 -1.9194
 3339SOL     OW21478   2.215   2.864   5.528 -0.1278 -0.1222 -0.2684
 3339SOL    HW121479   2.236   2.818   5.610  3.4022 -0.0889 -1.1646
 3339SOL    HW221480   2.281   2.834   5.466 -0.9578 -2.1364 -0.2013
 3340SOL     OW21481   3.820   0.071   6.254  0.0239  0.3659 -0.4095
 3340SOL    HW121482   3.904   0.066   6.210 -0.3255 -0.2753 -1.0179
 3340SOL    HW221483   3.837   0.104   6.342  0.3720 -2.1634  0.4764
 3341SOL     OW21484   2.486   3.949  12.888 -0.4059 -0.0499 -0.1253
 3341SOL    HW121485   2.552   3.962  12.956 -0.9703 -1.0409  0.6004
 3341SOL    HW221486   2.500   4.018  12.822  3.5845 -0.7649 -0.0054
 3342SOL     OW21487   4.291   4.143   3.947  0.3571 -0.6840  0.2632
 3342SOL    HW121488   4.319   4.092   4.023 -1.0805 -2.0895 -0.1473
 3342SOL    HW221489   4.356   4.118   3.881  1.9103  2.6665  0.5129
 3343SOL     OW21490   3.939   2.825   3.011 -0.8791  1.0262 -0.2972
 3343SOL    HW121491   3.897   2.740   2.995 -2.1791  1.6306 -0.0730
 3343SOL    HW221492   4.003   2.829   2.939  0.2257 -0.0614  0.6072
 3344SOL     OW21493   4.159   2.795   1.439  0.4917  0.1703 -0.3566
 3344SOL    HW121494   4.109   2.729   1.391  0.7712  0.8216 -1.5362
 3344SOL    HW221495   4.119   2.875   1.404  3.0767  1.1572 -1.0931
 3345SOL     OW21496   3.916   3.899   3.201 -0.2012 -0.0526 -0.5912
 3345SOL    HW121497   3.934   3.917   3.293 -0.3627 -0.5654 -0.4623
 3345SOL    HW221498   3.826   3.868   3.207 -0.4265  0.7026 -0.0899
 3346SOL     OW21499   4.565   3.442   1.448 -0.2740 -0.5888  0.4381
 3346SOL    HW121500   4.491   3.460   1.389  0.8120 -0.3145 -0.8352
 3346SOL    HW221501   4.626   3.499   1.402 -1.3915  1.5904  1.6525
 3347SOL     OW21502   4.709   0.330   4.699 -0.4415  0.0553 -0.0530
 3347SOL    HW121503   4.663   0.264   4.647 -2.0778  1.7007 -0.6601
 3347SOL    HW221504   4.666   0.329   4.785 -0.6464 -0.7156 -0.1683
 3348SOL     OW21505   0.331   3.367   2.994  0.9685 -0.1127  0.0247
 3348SOL    HW121506   0.356   3.459   2.999  0.1659  0.1072  0.0109
 3348SOL    HW221507   0.373   3.346   2.911  2.8010  3.3119  0.1136
 3349SOL     OW21508   1.886   0.368   3.660  0.6388 -0.2549  0.4564
 3349SOL    HW121509   1.976   0.374   3.626  1.2569  0.5545  2.2658
 3349SOL    HW221510   1.891   0.423   3.738 -0.1369  2.3462 -1.3224
 3350SOL     OW21511   1.366   2.851   9.017 -0.2426  0.1558  0.0412
 3350SOL    HW121512   1.435   2.890   8.962 -0.9697 -1.2810 -1.8683
 3350SOL    HW221513   1.305   2.812   8.955  1.1033  0.4678 -1.5083
 3351SOL     OW21514   1.234   1.007   8.563  0.5853 -0.1017 -0.5457
 3351SOL    HW121515   1.282   0.926   8.582 -0.5698 -0.0472  2.7142
 3351SOL    HW221516   1.254   1.054   8.645 -0.7796  0.5949 -0.6189
 3352SOL     OW21517   4.426   3.366   4.143  0.3945  0.1678  0.4327
 3352SOL    HW121518   4.476   3.289   4.169  1.1383  0.8895  1.1523
 3352SOL    HW221519   4.346   3.324   4.108 -0.4081  2.9456 -1.0901
 3353SOL     OW21520   2.439   4.373  17.574  0.2970 -0.6183 -0.5562
 3353SOL    HW121521   2.494   4.447  17.602 -0.3282 -0.0986 -0.7050
 3353SOL    HW221522   2.390   4.363  17.655  1.1723  5.0489  0.6976
 3354SOL     OW21523   3.659   1.054   7.186 -0.2964  0.0513  0.0771
 3354SOL    HW121524   3.683   1.027   7.097  1.8435 -1.8991  1.2875
 3354SOL    HW221525   3.655   0.971   7.233 -1.7183 -0.2917 -0.6391
 3355SOL     OW21526   1.976   3.284   4.430 -0.1987 -0.0550  0.4153
 3355SOL    HW121527   1.987   3.345   4.502 -0.5165  4.1994 -3.1043
 3355SOL    HW221528   1.987   3.349   4.360  1.2796 -1.4207 -0.6324
 3356SOL     OW21529   0.166   0.116   7.450  0.0083  0.7107 -0.3271
 3356SOL    HW121530   0.125   0.045   7.500  1.5152  1.3322  1.7895
 3356SOL    HW221531   0.212   0.160   7.522 -0.9627 -1.0526  1.3527
 3357SOL     OW21532   3.601   4.521   2.513 -0.0249  0.2508  0.0609
 3357SOL    HW121533   3.655   4.448   2.544  1.3652  0.8036 -1.0774
 3357SOL    HW221534   3.569   4.477   2.435 -0.5329  0.7782 -0.0232
 3358SOL     OW21535   1.909   1.643   1.946 -0.3772  0.2335  0.3891
 3358SOL    HW121536   1.933   1.563   1.901 -2.3465 -0.2811  0.2707
 3358SOL    HW221537   1.912   1.600   2.032  1.0000  0.8937  0.6623
 3359SOL     OW21538   3.314   2.242   1.174  0.4459 -0.1620 -0.2951
 3359SOL    HW121539   3.321   2.172   1.239 -1.0845 -0.1482 -0.1300
 3359SOL    HW221540   3.401   2.234   1.134  0.7910  1.0576  0.2156
 3360SOL     OW21541   0.970   0.762   6.500 -0.2095 -0.7055  0.2927
 3360SOL    HW121542   1.017   0.733   6.421  1.2560 -1.8764  1.5922
 3360SOL    HW221543   0.987   0.856   6.496 -0.6737 -0.5674  1.6774
 3361SOL     OW21544   3.819   1.284  15.649 -0.1787 -0.3176 -0.0524
 3361SOL    HW121545   3.777   1.282  15.563  1.9280  0.5348 -1.1084
 3361SOL    HW221546   3.906   1.312  15.621  0.5111 -2.6125 -0.1785
 3362SOL     OW21547   1.091   4.491  17.081 -0.3347  0.1426 -0.2919
 3362SOL    HW121548   0.997   4.506  17.077 -0.1165  1.5108 -0.4592
 3362SOL    HW221549   1.113   4.563  17.140 -0.9000 -0.4840  0.6788
 3363SOL     OW21550   0.529   0.029  17.269  0.2948  0.1502  0.0355
 3363SOL    HW121551   0.595   0.059  17.208 -0.1696 -0.5335 -0.7984
 3363SOL    HW221552   0.513   4.665  17.239  1.8938 -0.0588 -0.1951
 3364SOL     OW21553   2.413   1.382   5.345 -0.0555  0.0541  0.6019
 3364SOL    HW121554   2.451   1.469   5.334 -0.2629 -0.0511 -1.0273
 3364SOL    HW221555   2.351   1.383   5.271  1.1705  2.2411 -0.3996
 3365SOL     OW21556   2.054   1.595  13.217  0.6921 -0.3570 -0.0360
 3365SOL    HW121557   2.044   1.660  13.287 -2.5537  0.7965 -1.5813
 3365SOL    HW221558   1.967   1.557  13.208  0.8573 -0.6724 -0.2950
 3366SOL     OW21559   4.494   0.852  10.378  0.4788  0.3128 -0.7071
 3366SOL    HW121560   4.401   0.833  10.362  0.1510 -0.4701  2.1932
 3366SOL    HW221561   4.493   0.934  10.428  0.4837  0.4881 -0.9921
 3367SOL     OW21562   0.278   3.200   5.746 -0.3287 -0.1434 -0.0977
 3367SOL    HW121563   0.284   3.110   5.776 -1.9600  0.4069  1.9213
 3367SOL    HW221564   0.191   3.198   5.705 -0.5330 -1.0688  0.3766
 3368SOL     OW21565   2.173   2.410   3.105  0.0845 -0.0222  0.0739
 3368SOL    HW121566   2.216   2.487   3.140  0.6055 -0.4993  0.4759
 3368SOL    HW221567   2.124   2.455   3.035  1.0677 -0.3625 -0.8327
 3369SOL     OW21568   0.776   3.920   0.517  0.2855  0.3589  0.4139
 3369SOL    HW121569   0.740   3.982   0.454  0.8135  1.3592  1.1026
 3369SOL    HW221570   0.868   3.946   0.526 -0.1638  2.3535 -0.6713
 3370SOL     OW21571   1.569   4.534   5.259 -0.3533  0.9387 -0.3850
 3370SOL    HW121572   1.514   4.606   5.290  1.3231  1.0468  2.3553
 3370SOL    HW221573   1.509   4.467   5.226  1.4896 -1.7801  1.7033
 3371SOL     OW21574   4.225   1.308   8.984  0.0444  0.0762 -0.3571
 3371SOL    HW121575   4.195   1.223   8.951 -1.5232  0.1714  0.8352
 3371SOL    HW221576   4.251   1.347   8.901  0.6260 -0.3271 -0.3714
 3372SOL     OW21577   4.387   2.772   5.929 -0.0062 -0.3106 -0.3637
 3372SOL    HW121578   4.358   2.796   6.017 -1.2448 -0.2022 -0.8012
 3372SOL    HW221579   4.346   2.835   5.870 -1.2212 -0.8934 -0.1301
 3373SOL     OW21580   2.811   4.648   3.380 -0.1571  0.0598 -0.2179
 3373SOL    HW121581   2.899   4.669   3.413 -0.5777  2.4671 -0.6113
 3373SOL    HW221582   2.792   4.576   3.440  2.3170 -0.8143 -0.4805
 3374SOL     OW21583   2.232   3.721   1.312  0.0636  0.3825 -0.1367
 3374SOL    HW121584   2.202   3.661   1.381  1.0912 -0.2405 -0.2258
 3374SOL    HW221585   2.327   3.726   1.323  0.3443 -2.6209 -1.1694
 3375SOL     OW21586   2.616   3.690  10.180  0.6071 -0.4469  0.0178
 3375SOL    HW121587   2.589   3.687  10.272  0.1807  2.2105 -0.0283
 3375SOL    HW221588   2.558   3.758  10.145  0.2557 -0.5848  0.3327
 3376SOL     OW21589   1.725   3.244   5.556  0.1257 -0.0716  0.1975
 3376SOL    HW121590   1.789   3.194   5.505  1.0458  0.3949  0.8839
 3376SOL    HW221591   1.652   3.184   5.544  0.7647 -1.0480  1.1003
 3377SOL     OW21592   0.911   0.123   8.428  0.2226 -0.0071  0.0727
 3377SOL    HW121593   1.003   0.137   8.451  0.5165  1.7608 -2.1478
 3377SOL    HW221594   0.883   0.053   8.487 -0.0496 -0.4162 -0.5430
 3378SOL     OW21595   3.284   2.983   8.457  0.0392  0.3629 -0.3865
 3378SOL    HW121596   3.253   3.048   8.520 -1.0430 -1.3533  0.8467
 3378SOL    HW221597   3.366   2.953   8.497  1.3638  1.6599 -2.1073
 3379SOL     OW21598   3.539   0.211  16.482  0.5740  0.2028  0.1069
 3379SOL    HW121599   3.600   0.270  16.439 -0.9257  1.1823 -0.6659
 3379SOL    HW221600   3.459   0.211  16.430  0.8080 -1.6315 -0.2775
 3380SOL     OW21601   1.218   2.381   4.200  0.1154  0.5014  0.1597
 3380SOL    HW121602   1.190   2.353   4.113 -0.5294 -0.7286  0.7434
 3380SOL    HW221603   1.137   2.368   4.250 -0.5086  1.5033 -0.6097
 3381SOL     OW21604   4.645   1.979  12.296 -0.4175  0.5710  0.2994
 3381SOL    HW121605   4.683   1.911  12.351 -2.6336 -1.7045 -1.0301
 3381SOL    HW221606   4.714   2.046  12.301  0.6154 -0.5857  1.4622
 3382SOL     OW21607   2.567   3.394   6.472  0.0174 -0.4560 -0.1622
 3382SOL    HW121608   2.509   3.340   6.418  0.0692 -1.6538  0.9975
 3382SOL    HW221609   2.500   3.444   6.517 -0.3208  1.1859 -2.4375
 3383SOL     OW21610   3.552   2.121   8.716 -0.1435  0.5298  0.5910
 3383SOL    HW121611   3.642   2.109   8.746 -0.6588 -0.3914  1.7915
 3383SOL    HW221612   3.569   2.204   8.672  1.3106  0.3744  0.8825
 3384SOL     OW21613   3.196   2.823   2.791 -0.3760 -0.3957 -0.0874
 3384SOL    HW121614   3.127   2.767   2.756  0.2003 -1.3937  0.3773
 3384SOL    HW221615   3.212   2.873   2.711 -2.3064  2.3334  1.1945
 3385SOL     OW21616   1.722   0.317   2.776  0.4899 -0.0303  0.0187
 3385SOL    HW121617   1.628   0.300   2.775  0.6479 -0.9559  0.3803
 3385SOL    HW221618   1.734   0.408   2.751 -0.3538 -0.1819 -0.9324
 3386SOL     OW21619   0.604   4.054   5.664 -0.0564 -1.1906  0.0183
 3386SOL    HW121620   0.614   4.137   5.711  0.0611 -0.4378 -1.3254
 3386SOL    HW221621   0.690   4.063   5.622  0.3401  0.3066  1.1338
 3387SOL     OW21622   0.059   1.810   9.857 -0.4305  0.1242 -0.4721
 3387SOL    HW121623   0.063   1.794   9.763 -1.0706  1.7512 -0.7632
 3387SOL    HW221624   4.692   1.788   9.871 -0.4946  0.7767  0.1341
 3388SOL     OW21625   3.004   0.251   7.894  0.6405 -0.1058 -0.3814
 3388SOL    HW121626   3.035   0.230   7.806  3.6604 -0.1626  0.6770
 3388SOL    HW221627   2.997   0.166   7.937 -1.2854  0.6677  0.8445
 3389SOL     OW21628   0.280   4.563   5.436 -0.1380  0.0781  0.0221
 3389SOL    HW121629   0.371   4.591   5.446 -0.4793  0.8990  0.8282
 3389SOL    HW221630   0.235   4.613   5.504 -0.2020  0.0914 -0.0307
 3390SOL     OW21631   2.485   1.972   9.786  0.0767  0.2009 -0.1864
 3390SOL    HW121632   2.560   1.917   9.763 -0.8591 -1.3162  0.3844
 3390SOL    HW221633   2.515   2.057   9.753 -0.4161  0.6931  0.6277
 3391SOL     OW21634   4.388   2.926   1.100  0.2704  0.1760  0.2370
 3391SOL    HW121635   4.430   2.950   1.017 -2.5745  0.8866 -1.0017
 3391SOL    HW221636   4.444   2.853   1.124  1.8407  1.4178  0.3473
 3392SOL     OW21637   3.297   1.588   8.258 -0.0502  0.4550 -0.9110
 3392SOL    HW121638   3.209   1.608   8.292  1.1614  2.3721  1.0707
 3392SOL    HW221639   3.273   1.496   8.248  0.8125  0.1272  0.1443
 3393SOL     OW21640   4.199   0.778   8.506 -0.1544 -0.2554  0.1788
 3393SOL    HW121641   4.291   0.803   8.500 -0.0202 -0.3494  1.7864
 3393SOL    HW221642   4.218   0.685   8.491 -0.4864 -0.3725  0.4778
 3394SOL     OW21643   2.611   2.524  14.118  0.3063 -0.7503  0.0506
 3394SOL    HW121644   2.560   2.596  14.155  0.6293 -0.5854  0.1779
 3394SOL    HW221645   2.651   2.478  14.192 -0.7623 -1.2088  0.3463
 3395SOL     OW21646   1.768   4.079  13.293  0.0859  0.3312 -0.3566
 3395SOL    HW121647   1.708   4.065  13.219  2.6512 -0.4909 -2.2588
 3395SOL    HW221648   1.755   4.174  13.292  2.6426  0.6672 -0.9491
 3396SOL     OW21649   0.330   2.829   8.159  0.6155 -0.2742  0.2499
 3396SOL    HW121650   0.389   2.753   8.155  0.9188  0.1000 -1.9762
 3396SOL    HW221651   0.375   2.889   8.100 -0.7380  0.6591  0.1834
 3397SOL     OW21652   4.705   0.406   7.580  0.0211  0.3023 -0.1505
 3397SOL    HW121653   4.629   0.440   7.627  0.9288  0.7064  1.0196
 3397SOL    HW221654   0.022   0.355   7.649 -1.1608 -0.5147 -0.0129
 3398SOL     OW21655   0.475   1.311   0.152  0.4049 -0.5060 -0.5064
 3398SOL    HW121656   0.565   1.333   0.129 -0.1317  1.1570 -1.0151
 3398SOL    HW221657   0.441   1.400   0.155  0.0488 -0.5941 -1.9117
 3399SOL     OW21658   0.120   4.641   4.772  0.4476  0.2225  0.1974
 3399SOL    HW121659   0.138   4.569   4.832  0.4556 -0.1675 -0.2748
 3399SOL    HW221660   0.108   0.002   4.814  0.1507  0.4941 -0.4410
 3400SOL     OW21661   1.059   3.495   9.600  0.3534  0.3299  0.3675
 3400SOL    HW121662   1.152   3.474   9.599 -0.2241 -2.2085  0.4989
 3400SOL    HW221663   1.048   3.490   9.695  0.5236 -1.0547  0.3149
 3401SOL     OW21664   1.845   2.729   0.670 -0.5247 -0.4713  0.3542
 3401SOL    HW121665   1.786   2.691   0.735 -1.4969 -0.1430 -0.3422
 3401SOL    HW221666   1.897   2.788   0.724  1.7527 -0.8781 -1.3658
 3402SOL     OW21667   4.499   1.417   1.116 -0.1928  0.1795  0.0384
 3402SOL    HW121668   4.566   1.387   1.178 -1.6191 -2.3749  0.3346
 3402SOL    HW221669   4.499   1.511   1.137  1.4326 -0.3183  2.2153
 3403SOL     OW21670   0.885   1.408   5.564 -0.0959  0.3732  0.6105
 3403SOL    HW121671   0.836   1.331   5.592  0.0198  0.9872  2.5130
 3403SOL    HW221672   0.962   1.355   5.543 -0.1927  0.9680 -1.3031
 3404SOL     OW21673   3.520   2.540   2.157  0.0110  0.3309 -0.3962
 3404SOL    HW121674   3.427   2.540   2.134  0.1785 -1.2472 -1.0511
 3404SOL    HW221675   3.509   2.500   2.243  1.8267 -2.1884 -1.3596
 3405SOL     OW21676   3.200   3.287   7.399 -0.1725 -0.1462  0.1572
 3405SOL    HW121677   3.198   3.382   7.385  1.4972  0.1293  1.9360
 3405SOL    HW221678   3.236   3.251   7.318 -0.8330  0.6780 -0.5048
 3406SOL     OW21679   2.491   0.070   7.286 -0.0490  1.1959 -0.2566
 3406SOL    HW121680   2.563   0.010   7.268 -1.0340 -0.4331  1.2954
 3406SOL    HW221681   2.517   0.147   7.235  2.3769  1.3458  1.1663
 3407SOL     OW21682   2.228   2.096   7.331 -0.3675  0.3525  0.3952
 3407SOL    HW121683   2.241   2.139   7.247  0.2090  1.0820  0.8551
 3407SOL    HW221684   2.288   2.149   7.384 -0.5110  0.0629  0.8552
 3408SOL     OW21685   1.843   0.123   0.835 -0.0551 -0.1319  0.1310
 3408SOL    HW121686   1.893   0.046   0.806 -0.0785 -0.4151  0.8557
 3408SOL    HW221687   1.908   0.163   0.892  0.0534 -0.4059  0.2007
 3409SOL     OW21688   0.760   2.738  12.342 -0.1595  0.0127 -0.0879
 3409SOL    HW121689   0.784   2.663  12.396 -1.7891 -1.1211 -0.9301
 3409SOL    HW221690   0.716   2.787  12.412  1.5441  0.2568  0.8148
 3410SOL     OW21691   0.563   0.745  11.824  0.0176 -0.2352 -0.2792
 3410SOL    HW121692   0.478   0.711  11.850 -0.1979 -0.4011 -1.2144
 3410SOL    HW221693   0.615   0.665  11.814 -0.4097 -0.6335  0.7429
 3411SOL     OW21694   2.206   2.395   8.529 -0.3788  0.4350  0.4543
 3411SOL    HW121695   2.300   2.408   8.518  0.0227 -1.6758  1.4560
 3411SOL    HW221696   2.179   2.442   8.608 -3.9056 -3.3445  1.5315
 3412SOL     OW21697   4.176   0.392  12.383  0.1042 -0.4583 -0.5714
 3412SOL    HW121698   4.123   0.314  12.396  1.2842 -1.4453 -1.5948
 3412SOL    HW221699   4.141   0.462  12.437  0.4484  1.1749 -2.4372
 3413SOL     OW21700   0.357   1.318  12.819  0.0091 -0.9873  0.4130
 3413SOL    HW121701   0.345   1.378  12.746  3.0713 -2.7331 -1.5142
 3413SOL    HW221702   0.443   1.285  12.792  0.4806  0.8903 -0.3858
 3414SOL     OW21703   4.205   3.497  15.209 -0.7512  0.2383  0.3103
 3414SOL    HW121704   4.261   3.419  15.212 -1.1163  0.0526  2.1811
 3414SOL    HW221705   4.229   3.535  15.293  0.6480  0.8621 -0.3713
 3415SOL     OW21706   0.525   0.824   4.019  0.1262  0.4857  0.6960
 3415SOL    HW121707   0.569   0.773   3.952  0.3289  1.2919  0.2226
 3415SOL    HW221708   0.433   0.798   4.010 -0.5850  3.1826  0.0362
 3416SOL     OW21709   1.506   3.937   3.303  0.1724  0.1270 -0.4508
 3416SOL    HW121710   1.512   3.962   3.211  0.3239  0.6730 -0.2929
 3416SOL    HW221711   1.597   3.914   3.321  0.7670  2.1211 -0.9032
 3417SOL     OW21712   4.129   1.441   3.330  0.2146 -0.2517  0.1566
 3417SOL    HW121713   4.108   1.349   3.310  1.1486 -0.0825 -1.5998
 3417SOL    HW221714   4.225   1.443   3.337  0.1587  0.0517  0.7425
 3418SOL     OW21715   4.588   1.771   6.537 -0.1546 -0.1698  0.0238
 3418SOL    HW121716   4.525   1.758   6.467 -2.6829  3.1951  1.6891
 3418SOL    HW221717   4.664   1.810   6.493 -1.0269 -0.7797 -2.0198
 3419SOL     OW21718   3.588   2.021   3.386 -0.0425  0.4469  0.6192
 3419SOL    HW121719   3.683   2.011   3.395  0.0583  0.3101 -0.6080
 3419SOL    HW221720   3.568   1.968   3.464 -2.7735  1.9249  0.9098
 3420SOL     OW21721   2.726   1.428   0.044  0.0801 -0.1661  0.1625
 3420SOL    HW121722   2.655   1.483   0.078 -0.9543 -0.8587 -0.9168
 3420SOL    HW221723   2.673   1.358   0.007  1.5139 -1.7049  0.9804
 3421SOL     OW21724   3.105   2.400   9.344  0.4616 -0.7761 -0.2426
 3421SOL    HW121725   3.128   2.308   9.357 -1.1305 -1.1226  0.1303
 3421SOL    HW221726   3.014   2.400   9.313  0.7166  0.6862 -0.9630
 3422SOL     OW21727   2.883   3.939   6.459 -0.0820  0.1385  0.0021
 3422SOL    HW121728   2.967   3.984   6.471 -0.4359  0.6235  0.6418
 3422SOL    HW221729   2.826   3.986   6.520  0.0975 -0.7204  0.8267
 3423SOL     OW21730   1.238   1.432   7.571 -0.2466  0.2965  0.2940
 3423SOL    HW121731   1.175   1.375   7.526  2.2200 -1.5937 -0.7923
 3423SOL    HW221732   1.319   1.382   7.559 -0.4651  0.1896 -0.7805
 3424SOL     OW21733   1.760   3.476   5.290 -0.7293 -0.6922 -0.6048
 3424SOL    HW121734   1.814   3.552   5.267 -0.9038 -0.0332  1.1550
 3424SOL    HW221735   1.805   3.397   5.260  1.5612  0.4215 -0.1351
 3425SOL     OW21736   0.328   0.734   2.784  0.2765 -0.2512  0.1784
 3425SOL    HW121737   0.249   0.782   2.805 -0.4297 -0.8541 -1.0849
 3425SOL    HW221738   0.326   0.661   2.846  1.6534 -0.7806 -0.3770
 3426SOL     OW21739   0.445   2.650  17.023 -0.5346 -0.3549 -0.1052
 3426SOL    HW121740   0.494   2.571  17.047  1.8314  1.0260 -0.3916
 3426SOL    HW221741   0.368   2.638  17.079  0.5427 -1.5141  1.1424
 3427SOL     OW21742   2.630   1.415  14.587 -0.1437  0.2419 -0.1195
 3427SOL    HW121743   2.666   1.355  14.652  0.3285 -1.4534 -1.9409
 3427SOL    HW221744   2.553   1.451  14.631  1.4288  0.7952  2.1799
 3428SOL     OW21745   1.058   1.169   7.985 -0.2013 -0.0039 -0.4304
 3428SOL    HW121746   1.021   1.196   8.069  1.3490 -2.5975  1.0878
 3428SOL    HW221747   1.135   1.118   8.008  1.3536  2.0818 -0.9758
 3429SOL     OW21748   1.178   2.055   0.057  0.2602  0.5577 -0.4315
 3429SOL    HW121749   1.149   1.982   0.113  1.7445  1.4362  1.4810
 3429SOL    HW221750   1.153   2.126   0.117 -1.6154  0.2191 -0.7999
 3430SOL     OW21751   0.582   2.925   3.835  0.1456 -0.0244 -0.4083
 3430SOL    HW121752   0.550   2.843   3.798  1.5650 -1.0173  0.6022
 3430SOL    HW221753   0.653   2.948   3.774  0.2326  0.6997 -0.0384
 3431SOL     OW21754   1.282   1.731   3.109 -0.0517 -0.1404 -0.1720
 3431SOL    HW121755   1.194   1.768   3.121 -0.0449  0.2180 -1.2100
 3431SOL    HW221756   1.255   1.639   3.109 -0.6651  0.0395  0.9449
 3432SOL     OW21757   4.082   4.409   8.443 -0.0954  0.1055 -0.2844
 3432SOL    HW121758   4.102   4.318   8.419  0.3563  0.3353 -0.7698
 3432SOL    HW221759   3.989   4.392   8.458  0.3242 -0.6638  1.5410
 3433SOL     OW21760   2.843   2.829   9.501  0.5377  0.1947 -0.0784
 3433SOL    HW121761   2.798   2.809   9.583  0.6566  0.0461 -0.0488
 3433SOL    HW221762   2.935   2.842   9.527 -0.0704  0.6339  1.8777
 3434SOL     OW21763   1.454   2.499   2.982  0.0694 -0.5689  0.3979
 3434SOL    HW121764   1.427   2.591   2.985 -0.3755 -0.6285 -1.7529
 3434SOL    HW221765   1.418   2.458   3.061 -1.2434  0.1048  0.1555
 3435SOL     OW21766   3.793   2.553   3.201 -0.1804  0.5964  0.0617
 3435SOL    HW121767   3.828   2.464   3.203  0.3935  0.8348  0.5420
 3435SOL    HW221768   3.777   2.569   3.108 -1.4723  0.3934  0.2527
 3436SOL     OW21769   3.468   2.233   0.557 -0.4866 -0.2756  0.1242
 3436SOL    HW121770   3.451   2.284   0.636  3.2187 -0.2600  0.9086
 3436SOL    HW221771   3.513   2.157   0.592  0.2280  0.5503  1.0146
 3437SOL     OW21772   3.815   2.102   8.777 -0.4471 -0.1634  0.1271
 3437SOL    HW121773   3.869   2.054   8.714 -1.2781 -0.0682 -0.6430
 3437SOL    HW221774   3.881   2.128   8.841 -0.8760  0.9080  0.1258
 3438SOL     OW21775   4.033   0.261   3.070 -0.2908 -0.1364 -0.3558
 3438SOL    HW121776   3.950   0.287   3.031 -0.2394 -2.4643 -2.0299
 3438SOL    HW221777   4.009   0.224   3.155  2.0254  1.3898  0.9739
 3439SOL     OW21778   3.194   1.400   7.522  0.4631  0.0071 -0.3830
 3439SOL    HW121779   3.279   1.403   7.567  1.1919 -1.9262 -1.6423
 3439SOL    HW221780   3.168   1.311   7.545 -1.9476  0.1870 -2.3875
 3440SOL     OW21781   1.826   2.390   4.968 -0.1894 -0.3577  0.1128
 3440SOL    HW121782   1.896   2.348   5.019  0.3161  2.0886  1.4349
 3440SOL    HW221783   1.853   2.373   4.878 -0.5619 -1.2942  0.1719
 3441SOL     OW21784   0.822   1.960  11.371 -0.6198  0.1893  0.4275
 3441SOL    HW121785   0.810   2.045  11.413 -0.0327 -0.5755  2.1420
 3441SOL    HW221786   0.895   1.974  11.312 -1.7319 -1.3739 -1.3327
 3442SOL     OW21787   1.692   2.022   0.380  0.3811 -0.3277  0.4179
 3442SOL    HW121788   1.605   1.981   0.376  0.5051 -0.5095 -0.3482
 3442SOL    HW221789   1.685   2.100   0.324 -1.2385  0.6785  2.0305
 3443SOL     OW21790   0.506   3.064   4.771  0.2405  0.5376  0.4508
 3443SOL    HW121791   0.471   3.130   4.712 -0.7039 -0.5265 -0.1725
 3443SOL    HW221792   0.548   3.114   4.841  2.1826  1.6326 -1.4700
 3444SOL     OW21793   3.549   2.939   5.164 -0.3620 -0.0040  0.5370
 3444SOL    HW121794   3.474   2.907   5.115  0.1182  0.0927 -0.2653
 3444SOL    HW221795   3.620   2.898   5.114  0.2719  0.7874  0.7766
 3445SOL     OW21796   2.633   0.110  14.605 -0.2336  0.3871  0.2087
 3445SOL    HW121797   2.590   0.161  14.537  2.2667  0.3114 -1.4563
 3445SOL    HW221798   2.568   0.117  14.675 -0.3526  2.7821 -0.1275
 3446SOL     OW21799   0.173   2.412  11.471  0.2423 -0.2995 -0.3646
 3446SOL    HW121800   0.248   2.361  11.442 -0.1860 -1.1591  0.0461
 3446SOL    HW221801   0.194   2.444  11.558 -0.2814  0.5554 -0.5478
 3447SOL     OW21802   3.613   0.650   3.058  0.1701  0.0969 -0.1669
 3447SOL    HW121803   3.569   0.568   3.080 -0.3719  0.4418  0.0287
 3447SOL    HW221804   3.638   0.638   2.966 -2.1096 -1.5594 -0.5649
 3448SOL     OW21805   0.483   3.430   3.395 -0.4383 -0.2340  0.2865
 3448SOL    HW121806   0.557   3.484   3.423  0.3663 -0.0564 -2.2357
 3448SOL    HW221807   0.455   3.478   3.317  2.5014  1.0644  0.0509
 3449SOL     OW21808   3.347   2.699   2.526  1.0082 -0.6737 -0.2961
 3449SOL    HW121809   3.376   2.619   2.483  0.2854 -0.4684 -1.1586
 3449SOL    HW221810   3.255   2.682   2.544  0.9322  0.2183  0.1750
 3450SOL     OW21811   0.210   3.568   5.232 -0.6878 -0.9500 -0.3290
 3450SOL    HW121812   0.244   3.516   5.305  0.4951  1.4428  0.7984
 3450SOL    HW221813   0.221   3.658   5.262 -0.6748 -0.7845 -0.8214
 3451SOL     OW21814   0.378   1.950  15.220 -0.2003  0.1784  0.0376
 3451SOL    HW121815   0.375   1.991  15.306  1.6775  0.5881 -0.0880
 3451SOL    HW221816   0.288   1.959  15.191  0.2371  1.2627 -0.9670
 3452SOL     OW21817   0.415   0.445  15.051 -0.0577 -0.1856  0.3835
 3452SOL    HW121818   0.337   0.465  15.103 -0.6503  2.1928 -1.3963
 3452SOL    HW221819   0.379   0.421  14.965  0.5690 -0.1924  0.1236
 3453SOL     OW21820   3.087   2.161  12.405 -0.3418  0.1039  0.2831
 3453SOL    HW121821   3.096   2.126  12.494  4.3236  3.9966  1.3704
 3453SOL    HW221822   2.993   2.161  12.390 -0.1883  1.1292 -0.7336
 3454SOL     OW21823   0.881   0.260   6.457  0.2505 -0.5280  0.6721
 3454SOL    HW121824   0.901   0.333   6.397 -0.6584 -0.5490  0.3459
 3454SOL    HW221825   0.969   0.224   6.462  0.3932 -0.6200 -2.0010
 3455SOL     OW21826   1.496   3.654  14.913 -0.0009 -0.3194  0.1328
 3455SOL    HW121827   1.554   3.717  14.955  1.7309 -0.4857 -2.0379
 3455SOL    HW221828   1.537   3.572  14.940 -1.6739 -1.5896 -1.1426
 3456SOL     OW21829   0.463   2.748  12.983 -0.0625  0.7048 -0.1857
 3456SOL    HW121830   0.435   2.838  12.996  0.9077  0.6277  2.3988
 3456SOL    HW221831   0.381   2.701  13.000  0.5610 -0.3271 -0.0248
 3457SOL     OW21832   0.106   2.410  16.213  0.4717  0.3692  0.1633
 3457SOL    HW121833   0.188   2.436  16.172 -0.5179  1.8851 -0.8467
 3457SOL    HW221834   0.128   2.317  16.212 -1.1344 -0.0188  0.7097
 3458SOL     OW21835   4.124   1.026   4.412  0.3029 -0.0423  0.6787
 3458SOL    HW121836   4.087   1.036   4.500 -0.5537 -2.8788  0.6521
 3458SOL    HW221837   4.060   1.077   4.363  0.8970  0.7047  0.6887
 3459SOL     OW21838   2.756   3.302   8.466  0.1879 -0.6895 -0.6762
 3459SOL    HW121839   2.774   3.243   8.539 -0.5499 -1.0704 -0.8024
 3459SOL    HW221840   2.812   3.375   8.491  0.4181 -0.4802 -1.8154
 3460SOL     OW21841   1.272   2.359   7.522  0.0314  0.1549  0.2545
 3460SOL    HW121842   1.286   2.301   7.597  1.2044  1.5048  1.0656
 3460SOL    HW221843   1.357   2.398   7.502 -0.5027  1.5212  0.6468
 3461SOL     OW21844   0.991   1.073   3.745 -0.3156  0.3540 -0.2888
 3461SOL    HW121845   0.983   1.052   3.652  1.6320  0.9861 -0.5883
 3461SOL    HW221846   1.054   1.006   3.771 -0.4899 -0.0386 -0.8998
 3462SOL     OW21847   3.592   0.448  11.714  0.0900 -0.3005  0.3483
 3462SOL    HW121848   3.676   0.425  11.755  0.3262  0.8877  0.5289
 3462SOL    HW221849   3.615   0.539  11.695 -1.0291  0.5530  3.1871
 3463SOL     OW21850   2.556   2.608   4.211 -0.2261  0.0473 -0.2223
 3463SOL    HW121851   2.534   2.563   4.129 -1.4919 -0.1846  0.2497
 3463SOL    HW221852   2.643   2.642   4.191 -1.3018  1.2870 -2.8412
 3464SOL     OW21853   1.390   4.063   9.944 -0.1021  0.1093  0.2448
 3464SOL    HW121854   1.382   4.124  10.017  1.6646  0.0239  0.5194
 3464SOL    HW221855   1.297   4.059   9.923 -0.6259  0.8642  2.3561
 3465SOL     OW21856   2.493   1.659   8.321  0.0275 -0.2274  0.0987
 3465SOL    HW121857   2.411   1.706   8.308  0.9231  1.5207  0.6988
 3465SOL    HW221858   2.545   1.737   8.339 -0.7088  0.1444  0.6359
 3466SOL     OW21859   0.431   4.278   8.847 -0.1034  0.6499  0.2991
 3466SOL    HW121860   0.358   4.239   8.798  0.9310 -1.0242  0.1000
 3466SOL    HW221861   0.489   4.204   8.862  0.5305  1.3640  1.3935
 3467SOL     OW21862   1.247   0.975  11.051 -0.0985  0.3309  0.2852
 3467SOL    HW121863   1.203   1.008  11.130  0.7689 -0.9332  1.2963
 3467SOL    HW221864   1.177   0.918  11.019 -0.3105  0.3667  0.6824
 3468SOL     OW21865   1.544   1.749   2.438 -0.1569  0.1325  0.4040
 3468SOL    HW121866   1.534   1.822   2.377  1.9170  1.8622  2.1381
 3468SOL    HW221867   1.462   1.704   2.419  0.5338 -1.5357  1.4430
 3469SOL     OW21868   3.886   4.460   0.033 -0.4807 -0.4292 -0.0613
 3469SOL    HW121869   3.907   4.502   0.116  1.3051  1.0635 -1.2812
 3469SOL    HW221870   3.881   4.535  17.676 -0.7609 -0.2951  0.1318
 3470SOL     OW21871   0.148   1.055   4.511 -0.0151  0.1066  0.2809
 3470SOL    HW121872   0.113   1.126   4.565 -0.4217 -0.4774  0.7930
 3470SOL    HW221873   0.236   1.085   4.490 -0.1996 -0.3015 -1.0844
 3471SOL     OW21874   2.184   2.334  10.208 -0.1268 -0.4584  0.3557
 3471SOL    HW121875   2.120   2.401  10.233  0.4986  0.7331 -1.2563
 3471SOL    HW221876   2.125   2.281  10.154  0.4139 -0.7441  0.0537
 3472SOL     OW21877   2.446   2.553  11.413 -0.4925  0.4642 -0.1883
 3472SOL    HW121878   2.532   2.594  11.420 -0.7081  0.3768  2.7011
 3472SOL    HW221879   2.386   2.628  11.416  0.4014  1.0297  3.1730
 3473SOL     OW21880   2.777   0.957  17.446 -0.3399 -0.1509  0.7595
 3473SOL    HW121881   2.747   0.979  17.358  0.1733 -1.5069  0.2570
 3473SOL    HW221882   2.818   1.038  17.477  0.0179  0.1149 -0.3939
 3474SOL     OW21883   1.329   4.122   2.176 -0.2781 -0.7050  0.0685
 3474SOL    HW121884   1.400   4.184   2.163 -2.5958  2.2009  1.2896
 3474SOL    HW221885   1.357   4.074   2.254  1.7597 -1.4339 -1.1090
 3475SOL     OW21886   0.088   2.050   2.940  0.3808 -0.1457 -0.2937
 3475SOL    HW121887   0.128   1.996   2.872  2.0326 -0.4291  0.9232
 3475SOL    HW221888   0.164   2.072   2.993  0.4562 -2.1541  0.4374
 3476SOL     OW21889   1.602   2.783   8.015  0.1822 -0.1013 -0.4813
 3476SOL    HW121890   1.519   2.746   8.046  0.1976 -1.4011 -2.0056
 3476SOL    HW221891   1.592   2.877   8.026 -2.2198 -0.4030  0.1006
 3477SOL     OW21892   2.552   3.944   8.095 -0.1774  0.0296  0.0680
 3477SOL    HW121893   2.625   3.997   8.061  1.2369 -2.3193 -0.5190
 3477SOL    HW221894   2.486   3.965   8.028 -2.1121 -1.5167  1.4748
 3478SOL     OW21895   3.476   3.909   0.867 -0.4384 -0.0814  0.2521
 3478SOL    HW121896   3.452   3.858   0.790  0.2391  1.0884 -0.7193
 3478SOL    HW221897   3.560   3.941   0.837  0.5351 -3.9307 -1.1600
 3479SOL     OW21898   0.637   2.911   8.876  0.0237  0.1905 -0.7365
 3479SOL    HW121899   0.672   2.991   8.914  0.3369 -0.3983  0.2267
 3479SOL    HW221900   0.697   2.904   8.802  0.5135 -0.0758 -0.3169
 3480SOL     OW21901   0.261   2.816   6.977  0.5102  0.2378 -0.3968
 3480SOL    HW121902   0.295   2.858   6.899 -0.8912  1.6221 -0.2593
 3480SOL    HW221903   0.299   2.729   6.989  2.4202  1.2709  0.9607
 3481SOL     OW21904   0.329   4.017  11.155 -0.4297  0.3307 -0.4443
 3481SOL    HW121905   0.402   4.052  11.207 -0.2562  0.6066 -0.8704
 3481SOL    HW221906   0.364   4.036  11.068 -2.3537 -1.8661 -1.6814
 3482SOL     OW21907   2.633   0.168  10.960 -0.2700 -0.2353  0.4490
 3482SOL    HW121908   2.691   0.092  10.957  0.4216  0.3787 -1.6983
 3482SOL    HW221909   2.563   0.126  11.008 -1.7436  1.0700 -0.5560
 3483SOL     OW21910   2.857   0.630   2.193  0.0391  0.1174 -0.3713
 3483SOL    HW121911   2.794   0.651   2.262  1.5667 -0.8822  1.3428
 3483SOL    HW221912   2.796   0.619   2.120  0.6248  0.0162 -0.8460
 3484SOL     OW21913   3.708   2.040   4.888  0.0164 -1.3329 -0.1155
 3484SOL    HW121914   3.622   2.048   4.846  0.2109  1.6231  0.0293
 3484SOL    HW221915   3.711   1.946   4.902 -0.4706 -1.1485  1.1378
 3485SOL     OW21916   0.898   2.599   7.632 -0.1264  0.0743  0.6387
 3485SOL    HW121917   0.880   2.647   7.551 -1.8431  0.0874  1.0477
 3485SOL    HW221918   0.927   2.677   7.680 -0.6070  0.7511 -0.1865
 3486SOL     OW21919   2.418   3.052   8.036 -0.1284 -0.0324  0.1915
 3486SOL    HW121920   2.368   3.019   8.110  2.9980 -3.7823  0.6327
 3486SOL    HW221921   2.363   3.117   7.993 -0.7949 -2.5189 -2.6918
 3487SOL     OW21922   2.936   0.945   3.276  0.0421 -0.3276  0.2036
 3487SOL    HW121923   2.873   0.893   3.325 -1.5217 -0.2737 -1.7766
 3487SOL    HW221924   2.904   1.033   3.297 -1.3062 -1.1129  1.4239
 3488SOL     OW21925   1.004   4.359  14.616 -0.0688  0.1988 -0.3558
 3488SOL    HW121926   1.043   4.373  14.530 -0.9435  0.7873 -0.6659
 3488SOL    HW221927   1.091   4.369  14.655  0.4338 -0.1666 -1.3917
 3489SOL     OW21928   3.296   0.529  10.481  0.0978  0.1427  0.3392
 3489SOL    HW121929   3.347   0.607  10.503  2.4990 -0.9696 -1.2855
 3489SOL    HW221930   3.217   0.581  10.467 -0.6470 -0.8653  0.8098
 3490SOL     OW21931   2.525   3.316   6.887 -0.4946  0.0354 -0.2888
 3490SOL    HW121932   2.558   3.389   6.834  2.0607 -1.0657 -0.2140
 3490SOL    HW221933   2.610   3.283   6.917 -0.7832  0.4850  1.0096
 3491SOL     OW21934   0.546   4.145   3.689  0.2850 -0.1651  0.4816
 3491SOL    HW121935   0.460   4.176   3.660 -0.9258 -2.4354  1.5849
 3491SOL    HW221936   0.582   4.093   3.617 -0.6699 -0.1255 -0.0326
 3492SOL     OW21937   2.475   4.452   0.932 -0.0357 -0.1828  0.2703
 3492SOL    HW121938   2.430   4.535   0.949 -1.0318 -1.2332  2.7979
 3492SOL    HW221939   2.549   4.459   0.992  1.8774 -1.7585 -1.8867
 3493SOL     OW21940   4.072   4.669   0.204  0.3621  0.2653  0.1353
 3493SOL    HW121941   4.086   0.007   0.134  0.4030  0.5080  0.3670
 3493SOL    HW221942   3.996   4.699   0.255 -1.1449  0.2052 -2.0477
 3494SOL     OW21943   0.333   4.036   1.342  0.3489  1.0218  0.4295
 3494SOL    HW121944   0.420   4.011   1.371  0.1256 -1.8736 -1.4256
 3494SOL    HW221945   0.346   4.112   1.285  1.3167  0.1680 -0.4716
 3495SOL     OW21946   1.527   3.815  12.023 -0.0455  0.8164  0.4404
 3495SOL    HW121947   1.612   3.774  12.003 -0.1308 -0.0818  1.8807
 3495SOL    HW221948   1.549   3.878  12.091  0.1859  1.2671 -0.0517
 3496SOL     OW21949   2.590   2.903   6.522 -0.5100 -0.0278  0.2940
 3496SOL    HW121950   2.637   2.979   6.487 -0.4630 -2.1042 -4.3112
 3496SOL    HW221951   2.613   2.889   6.613  0.7063  1.4271  0.2202
 3497SOL     OW21952   0.753   3.195   4.194 -0.0650  0.1852 -0.2650
 3497SOL    HW121953   0.779   3.141   4.119 -1.3365 -1.6647  0.6121
 3497SOL    HW221954   0.826   3.186   4.256  0.6520  2.1720 -0.8297
 3498SOL     OW21955   1.993   1.385   1.885  0.0501 -0.0002 -0.1864
 3498SOL    HW121956   1.915   1.337   1.858 -1.1737  1.7457  0.2398
 3498SOL    HW221957   2.060   1.359   1.822  0.2898 -1.5695  0.7111
 3499SOL     OW21958   2.819   3.701   4.940 -0.3595  0.1851  0.2302
 3499SOL    HW121959   2.742   3.758   4.943 -1.1608 -1.0280  2.1242
 3499SOL    HW221960   2.790   3.664   4.857  1.1437 -0.8456  0.1620
 3500SOL     OW21961   0.112   4.616   7.574  0.1143 -0.4614 -0.1187
 3500SOL    HW121962   0.059   4.537   7.562  1.8777 -1.7094  0.2963
 3500SOL    HW221963   0.074   4.656   7.652  0.6351  1.4397 -0.8535
 3501SOL     OW21964   1.337   0.207   6.331  0.1450 -0.5154 -0.4844
 3501SOL    HW121965   1.406   0.241   6.388  0.6627 -3.4204  0.6184
 3501SOL    HW221966   1.383   0.149   6.270  0.3994 -1.3641  0.5256
 3502SOL     OW21967   0.708   2.138   6.201  0.2803 -0.4084 -0.4134
 3502SOL    HW121968   0.656   2.218   6.192 -0.3272 -0.5893  1.6346
 3502SOL    HW221969   0.766   2.139   6.124 -0.0687  3.5259 -0.6470
 3503SOL     OW21970   2.179   3.492   1.901  0.6927  0.1452  0.0786
 3503SOL    HW121971   2.124   3.419   1.874  0.0622  0.2614  1.0472
 3503SOL    HW221972   2.171   3.495   1.996  0.3912  3.8866 -0.0486
 3504SOL     OW21973   1.527   0.643   7.429  0.6414  0.0405  0.7383
 3504SOL    HW121974   1.533   0.608   7.340  0.2002 -0.5954  0.9619
 3504SOL    HW221975   1.506   0.574   7.491 -2.2434  0.5023  0.2623
 3505SOL     OW21976   1.893   4.507   9.555  0.1695  0.7987 -0.3098
 3505SOL    HW121977   1.982   4.542   9.548  0.7557 -0.7777 -0.7661
 3505SOL    HW221978   1.877   4.522   9.648  0.3862  1.2930 -0.3523
 3506SOL     OW21979   4.679   4.540  14.076  0.2548  0.1561  0.1907
 3506SOL    HW121980   4.599   4.576  14.114 -0.7799 -0.5018 -1.3679
 3506SOL    HW221981   4.709   4.631  14.070 -0.9674  0.5142 -0.4428
 3507SOL     OW21982   3.753   0.534  10.991  0.2063  0.9180  0.3064
 3507SOL    HW121983   3.676   0.479  11.003  0.5864  0.6723  1.5235
 3507SOL    HW221984   3.815   0.479  10.943  2.0507  0.1132  3.6458
 3508SOL     OW21985   2.623   0.904   5.965 -0.3702 -0.1055 -0.0685
 3508SOL    HW121986   2.683   0.829   5.977 -0.8897 -0.4834  0.1536
 3508SOL    HW221987   2.534   0.872   5.976  0.1090 -0.9902  1.3499
 3509SOL     OW21988   0.547   3.388  16.119 -0.2316 -0.3481 -0.1524
 3509SOL    HW121989   0.498   3.468  16.099  1.7086  0.0445 -3.1996
 3509SOL    HW221990   0.634   3.406  16.082 -0.0865  1.1160  0.8360
 3510SOL     OW21991   4.484   1.019   1.858  0.5076  0.3224 -0.0106
 3510SOL    HW121992   4.483   0.934   1.903  1.2848 -0.3228 -1.1830
 3510SOL    HW221993   4.511   0.990   1.771  0.9860  0.0377  0.2329
 3511SOL     OW21994   2.642   2.714   2.381  0.4184 -0.1107  1.1482
 3511SOL    HW121995   2.601   2.734   2.465 -2.5907 -1.3892 -0.0328
 3511SOL    HW221996   2.650   2.619   2.388  0.8710 -0.0923  0.9356
 3512SOL     OW21997   3.124   2.646   9.476  0.1091  0.4390  0.7599
 3512SOL    HW121998   3.082   2.671   9.558  0.1742 -0.4440  1.0653
 3512SOL    HW221999   3.070   2.575   9.441  1.9499 -0.9878  0.8564
 3513SOL     OW22000   0.201   0.140   0.995  0.1184  0.0708  0.0545
 3513SOL    HW122001   0.287   0.104   1.016  0.0221  0.5426  1.2278
 3513SOL    HW222002   0.208   0.136   0.899 -0.8725 -2.7336  0.1109
 3514SOL     OW22003   3.469   2.607  10.456 -0.3252  0.3017 -0.1726
 3514SOL    HW122004   3.425   2.615  10.541  0.3695  0.6156  0.1594
 3514SOL    HW222005   3.459   2.698  10.428 -1.2001 -0.2753 -1.7180
 3515SOL     OW22006   3.421   0.149  12.329 -0.4157  0.4008 -0.0288
 3515SOL    HW122007   3.455   0.076  12.380 -0.8830 -0.6017 -1.1472
 3515SOL    HW222008   3.344   0.160  12.385 -1.5163  0.1022 -1.4731
 3516SOL     OW22009   1.245   0.948   3.788 -0.1387 -0.8473  0.0326
 3516SOL    HW122010   1.295   0.960   3.869 -0.9295 -0.3675  0.4534
 3516SOL    HW222011   1.233   0.854   3.796  0.1951 -0.7413  1.8774
 3517SOL     OW22012   4.688   0.734   7.808  0.1109  0.0682  0.0304
 3517SOL    HW122013   4.705   0.699   7.895 -0.5251 -0.4038 -0.0288
 3517SOL    HW222014   4.661   0.824   7.829  0.3333  0.2567 -0.4974
 3518SOL     OW22015   3.805   2.103   9.708 -0.1525  0.0455 -0.1573
 3518SOL    HW122016   3.752   2.179   9.733 -3.1238 -2.3343  0.6988
 3518SOL    HW222017   3.741   2.080   9.641 -2.3349  1.9636  1.2518
 3519SOL     OW22018   2.276   1.019   5.337 -0.0312 -0.1974 -0.5361
 3519SOL    HW122019   2.229   0.978   5.410  1.7854 -1.6208 -0.1630
 3519SOL    HW222020   2.273   0.941   5.281  0.0234 -0.7766  0.2659
 3520SOL     OW22021   3.382   1.647  12.127 -0.1308  0.1082 -0.0456
 3520SOL    HW122022   3.294   1.676  12.101  0.4633  1.3052 -0.7253
 3520SOL    HW222023   3.420   1.732  12.149  1.0615 -0.5828  0.5583
 3521SOL     OW22024   1.656   4.122   4.625 -0.1190  0.4149 -0.2721
 3521SOL    HW122025   1.708   4.097   4.549  1.4146  3.0252 -0.1000
 3521SOL    HW222026   1.568   4.141   4.592 -0.1852 -0.5283 -0.6265
 3522SOL     OW22027   1.099   2.590  16.328  0.9114 -0.3589 -0.4861
 3522SOL    HW122028   1.028   2.638  16.370 -0.0994 -2.9252  0.7671
 3522SOL    HW222029   1.106   2.639  16.246 -0.0553 -1.6264 -1.3309
 3523SOL     OW22030   0.091   2.091  11.603 -0.2155  0.1377  0.4481
 3523SOL    HW122031   0.004   2.113  11.570 -0.1902 -1.9877 -0.9963
 3523SOL    HW222032   0.138   2.098  11.520  0.8052 -0.8076  0.9527
 3524SOL     OW22033   1.638   0.986   4.409 -0.2077 -0.0907  0.5940
 3524SOL    HW122034   1.701   0.987   4.338  1.2955 -0.9529  1.9212
 3524SOL    HW222035   1.579   0.912   4.393 -1.1089  0.8834 -0.6427
 3525SOL     OW22036   2.772   4.331   6.721 -0.2589 -0.3395 -0.0306
 3525SOL    HW122037   2.845   4.270   6.737  0.7946  0.1524 -2.8949
 3525SOL    HW222038   2.804   4.384   6.648  0.2104  0.1659  0.5351
 3526SOL     OW22039   3.770   2.715   5.434 -0.6057 -0.4903  0.8043
 3526SOL    HW122040   3.791   2.640   5.490  1.5969 -1.1010 -0.8641
 3526SOL    HW222041   3.749   2.665   5.355  1.8954  2.4710 -1.6856
 3527SOL     OW22042   2.140   0.301  13.760 -0.6603  0.3872 -0.0494
 3527SOL    HW122043   2.136   0.219  13.809 -0.3468  0.5644  0.2748
 3527SOL    HW222044   2.128   0.359  13.835 -0.9027  1.1688 -0.6985
 3528SOL     OW22045   2.813   4.369  11.115  0.2940 -0.0946  0.1525
 3528SOL    HW122046   2.788   4.281  11.143 -0.9731 -0.7684 -3.1227
 3528SOL    HW222047   2.835   4.350  11.023  1.3604 -3.1356  1.0473
 3529SOL     OW22048   3.668   2.388   2.816 -0.4524 -0.1536 -0.3250
 3529SOL    HW122049   3.600   2.321   2.818 -0.0957 -0.4749  0.7332
 3529SOL    HW222050   3.748   2.337   2.804 -0.8476 -0.7822 -0.2776
 3530SOL     OW22051   3.445   3.960  12.543  0.0408 -0.2226  0.2204
 3530SOL    HW122052   3.360   4.001  12.559  2.1555  3.6529  1.5293
 3530SOL    HW222053   3.499   4.039  12.539  0.2218 -0.4031 -0.8949
 3531SOL     OW22054   4.660   0.319   5.190  0.5320  0.5772  0.0405
 3531SOL    HW122055   4.625   0.233   5.212  1.7079 -0.5387 -2.4178
 3531SOL    HW222056   4.604   0.341   5.117 -0.4526 -1.6538  0.1362
 3532SOL     OW22057   3.220   4.093  13.105 -0.4021  0.3526  0.6337
 3532SOL    HW122058   3.274   4.163  13.069  0.9831  0.7015  3.4271
 3532SOL    HW222059   3.286   4.031  13.135 -1.0074 -0.6349 -0.0499
 3533SOL     OW22060   0.213   4.356  15.821 -0.1449  0.3199 -0.2397
 3533SOL    HW122061   0.129   4.342  15.865 -0.4883 -0.8295 -1.2904
 3533SOL    HW222062   0.196   4.436  15.771 -0.7620 -1.4004 -2.7658
 3534SOL     OW22063   1.576   2.348   6.739 -0.3033 -0.9286 -0.4394
 3534SOL    HW122064   1.509   2.285   6.766 -1.6192  0.2407 -0.9883
 3534SOL    HW222065   1.555   2.362   6.647 -1.6662 -0.2860 -0.0322
 3535SOL     OW22066   1.014   2.835  17.489  0.4232  0.1768  0.3406
 3535SOL    HW122067   1.100   2.806  17.518  0.2593 -3.2750 -2.5886
 3535SOL    HW222068   0.974   2.756  17.452  1.3817 -0.3372  0.3898
 3536SOL     OW22069   1.263   1.520   1.870  0.2350 -0.0823 -0.5664
 3536SOL    HW122070   1.319   1.449   1.901 -0.9625 -0.4561  0.6911
 3536SOL    HW222071   1.225   1.487   1.789 -0.8782 -1.6371  0.5956
 3537SOL     OW22072   1.200   0.241   7.509 -0.3096  0.0444  0.4497
 3537SOL    HW122073   1.150   0.322   7.505 -0.9013 -0.3541 -0.0562
 3537SOL    HW222074   1.233   0.243   7.419 -0.1822 -0.3370  0.4905
 3538SOL     OW22075   0.401   2.081   5.641 -0.1030  0.2752  0.0650
 3538SOL    HW122076   0.460   2.156   5.652 -0.8677  0.9253 -0.2621
 3538SOL    HW222077   0.326   2.100   5.697 -0.9514  0.9746 -1.3043
 3539SOL     OW22078   1.463   0.794  16.736 -0.1283 -0.6006 -0.0209
 3539SOL    HW122079   1.407   0.830  16.668 -1.0217 -0.5643  0.7371
 3539SOL    HW222080   1.529   0.751  16.681  1.2198  0.4819  0.7570
 3540SOL     OW22081   1.998   4.367   5.811 -0.5007  0.0862  0.1619
 3540SOL    HW122082   1.981   4.432   5.743 -0.2549  0.3132  0.3172
 3540SOL    HW222083   2.022   4.420   5.887 -1.7520  0.9712 -0.0768
 3541SOL     OW22084   3.603   2.363   8.651  0.4259  0.1717  0.1544
 3541SOL    HW122085   3.673   2.376   8.587  1.1943  0.8580  1.1187
 3541SOL    HW222086   3.552   2.442   8.634 -0.6202 -0.5652 -0.0718
 3542SOL     OW22087   3.742   1.052   5.516  0.6168  0.0549  0.4482
 3542SOL    HW122088   3.664   1.103   5.496  0.5404  0.1506  0.9924
 3542SOL    HW222089   3.799   1.073   5.442  0.6670 -2.5906 -0.2688
 3543SOL     OW22090   4.323   0.484  10.009  0.6132 -0.1435 -0.2348
 3543SOL    HW122091   4.235   0.522  10.014  1.1285  1.2990 -2.1514
 3543SOL    HW222092   4.384   0.550   9.978 -0.1299  0.4561 -0.4321
 3544SOL     OW22093   0.250   1.128   0.127 -0.0247 -0.6389 -0.3170
 3544SOL    HW122094   0.245   1.170   0.041  2.4875 -0.7934 -0.5341
 3544SOL    HW222095   0.326   1.166   0.171 -1.1753  0.3894  0.7816
 3545SOL     OW22096   3.603   3.164   7.058 -0.2897 -0.3397  0.1548
 3545SOL    HW122097   3.524   3.212   7.032 -0.2343 -0.1340  0.3684
 3545SOL    HW222098   3.567   3.099   7.118  0.5431 -1.0979 -0.1766
 3546SOL     OW22099   0.766   0.901   2.699 -0.3089 -0.4894  0.5858
 3546SOL    HW122100   0.670   0.897   2.705 -0.3318 -0.3697  0.3109
 3546SOL    HW222101   0.765   0.997   2.700 -2.0101 -0.4786 -1.7708
 3547SOL     OW22102   0.241   2.819   3.378 -0.2395  0.7560  0.0175
 3547SOL    HW122103   0.217   2.744   3.432 -1.8531  0.7399 -0.7406
 3547SOL    HW222104   0.295   2.868   3.440  1.4153  0.1816 -0.9564
 3548SOL     OW22105   3.344   3.725   7.199 -0.8968 -0.6504 -0.3094
 3548SOL    HW122106   3.343   3.717   7.104 -2.5404 -2.7532 -0.1135
 3548SOL    HW222107   3.422   3.781   7.201 -1.4833  0.1378  0.5901
 3549SOL     OW22108   0.820   3.658  14.664 -0.7805 -0.4357  0.3209
 3549SOL    HW122109   0.847   3.644  14.573 -2.4350 -1.1968 -0.0590
 3549SOL    HW222110   0.750   3.593  14.663 -0.4294 -0.7888 -1.1727
 3550SOL     OW22111   1.872   4.233  11.730 -0.3469  0.0520  0.5340
 3550SOL    HW122112   1.950   4.271  11.771  0.7933 -0.8584 -0.7828
 3550SOL    HW222113   1.816   4.309  11.740  1.1514  1.5479 -2.3632
 3551SOL     OW22114   1.978   0.364   8.899 -0.9127  0.1278 -0.1260
 3551SOL    HW122115   2.057   0.336   8.852 -0.2940 -0.5355  1.2980
 3551SOL    HW222116   1.961   0.294   8.963  1.5131  1.8632  2.4405
 3552SOL     OW22117   1.333   2.912   6.100  0.3315  0.1374 -0.2822
 3552SOL    HW122118   1.330   2.830   6.052 -1.3595  0.2268 -0.3260
 3552SOL    HW222119   1.422   2.930   6.069 -0.3024  0.5112 -1.9107
 3553SOL     OW22120   4.281   2.886   2.327 -0.4722  0.7129 -0.1289
 3553SOL    HW122121   4.306   2.830   2.401 -1.2659 -1.1509 -1.2786
 3553SOL    HW222122   4.187   2.868   2.326 -0.7825  2.2248  1.9081
 3554SOL     OW22123   0.149   4.630  16.409 -0.3483 -0.1818  0.4081
 3554SOL    HW122124   0.179   4.666  16.492 -2.2807 -0.0033  1.0282
 3554SOL    HW222125   0.073   4.580  16.437 -1.1584  1.3841  0.9850
 3555SOL     OW22126   1.016   0.040  15.859  0.4360  0.6341 -0.5319
 3555SOL    HW122127   1.017   0.115  15.800  0.2738 -0.4398 -1.8854
 3555SOL    HW222128   0.972   0.071  15.939  1.9191 -0.9047  0.8827
 3556SOL     OW22129   1.168   3.534   1.764 -0.0645 -0.6187  0.0376
 3556SOL    HW122130   1.129   3.447   1.760  2.7416 -1.8453 -0.7447
 3556SOL    HW222131   1.219   3.548   1.684  0.5302 -2.8804  0.0058
 3557SOL     OW22132   3.622   4.224   6.110  0.4248  1.0827  0.2560
 3557SOL    HW122133   3.529   4.222   6.130  0.4691 -0.7473  0.3056
 3557SOL    HW222134   3.653   4.303   6.155  2.4298  0.9557 -0.8907
 3558SOL     OW22135   3.961   0.174   3.966 -0.0187 -0.1461 -0.4806
 3558SOL    HW122136   3.922   0.120   4.035  1.6685  1.4245  1.6754
 3558SOL    HW222137   3.938   0.260   4.001 -1.6359 -0.6684 -0.2625
 3559SOL     OW22138   2.308   3.579   8.656 -0.4277 -0.0473  0.3757
 3559SOL    HW122139   2.296   3.486   8.677  0.7186  0.1223  1.7623
 3559SOL    HW222140   2.394   3.576   8.614 -0.1453  0.5895  0.9113
 3560SOL     OW22141   2.476   3.300  11.440 -0.3757  0.7331  0.1294
 3560SOL    HW122142   2.570   3.298  11.460 -0.3216  3.9006  0.1183
 3560SOL    HW222143   2.447   3.341  11.521 -0.2739  0.8142  0.1259
 3561SOL     OW22144   1.323   2.619   9.900  0.0750  0.2426 -0.0453
 3561SOL    HW122145   1.290   2.579   9.819 -1.0003  0.2130  0.4119
 3561SOL    HW222146   1.241   2.632   9.948  1.0603  1.6728  1.2588
 3562SOL     OW22147   2.188   2.656  15.979  0.0102 -0.1479  0.0286
 3562SOL    HW122148   2.254   2.609  15.930  0.8635  0.1385  0.9005
 3562SOL    HW222149   2.206   2.622  16.067 -1.6556  0.1993  0.5107
 3563SOL     OW22150   3.992   3.004   9.057 -0.3724  1.0192 -0.7290
 3563SOL    HW122151   3.922   2.968   9.112  0.8275 -0.6201 -0.2713
 3563SOL    HW222152   4.066   2.946   9.076 -1.4328 -0.0971  0.0589
 3564SOL     OW22153   3.013   1.432   5.097  0.1839 -0.1800  0.0615
 3564SOL    HW122154   3.086   1.408   5.155  0.3726 -0.4644 -0.2918
 3564SOL    HW222155   3.003   1.527   5.107 -3.3946 -0.6881  1.0612
 3565SOL     OW22156   0.773   1.817   4.908 -0.2876 -0.0390  0.3467
 3565SOL    HW122157   0.753   1.827   4.815 -0.5092 -0.7146  0.3199
 3565SOL    HW222158   0.812   1.730   4.916 -0.3135  0.1156  2.2876
 3566SOL     OW22159   2.713   4.529   7.947  0.5099 -0.1607  0.4906
 3566SOL    HW122160   2.761   4.516   7.865 -0.1028  0.6564  0.0016
 3566SOL    HW222161   2.633   4.548   7.898  0.3090  2.7674  1.9893
 3567SOL     OW22162   4.541   1.238   1.595 -0.0959 -0.3161 -0.1055
 3567SOL    HW122163   4.492   1.273   1.521  1.2940 -0.3873 -1.0747
 3567SOL    HW222164   4.476   1.243   1.665  0.5705 -0.6571  0.5518
 3568SOL     OW22165   2.901   1.210   4.649 -0.2587  0.3443  0.2690
 3568SOL    HW122166   2.813   1.174   4.654 -0.2109 -0.1663 -2.9900
 3568SOL    HW222167   2.921   1.207   4.743 -0.1192 -0.2259  0.2218
 3569SOL     OW22168   4.183   0.716   7.128  0.3050 -0.0678 -0.3050
 3569SOL    HW122169   4.211   0.705   7.218  0.7245 -0.3820 -0.4756
 3569SOL    HW222170   4.179   0.629   7.089 -2.7882  0.7719 -1.8355
 3570SOL     OW22171   4.090   0.297   6.191  0.0367  0.3718 -0.2561
 3570SOL    HW122172   4.143   0.292   6.112 -1.8237 -2.7504 -1.3121
 3570SOL    HW222173   4.061   0.206   6.182 -1.7080  0.8459  0.6371
 3571SOL     OW22174   0.593   2.910   6.804  0.5352 -0.8074  0.3059
 3571SOL    HW122175   0.533   2.912   6.729 -0.2153 -1.4618  0.9021
 3571SOL    HW222176   0.665   2.859   6.767  0.7406 -0.8304  0.7369
 3572SOL     OW22177   3.361   3.966  13.734 -0.0838 -0.1652 -0.0939
 3572SOL    HW122178   3.358   4.054  13.772  1.4182  0.4670 -1.4561
 3572SOL    HW222179   3.431   3.927  13.788  0.2063  0.3285 -0.1121
 3573SOL     OW22180   4.169   3.088   1.707  0.3152 -0.2771  0.2987
 3573SOL    HW122181   4.115   3.009   1.709 -0.8426  0.4525 -2.0272
 3573SOL    HW222182   4.196   3.088   1.799 -1.8152  0.5632  0.9240
 3574SOL     OW22183   4.031   3.346   2.260  0.0204  0.1632  0.1449
 3574SOL    HW122184   3.956   3.393   2.223  0.5540  0.0143 -1.1321
 3574SOL    HW222185   4.036   3.394   2.342  1.4932 -1.3275  0.9245
 3575SOL     OW22186   2.131   2.378   7.466  0.3384  0.3817 -0.2544
 3575SOL    HW122187   2.191   2.447   7.436  2.2076 -1.2902 -0.4208
 3575SOL    HW222188   2.194   2.330   7.521  0.3029  1.0232  0.3421
 3576SOL     OW22189   0.717   2.336  11.718  0.9057 -1.0207 -0.3494
 3576SOL    HW122190   0.764   2.389  11.782 -2.3292  0.4375  0.8088
 3576SOL    HW222191   0.636   2.313  11.764  0.6303  0.1906 -0.2436
 3577SOL     OW22192   0.326   2.435   7.821 -0.2509  0.4238 -0.3966
 3577SOL    HW122193   0.397   2.374   7.799  0.3621  0.2474  2.0713
 3577SOL    HW222194   0.270   2.391   7.884 -1.0460  0.5576 -1.0130
 3578SOL     OW22195   3.099   2.927   3.017  0.4857  0.6065 -0.0396
 3578SOL    HW122196   3.025   2.971   2.975  1.5413 -1.0080 -3.5960
 3578SOL    HW222197   3.157   2.913   2.942 -0.1072 -2.0633 -0.0233
 3579SOL     OW22198   2.899   3.360   3.640 -0.4858 -0.5213 -0.4116
 3579SOL    HW122199   2.951   3.280   3.633  0.3629 -0.0146 -0.0074
 3579SOL    HW222200   2.904   3.380   3.546 -1.1390  2.1399  0.1204
 3580SOL     OW22201   3.728   1.617   2.254 -0.0997  0.1686  0.6110
 3580SOL    HW122202   3.654   1.556   2.257 -1.0601  1.1911 -2.0871
 3580SOL    HW222203   3.716   1.655   2.167  0.4210 -1.6844 -0.2909
 3581SOL     OW22204   3.649   4.063   3.454  0.2176  0.3279  0.1370
 3581SOL    HW122205   3.611   4.059   3.541 -1.1849 -2.7580 -0.6237
 3581SOL    HW222206   3.738   4.033   3.475 -0.2271 -1.9224 -1.2031
 3582SOL     OW22207   2.364   4.559   3.642  0.3267 -0.0747 -0.3339
 3582SOL    HW122208   2.354   4.639   3.694  1.0571 -0.2603  0.0881
 3582SOL    HW222209   2.444   4.568   3.590 -0.1197 -0.8282 -1.1484
 3583SOL     OW22210   1.439   2.526  17.402 -0.4385  0.4218  0.2875
 3583SOL    HW122211   1.347   2.528  17.376 -0.6999  0.1884  1.1853
 3583SOL    HW222212   1.432   2.518  17.498  1.0011  0.0602  0.3691
 3584SOL     OW22213   0.605   2.224   6.908 -0.4274  0.6876 -0.0063
 3584SOL    HW122214   0.516   2.259   6.905 -0.9572 -0.5228  1.6991
 3584SOL    HW222215   0.641   2.295   6.962 -1.0888  1.3369 -0.4132
 3585SOL     OW22216   4.088   0.091   4.748  0.5310  0.1610 -0.2982
 3585SOL    HW122217   4.088   0.023   4.815 -1.3638  0.5299  0.0748
 3585SOL    HW222218   4.054   0.166   4.798  1.7963 -0.1623  1.0185
 3586SOL     OW22219   4.641   1.092   6.605 -0.2869  0.5835 -0.2101
 3586SOL    HW122220   4.690   1.012   6.625  0.2572  1.1603  0.7375
 3586SOL    HW222221   4.561   1.041   6.592 -0.1731 -0.5625  3.5105
 3587SOL     OW22222   0.316   3.219   7.736 -0.5165 -0.7509  0.9169
 3587SOL    HW122223   0.407   3.225   7.706 -0.7950 -1.8009 -0.1322
 3587SOL    HW222224   0.330   3.177   7.822 -0.9506 -0.2717  1.2186
 3588SOL     OW22225   3.523   4.221   2.718  0.1481  0.0319  0.0959
 3588SOL    HW122226   3.472   4.267   2.785  0.2713  0.1297  0.1224
 3588SOL    HW222227   3.604   4.270   2.727  0.9232 -1.1494 -0.4260
 3589SOL     OW22228   1.501   4.436   4.863 -0.3232  0.6119  0.7059
 3589SOL    HW122229   1.552   4.513   4.838  0.1594  0.1266  0.2022
 3589SOL    HW222230   1.440   4.486   4.917 -0.2888  1.0729  0.3236
 3590SOL     OW22231   1.784   0.987   2.441  0.2126 -0.1217 -0.1641
 3590SOL    HW122232   1.815   0.970   2.352  1.4716 -0.5506  0.3413
 3590SOL    HW222233   1.793   1.082   2.448  2.2933 -0.2917 -0.4999
 3591SOL     OW22234   1.773   3.254  13.406  0.2463  0.1006 -0.3502
 3591SOL    HW122235   1.748   3.280  13.317 -0.0892 -1.5866 -0.7407
 3591SOL    HW222236   1.763   3.161  13.425  2.6113  0.2533  1.6751
 3592SOL     OW22237   0.023   4.531   4.534  0.3383  0.1365 -0.2405
 3592SOL    HW122238   0.033   4.560   4.625  1.1713  0.2048 -0.3538
 3592SOL    HW222239   4.704   4.450   4.557 -1.3156  0.2477 -3.0761
 3593SOL     OW22240   3.349   0.359   3.852 -0.0094 -0.7300 -0.1498
 3593SOL    HW122241   3.341   0.454   3.856 -0.4344 -0.7455 -0.5714
 3593SOL    HW222242   3.402   0.348   3.773  1.9062  0.4376  0.9807
 3594SOL     OW22243   2.919   1.587   7.630 -0.3542  0.4014  0.0475
 3594SOL    HW122244   2.982   1.528   7.670 -0.2455 -1.1422 -2.3969
 3594SOL    HW222245   2.890   1.538   7.553  0.6087 -1.0202  0.6090
 3595SOL     OW22246   2.737   0.602  14.327  0.0941  0.2646  0.0896
 3595SOL    HW122247   2.713   0.557  14.246  2.9252 -1.6084  0.2967
 3595SOL    HW222248   2.675   0.569  14.393  0.3660  0.8743  0.6524
 3596SOL     OW22249   1.648   2.750   9.287  0.7825 -0.2838  0.0012
 3596SOL    HW122250   1.624   2.736   9.379  0.7496 -2.1750 -0.2978
 3596SOL    HW222251   1.570   2.708   9.249  0.0747  0.7135  0.3460
 3597SOL     OW22252   1.082   2.055   7.938 -0.0772  0.2994 -0.7907
 3597SOL    HW122253   1.097   2.120   8.007 -2.0114  0.7056 -0.7494
 3597SOL    HW222254   1.154   1.995   7.953  1.4416  2.2376 -0.3759
 3598SOL     OW22255   3.449   2.219   9.907  0.6240 -0.2273 -0.4662
 3598SOL    HW122256   3.529   2.236   9.856  0.5379 -2.1709 -1.2431
 3598SOL    HW222257   3.439   2.125   9.889 -2.4806 -0.0757  0.5291
 3599SOL     OW22258   3.434   4.180   7.063  0.3504  0.3447 -0.0282
 3599SOL    HW122259   3.495   4.253   7.054 -0.2321  0.9108  0.5761
 3599SOL    HW222260   3.358   4.230   7.095 -0.5919 -0.6522 -0.7176
 3600SOL     OW22261   0.516   2.511   4.588 -0.1106  0.2784  0.4886
 3600SOL    HW122262   0.568   2.589   4.611  0.0209  0.5287 -0.6584
 3600SOL    HW222263   0.583   2.447   4.565  1.3878  0.8307  3.3041
 3601SOL     OW22264   1.411   3.177  16.968  0.0837 -0.3064 -0.0639
 3601SOL    HW122265   1.351   3.207  17.037  1.3196  0.0888  0.8584
 3601SOL    HW222266   1.353   3.161  16.894  2.1399 -0.2722 -1.6614
 3602SOL     OW22267   1.866   0.052   5.425  0.1620  0.2335 -0.0615
 3602SOL    HW122268   1.855   0.059   5.519  3.2249  1.7527  0.1634
 3602SOL    HW222269   1.784   0.097   5.405 -0.6212 -1.5720 -0.8892
 3603SOL     OW22270   2.144   4.522   7.228  0.9571  0.2567 -0.3367
 3603SOL    HW122271   2.205   4.468   7.278  1.4148  0.8815 -0.2207
 3603SOL    HW222272   2.170   4.602   7.273  0.2121  0.5113 -0.3498
 3604SOL     OW22273   2.279   4.065   6.903 -0.2848  0.4415 -0.2889
 3604SOL    HW122274   2.309   4.154   6.885  0.2399  0.6116  1.4527
 3604SOL    HW222275   2.245   4.033   6.819  2.6672  0.7559 -1.6136
 3605SOL     OW22276   1.288   2.944   3.369 -0.5867  0.2879  0.2581
 3605SOL    HW122277   1.205   2.957   3.417 -1.8037  0.7056 -1.9547
 3605SOL    HW222278   1.262   2.991   3.290 -0.7344  1.2125  0.8478
 3606SOL     OW22279   3.105   4.324   8.527  0.0699  0.8100  0.3838
 3606SOL    HW122280   3.135   4.233   8.524  1.8053  1.4418 -1.0941
 3606SOL    HW222281   3.141   4.354   8.444 -0.4023 -1.1794 -0.5500
 3607SOL     OW22282   1.795   4.050  16.270 -0.1462 -0.5263 -0.9543
 3607SOL    HW122283   1.883   4.026  16.299 -0.1701 -1.3058 -1.5383
 3607SOL    HW222284   1.822   4.078  16.183  3.3498 -0.6630  0.1033
 3608SOL     OW22285   0.123   3.399   8.989  0.0925 -0.3585  0.5221
 3608SOL    HW122286   0.036   3.379   9.025  0.0546  0.7873  1.0416
 3608SOL    HW222287   0.136   3.493   8.996 -1.2453 -0.3817  3.6314
 3609SOL     OW22288   0.101   2.405   7.060  0.1695 -0.0478 -0.4443
 3609SOL    HW122289   0.122   2.431   7.149  2.0605 -0.4794 -0.7757
 3609SOL    HW222290   0.118   2.310   7.065  2.2744  0.2539 -1.8432
 3610SOL     OW22291   2.064   2.680   4.557 -0.0444  0.2491  0.3873
 3610SOL    HW122292   2.077   2.706   4.466 -0.0316 -1.2343 -0.0326
 3610SOL    HW222293   2.024   2.763   4.584  0.8468  0.3708  1.3531
 3611SOL     OW22294   4.677   3.348  15.807 -0.1849 -0.4599 -0.3886
 3611SOL    HW122295   4.635   3.263  15.790 -0.7721  0.1362 -1.8719
 3611SOL    HW222296   4.719   3.325  15.890  3.6782  2.3997 -1.5793
 3612SOL     OW22297   3.326   1.619  15.300 -0.4293  0.0878  0.0396
 3612SOL    HW122298   3.362   1.635  15.387  2.4407 -0.5278 -1.0123
 3612SOL    HW222299   3.352   1.704  15.263  2.2996 -0.0950  1.5518
 3613SOL     OW22300   2.716   2.614   9.041  0.3531 -0.0650 -0.2029
 3613SOL    HW122301   2.719   2.630   8.947 -3.7091  0.4396 -0.2681
 3613SOL    HW222302   2.672   2.530   9.037 -0.2840  0.2630 -0.1333
 3614SOL     OW22303   0.173   0.370  10.660 -0.1392  0.1118  0.4270
 3614SOL    HW122304   0.088   0.339  10.691  0.6409  0.4967  2.9423
 3614SOL    HW222305   0.137   0.440  10.605  0.9122 -0.8763 -1.5521
 3615SOL     OW22306   1.519   2.821   3.469 -0.1229  0.0809  0.0427
 3615SOL    HW122307   1.433   2.855   3.446  0.1573 -0.2980 -1.5438
 3615SOL    HW222308   1.577   2.809   3.394  0.9861  1.7795  0.6387
 3616SOL     OW22309   4.533   0.048   4.072  0.2050  0.3584  0.0493
 3616SOL    HW122310   4.440   0.035   4.055  0.1030 -0.5169  1.2880
 3616SOL    HW222311   4.529   0.059   4.167  0.3708 -1.4918  0.2826
 3617SOL     OW22312   4.654   2.537   2.147 -0.1317  0.0059  0.0195
 3617SOL    HW122313   4.660   2.617   2.200  2.2920 -1.6597  2.2641
 3617SOL    HW222314   4.655   2.471   2.216 -0.6427  0.8288  0.8320
 3618SOL     OW22315   0.270   4.259   8.632  0.4686  0.2196 -0.5376
 3618SOL    HW122316   0.335   4.307   8.581  1.9316 -1.3209 -0.0786
 3618SOL    HW222317   0.196   4.321   8.623  1.2487  0.9819 -1.7418
 3619SOL     OW22318   3.215   3.730  11.569 -0.3644 -0.5160 -0.1623
 3619SOL    HW122319   3.217   3.783  11.649 -0.6179 -0.7572  0.0050
 3619SOL    HW222320   3.166   3.789  11.511  0.2114  1.4522  1.3481
 3620SOL     OW22321   2.302   3.583   3.832  0.7060 -0.5118 -0.4412
 3620SOL    HW122322   2.329   3.673   3.850  1.2649 -0.4858 -1.4240
 3620SOL    HW222323   2.374   3.547   3.779  0.2520 -0.7760 -0.8751
 3621SOL     OW22324   0.049   1.288   4.882  0.0820  0.0521  0.4952
 3621SOL    HW122325   0.071   1.203   4.845 -1.6428 -0.6723  1.1287
 3621SOL    HW222326   0.130   1.321   4.919  0.9301 -0.7115 -0.6646
 3622SOL     OW22327   0.510   2.468  10.781 -0.1535 -0.2014 -0.3398
 3622SOL    HW122328   0.487   2.408  10.852  0.4635 -0.7456 -0.5972
 3622SOL    HW222329   0.453   2.541  10.804  0.5241  0.8460 -1.9363
 3623SOL     OW22330   1.667   0.739   9.570  0.1762  0.5209 -0.5221
 3623SOL    HW122331   1.671   0.733   9.475 -1.1313 -1.6669 -0.4287
 3623SOL    HW222332   1.594   0.689   9.605 -0.7815  1.8875 -0.5698
 3624SOL     OW22333   0.451   3.168  16.203 -0.5622 -0.4640  0.6821
 3624SOL    HW122334   0.435   3.191  16.295  2.4130 -3.9721  2.0784
 3624SOL    HW222335   0.495   3.247  16.172  0.6616 -0.7703  1.6434
 3625SOL     OW22336   0.283   0.548   7.363  0.1391 -0.0105  0.2301
 3625SOL    HW122337   0.231   0.490   7.308  2.2705 -1.8022  0.1139
 3625SOL    HW222338   0.329   0.600   7.298 -2.2990  0.9245 -0.7444
 3626SOL     OW22339   2.908   2.059   6.156 -0.0578  0.0018 -0.3569
 3626SOL    HW122340   2.860   2.076   6.075  1.8654  1.2522 -1.2193
 3626SOL    HW222341   2.998   2.056   6.123  0.1795 -1.1482  0.3854
 3627SOL     OW22342   0.981   0.138   8.851  0.2064  0.3519 -0.1908
 3627SOL    HW122343   0.993   0.151   8.945 -0.3416  0.4310 -0.1294
 3627SOL    HW222344   0.905   0.188   8.822 -0.5095 -1.0760 -0.7647
 3628SOL     OW22345   1.504   0.193  15.243  0.2087 -0.7668 -0.0997
 3628SOL    HW122346   1.566   0.180  15.170  0.1708 -1.5078 -0.0061
 3628SOL    HW222347   1.463   0.274  15.215  0.6420 -0.1744  0.9938
 3629SOL     OW22348   2.111   0.429   8.328 -0.0842 -0.6982  0.0984
 3629SOL    HW122349   2.091   0.395   8.416 -1.5804  0.9137  0.3946
 3629SOL    HW222350   2.179   0.496   8.338 -0.2041 -0.5129 -0.3428
 3630SOL     OW22351   4.057   2.929   8.567  0.1496 -0.8292  0.7474
 3630SOL    HW122352   4.040   2.835   8.558  1.6377 -1.0885  0.6545
 3630SOL    HW222353   4.153   2.928   8.568  0.1881  1.4822 -1.1459
 3631SOL     OW22354   0.146   0.084  15.744 -0.6051 -0.0564  0.2659
 3631SOL    HW122355   0.226   0.089  15.797 -0.2624 -1.1070 -0.1505
 3631SOL    HW222356   0.098   0.165  15.757 -0.4906  0.3614 -1.8912
 3632SOL     OW22357   1.943   2.855   8.138  0.0131  0.6103 -0.1444
 3632SOL    HW122358   1.925   2.831   8.046  0.5313 -0.5249  0.0477
 3632SOL    HW222359   1.947   2.950   8.128  0.4867  0.7893  1.9701
 3633SOL     OW22360   4.474   3.050   9.988  0.2003  0.0702  0.4083
 3633SOL    HW122361   4.480   3.123   9.926 -2.0309  0.0426  0.1690
 3633SOL    HW222362   4.391   3.014   9.957  1.0465 -0.9756 -0.6694
 3634SOL     OW22363   0.422   4.181   3.092  0.4060  0.4607  0.8738
 3634SOL    HW122364   0.507   4.146   3.067  0.1202  0.4532 -0.1096
 3634SOL    HW222365   0.396   4.223   3.010  0.1089  0.0360  0.7502
 3635SOL     OW22366   1.869   2.681   7.597  0.6477  0.3790  0.4204
 3635SOL    HW122367   1.848   2.643   7.512  1.6919 -1.4460  0.9800
 3635SOL    HW222368   1.904   2.602   7.638 -1.5876 -1.7219 -1.7250
 3636SOL     OW22369   4.215   3.408   7.715 -0.9659  0.3865  0.0999
 3636SOL    HW122370   4.289   3.352   7.739 -0.7371  1.2627  1.4631
 3636SOL    HW222371   4.153   3.345   7.678  0.9540 -1.5537  0.1997
 3637SOL     OW22372   1.706   1.174   8.710  0.8976 -0.1934  0.4780
 3637SOL    HW122373   1.800   1.166   8.690  0.6067 -0.2605 -0.8439
 3637SOL    HW222374   1.718   1.210   8.798 -1.5861  1.8177 -0.0074
 3638SOL     OW22375   4.238   2.557   8.909 -0.0374 -0.0431 -0.0444
 3638SOL    HW122376   4.291   2.486   8.946 -0.9976  1.1920  3.6726
 3638SOL    HW222377   4.291   2.635   8.925  0.1862 -0.2190  0.0708
 3639SOL     OW22378   0.281   0.336   4.848  0.2077  0.0376  0.5087
 3639SOL    HW122379   0.195   0.325   4.808  1.1610 -1.9866 -0.9773
 3639SOL    HW222380   0.274   0.252   4.895  1.0896  0.5279  1.5151
 3640SOL     OW22381   1.751   3.659   8.427 -0.0421  0.3112  0.3587
 3640SOL    HW122382   1.752   3.693   8.516  0.2698 -0.4434  0.6489
 3640SOL    HW222383   1.788   3.723   8.367 -1.6003 -1.0970 -2.1392
 3641SOL     OW22384   2.889   2.749   6.266 -0.1169 -1.0237  0.0539
 3641SOL    HW122385   2.878   2.809   6.340 -1.8749  0.9214 -1.8128
 3641SOL    HW222386   2.965   2.697   6.294  0.3170 -0.4218 -0.0089
 3642SOL     OW22387   2.147   3.159   9.340  0.7570  0.1715  0.3149
 3642SOL    HW122388   2.201   3.195   9.270  2.2910 -1.4463  0.6837
 3642SOL    HW222389   2.211   3.105   9.387  0.6864 -0.1836  0.0003
 3643SOL     OW22390   1.118   1.340   5.419 -0.3066 -0.1700  0.3209
 3643SOL    HW122391   1.190   1.293   5.461 -0.7476 -0.1698  1.0724
 3643SOL    HW222392   1.133   1.313   5.328 -1.7521  3.8281 -1.0989
 3644SOL     OW22393   2.231   2.895   4.976 -0.2120  0.1833  0.5419
 3644SOL    HW122394   2.201   2.930   5.060 -0.8033 -0.1739  0.4817
 3644SOL    HW222395   2.259   2.971   4.924 -0.4652 -0.2048 -0.1595
 3645SOL     OW22396   4.320   0.173   9.286  0.7598  0.4208  0.0761
 3645SOL    HW122397   4.297   0.081   9.292  0.6547  0.5165  1.1094
 3645SOL    HW222398   4.262   0.214   9.350 -0.9429 -0.0450 -1.1789
 3646SOL     OW22399   3.528   3.069   6.541  0.1542  0.1915 -0.7135
 3646SOL    HW122400   3.623   3.060   6.545  0.2218  0.9521 -0.6049
 3646SOL    HW222401   3.522   3.164   6.528 -3.0427  0.0833  0.1348
 3647SOL     OW22402   0.874   0.887   8.610  0.1230 -0.2844  0.2883
 3647SOL    HW122403   0.782   0.861   8.609 -0.1435  0.5738  2.5435
 3647SOL    HW222404   0.919   0.817   8.563  3.3696  2.0349 -0.0769
 3648SOL     OW22405   3.009   4.149   4.668 -0.5410 -0.0405 -0.5663
 3648SOL    HW122406   2.989   4.127   4.759  1.6496 -1.5959 -0.4682
 3648SOL    HW222407   2.970   4.075   4.623  1.2891 -0.1314 -2.0038
 3649SOL     OW22408   0.514   4.659   0.032 -0.3216  0.1594 -0.6727
 3649SOL    HW122409   0.565   4.602  17.677  2.3920  0.0203  1.8851
 3649SOL    HW222410   0.471   4.717  17.672 -1.4383  0.1093  0.0481
 3650SOL     OW22411   0.003   1.306   5.203  0.3147 -0.3759 -0.9109
 3650SOL    HW122412   4.717   1.305   5.108  0.6617 -2.1881 -0.9242
 3650SOL    HW222413   0.005   1.397   5.232  1.0503 -0.0131 -2.0652
 3651SOL     OW22414   3.453   0.692   1.913 -0.1111 -0.2816 -0.4558
 3651SOL    HW122415   3.486   0.616   1.865  1.1149 -0.8947  1.3931
 3651SOL    HW222416   3.438   0.654   1.999  1.2135 -0.3102 -0.2389
 3652SOL     OW22417   0.531   4.365   1.349  0.7178  0.4829 -0.4432
 3652SOL    HW122418   0.539   4.311   1.271 -0.2619  1.9598 -1.5791
 3652SOL    HW222419   0.532   4.446   1.298 -3.5800 -0.0462 -1.4174
 3653SOL     OW22420   1.093   2.137   4.018  0.4497  0.7622 -0.2769
 3653SOL    HW122421   1.143   2.062   4.050 -0.1335  0.5346  0.0897
 3653SOL    HW222422   1.167   2.193   3.995 -0.5425  2.1274 -0.1261
 3654SOL     OW22423   2.287   0.627   8.025 -0.0202  0.1223 -0.1456
 3654SOL    HW122424   2.364   0.646   8.079  1.7575 -1.0405 -2.3272
 3654SOL    HW222425   2.322   0.669   7.946 -0.4739  1.5394  0.3968
 3655SOL     OW22426   2.099   3.435   6.391  0.0591  0.5346 -0.5031
 3655SOL    HW122427   2.034   3.397   6.450  0.9077  0.3740  0.3301
 3655SOL    HW222428   2.112   3.519   6.435 -1.6875  0.3252  0.4183
 3656SOL     OW22429   1.465   1.220  14.107 -0.0829 -0.0091  0.0555
 3656SOL    HW122430   1.483   1.133  14.072 -2.2142 -0.4799  0.1516
 3656SOL    HW222431   1.503   1.289  14.052 -2.1052 -1.5237 -3.2233
 3657SOL     OW22432   2.065   3.987   7.702 -0.1121  0.2950  0.4529
 3657SOL    HW122433   2.143   3.984   7.646 -1.3742 -2.1807 -1.1906
 3657SOL    HW222434   2.000   3.977   7.633 -0.0401 -1.3443  0.6361
 3658SOL     OW22435   2.629   4.553   0.029  0.1589  0.0433  0.1629
 3658SOL    HW122436   2.586   4.541   0.114 -0.1126  1.8528  0.2848
 3658SOL    HW222437   2.690   4.625   0.042  0.3232 -0.0631 -0.0220
 3659SOL     OW22438   1.773   2.479   8.359  0.1882  0.1230  0.3745
 3659SOL    HW122439   1.812   2.464   8.445 -1.5555 -1.7086  0.8366
 3659SOL    HW222440   1.734   2.395   8.336 -1.8058  2.0785 -3.4684
 3660SOL     OW22441   3.779   2.499   5.612 -0.5178 -0.7037 -0.6257
 3660SOL    HW122442   3.755   2.516   5.703 -1.1579 -2.4098 -0.4842
 3660SOL    HW222443   3.818   2.412   5.615  0.7336 -0.1775 -1.5060
 3661SOL     OW22444   1.263   4.133   8.451 -0.8464 -0.4215 -0.3689
 3661SOL    HW122445   1.225   4.093   8.373 -2.7215  2.0378 -0.6995
 3661SOL    HW222446   1.201   4.116   8.522 -1.0867 -4.4369 -1.5905
 3662SOL     OW22447   3.453   4.683  11.701 -0.2005  0.1245  0.4505
 3662SOL    HW122448   3.471   4.593  11.672 -0.3313 -0.4821  2.2867
 3662SOL    HW222449   3.432   0.012  11.624  1.8672 -1.7269 -1.4191
 3663SOL     OW22450   1.368   2.035   5.824  0.0644  0.2821  0.0014
 3663SOL    HW122451   1.438   2.004   5.767 -1.2252 -1.2682 -0.7177
 3663SOL    HW222452   1.392   2.121   5.860  0.4648  0.3089 -0.3283
 3664SOL     OW22453   1.107   3.073   9.375 -0.1872 -0.4616 -0.0735
 3664SOL    HW122454   1.145   3.106   9.456 -0.5400  0.2259 -0.1886
 3664SOL    HW222455   1.153   2.990   9.356 -1.3167 -1.4867  1.7323
 3665SOL     OW22456   0.609   3.390   9.021  0.8762 -0.1290 -0.7616
 3665SOL    HW122457   0.569   3.440   8.950 -0.8380 -0.2824  0.0956
 3665SOL    HW222458   0.544   3.404   9.090  0.6631  0.4518 -1.0810
 3666SOL     OW22459   0.527   4.066  13.665 -0.0285  0.0334  0.2197
 3666SOL    HW122460   0.586   3.991  13.675 -1.8333 -1.7491 -2.4311
 3666SOL    HW222461   0.577   4.130  13.716  3.8811 -1.4459 -1.7795
 3667SOL     OW22462   3.014   4.635   6.751  0.3303  0.3907  0.2784
 3667SOL    HW122463   3.038   4.709   6.695  0.3181  0.0610 -0.1679
 3667SOL    HW222464   2.942   4.683   6.793  0.4551  0.3128  0.5828
 3668SOL     OW22465   1.893   3.619   5.876 -0.3251 -0.2254  0.5683
 3668SOL    HW122466   1.851   3.606   5.791  3.5609 -1.3443 -1.1440
 3668SOL    HW222467   1.821   3.663   5.921 -0.7943 -0.0823 -0.3201
 3669SOL     OW22468   3.053   1.627   6.689  0.2552 -0.1227  0.4739
 3669SOL    HW122469   3.034   1.571   6.614 -0.2698  2.1657 -1.1065
 3669SOL    HW222470   3.025   1.712   6.656 -2.0598 -1.0477  0.0594
 3670SOL     OW22471   3.756   3.522   0.324  0.0178 -0.6319  0.2424
 3670SOL    HW122472   3.797   3.591   0.271  1.3227 -2.1672 -0.7508
 3670SOL    HW222473   3.824   3.511   0.391  0.1134  1.3929  0.4653
 3671SOL     OW22474   0.039   2.379   1.642  0.2759  0.4861  0.2387
 3671SOL    HW122475   0.025   2.395   1.735  0.1047 -0.0992  0.3181
 3671SOL    HW222476   0.015   2.288   1.624 -1.3551  1.1134 -0.7441
 3672SOL     OW22477   3.366   4.301  10.833 -0.5954  0.2321 -0.4106
 3672SOL    HW122478   3.326   4.215  10.819  0.4961 -0.4575  0.8025
 3672SOL    HW222479   3.297   4.366  10.844  1.4403  2.5419 -1.3900
 3673SOL     OW22480   2.268   1.278  15.471 -0.1279 -0.9490  0.5289
 3673SOL    HW122481   2.213   1.222  15.526  0.0107 -1.3903  0.2154
 3673SOL    HW222482   2.358   1.250  15.487  1.1010  1.0785 -2.8164
 3674SOL     OW22483   3.434   3.553   3.750  0.6958 -0.0406 -0.8480
 3674SOL    HW122484   3.345   3.586   3.741 -0.6344 -3.3830 -0.2252
 3674SOL    HW222485   3.431   3.511   3.664 -1.4669 -1.0862 -0.2567
 3675SOL     OW22486   2.399   0.553   7.250 -0.1369 -0.3831 -0.0531
 3675SOL    HW122487   2.352   0.632   7.224  0.5674 -0.2141 -0.8151
 3675SOL    HW222488   2.323   0.495   7.257 -0.2180 -0.4013 -1.1078
 3676SOL     OW22489   1.732   3.926  10.429  0.3562 -0.2216 -0.0886
 3676SOL    HW122490   1.788   4.002  10.446  1.5418 -0.6036 -2.3138
 3676SOL    HW222491   1.747   3.883  10.514 -2.1065 -0.9987 -0.0392
 3677SOL     OW22492   1.023   2.053   9.392  0.6091 -0.0683  0.4279
 3677SOL    HW122493   0.986   1.978   9.345  1.9890 -0.5661  0.1215
 3677SOL    HW222494   1.117   2.041   9.377  0.4026  0.4202 -1.2211
 3678SOL     OW22495   0.729   3.625   2.510  0.2371  0.7726  0.6122
 3678SOL    HW122496   0.784   3.592   2.439 -0.3092  0.0162  0.5339
 3678SOL    HW222497   0.647   3.647   2.464 -0.8741 -3.9212  0.3482
 3679SOL     OW22498   3.163   1.011   3.741  0.1438  0.2198  0.1608
 3679SOL    HW122499   3.229   1.078   3.723 -0.6389  0.5788 -1.3546
 3679SOL    HW222500   3.112   1.069   3.798  0.9913 -0.2692  1.4122
 3680SOL     OW22501   0.956   0.677   2.919 -0.0012 -0.0783 -0.0668
 3680SOL    HW122502   0.974   0.640   3.006 -0.3513 -0.6617 -0.2412
 3680SOL    HW222503   1.034   0.654   2.868 -1.1693 -1.2154 -1.3240
 3681SOL     OW22504   2.111   0.859   8.331 -0.5765 -0.1250 -0.0082
 3681SOL    HW122505   2.061   0.799   8.275  0.7122 -0.1244 -1.1595
 3681SOL    HW222506   2.067   0.938   8.299  0.9840  0.9531  0.5061
 3682SOL     OW22507   2.191   3.718  13.428  0.5329  0.2572 -0.2754
 3682SOL    HW122508   2.143   3.679  13.355 -0.1795  2.7055 -1.1026
 3682SOL    HW222509   2.242   3.643  13.459  0.3138  0.5377  0.7584
 3683SOL     OW22510   2.970   4.723   5.433  0.2826 -0.3251 -0.1212
 3683SOL    HW122511   2.957   4.672   5.353 -1.3431  0.9574 -0.6770
 3683SOL    HW222512   2.886   0.037   5.457  0.7898 -0.2077  1.4871
 3684SOL     OW22513   2.005   0.801   7.363  0.0518  0.0019 -0.2225
 3684SOL    HW122514   1.939   0.753   7.411  0.4594  0.5579  0.8877
 3684SOL    HW222515   1.951   0.850   7.301 -2.8566 -1.0776  1.4705
 3685SOL     OW22516   4.505   4.610   3.122 -0.3850 -0.2813 -0.5350
 3685SOL    HW122517   4.434   4.674   3.128 -0.6523 -0.7180  1.0793
 3685SOL    HW222518   4.467   4.543   3.064  1.0958  1.4012 -3.4241
 3686SOL     OW22519   4.261   2.371   5.106  0.1955  0.0787  0.2466
 3686SOL    HW122520   4.311   2.290   5.118 -1.2032 -0.9204 -0.7558
 3686SOL    HW222521   4.292   2.414   5.026  0.3030  2.0281  1.3398
 3687SOL     OW22522   0.597   4.087   8.616 -0.2335  0.1207 -0.0757
 3687SOL    HW122523   0.577   4.169   8.570  0.3919  1.8514  2.7196
 3687SOL    HW222524   0.618   4.110   8.706 -1.3769  1.5199 -0.1547
 3688SOL     OW22525   4.691   2.782  12.256  0.1171  0.3380 -0.4026
 3688SOL    HW122526   4.607   2.805  12.217  0.0095 -0.1308 -0.4508
 3688SOL    HW222527   4.699   2.864  12.305  0.5289  0.1454 -0.1503
 3689SOL     OW22528   0.304   2.530   0.054  0.2018 -0.4691 -0.3657
 3689SOL    HW122529   0.215   2.508   0.081  1.0665 -1.6677  1.4742
 3689SOL    HW222530   0.315   2.456  17.697  0.0496 -0.0732 -0.8826
 3690SOL     OW22531   3.541   3.423   0.168 -0.4558  0.3925 -0.4749
 3690SOL    HW122532   3.615   3.449   0.223  1.6195 -2.4660 -1.9274
 3690SOL    HW222533   3.547   3.470   0.085 -0.5920  0.4857 -0.4330
 3691SOL     OW22534   1.244   2.815   7.458  0.0136  0.2689  0.1957
 3691SOL    HW122535   1.229   2.904   7.491 -1.8556  0.0271 -0.0248
 3691SOL    HW222536   1.316   2.799   7.519 -0.5970  1.2605  1.1674
 3692SOL     OW22537   4.484   2.985   5.152  0.0707  0.4316  0.1915
 3692SOL    HW122538   4.529   3.047   5.094  2.8359  0.7999  2.7063
 3692SOL    HW222539   4.531   2.905   5.128  1.7563  1.9207 -1.4546
 3693SOL     OW22540   1.229   4.636   9.551 -0.1795  0.0830  0.2984
 3693SOL    HW122541   1.178   4.594   9.482 -1.2044 -0.1248  1.1829
 3693SOL    HW222542   1.258   4.558   9.599 -0.6832 -0.2837 -0.0042
 3694SOL     OW22543   1.535   1.364  11.093  0.1143 -0.2937 -0.1513
 3694SOL    HW122544   1.608   1.301  11.096  1.2448  1.1725  2.8775
 3694SOL    HW222545   1.511   1.368  11.185 -2.1262 -2.2099 -0.6646
 3695SOL     OW22546   0.212   4.313   0.683  0.2698  0.0088  0.1932
 3695SOL    HW122547   0.168   4.323   0.598 -0.0028  0.8336  0.4305
 3695SOL    HW222548   0.150   4.258   0.732  0.1699  0.8450  1.0087
 3696SOL     OW22549   0.267   4.396   5.126  0.4520 -0.8418  0.2034
 3696SOL    HW122550   0.239   4.486   5.107  1.1877 -0.3017  1.6518
 3696SOL    HW222551   0.305   4.407   5.214  0.4323 -0.2255  0.1337
 3697SOL     OW22552   1.812   1.871   3.836  0.0110 -0.4185  0.7611
 3697SOL    HW122553   1.733   1.821   3.855 -0.4287 -0.5830 -1.5297
 3697SOL    HW222554   1.815   1.923   3.917 -1.9237 -1.4137  1.4641
 3698SOL     OW22555   0.782   1.222  13.295 -0.2750 -0.0206 -0.3824
 3698SOL    HW122556   0.844   1.294  13.308 -1.6339  1.2529 -1.0594
 3698SOL    HW222557   0.834   1.165  13.238  1.2648  0.0197  0.9780
 3699SOL     OW22558   1.938   3.276   3.676 -0.3155 -0.2968 -0.2018
 3699SOL    HW122559   1.885   3.203   3.709  0.2260  0.2752  1.9291
 3699SOL    HW222560   1.990   3.305   3.751 -0.8240 -1.0468  0.4451
 3700SOL     OW22561   2.246   1.299   6.394  0.3432 -0.5225  0.6577
 3700SOL    HW122562   2.338   1.326   6.404  0.0871  0.6040  0.0664
 3700SOL    HW222563   2.214   1.383   6.360 -0.5548 -1.6036 -1.1261
 3701SOL     OW22564   2.595   3.082  16.971  0.0562 -0.3378  0.5684
 3701SOL    HW122565   2.652   3.135  17.028 -0.6439 -1.0371  1.9158
 3701SOL    HW222566   2.657   3.034  16.916  1.4282 -1.2946  2.9396
 3702SOL     OW22567   3.896   3.791   9.229  0.8570  0.6121  0.0666
 3702SOL    HW122568   3.919   3.879   9.259  0.7176  0.8295 -0.4657
 3702SOL    HW222569   3.981   3.766   9.192  1.3246  0.6907  1.0914
 3703SOL     OW22570   4.508   3.754  15.735 -0.3847 -0.5033  0.2551
 3703SOL    HW122571   4.443   3.809  15.690 -0.4834 -0.9966 -0.2048
 3703SOL    HW222572   4.547   3.712  15.659 -2.9211 -1.9154 -0.2618
 3704SOL     OW22573   0.500   2.479   6.740 -0.4660  0.7147  0.1537
 3704SOL    HW122574   0.504   2.404   6.799  0.5591 -0.5892 -1.5895
 3704SOL    HW222575   0.518   2.540   6.812 -1.8887 -0.3005  1.3509
 3705SOL     OW22576   0.732   0.120   3.701 -0.5695  0.4507  0.9771
 3705SOL    HW122577   0.784   0.165   3.767  1.0440 -2.0586  1.3940
 3705SOL    HW222578   0.652   0.097   3.748 -1.5392  2.6065  0.3938
 3706SOL     OW22579   0.590   0.832  11.276 -0.0415  0.3472 -0.0682
 3706SOL    HW122580   0.524   0.868  11.336  2.1516  0.1578  2.4490
 3706SOL    HW222581   0.533   0.794  11.209  0.8786 -0.5026 -0.3663
 3707SOL     OW22582   4.329   1.276   1.420  0.0374  0.5734  0.1127
 3707SOL    HW122583   4.291   1.274   1.508  0.9686  1.6621  0.5412
 3707SOL    HW222584   4.318   1.367   1.393 -0.3607  0.8160  1.0998
 3708SOL     OW22585   0.113   4.577   4.084 -0.0081  0.7575 -0.4830
 3708SOL    HW122586   0.028   4.531   4.081 -0.2863  1.0714  2.2178
 3708SOL    HW222587   0.092   4.650   4.027 -2.8304  0.3398  0.0191
 3709SOL     OW22588   3.639   2.555   3.570  0.0985 -0.6581  0.2100
 3709SOL    HW122589   3.571   2.560   3.637 -0.0945  0.3840 -0.0507
 3709SOL    HW222590   3.611   2.477   3.523 -0.7195 -1.0316  1.3282
 3710SOL     OW22591   0.949   1.406  15.902  0.1057  0.5572  0.7548
 3710SOL    HW122592   0.914   1.474  15.959 -0.0982  2.7010 -1.9079
 3710SOL    HW222593   0.906   1.439  15.823  1.1128  0.4407  0.1577
 3711SOL     OW22594   0.291   4.015   7.253  0.0633 -0.4359  0.0942
 3711SOL    HW122595   0.300   4.000   7.159 -0.0775 -0.5661  0.1019
 3711SOL    HW222596   0.240   3.936   7.274  1.1809 -1.1034  0.2940
 3712SOL     OW22597   3.299   0.808   7.806 -0.2456  0.3282 -0.0409
 3712SOL    HW122598   3.222   0.758   7.834  0.3752 -0.5419  0.0983
 3712SOL    HW222599   3.358   0.741   7.772 -0.6957  0.7217 -1.6154
 3713SOL     OW22600   3.502   0.415  12.310  0.0794 -0.2141  0.0936
 3713SOL    HW122601   3.595   0.399  12.329 -0.3536 -0.6807  1.8462
 3713SOL    HW222602   3.463   0.328  12.321  0.1795 -0.4323 -1.2577
 3714SOL     OW22603   3.481   1.052   3.983 -0.3122 -0.4161  0.5883
 3714SOL    HW122604   3.495   1.078   3.892 -2.1350  0.7824  0.6591
 3714SOL    HW222605   3.557   1.092   4.026 -1.1846  1.0779  0.7226
 3715SOL     OW22606   1.278   1.064   8.179 -0.0099 -0.4474  0.3817
 3715SOL    HW122607   1.343   1.028   8.240  1.5296 -0.4827 -1.2892
 3715SOL    HW222608   1.257   1.153   8.207 -0.6245 -0.3780 -0.3217
 3716SOL     OW22609   2.269   1.382   4.675 -0.3271 -0.0579 -0.1917
 3716SOL    HW122610   2.309   1.320   4.736 -1.9022 -1.4898 -0.6197
 3716SOL    HW222611   2.300   1.462   4.718 -1.1510 -0.6524  1.4897
 3717SOL     OW22612   0.210   4.350   6.545 -0.0932  0.6925 -0.7591
 3717SOL    HW122613   0.304   4.369   6.535 -0.2935  1.1494 -1.7247
 3717SOL    HW222614   0.202   4.374   6.638  0.7901  0.7044 -0.6799
 3718SOL     OW22615   1.785   4.427   8.365  0.1905  0.3333  0.5078
 3718SOL    HW122616   1.699   4.444   8.328  0.3880  0.0761 -0.0612
 3718SOL    HW222617   1.785   4.501   8.426 -3.6949  1.0137 -0.3354
 3719SOL     OW22618   3.437   2.845  12.494 -0.4893  0.4169 -0.4167
 3719SOL    HW122619   3.352   2.840  12.451 -0.8631 -1.3281  0.5346
 3719SOL    HW222620   3.488   2.781  12.443  0.4131  1.2341 -0.5453
 3720SOL     OW22621   3.763   1.753   9.111 -0.3246  0.3361  0.3853
 3720SOL    HW122622   3.792   1.826   9.167  4.0431 -1.0353 -0.0889
 3720SOL    HW222623   3.686   1.797   9.076 -0.3694 -0.2548 -0.2572
 3721SOL     OW22624   1.995   2.445  15.925 -0.3697  0.2426 -0.1044
 3721SOL    HW122625   1.984   2.539  15.938  0.6464  0.2625  0.5944
 3721SOL    HW222626   2.083   2.441  15.889  0.0760 -1.9781  1.2213
 3722SOL     OW22627   3.011   4.282   2.600 -0.3571 -0.1746  0.4422
 3722SOL    HW122628   2.937   4.260   2.657 -0.5120  0.4425  0.4770
 3722SOL    HW222629   2.996   4.222   2.527 -1.6491  0.5807  0.0918
 3723SOL     OW22630   0.047   0.437  10.401 -0.1533 -0.2486 -0.4425
 3723SOL    HW122631   0.063   0.369  10.335  1.8862 -1.2627  1.0914
 3723SOL    HW222632   0.126   0.488  10.382 -0.2995  0.3636  0.5910
 3724SOL     OW22633   0.615   4.035   1.414  0.2582 -0.6318  0.0497
 3724SOL    HW122634   0.710   4.023   1.421 -0.0128 -2.3700  0.7876
 3724SOL    HW222635   0.596   4.029   1.508  0.5960  0.5597  0.2027
 3725SOL     OW22636   0.349   0.706  13.255 -0.3226  0.1318  0.0132
 3725SOL    HW122637   0.430   0.757  13.256 -0.6519  0.6955 -1.1587
 3725SOL    HW222638   0.320   0.707  13.346 -1.4087 -1.1756 -0.3203
 3726SOL     OW22639   4.056   4.237  10.646 -0.3631 -0.6137 -0.3838
 3726SOL    HW122640   4.090   4.264  10.560 -1.4123  4.1006  0.6710
 3726SOL    HW222641   4.061   4.328  10.677 -0.7679 -1.5046  2.2643
 3727SOL     OW22642   0.576   4.575  13.908 -0.0816 -0.5732  0.4954
 3727SOL    HW122643   0.527   4.656  13.921 -0.0082  0.1424 -3.6499
 3727SOL    HW222644   0.617   4.602  13.826  0.2084 -1.6861  0.2787
 3728SOL     OW22645   0.057   0.840   4.381 -0.5082  0.3739  0.0710
 3728SOL    HW122646   0.062   0.929   4.417  0.5278 -0.3968  1.8278
 3728SOL    HW222647   4.701   0.845   4.330  0.4556  1.1494 -1.4107
 3729SOL     OW22648   2.288   4.025   5.659 -0.1068  0.4226  0.1386
 3729SOL    HW122649   2.262   4.076   5.736  1.5078 -0.8580  1.5193
 3729SOL    HW222650   2.207   3.997   5.618  0.0697  1.4630 -0.9453
 3730SOL     OW22651   1.804   0.003   0.132  0.9378 -0.2580 -0.5478
 3730SOL    HW122652   1.870   4.698   0.069 -0.2697  0.0269 -1.9570
 3730SOL    HW222653   1.757   4.645   0.141  0.8868 -0.2218 -0.4797
 3731SOL     OW22654   4.522   4.314   3.796  0.0451  0.4289 -0.1500
 3731SOL    HW122655   4.512   4.221   3.815 -1.3413  0.3669 -1.1671
 3731SOL    HW222656   4.545   4.353   3.881  0.1966  2.2258 -1.0067
 3732SOL     OW22657   4.159   3.825   1.759 -0.0029  0.4215  0.3896
 3732SOL    HW122658   4.144   3.871   1.677  1.3826  1.5717  0.7812
 3732SOL    HW222659   4.112   3.882   1.821  0.0348  0.4781  0.3658
 3733SOL     OW22660   3.525   3.034   5.422  0.3523  0.1641  0.3055
 3733SOL    HW122661   3.546   2.982   5.499 -1.9125 -0.7377  0.3124
 3733SOL    HW222662   3.582   2.997   5.355  0.2476 -0.0138  0.3137
 3734SOL     OW22663   3.548   4.519   0.839 -0.1250 -0.3996 -0.0948
 3734SOL    HW122664   3.569   4.426   0.832 -0.7584 -0.5108 -0.4724
 3734SOL    HW222665   3.514   4.531   0.750 -0.4154  1.7634  0.3078
 3735SOL     OW22666   3.814   2.130   2.831  0.1176  0.3158  0.2872
 3735SOL    HW122667   3.754   2.105   2.761 -1.0328  2.5720  0.4734
 3735SOL    HW222668   3.896   2.134   2.782  0.3162  0.9407  0.6654
 3736SOL     OW22669   0.563   2.419  17.096  0.0090  0.4821 -0.0720
 3736SOL    HW122670   0.644   2.434  17.048 -0.5850 -0.0919 -1.2599
 3736SOL    HW222671   0.577   2.334  17.137  0.8031  0.1146 -1.1076
 3737SOL     OW22672   2.499   1.468  14.904  0.3412 -0.3949  0.3165
 3737SOL    HW122673   2.481   1.561  14.918  1.5010 -0.1367  0.0658
 3737SOL    HW222674   2.591   1.469  14.932  0.1764 -0.7963  0.8746
 3738SOL     OW22675   4.263   2.284   2.006  0.8236 -0.1231 -0.0408
 3738SOL    HW122676   4.260   2.324   1.919  3.0155  1.7482  0.7472
 3738SOL    HW222677   4.220   2.200   1.992 -0.1945  0.2930  0.5889
 3739SOL     OW22678   2.743   1.116   5.845 -0.0069 -0.5630 -0.2989
 3739SOL    HW122679   2.724   1.051   5.913 -0.0233 -1.7319 -1.4249
 3739SOL    HW222680   2.739   1.069   5.762  0.4214 -0.9365 -0.1082
 3740SOL     OW22681   0.882   3.736   1.921  0.1676  0.1300  0.7227
 3740SOL    HW122682   0.796   3.769   1.945  0.8561  2.4360  0.0411
 3740SOL    HW222683   0.866   3.644   1.942  1.0613  0.1571  1.4975
 3741SOL     OW22684   2.911   1.626   6.942  0.5628  0.0479 -0.5003
 3741SOL    HW122685   2.968   1.614   6.865  1.4087  1.1240 -0.0327
 3741SOL    HW222686   2.940   1.549   6.992  0.2757 -0.9943 -1.9210
 3742SOL     OW22687   2.066   4.252   3.591 -0.0396 -0.5148 -0.4907
 3742SOL    HW122688   2.117   4.174   3.572 -0.3200 -1.1105  1.2170
 3742SOL    HW222689   2.052   4.281   3.501 -0.1461 -0.9932 -0.6271
 3743SOL     OW22690   4.066   0.797   5.265 -0.1977 -0.1604  0.7871
 3743SOL    HW122691   3.982   0.817   5.224  0.7634 -0.6183 -1.3735
 3743SOL    HW222692   4.099   0.715   5.228 -0.4782  0.0294  0.1215
 3744SOL     OW22693   3.182   2.436   5.870 -0.4839  0.1458 -0.3165
 3744SOL    HW122694   3.227   2.492   5.933 -0.5743  1.3255 -1.3098
 3744SOL    HW222695   3.138   2.499   5.814  1.8580  2.0304 -0.0144
 3745SOL     OW22696   1.329   4.687   4.542 -0.8250  0.4266 -0.2419
 3745SOL    HW122697   1.382   4.694   4.462 -0.6154 -1.5616 -0.2697
 3745SOL    HW222698   1.325   0.055   4.565  1.3881  0.4551  0.0516
 3746SOL     OW22699   2.100   0.609   5.668  0.0938 -0.2294  0.1522
 3746SOL    HW122700   2.045   0.555   5.725  2.0670  0.1275  2.3889
 3746SOL    HW222701   2.035   0.674   5.639  0.0660  0.5806  2.0268
 3747SOL     OW22702   3.772   1.908   0.934 -0.2820  0.1294  0.2521
 3747SOL    HW122703   3.762   1.971   0.863  0.2571 -0.5143 -0.4039
 3747SOL    HW222704   3.832   1.960   0.988 -0.2798  0.0802  0.2966
 3748SOL     OW22705   1.662   4.224   1.833  0.7599  0.0430 -0.1938
 3748SOL    HW122706   1.603   4.177   1.773  0.5874  0.2046 -0.1515
 3748SOL    HW222707   1.702   4.295   1.784  0.5092  0.2968 -0.0262
 3749SOL     OW22708   4.100   1.565   0.171 -0.1013 -0.6075  0.0798
 3749SOL    HW122709   4.175   1.613   0.137  0.0941  1.4543  3.5151
 3749SOL    HW222710   4.090   1.598   0.260 -1.6038 -0.5983 -0.0946
 3750SOL     OW22711   2.719   2.316  14.287  0.1916 -0.1533 -0.7562
 3750SOL    HW122712   2.673   2.234  14.268  0.7980 -0.6162 -0.2049
 3750SOL    HW222713   2.795   2.278  14.330 -1.2957 -1.6306  0.5737
 3751SOL     OW22714   2.172   4.519   6.933  0.7487 -0.3007 -0.0184
 3751SOL    HW122715   2.265   4.525   6.954  0.6354  0.4132  0.2831
 3751SOL    HW222716   2.136   4.562   7.011  1.7165  1.5713 -0.6107
 3752SOL     OW22717   3.431   4.274  11.315  0.1321 -0.1869  0.0565
 3752SOL    HW122718   3.511   4.325  11.332  1.0252 -1.1597 -1.2026
 3752SOL    HW222719   3.471   4.210  11.256 -0.8591  0.9918 -1.9103
 3753SOL     OW22720   0.473   4.465   8.131 -0.2080 -0.1028 -0.0799
 3753SOL    HW122721   0.446   4.556   8.143 -1.5027 -0.4682 -0.2351
 3753SOL    HW222722   0.433   4.443   8.047 -2.4208  1.5897  0.5400
 3754SOL     OW22723   0.620   0.658  11.565  0.1553 -0.2718 -0.5983
 3754SOL    HW122724   0.594   0.743  11.601 -0.8531 -0.5477 -0.6814
 3754SOL    HW222725   0.709   0.656  11.600 -0.0868  0.8627  0.0970
 3755SOL     OW22726   4.061   0.109   9.165  0.2442  0.1120 -0.1398
 3755SOL    HW122727   4.098   0.059   9.093  0.4673  0.1056 -0.0216
 3755SOL    HW222728   4.105   0.190   9.140  1.6778 -0.8225 -0.6261
 3756SOL     OW22729   2.896   0.489   7.387  0.5908 -0.2931 -0.2180
 3756SOL    HW122730   2.802   0.491   7.402  0.7729  0.9762  0.7889
 3756SOL    HW222731   2.898   0.520   7.297  1.3328  1.2808  0.3303
 3757SOL     OW22732   2.047   1.737   8.737  0.2034  0.1195  0.1824
 3757SOL    HW122733   1.986   1.811   8.733  2.3915  1.7759 -2.5713
 3757SOL    HW222734   1.992   1.663   8.762  0.7112 -0.2556  0.2000
 3758SOL     OW22735   0.320   3.984   8.672 -0.2137 -0.4447  0.2875
 3758SOL    HW122736   0.403   3.992   8.624  0.0558 -4.3617  0.1032
 3758SOL    HW222737   0.295   4.076   8.663 -0.4284 -0.3857  1.4402
 3759SOL     OW22738   0.859   0.558  15.282 -0.4269  0.2654 -0.4913
 3759SOL    HW122739   0.883   0.529  15.194  0.9619  1.8779 -0.6441
 3759SOL    HW222740   0.876   0.651  15.270  1.0229  0.1666  0.8408
 3760SOL     OW22741   1.019   1.538   1.150 -0.2140  0.5360 -0.1430
 3760SOL    HW122742   1.060   1.594   1.084  2.1732  1.1004  1.7958
 3760SOL    HW222743   0.941   1.505   1.105  0.1081  0.4238 -0.6187
 3761SOL     OW22744   0.435   2.775  10.520 -0.7494  0.9105 -0.2360
 3761SOL    HW122745   0.502   2.708  10.532 -1.2717  0.6833  1.3681
 3761SOL    HW222746   0.453   2.791  10.427  0.0751  0.4008 -0.1619
 3762SOL     OW22747   4.450   1.607   3.154  0.0602 -0.1274  0.0167
 3762SOL    HW122748   4.456   1.578   3.063  1.1648  0.3518 -0.0603
 3762SOL    HW222749   4.464   1.524   3.200 -0.3489 -0.8000 -1.0858
 3763SOL     OW22750   3.516   3.508   7.129 -0.3113 -0.3293 -0.2629
 3763SOL    HW122751   3.526   3.552   7.213  1.6903 -0.3512 -0.5010
 3763SOL    HW222752   3.434   3.461   7.148  0.2393 -0.8980  0.6941
 3764SOL     OW22753   0.678   4.662   2.065  0.3010  0.1767  0.0396
 3764SOL    HW122754   0.670   4.717   2.143  0.5798  0.3573 -0.0596
 3764SOL    HW222755   0.698   4.573   2.091  0.2141  0.4039  0.8639
 3765SOL     OW22756   3.793   0.126   8.013 -0.5585  0.4825  0.6618
 3765SOL    HW122757   3.734   0.172   8.074 -4.3655 -0.4333 -2.3636
 3765SOL    HW222758   3.759   0.162   7.931  0.7050 -0.6427 -0.3494
 3766SOL     OW22759   2.345   3.756  12.049  0.0460 -0.1002 -0.3403
 3766SOL    HW122760   2.304   3.745  12.134  1.1308 -2.3657 -0.1209
 3766SOL    HW222761   2.289   3.714  11.985  3.3133 -1.5569 -2.2655
 3767SOL     OW22762   1.646   0.050   3.782 -0.5427  0.3731  0.5999
 3767SOL    HW122763   1.649   0.031   3.876  1.9694  2.8659  1.0178
 3767SOL    HW222764   1.741   0.049   3.771 -0.8906  2.4135 -2.4028
 3768SOL     OW22765   1.128   4.512   2.836  0.2353 -0.0735  0.3904
 3768SOL    HW122766   1.038   4.532   2.862 -0.4017 -1.3507 -0.8413
 3768SOL    HW222767   1.125   4.539   2.744  0.6277 -0.0209  0.3936
 3769SOL     OW22768   4.638   2.443  10.045 -0.0332 -0.1024  0.1669
 3769SOL    HW122769   4.653   2.351  10.022 -1.2174  0.5431 -3.2539
 3769SOL    HW222770   4.665   2.477   9.959 -0.8848 -2.2466 -0.9557
 3770SOL     OW22771   3.372   3.274   6.922  0.0721 -0.3449 -0.1249
 3770SOL    HW122772   3.378   3.342   6.855  1.2172 -1.1505 -0.8342
 3770SOL    HW222773   3.344   3.203   6.865  1.3947  0.8288 -2.2193
 3771SOL     OW22774   0.230   4.085   6.511  0.2396  0.2631 -0.2231
 3771SOL    HW122775   0.289   4.066   6.584  0.7084  1.2732 -0.3343
 3771SOL    HW222776   0.219   4.180   6.519  1.6039  0.6461 -2.8236
 3772SOL     OW22777   4.237   4.594   7.607 -0.0694  0.4293 -0.4544
 3772SOL    HW122778   4.165   4.532   7.591  0.6352  0.1831 -2.5551
 3772SOL    HW222779   4.188   4.674   7.626  1.1310  0.7892  1.0742
 3773SOL     OW22780   3.596   1.216   3.489 -0.1049 -0.6574 -0.7282
 3773SOL    HW122781   3.676   1.194   3.442  0.4731 -1.4617  0.6129
 3773SOL    HW222782   3.557   1.282   3.432 -0.4184  0.0078  0.2459
 3774SOL     OW22783   0.108   0.132   5.342  0.2113  0.1301  0.7040
 3774SOL    HW122784   0.110   0.097   5.431 -1.8227 -0.1782  0.6271
 3774SOL    HW222785   0.061   0.214   5.356 -1.2184 -0.6207  0.2622
 3775SOL     OW22786   2.897   4.077   2.898  0.0546  0.1264 -0.1522
 3775SOL    HW122787   2.843   4.139   2.849  0.0949  2.2604  2.4807
 3775SOL    HW222788   2.868   3.992   2.866 -2.2049  0.1317  1.8039
 3776SOL     OW22789   4.555   3.653   9.701  0.5833  0.0671 -0.1260
 3776SOL    HW122790   4.596   3.701   9.629  0.5604  1.5522  0.8669
 3776SOL    HW222791   4.465   3.667   9.673  0.8093 -1.4620 -1.6470
 3777SOL     OW22792   3.396   2.833   6.544 -0.0822  0.3934  0.2696
 3777SOL    HW122793   3.447   2.775   6.488  1.1964  0.5711  1.2474
 3777SOL    HW222794   3.458   2.904   6.557 -0.2763  0.2739  1.9360
 3778SOL     OW22795   1.746   0.356   6.847 -0.1778 -0.4682  0.3739
 3778SOL    HW122796   1.672   0.351   6.787 -0.1240 -0.2995  0.2953
 3778SOL    HW222797   1.742   0.445   6.882 -0.4497 -0.4803  0.3788
 3779SOL     OW22798   1.731   2.382  17.041  0.2819 -0.4698  0.6384
 3779SOL    HW122799   1.730   2.287  17.054  2.2804 -0.2416  2.4114
 3779SOL    HW222800   1.645   2.415  17.064 -0.2949 -0.3909 -1.6642
 3780SOL     OW22801   1.673   3.456   1.975  0.5565 -0.2780 -0.4813
 3780SOL    HW122802   1.766   3.434   1.982  0.5725 -0.0273  0.0595
 3780SOL    HW222803   1.628   3.373   1.985 -2.3186  1.2472 -0.7074
 3781SOL     OW22804   0.770   1.529   2.456  0.2508  0.5741  0.2014
 3781SOL    HW122805   0.727   1.520   2.371 -1.9866  0.1034  1.3673
 3781SOL    HW222806   0.762   1.624   2.463 -0.6647  0.6579 -2.0442
 3782SOL     OW22807   1.595   3.590   9.009 -0.5729 -0.3360 -0.2888
 3782SOL    HW122808   1.691   3.595   9.009 -0.4966 -1.7236 -0.4805
 3782SOL    HW222809   1.563   3.659   9.068 -2.2644 -0.8829 -0.5725
 3783SOL     OW22810   0.366   0.466   4.030 -0.2489 -0.1449  0.0238
 3783SOL    HW122811   0.340   0.377   4.049 -0.0024 -0.2014  0.0948
 3783SOL    HW222812   0.283   0.506   4.005 -1.7401 -1.5241  2.8718
 3784SOL     OW22813   1.166   0.166   8.585  0.4593  0.2621 -0.0221
 3784SOL    HW122814   1.217   0.239   8.550 -1.9613  1.1946 -1.5809
 3784SOL    HW222815   1.115   0.217   8.647 -3.1015 -0.5122 -2.2652
 3785SOL     OW22816   4.548   1.348   7.597 -0.5645  0.0582  0.1699
 3785SOL    HW122817   4.515   1.273   7.647 -1.5754  1.7941  2.0912
 3785SOL    HW222818   4.633   1.312   7.574 -0.8636 -0.5569  0.0348
 3786SOL     OW22819   2.736   0.482   4.589  0.2844 -0.7359 -0.0983
 3786SOL    HW122820   2.716   0.388   4.593 -1.0698 -0.3992  1.2241
 3786SOL    HW222821   2.770   0.502   4.502 -1.1831  1.5993 -0.1415
 3787SOL     OW22822   4.338   4.244   5.157  0.4139  0.6891  0.3107
 3787SOL    HW122823   4.392   4.304   5.106  0.0136 -0.3469 -1.3501
 3787SOL    HW222824   4.355   4.163   5.108  2.0452  0.8559  0.5834
 3788SOL     OW22825   3.079   3.332   5.553 -0.3139 -0.5880 -0.0407
 3788SOL    HW122826   3.052   3.393   5.622 -0.9730  0.1568 -0.9647
 3788SOL    HW222827   3.155   3.379   5.518  1.0651 -1.5581  1.6203
 3789SOL     OW22828   3.551   0.633   5.867  0.2071 -0.2217 -0.6130
 3789SOL    HW122829   3.578   0.697   5.801  0.2285 -0.7390 -1.1052
 3789SOL    HW222830   3.552   0.550   5.819 -1.8929 -1.3385  1.2649
 3790SOL     OW22831   0.313   2.091   3.108 -0.3532 -0.2175  0.0602
 3790SOL    HW122832   0.407   2.073   3.109 -0.6532 -1.6458  2.5471
 3790SOL    HW222833   0.316   2.159   3.175 -0.8403  0.0503 -0.1825
 3791SOL     OW22834   1.680   3.217   8.929 -0.3005 -0.3074  0.2296
 3791SOL    HW122835   1.610   3.174   8.879  0.6877  0.9935 -2.2756
 3791SOL    HW222836   1.707   3.284   8.866 -0.3036 -1.4366 -0.9727
 3792SOL     OW22837   1.272   3.123  16.725  0.2772 -0.6160  0.0341
 3792SOL    HW122838   1.291   3.072  16.646  0.9681 -0.6718  0.2376
 3792SOL    HW222839   1.180   3.145  16.711  1.0405  1.4841 -1.6663
 3793SOL     OW22840   3.862   1.666   6.763 -0.7225 -0.1385 -0.1305
 3793SOL    HW122841   3.950   1.630   6.777  0.1295  1.2102 -2.1425
 3793SOL    HW222842   3.876   1.756   6.793  0.9997 -0.6445  0.6262
 3794SOL     OW22843   2.397   2.040   3.491  0.2943  0.2812  0.0981
 3794SOL    HW122844   2.307   2.060   3.465  0.7849  0.3887 -1.5563
 3794SOL    HW222845   2.439   2.101   3.430 -1.3446  1.5037  0.1762
 3795SOL     OW22846   4.661   1.623   4.986 -0.1168  0.8187 -0.7425
 3795SOL    HW122847   4.666   1.545   4.930  0.4530  0.8350 -0.7193
 3795SOL    HW222848   0.003   1.677   4.944  1.1196  1.1778  1.6968
 3796SOL     OW22849   3.729   4.030   0.823 -0.2765  0.2865  0.0741
 3796SOL    HW122850   3.743   3.940   0.852 -0.4887  1.3022  3.3504
 3796SOL    HW222851   3.811   4.071   0.849 -0.5102 -0.3539  1.8354
 3797SOL     OW22852   0.208   3.151   4.105  0.0587  0.5900 -0.0441
 3797SOL    HW122853   0.297   3.117   4.116 -0.0082  0.1654 -0.8186
 3797SOL    HW222854   0.157   3.071   4.097  2.4737 -1.0483  0.9247
 3798SOL     OW22855   3.224   0.607  14.226  0.2805 -0.4778  0.6749
 3798SOL    HW122856   3.163   0.583  14.296  2.2063 -1.5326  1.9963
 3798SOL    HW222857   3.251   0.694  14.253  1.4780 -0.9642  1.0339
 3799SOL     OW22858   3.691   0.617   2.190  0.7817  0.4170  0.7944
 3799SOL    HW122859   3.610   0.567   2.174  1.1498  0.8594 -2.4989
 3799SOL    HW222860   3.662   0.678   2.258 -1.3075  0.1997  0.0968
 3800SOL     OW22861   4.149   2.122  16.446 -0.1245  0.2410 -0.3404
 3800SOL    HW122862   4.243   2.135  16.454 -0.0973  1.4276 -2.5271
 3800SOL    HW222863   4.130   2.032  16.472  0.0617 -0.0599 -1.2271
 3801SOL     OW22864   1.432   4.360   6.222 -0.1741  0.5589 -0.3369
 3801SOL    HW122865   1.524   4.382   6.210 -0.0290 -0.4835 -1.1616
 3801SOL    HW222866   1.430   4.322   6.310  0.7875  0.6580 -0.2726
 3802SOL     OW22867   0.032   3.783   7.018  0.6527  0.1979 -0.3646
 3802SOL    HW122868   0.114   3.801   7.063  0.6908 -1.2793  0.1838
 3802SOL    HW222869   4.722   3.863   6.980  0.2669  0.2150  0.0261
 3803SOL     OW22870   1.496   1.533   8.562  0.3707 -0.3316  0.1021
 3803SOL    HW122871   1.460   1.460   8.511  0.2823  0.7331 -1.3477
 3803SOL    HW222872   1.491   1.522   8.657  0.3635 -1.0943  0.0166
 3804SOL     OW22873   2.007   2.370  13.495 -0.5103 -0.0960 -0.0619
 3804SOL    HW122874   2.075   2.322  13.543 -0.5168  1.1455  1.2057
 3804SOL    HW222875   1.959   2.407  13.569 -0.6301 -2.3178  0.9915
 3805SOL     OW22876   3.134   1.298   4.174  0.1135 -0.5049  0.0744
 3805SOL    HW122877   3.213   1.247   4.192 -0.8900 -1.0753  2.8517
 3805SOL    HW222878   3.083   1.283   4.254  0.8226  0.2232  0.6799
 3806SOL     OW22879   3.526   2.241   6.764 -0.2964  0.1739  0.0457
 3806SOL    HW122880   3.450   2.205   6.809 -0.6126  0.7946  0.0090
 3806SOL    HW222881   3.599   2.192   6.802  0.3138  1.1705  0.1765
 3807SOL     OW22882   0.129   4.671   5.148 -0.1178 -0.1759  0.1709
 3807SOL    HW122883   0.127   4.725   5.227  1.9324  0.1129  0.0436
 3807SOL    HW222884   0.055   4.706   5.098 -1.0275 -1.1661  0.8202
 3808SOL     OW22885   2.936   1.138  12.701 -0.2111  0.3958 -0.0817
 3808SOL    HW122886   2.986   1.076  12.648 -1.3318  0.5400 -1.3106
 3808SOL    HW222887   2.929   1.090  12.784 -1.4492 -0.8585 -0.8994
 3809SOL     OW22888   3.715   0.946   8.447 -0.3444  0.6862 -0.2986
 3809SOL    HW122889   3.803   0.911   8.435 -0.6305  0.1754 -0.9801
 3809SOL    HW222890   3.694   0.949   8.353 -1.9371 -0.6145  0.0127
 3810SOL     OW22891   0.052   3.979   9.089  0.1070 -0.0744  0.4976
 3810SOL    HW122892   0.099   4.051   9.132  0.0973  0.3068 -0.1417
 3810SOL    HW222893   4.716   3.947   9.156  0.1652  0.9445  1.0332
 3811SOL     OW22894   0.941   2.301  17.289  0.5676  0.3003 -0.1192
 3811SOL    HW122895   0.864   2.254  17.260  1.6263 -0.7733 -1.1781
 3811SOL    HW222896   0.991   2.303  17.208  1.2001  1.0510  0.2854
 3812SOL     OW22897   0.111   0.223  17.565  0.4079  0.2347  0.2570
 3812SOL    HW122898   0.098   0.306  17.612  1.1131  0.0818  0.7206
 3812SOL    HW222899   0.206   0.222  17.561  0.3059 -1.3490 -1.8596
 3813SOL     OW22900   2.490   3.712   2.360 -0.4683  0.4241 -0.4557
 3813SOL    HW122901   2.544   3.684   2.286 -0.7006  0.0168 -0.4700
 3813SOL    HW222902   2.478   3.633   2.412 -0.7324 -0.0431 -1.2314
 3814SOL     OW22903   1.463   0.034   3.184  0.3737  0.2369 -0.3746
 3814SOL    HW122904   1.397   0.101   3.172  0.8616  0.9019  0.6420
 3814SOL    HW222905   1.405   4.689   3.155  0.1788  0.2100  0.0742
 3815SOL     OW22906   0.103   1.094   6.828  0.2310 -0.0183 -0.0797
 3815SOL    HW122907   0.053   1.048   6.761  0.1769  1.7543 -1.2439
 3815SOL    HW222908   0.030   1.098   6.889 -1.0096  0.9065 -1.6558
 3816SOL     OW22909   1.543   0.419   5.418  0.1662 -0.3103 -0.8215
 3816SOL    HW122910   1.450   0.437   5.433  0.8554  0.9455  1.9759
 3816SOL    HW222911   1.591   0.475   5.480 -1.9584  1.4225 -0.7295
 3817SOL     OW22912   0.494   0.813   4.360  0.3184  0.0542 -0.2200
 3817SOL    HW122913   0.577   0.862   4.364  0.6073 -0.3774 -0.8160
 3817SOL    HW222914   0.517   0.747   4.294  1.1907  1.1676 -1.0457
 3818SOL     OW22915   1.073   3.871   2.423  0.0118  0.5005 -0.5212
 3818SOL    HW122916   0.989   3.888   2.466  1.2177  1.4339  1.4647
 3818SOL    HW222917   1.128   3.917   2.487 -0.3884  3.8894 -2.6178
 3819SOL     OW22918   2.524   4.612   4.251  0.2195 -0.1018  0.0874
 3819SOL    HW122919   2.444   4.600   4.303 -0.8284  0.4546 -1.3809
 3819SOL    HW222920   2.491   4.678   4.189 -1.8318  0.6289  1.9302
 3820SOL     OW22921   3.798   1.203   6.767  0.4635  0.4939 -0.3854
 3820SOL    HW122922   3.889   1.212   6.739  0.7387 -0.5989  0.1816
 3820SOL    HW222923   3.751   1.243   6.693 -1.5931  0.1712  0.7512
 3821SOL     OW22924   1.430   4.354  14.134  0.6332  0.3488  0.2089
 3821SOL    HW122925   1.523   4.371  14.119  0.6273  1.9792  1.9215
 3821SOL    HW222926   1.437   4.264  14.163  1.9488  1.1734  2.4846
 3822SOL     OW22927   4.363   0.078  13.919 -0.5256  0.4581 -0.5978
 3822SOL    HW122928   4.322   0.026  13.849 -1.5400  1.7004 -0.9313
 3822SOL    HW222929   4.316   0.162  13.914 -0.4639  0.4836 -0.7435
 3823SOL     OW22930   0.681   2.287   3.346  0.4275 -0.1604 -0.1102
 3823SOL    HW122931   0.636   2.343   3.283 -1.0215 -1.9352 -0.6389
 3823SOL    HW222932   0.655   2.322   3.431 -4.2301 -2.5170 -0.5758
 3824SOL     OW22933   4.010   3.279   8.320 -0.0402  0.0274  0.0217
 3824SOL    HW122934   4.039   3.370   8.332 -0.8273  0.0433  1.8827
 3824SOL    HW222935   4.090   3.231   8.298 -1.7258 -1.8392 -2.0083
 3825SOL     OW22936   2.707   3.391   0.551  0.0834 -0.6571 -0.1181
 3825SOL    HW122937   2.671   3.303   0.541  3.7062 -2.1842  0.1428
 3825SOL    HW222938   2.789   3.363   0.592  0.2927 -0.1316 -0.1713
 3826SOL     OW22939   3.157   0.937   5.443 -0.0836 -0.4320  0.0144
 3826SOL    HW122940   3.072   0.979   5.433 -1.1958 -2.5032  0.6242
 3826SOL    HW222941   3.174   0.972   5.531 -0.0297  1.6840 -0.8414
 3827SOL     OW22942   2.232   3.684   1.003 -0.3237  0.3916  0.4493
 3827SOL    HW122943   2.308   3.740   1.019 -0.8967  1.0391  0.9203
 3827SOL    HW222944   2.245   3.659   0.911  1.3201 -0.8515  1.0355
 3828SOL     OW22945   0.875   2.552   5.619 -0.6173 -0.0110 -0.1766
 3828SOL    HW122946   0.873   2.628   5.561 -2.5901 -1.3193 -1.8331
 3828SOL    HW222947   0.794   2.557   5.668 -1.3045 -0.1247 -1.2935
 3829SOL     OW22948   1.076   4.192   5.203 -0.0592  0.1642 -0.9365
 3829SOL    HW122949   1.064   4.187   5.298 -0.1099  0.8748 -0.9029
 3829SOL    HW222950   0.987   4.207   5.171  0.2192  1.6471 -1.0055
 3830SOL     OW22951   1.736   4.618   4.047 -0.1936 -0.7265  0.2894
 3830SOL    HW122952   1.704   4.557   3.981 -1.6801  0.3058  0.0678
 3830SOL    HW222953   1.685   4.572   4.115  0.0687 -0.7227  0.4909
 3831SOL     OW22954   2.961   1.439   3.170 -0.4862  0.9231 -0.4390
 3831SOL    HW122955   2.958   1.534   3.164 -0.4878  0.9568  0.0837
 3831SOL    HW222956   3.055   1.421   3.174 -0.8288 -1.5177 -3.3318
 3832SOL     OW22957   0.013   0.148  16.399 -0.3444 -0.1350 -0.3066
 3832SOL    HW122958   0.049   0.188  16.478  0.6074 -3.7098  1.0631
 3832SOL    HW222959   0.055   0.063  16.391 -0.2415 -0.0751 -0.4076
 3833SOL     OW22960   1.893   2.748   5.333  0.2054 -0.4543  0.4746
 3833SOL    HW122961   1.803   2.774   5.313  1.2867  0.6805 -2.9850
 3833SOL    HW222962   1.944   2.805   5.274  2.2557  0.4351  3.1161
 3834SOL     OW22963   2.117   2.190   3.759 -0.1130  0.2043  0.3213
 3834SOL    HW122964   2.103   2.279   3.726 -1.3546  0.2991  1.1350
 3834SOL    HW222965   2.210   2.184   3.735 -0.1014 -0.5055  0.5602
 3835SOL     OW22966   2.860   1.716   1.902  0.2360 -0.0981 -0.2291
 3835SOL    HW122967   2.807   1.643   1.936 -0.6601 -0.2799 -2.0134
 3835SOL    HW222968   2.791   1.770   1.862 -2.7825 -0.5443  4.3655
 3836SOL     OW22969   3.672   2.893  15.543  0.1608  0.2957 -0.1116
 3836SOL    HW122970   3.690   2.974  15.496  1.5033 -0.5588 -1.0630
 3836SOL    HW222971   3.702   2.825  15.484  0.7468  1.4880 -1.1935
 3837SOL     OW22972   2.446   1.852  17.615  0.0028  0.0367  0.1696
 3837SOL    HW122973   2.414   1.902  17.540 -0.8987 -0.2370  0.3592
 3837SOL    HW222974   2.504   1.913  17.660 -0.3770  0.7848 -0.3583
 3838SOL     OW22975   3.761   2.223  15.623  0.2299  0.6177  0.2568
 3838SOL    HW122976   3.777   2.135  15.657 -1.0618  0.6556  0.9996
 3838SOL    HW222977   3.812   2.227  15.543  0.8663 -1.1574  0.5778
 3839SOL     OW22978   1.660   2.677   9.569  0.3213 -0.8235 -0.4389
 3839SOL    HW122979   1.735   2.621   9.551 -0.0081 -1.3699 -0.0935
 3839SOL    HW222980   1.610   2.619   9.626 -2.8188  1.5571 -0.7862
 3840SOL     OW22981   3.561   2.783   9.766 -0.2168 -0.7111 -0.5116
 3840SOL    HW122982   3.504   2.836   9.710 -0.0515 -1.3626 -1.3016
 3840SOL    HW222983   3.517   2.788   9.850 -0.1145 -3.1747 -0.3148
 3841SOL     OW22984   0.731   3.383   4.603  0.0580  0.5179  0.2906
 3841SOL    HW122985   0.691   3.458   4.648  2.7846  0.9097  2.0743
 3841SOL    HW222986   0.667   3.356   4.537 -0.6536 -1.1843  1.6651
 3842SOL     OW22987   3.201   3.184   7.651  0.2545  0.5899 -0.2946
 3842SOL    HW122988   3.200   3.241   7.573 -0.9566  0.0986 -0.6281
 3842SOL    HW222989   3.205   3.094   7.618  2.0945  1.0568 -1.3744
 3843SOL     OW22990   2.610   3.693   7.757  0.0614 -0.7980 -0.3766
 3843SOL    HW122991   2.517   3.708   7.743  0.5825  1.8859 -0.9743
 3843SOL    HW222992   2.647   3.782   7.755 -1.2669 -0.1881  1.4856
 3844SOL     OW22993   4.111   0.985   5.522  0.0132  0.0792 -0.7320
 3844SOL    HW122994   4.080   1.024   5.604 -0.4256 -1.8213  0.0049
 3844SOL    HW222995   4.039   0.991   5.459 -0.7254  1.3869  0.2298
 3845SOL     OW22996   3.808   4.377  10.731 -0.7305 -0.5173 -0.3224
 3845SOL    HW122997   3.805   4.463  10.774  1.4209  0.2426 -1.7059
 3845SOL    HW222998   3.734   4.327  10.766 -0.6351 -0.7281 -0.4248
 3846SOL     OW22999   1.074   3.143   6.536 -0.0703 -0.0894  0.0937
 3846SOL    HW123000   1.094   3.232   6.507  1.6867 -0.0179  1.5141
 3846SOL    HW223001   1.129   3.101   6.470  0.3260  1.3014 -0.4521
 3847SOL     OW23002   2.807   3.915   5.676 -0.4096 -0.0797  0.1747
 3847SOL    HW123003   2.817   3.879   5.588 -1.5932  1.1314 -0.4467
 3847SOL    HW223004   2.763   3.838   5.712  0.5383 -2.1253 -3.0199
 3848SOL     OW23005   3.811   3.563   5.706 -0.0085 -0.0038 -0.1210
 3848SOL    HW123006   3.725   3.556   5.748 -0.0741 -0.5260 -0.3449
 3848SOL    HW223007   3.815   3.518   5.622  1.6036 -0.5596  0.2643
 3849SOL     OW23008   2.300   0.075   3.831 -0.7571 -1.3513  0.1545
 3849SOL    HW123009   2.240   0.127   3.777  2.9259  1.3355 -1.2956
 3849SOL    HW223010   2.268   0.112   3.913 -0.2960  1.0584 -0.7574
 3850SOL     OW23011   3.775   1.949   9.292 -0.3506 -0.3409  0.0204
 3850SOL    HW123012   3.854   1.938   9.346 -0.5199  0.9879  0.5399
 3850SOL    HW223013   3.785   2.042   9.274 -2.3195 -0.4269 -1.4355
 3851SOL     OW23014   1.687   0.612  12.184  0.4584 -0.0734 -0.3381
 3851SOL    HW123015   1.778   0.601  12.210  0.1138 -2.1362 -0.0612
 3851SOL    HW223016   1.666   0.531  12.139  3.4860  0.6366 -3.0196
 3852SOL     OW23017   3.344   2.578   6.035  0.1162  0.0531 -0.1959
 3852SOL    HW123018   3.363   2.546   6.124  0.4126  1.4287  0.2320
 3852SOL    HW223019   3.325   2.671   6.046  0.2822 -0.1854  2.1662
 3853SOL     OW23020   4.171   0.635   2.113  0.5616 -0.9079 -0.2685
 3853SOL    HW123021   4.210   0.653   2.199  0.2756  0.2401 -0.3790
 3853SOL    HW223022   4.214   0.550   2.105  1.5260 -0.7503  3.3401
 3854SOL     OW23023   4.010   4.608   6.859  0.5995  0.7624 -0.0181
 3854SOL    HW123024   3.958   4.671   6.909 -0.2218  0.2753 -0.2719
 3854SOL    HW223025   4.043   4.664   6.788  0.8009 -0.3909 -0.8342
 3855SOL     OW23026   1.381   1.514  12.329  0.1227 -0.4139 -0.1544
 3855SOL    HW123027   1.358   1.432  12.284 -0.5138  0.6200 -1.7036
 3855SOL    HW223028   1.446   1.484  12.392 -0.9551 -0.8842  0.7428
 3856SOL     OW23029   1.030   3.123   8.343 -0.9373  0.0147 -0.4015
 3856SOL    HW123030   1.015   3.180   8.418  0.6925 -2.9637  2.1804
 3856SOL    HW223031   1.091   3.179   8.295  0.5411 -1.3358 -0.0896
 3857SOL     OW23032   1.651   4.610  14.844  0.1721  0.6200  0.1709
 3857SOL    HW123033   1.747   4.612  14.835  0.0360 -1.9888 -1.6279
 3857SOL    HW223034   1.634   4.520  14.820 -2.1567  0.9862  0.4845
 3858SOL     OW23035   1.641   2.648  10.538 -0.5865 -0.0206  0.6263
 3858SOL    HW123036   1.684   2.580  10.487  0.2434  0.3347  0.8454
 3858SOL    HW223037   1.653   2.613  10.627  1.6336  1.5806  0.9601
 3859SOL     OW23038   2.485   0.420   5.453 -0.2858 -0.5374  0.4408
 3859SOL    HW123039   2.580   0.411   5.461 -0.0835  0.8342 -0.3936
 3859SOL    HW223040   2.460   0.398   5.363 -0.4590 -0.9587  0.5906
 3860SOL     OW23041   1.027   2.393   8.791  0.5159  0.6208  0.3694
 3860SOL    HW123042   1.001   2.477   8.756 -0.1593  1.0713  1.9672
 3860SOL    HW223043   0.989   2.325   8.735  1.0803  1.2476 -0.7585
 3861SOL     OW23044   4.018   4.429   9.421  0.1420  0.0568  0.5826
 3861SOL    HW123045   4.088   4.445   9.485  0.4504  2.3664 -0.3364
 3861SOL    HW223046   4.063   4.396   9.344  1.2042 -0.6394  1.4916
 3862SOL     OW23047   1.394   4.715   5.380  0.1425  0.1340  0.2231
 3862SOL    HW123048   1.311   4.699   5.335  1.2838 -2.3313 -1.0146
 3862SOL    HW223049   1.368   4.715   5.472 -1.7371  1.0001 -0.3089
 3863SOL     OW23050   2.392   3.108   2.127  0.7334 -0.4834  0.3101
 3863SOL    HW123051   2.421   3.019   2.105  2.6340  0.4972 -1.1539
 3863SOL    HW223052   2.470   3.152   2.093  1.0555 -1.4940 -0.2500
 3864SOL     OW23053   0.406   1.478   4.042 -0.0727 -0.7507  0.0750
 3864SOL    HW123054   0.487   1.470   3.991  0.6301 -1.6071  1.3457
 3864SOL    HW223055   0.352   1.400   4.027  0.9786 -1.8638  2.1017
 3865SOL     OW23056   1.000   4.121   7.603 -0.4927  0.2755  0.5684
 3865SOL    HW123057   0.908   4.143   7.614 -1.0229 -2.2209  1.1512
 3865SOL    HW223058   1.039   4.208   7.597  0.6685 -0.1213  2.2572
 3866SOL     OW23059   1.418   2.393  15.702  0.3584 -0.6790  0.3289
 3866SOL    HW123060   1.472   2.408  15.625 -0.5805 -0.4215 -0.2759
 3866SOL    HW223061   1.330   2.415  15.672  0.5198 -1.6953 -0.8944
 3867SOL     OW23062   0.924   0.397   4.735 -0.5574 -0.5328  0.1286
 3867SOL    HW123063   0.830   0.418   4.731 -0.5454 -0.0877  2.0950
 3867SOL    HW223064   0.948   0.429   4.821 -2.5827  0.6187  0.2843
 3868SOL     OW23065   4.285   1.304  10.583 -0.0712 -0.1507  0.2851
 3868SOL    HW123066   4.200   1.270  10.611 -1.1989  2.1977 -0.3675
 3868SOL    HW223067   4.289   1.356  10.663 -3.0611 -0.4274  0.6091
 3869SOL     OW23068   1.391   0.973   4.026  0.7499 -0.2424 -0.3333
 3869SOL    HW123069   1.391   0.877   4.027  0.0818 -0.2456 -1.1990
 3869SOL    HW223070   1.481   1.001   4.046 -0.0201  1.7899  0.2849
 3870SOL     OW23071   1.405   2.453   3.240  0.0887  0.5595  0.0807
 3870SOL    HW123072   1.375   2.524   3.298  0.1651  1.8145 -1.4204
 3870SOL    HW223073   1.364   2.375   3.278  1.7401  0.3768  1.4617
 3871SOL     OW23074   1.214   4.137  12.880  0.1285  0.2634 -0.0379
 3871SOL    HW123075   1.271   4.189  12.823 -1.1393  3.0289  1.1995
 3871SOL    HW223076   1.258   4.150  12.965 -0.6423  1.7881  0.1255
 3872SOL     OW23077   0.031   2.383   5.826  0.3118 -0.2415  0.6613
 3872SOL    HW123078   0.017   2.466   5.780  1.5758  0.7880  2.0859
 3872SOL    HW223079   0.126   2.382   5.809  0.1638 -3.3757  0.1258
 3873SOL     OW23080   2.616   2.695   3.710 -0.2727 -0.0916  0.3404
 3873SOL    HW123081   2.660   2.745   3.642  0.2997 -0.0676  0.7321
 3873SOL    HW223082   2.689   2.671   3.767  0.0906  0.5938  0.1530
 3874SOL     OW23083   3.347   4.111   4.887  0.1389 -0.9959  0.0196
 3874SOL    HW123084   3.343   4.141   4.796  0.8584  0.7811  0.5809
 3874SOL    HW223085   3.305   4.025   4.877 -0.5304 -0.6192 -0.4146
 3875SOL     OW23086   1.862   4.367   7.564  0.2988  0.0127  0.8773
 3875SOL    HW123087   1.938   4.353   7.621  1.0325 -0.3278 -0.1793
 3875SOL    HW223088   1.895   4.426   7.496 -0.3938 -1.3142 -0.6192
 3876SOL     OW23089   0.136   3.634   9.435  0.5234  0.2709  0.0973
 3876SOL    HW123090   0.173   3.695   9.371 -1.2150 -0.6901 -1.8229
 3876SOL    HW223091   0.046   3.667   9.439 -0.0220 -1.1297 -0.8991
 3877SOL     OW23092   3.838   3.306   3.608 -0.2878  0.4359 -0.7007
 3877SOL    HW123093   3.861   3.213   3.616 -0.9200  0.4534  1.3549
 3877SOL    HW223094   3.914   3.339   3.559 -0.3734 -0.7892 -1.6707
 3878SOL     OW23095   1.912   1.814   2.740 -0.5353  0.2812  0.3163
 3878SOL    HW123096   1.903   1.723   2.711 -0.0313  0.6129 -0.8742
 3878SOL    HW223097   1.846   1.857   2.687  0.7078  1.4418 -0.2970
 3879SOL     OW23098   4.138   2.400   4.654 -0.0945 -0.3545  0.3743
 3879SOL    HW123099   4.044   2.412   4.652 -0.3223 -1.6801  3.2434
 3879SOL    HW223100   4.151   2.346   4.732  0.3628 -0.0118  0.5376
 3880SOL     OW23101   4.627   0.064   0.164  0.3419 -0.5146 -1.0514
 3880SOL    HW123102   4.641   0.158   0.178 -1.1113 -0.2563 -1.3510
 3880SOL    HW223103   4.676   0.019   0.234 -1.1535 -1.6808 -0.7652
 3881SOL     OW23104   0.053   3.989  13.594  0.1503  0.1025 -0.3989
 3881SOL    HW123105   0.119   3.920  13.589 -0.2161 -0.2982  0.2211
 3881SOL    HW223106   0.057   4.004  13.689  0.8292  1.1121 -0.5906
 3882SOL     OW23107   0.655   0.317  10.226  0.3907 -0.0439  0.4091
 3882SOL    HW123108   0.728   0.375  10.203  2.1507 -0.9965  3.5109
 3882SOL    HW223109   0.693   0.229  10.230 -0.5123 -0.4435 -0.0488
 3883SOL     OW23110   2.266   4.073  14.981 -0.4631  0.0999 -0.5176
 3883SOL    HW123111   2.228   4.150  14.939 -0.3283  0.4253 -0.0523
 3883SOL    HW223112   2.318   4.035  14.910  0.8096  1.1470 -0.1409
 3884SOL     OW23113   0.797   0.693   3.260  0.2490  0.5694  0.6130
 3884SOL    HW123114   0.737   0.711   3.187  0.7569  0.4279  0.1637
 3884SOL    HW223115   0.849   0.618   3.231  1.3643  0.5822  2.6270
 3885SOL     OW23116   0.740   0.247   8.770 -0.7581  0.6269  0.5396
 3885SOL    HW123117   0.682   0.180   8.805 -2.0578  1.6254  0.3200
 3885SOL    HW223118   0.692   0.275   8.692 -1.6309 -0.9300  0.5128
 3886SOL     OW23119   2.222   3.787   5.298 -0.3829  0.8488  0.2658
 3886SOL    HW123120   2.305   3.828   5.322  0.5712 -0.9743  0.0486
 3886SOL    HW223121   2.195   3.750   5.382  1.4962  3.2249  1.9185
 3887SOL     OW23122   0.654   2.138  10.719 -0.2132  0.3153 -0.0017
 3887SOL    HW123123   0.715   2.101  10.655  1.0073  0.9667  0.7893
 3887SOL    HW223124   0.677   2.096  10.802 -2.3659 -0.3444  0.2619
 3888SOL     OW23125   1.572   2.648   0.057 -0.1824  0.1581  0.2448
 3888SOL    HW123126   1.485   2.622   0.028 -0.0433 -1.4505  1.3121
 3888SOL    HW223127   1.616   2.636  17.676  0.7321  1.2105  0.5688
 3889SOL     OW23128   1.018   1.081   3.138  0.1590  0.2273  0.1628
 3889SOL    HW123129   0.988   1.101   3.050 -1.7279  1.1098  1.0028
 3889SOL    HW223130   1.111   1.063   3.126  0.4683 -0.0512  2.8028
 3890SOL     OW23131   1.485   4.165  16.517 -0.0720  0.2250 -0.0937
 3890SOL    HW123132   1.477   4.197  16.427 -1.1376 -1.0696 -0.4592
 3890SOL    HW223133   1.499   4.250  16.558 -1.1869 -0.8651  2.5277
 3891SOL     OW23134   2.466   0.336  17.645 -0.0873  0.2632 -0.3271
 3891SOL    HW123135   2.452   0.407   0.005  1.5502  0.1303  0.1948
 3891SOL    HW223136   2.495   0.384  17.567  0.5744 -2.8279 -1.9753
 3892SOL     OW23137   4.439   1.164   5.736  0.4896  0.3795  0.2635
 3892SOL    HW123138   4.442   1.074   5.770 -0.0556  0.7405  1.2689
 3892SOL    HW223139   4.414   1.150   5.644 -0.5728  1.0057  0.4630
 3893SOL     OW23140   0.138   2.550  12.278  0.5391  0.1499 -0.7373
 3893SOL    HW123141   0.099   2.621  12.329 -0.3711 -1.1065  0.3270
 3893SOL    HW223142   0.092   2.559  12.195  0.2135 -0.0197 -0.5734
 3894SOL     OW23143   2.370   1.834   4.965 -0.5077 -0.0003  0.2667
 3894SOL    HW123144   2.295   1.891   4.981 -1.1410 -0.3691 -1.3708
 3894SOL    HW223145   2.367   1.768   5.035 -0.2133  0.0152  0.2954
 3895SOL     OW23146   0.872   0.577  13.442  0.0291 -0.2105 -0.3216
 3895SOL    HW123147   0.793   0.530  13.468 -0.0089 -0.0113 -0.0808
 3895SOL    HW223148   0.928   0.507  13.476  0.1191 -0.7004 -1.4657
 3896SOL     OW23149   3.018   2.821   6.015 -0.1687 -0.5011 -0.4575
 3896SOL    HW123150   3.112   2.838   6.027 -0.3553 -1.0892  1.7540
 3896SOL    HW223151   2.977   2.812   6.101  1.5785  1.3564  0.5510
 3897SOL     OW23152   3.838   2.482   4.926  0.9061  0.1954 -0.1465
 3897SOL    HW123153   3.902   2.548   4.951  1.6636 -0.2590 -0.8767
 3897SOL    HW223154   3.843   2.404   4.981  1.8118  1.6178  1.7408
 3898SOL     OW23155   3.125   1.713  11.754  0.0121 -0.2197 -0.2438
 3898SOL    HW123156   3.031   1.723  11.768 -0.0823 -1.9466  0.2855
 3898SOL    HW223157   3.147   1.807  11.757  2.1827 -0.6912 -0.8979
 3899SOL     OW23158   1.744   0.878   6.773  0.4566 -0.2187  0.0033
 3899SOL    HW123159   1.653   0.909   6.776  0.2648 -0.8982  1.2288
 3899SOL    HW223160   1.766   0.908   6.685  0.9519  0.3896  0.3322
 3900SOL     OW23161   3.308   3.784   2.502  0.2638 -0.4670  0.0722
 3900SOL    HW123162   3.302   3.789   2.407 -0.3241 -0.7491  0.0908
 3900SOL    HW223163   3.345   3.872   2.511 -0.3226 -0.0430 -1.6878
 3901SOL     OW23164   1.592   1.659  12.118 -0.4951  0.2317  0.7224
 3901SOL    HW123165   1.506   1.694  12.141  0.4727  2.7897  0.5220
 3901SOL    HW223166   1.607   1.592  12.184 -1.4799 -0.3449  0.3532
 3902SOL     OW23167   2.331   3.888  17.432  0.1012  0.1552  0.1695
 3902SOL    HW123168   2.366   3.803  17.461  1.8445  0.7294 -0.2775
 3902SOL    HW223169   2.328   3.934  17.516 -0.2695  0.4082  0.0172
 3903SOL     OW23170   3.499   0.867   2.900 -0.5164  0.3179  0.2097
 3903SOL    HW123171   3.558   0.797   2.931 -1.6653 -1.7886 -2.4031
 3903SOL    HW223172   3.427   0.861   2.962 -0.0247  0.0088  0.7531
 3904SOL     OW23173   2.777   0.534   3.668 -0.2223  0.2171 -0.0754
 3904SOL    HW123174   2.697   0.490   3.694  2.1302 -3.3289  1.2496
 3904SOL    HW223175   2.783   0.495   3.581 -0.6017 -1.9705  0.8813
 3905SOL     OW23176   1.185   2.573   8.584 -0.0842  0.2101 -0.0777
 3905SOL    HW123177   1.242   2.565   8.508  1.6669  1.5837  1.0993
 3905SOL    HW223178   1.127   2.501   8.559  0.8315 -0.6743  0.3536
 3906SOL     OW23179   2.158   1.759   2.284 -0.4753 -0.1909 -0.5144
 3906SOL    HW123180   2.221   1.723   2.347  0.7787 -1.4239 -2.4695
 3906SOL    HW223181   2.148   1.697   2.212  0.0080 -1.4935  0.5503
 3907SOL     OW23182   0.469   3.355  17.180 -0.9566  0.1291 -0.4465
 3907SOL    HW123183   0.396   3.391  17.231 -2.9131 -2.4936 -1.4065
 3907SOL    HW223184   0.485   3.275  17.232 -0.3828 -0.9261 -2.2589
 3908SOL     OW23185   4.185   3.206   5.239  0.0975 -0.2673 -0.4031
 3908SOL    HW123186   4.169   3.293   5.202  0.1505  0.6869  1.8435
 3908SOL    HW223187   4.099   3.163   5.235 -1.7230  3.2003  1.9709
 3909SOL     OW23188   0.906   4.007   0.167  0.0645  0.2551 -0.3337
 3909SOL    HW123189   0.878   3.916   0.175 -0.4170  0.5175  1.1597
 3909SOL    HW223190   1.000   4.010   0.188  0.0125 -0.6418  0.0236
 3910SOL     OW23191   1.940   0.768   9.620  0.2548  0.7411  0.2280
 3910SOL    HW123192   1.858   0.817   9.626  0.9286  1.9576 -0.5020
 3910SOL    HW223193   1.940   0.746   9.527 -0.0491  0.8588  0.1984
 3911SOL     OW23194   4.249   3.479   4.336  0.3365  0.2914  0.0009
 3911SOL    HW123195   4.295   3.452   4.256 -0.1845 -0.0036 -0.2020
 3911SOL    HW223196   4.160   3.451   4.314  0.4344  0.3206 -0.4384
 3912SOL     OW23197   2.043   3.801   4.620  0.0878  0.1050 -0.1257
 3912SOL    HW123198   2.061   3.895   4.614  0.9044 -0.1544 -1.5822
 3912SOL    HW223199   1.948   3.805   4.631  0.2616  1.0399  1.0201
 3913SOL     OW23200   0.247   2.914   7.797  0.3412 -0.0195 -0.4690
 3913SOL    HW123201   0.173   2.916   7.737 -0.2340 -0.1990  0.2312
 3913SOL    HW223202   0.245   3.007   7.821  2.6234 -0.5436  1.7963
 3914SOL     OW23203   3.254   2.015   2.893 -0.9823  0.3844 -0.0875
 3914SOL    HW123204   3.261   2.058   2.978  1.1969 -1.8363  0.8286
 3914SOL    HW223205   3.279   1.928   2.924 -0.0829  0.0213 -1.8141
 3915SOL     OW23206   1.468   2.413   3.613  0.4630 -0.1530 -0.2669
 3915SOL    HW123207   1.409   2.480   3.648  0.3448  0.4375 -1.5951
 3915SOL    HW223208   1.416   2.391   3.536 -1.6011 -2.0399  1.6630
 3916SOL     OW23209   4.077   4.682  17.465 -0.1409  0.0933 -0.0321
 3916SOL    HW123210   4.136   0.003  17.406 -1.8329 -0.2238 -1.9574
 3916SOL    HW223211   4.131   4.620  17.514  0.3303 -0.6243 -1.4596
 3917SOL     OW23212   4.096   2.244   7.871  0.0192 -0.0288  0.0958
 3917SOL    HW123213   4.183   2.220   7.903 -1.4634 -1.8241  2.7484
 3917SOL    HW223214   4.041   2.169   7.893  0.6844  0.3838  3.1168
 3918SOL     OW23215   3.335   3.986   3.459 -0.2478  0.3947  0.2234
 3918SOL    HW123216   3.413   3.931   3.457 -1.2949 -1.1032  0.2936
 3918SOL    HW223217   3.362   4.056   3.400  2.6474 -1.3844 -0.5458
 3919SOL     OW23218   3.002   2.697   7.692  0.5939 -0.4800 -0.6283
 3919SOL    HW123219   2.923   2.686   7.746  1.8485 -1.0884  1.1001
 3919SOL    HW223220   3.009   2.621   7.635  0.6646 -2.1702  1.6401
 3920SOL     OW23221   1.730   3.979   2.400  0.5609 -0.2932  0.0806
 3920SOL    HW123222   1.813   3.945   2.367  0.4057 -1.7598  1.1676
 3920SOL    HW223223   1.709   3.917   2.470  2.4149 -0.9162  0.0914
 3921SOL     OW23224   1.519   3.812   4.269 -0.2905  0.0221 -0.4026
 3921SOL    HW123225   1.491   3.806   4.177  2.1351  1.2014 -1.2080
 3921SOL    HW223226   1.523   3.906   4.283  2.8703 -0.3224  0.9624
 3922SOL     OW23227   2.470   0.541   8.392  0.1581  0.0051  0.2394
 3922SOL    HW123228   2.472   0.598   8.469 -0.4004  0.6491 -0.2196
 3922SOL    HW223229   2.510   0.461   8.426  0.3372  0.0196  0.0637
 3923SOL     OW23230   3.523   4.160  15.282  0.5341  0.1599 -0.2206
 3923SOL    HW123231   3.547   4.221  15.213  1.3710 -1.4109 -1.3013
 3923SOL    HW223232   3.527   4.078  15.233 -0.4395  1.1280 -1.9312
 3924SOL     OW23233   1.292   2.314   8.813  0.0714  0.3126  0.0745
 3924SOL    HW123234   1.198   2.316   8.797  0.3192  0.9668 -1.2738
 3924SOL    HW223235   1.319   2.272   8.732 -0.1833 -1.5215  0.9385
 3925SOL     OW23236   2.124   2.937   8.777  0.6472 -0.4742 -0.6736
 3925SOL    HW123237   2.097   3.014   8.826 -1.2967 -2.2511  1.0727
 3925SOL    HW223238   2.096   2.873   8.843 -0.3335 -2.6898 -3.2219
 3926SOL     OW23239   4.520   3.001   4.391  0.0557 -0.2461 -0.2671
 3926SOL    HW123240   4.434   3.021   4.427  0.9072  1.5583  0.7612
 3926SOL    HW223241   4.564   2.965   4.467 -1.2689  2.8469  1.9452
 3927SOL     OW23242   1.499   1.832  14.795 -0.2125  0.1733 -0.2008
 3927SOL    HW123243   1.538   1.750  14.766 -3.7994 -1.7388  0.3776
 3927SOL    HW223244   1.407   1.815  14.776 -0.3697  1.2308 -0.3640
 3928SOL     OW23245   0.120   1.041   4.818 -0.0335  0.7439 -0.2383
 3928SOL    HW123246   0.205   1.018   4.855 -0.2385  0.8300  0.2828
 3928SOL    HW223247   0.128   0.994   4.735  0.7014  0.2507  0.1123
 3929SOL     OW23248   1.896   0.981   7.627  0.2595 -0.2295 -0.1823
 3929SOL    HW123249   1.809   0.943   7.614  0.7565 -0.7691 -1.9657
 3929SOL    HW223250   1.876   1.066   7.665 -0.5654  0.8491 -2.9760
 3930SOL     OW23251   2.781   4.559  15.277  0.3986 -0.1894  0.1146
 3930SOL    HW123252   2.746   4.552  15.365 -0.2444  2.4061  0.0663
 3930SOL    HW223253   2.776   4.468  15.248 -0.2846  0.8117 -2.8887
 3931SOL     OW23254   0.376   0.611   5.828 -0.3525  0.3519 -0.0873
 3931SOL    HW123255   0.336   0.691   5.861  1.4169  0.4814  1.7703
 3931SOL    HW223256   0.301   0.551   5.820  0.9969 -1.2995 -0.3931
 3932SOL     OW23257   2.825   0.147   5.135  0.5805 -0.3984 -0.3058
 3932SOL    HW123258   2.757   0.080   5.142 -0.9422  1.1902  0.2540
 3932SOL    HW223259   2.774   0.229   5.135  0.8023 -0.2637 -0.6843
 3933SOL     OW23260   2.911   3.321  11.707 -0.2784 -0.3571 -0.3449
 3933SOL    HW123261   2.974   3.392  11.718 -0.2831 -1.0463  4.1649
 3933SOL    HW223262   2.958   3.238  11.715  0.6124  0.0022 -1.9042
 3934SOL     OW23263   1.539   4.272   8.643  0.3788 -0.0908 -0.0736
 3934SOL    HW123264   1.512   4.230   8.725  4.2798  0.0940  1.3269
 3934SOL    HW223265   1.466   4.269   8.582 -0.3716 -1.3695  0.8842
 3935SOL     OW23266   4.113   2.884   2.810  0.0797  0.3475  0.2874
 3935SOL    HW123267   4.178   2.879   2.741 -0.7807 -1.3028 -0.4222
 3935SOL    HW223268   4.042   2.908   2.751 -0.8249 -3.1135 -0.0694
 3936SOL     OW23269   0.335   0.139   2.707 -0.2668 -0.2598 -0.3538
 3936SOL    HW123270   0.285   0.066   2.743 -3.1509  1.9123  0.0219
 3936SOL    HW223271   0.351   0.107   2.618 -0.9500 -1.2483 -0.1215
 3937SOL     OW23272   2.957   0.757   6.051  0.1353  0.5185  0.1144
 3937SOL    HW123273   2.939   0.748   5.957 -2.2329  1.5925  0.4651
 3937SOL    HW223274   2.980   0.849   6.061  2.1598  0.1863 -1.4879
 3938SOL     OW23275   4.012   1.680  10.832  0.2819  0.2009  0.4336
 3938SOL    HW123276   3.939   1.727  10.873 -0.0657 -1.1268  1.3311
 3938SOL    HW223277   3.973   1.659  10.747 -0.1116 -3.0482  1.4035
 3939SOL     OW23278   1.992   0.175   7.138  0.1836 -0.3041 -0.1875
 3939SOL    HW123279   2.067   0.186   7.080 -0.6145  1.6165 -0.8877
 3939SOL    HW223280   2.033   0.166   7.223 -2.8595  1.5949  1.5140
 3940SOL     OW23281   3.089   4.721  11.710 -0.1162 -0.0035 -0.1638
 3940SOL    HW123282   3.079   0.013  11.616 -1.0000  1.5195  0.2018
 3940SOL    HW223283   3.006   0.024  11.747  0.4992  0.7982  0.6275
 3941SOL     OW23284   2.741   3.024   9.864 -0.5753 -0.2373  0.5080
 3941SOL    HW123285   2.683   3.081   9.814  0.2357  1.3330  1.3383
 3941SOL    HW223286   2.718   2.936   9.835  0.6350 -1.1646  2.3635
 3942SOL     OW23287   3.622   1.240  14.123  0.2912  0.7833  0.0406
 3942SOL    HW123288   3.572   1.318  14.101  1.4851  2.4154  3.0585
 3942SOL    HW223289   3.669   1.277  14.198  0.2923 -0.7502  0.8033
 3943SOL     OW23290   2.569   0.794  12.719  0.5487 -0.3367 -0.1720
 3943SOL    HW123291   2.596   0.722  12.663 -0.0545 -1.0865  0.5053
 3943SOL    HW223292   2.514   0.829  12.649 -0.4842  1.8842  1.7525
 3944SOL     OW23293   4.536   3.499  10.994  0.4120 -0.7524 -0.4234
 3944SOL    HW123294   4.606   3.553  11.030 -1.7455 -0.0960  2.8188
 3944SOL    HW223295   4.576   3.415  11.013 -0.7592 -1.0734  0.6736
 3945SOL     OW23296   3.272   1.438   2.319 -0.2614 -0.1838  0.0134
 3945SOL    HW123297   3.244   1.427   2.410 -2.5089  0.3739 -0.6052
 3945SOL    HW223298   3.198   1.485   2.280 -1.1752 -0.3274  1.6126
 3946SOL     OW23299   1.800   0.456   4.884 -0.2559  0.1179  0.2552
 3946SOL    HW123300   1.748   0.420   4.956  0.4507  3.5824  2.5037
 3946SOL    HW223301   1.756   0.539   4.866 -2.9855 -1.7033 -1.3872
 3947SOL     OW23302   4.368   2.484   4.887 -0.5466 -0.2124  0.2998
 3947SOL    HW123303   4.329   2.460   4.803  2.8221 -2.6415 -0.5837
 3947SOL    HW223304   4.441   2.536   4.851 -1.3739  2.3338  2.3435
 3948SOL     OW23305   2.995   2.937   9.221  0.2918 -0.5044 -0.0488
 3948SOL    HW123306   2.918   2.993   9.219  1.8600  1.7419  2.0264
 3948SOL    HW223307   2.966   2.875   9.154 -1.8551 -1.6483  1.9538
 3949SOL     OW23308   1.900   0.309  12.932 -0.0744  1.0312 -0.5430
 3949SOL    HW123309   1.849   0.388  12.952 -0.7551  0.5276 -0.2825
 3949SOL    HW223310   1.853   0.236  12.972 -1.1760  1.2303 -1.4556
 3950SOL     OW23311   0.483   1.220   4.999 -0.0438 -0.3722 -0.3143
 3950SOL    HW123312   0.457   1.164   4.925  1.0532 -0.3306 -0.7301
 3950SOL    HW223313   0.430   1.179   5.067 -0.3390  0.0422 -0.2961
 3951SOL     OW23314   0.582   0.214  15.136  0.2224  0.2566 -0.0931
 3951SOL    HW123315   0.498   0.248  15.164  1.4030  0.5039  3.0830
 3951SOL    HW223316   0.619   0.181  15.218 -1.4335 -0.4121  0.3693
 3952SOL     OW23317   3.510   2.090   4.516  0.9973 -0.3018 -0.2826
 3952SOL    HW123318   3.461   2.142   4.453 -0.4772 -1.0513  0.2470
 3952SOL    HW223319   3.588   2.145   4.519  0.4077  0.5815 -1.1395
 3953SOL     OW23320   4.110   0.992   7.045  0.2649 -0.0716  0.0492
 3953SOL    HW123321   4.058   1.039   7.110 -0.1035  1.9577 -1.7220
 3953SOL    HW223322   4.100   0.902   7.074  3.2581  0.0996  1.6012
 3954SOL     OW23323   0.642   2.003   9.902  0.1604  0.6283 -0.2429
 3954SOL    HW123324   0.664   1.924   9.951  0.3937  1.4016  0.9114
 3954SOL    HW223325   0.560   2.033   9.941 -0.6055 -0.2291 -1.2198
 3955SOL     OW23326   2.795   4.573   0.486  0.1121  0.6862 -0.2260
 3955SOL    HW123327   2.766   4.654   0.527  3.2094  0.2075  2.8845
 3955SOL    HW223328   2.801   4.514   0.561  2.0179 -0.6668 -1.4530
 3956SOL     OW23329   2.947   4.702   8.887 -0.2530  0.4009  0.8047
 3956SOL    HW123330   2.903   4.685   8.970  1.6950  1.4048  2.0348
 3956SOL    HW223331   2.965   0.070   8.896 -0.6133  0.5006  0.5202
 3957SOL     OW23332   0.557   4.405  15.233 -0.3890  0.1453 -0.2682
 3957SOL    HW123333   0.622   4.336  15.251 -0.7191 -0.2488 -0.5837
 3957SOL    HW223334   0.590   4.475  15.289 -2.3292  0.5366  0.3656
 3958SOL     OW23335   3.492   1.044   5.757  0.0997  0.1010  0.8170
 3958SOL    HW123336   3.399   1.065   5.749 -0.0800 -0.5446  1.1906
 3958SOL    HW223337   3.490   0.959   5.712  0.5762  0.3112  0.4008
 3959SOL     OW23338   3.045   3.545   5.273 -0.2330  0.1095 -0.2313
 3959SOL    HW123339   3.083   3.588   5.196  1.8037 -2.3660 -0.6446
 3959SOL    HW223340   2.956   3.565   5.246  0.2822  1.5468 -0.8336
 3960SOL     OW23341   0.963   2.769   7.401  0.3997 -0.1205  0.0607
 3960SOL    HW123342   1.058   2.765   7.396  0.3631  0.2139 -0.7390
 3960SOL    HW223343   0.953   2.853   7.446  1.5512  0.6316 -1.0991
 3961SOL     OW23344   3.626   2.058   8.429  0.0001 -0.4218  0.3146
 3961SOL    HW123345   3.698   1.998   8.408 -1.1443 -0.8483 -2.3831
 3961SOL    HW223346   3.639   2.074   8.523  2.1027 -0.9932  0.1220
 3962SOL     OW23347   4.309   4.153  10.076 -0.0817 -0.7777 -0.1588
 3962SOL    HW123348   4.370   4.224  10.096 -0.5290 -0.0455 -1.3835
 3962SOL    HW223349   4.304   4.116  10.165 -0.8535 -1.9689 -0.6940
 3963SOL     OW23350   2.730   2.751   6.980  0.1174 -0.1788 -0.0508
 3963SOL    HW123351   2.700   2.823   7.035 -0.5882  0.3801 -1.1727
 3963SOL    HW223352   2.808   2.733   7.033 -1.7810 -0.7899  2.4929
 3964SOL     OW23353   3.753   2.581  10.741  0.1882  0.1866  0.3014
 3964SOL    HW123354   3.770   2.619  10.654 -1.9565 -1.9929 -1.0492
 3964SOL    HW223355   3.658   2.578  10.746  0.0500  0.0567 -2.3812
 3965SOL     OW23356   1.587   1.795  10.161  0.6711 -0.7669 -0.2149
 3965SOL    HW123357   1.637   1.753  10.231  0.5169  0.2230  0.4877
 3965SOL    HW223358   1.534   1.720  10.136  1.4375 -1.4201  0.1239
 3966SOL     OW23359   2.983   0.608   6.485 -0.7395 -0.3825 -0.1540
 3966SOL    HW123360   3.040   0.622   6.561 -0.9525  2.4390 -0.5112
 3966SOL    HW223361   3.013   0.679   6.428  1.9143 -0.2345  1.3951
 3967SOL     OW23362   0.509   2.800   1.918 -0.2546  0.2881 -0.2330
 3967SOL    HW123363   0.548   2.723   1.961  0.5309  0.6387 -0.3144
 3967SOL    HW223364   0.452   2.755   1.856  0.1115 -1.2736  0.5716
 3968SOL     OW23365   0.589   4.326  13.948 -0.0202 -0.0537  0.5592
 3968SOL    HW123366   0.563   4.418  13.941  1.8645  0.4117 -0.3838
 3968SOL    HW223367   0.632   4.312  13.864 -2.3524  1.4049 -0.8780
 3969SOL     OW23368   1.667   4.401   9.422  0.4119 -0.1360  0.0431
 3969SOL    HW123369   1.683   4.347   9.500 -2.8295  0.5920  1.2067
 3969SOL    HW223370   1.744   4.458   9.424  0.3176  0.0170 -0.6543
 3970SOL     OW23371   2.095   4.390   6.381 -0.5824  0.0247  0.6037
 3970SOL    HW123372   2.164   4.333   6.347  1.0836  2.5785 -0.3097
 3970SOL    HW223373   2.125   4.408   6.470  1.0120 -0.0796  0.0835
 3971SOL     OW23374   2.523   2.253   6.576 -0.7490  0.3265 -0.3480
 3971SOL    HW123375   2.577   2.180   6.606 -0.1454  0.3003 -1.4933
 3971SOL    HW223376   2.483   2.276   6.659 -0.2217 -1.4482  0.4035
 3972SOL     OW23377   1.936   3.526   4.058  0.3921  0.1815  0.0318
 3972SOL    HW123378   1.996   3.452   4.045 -1.8574 -1.7116  0.2674
 3972SOL    HW223379   1.864   3.510   3.998  0.2080 -2.0252  0.8129
 3973SOL     OW23380   4.512   2.389  12.279  0.3117 -0.2689  0.4646
 3973SOL    HW123381   4.582   2.339  12.321  0.1635  0.2096  1.2777
 3973SOL    HW223382   4.451   2.315  12.274  1.0979 -0.9971  1.5410
 3974SOL     OW23383   4.653   2.756   5.061 -0.3670 -0.0058 -0.8871
 3974SOL    HW123384   4.723   2.692   5.046 -0.1058  0.8443 -3.2395
 3974SOL    HW223385   4.571   2.706   5.057 -1.4077  1.5130  1.1863
 3975SOL     OW23386   2.296   1.855   8.344 -0.6682  0.3922 -0.2546
 3975SOL    HW123387   2.279   1.860   8.438  0.1629  2.5269 -0.2225
 3975SOL    HW223388   2.210   1.834   8.309 -0.4833 -0.2482 -0.3432
 3976SOL     OW23389   0.413   4.437  16.307  0.3477 -0.6723  0.4244
 3976SOL    HW123390   0.375   4.464  16.390 -0.2742 -0.0671 -0.0526
 3976SOL    HW223391   0.346   4.378  16.273  0.3084 -0.6277  0.4240
 3977SOL     OW23392   4.173   3.206   7.285  0.4420 -0.0605 -0.3372
 3977SOL    HW123393   4.081   3.186   7.303  0.0286  0.9952 -1.2942
 3977SOL    HW223394   4.223   3.178   7.362  0.4507 -0.2545 -0.4147
 3978SOL     OW23395   4.081   1.443   1.448 -0.4077 -0.3147 -0.2781
 3978SOL    HW123396   4.108   1.436   1.357 -0.0798  1.5116 -0.3279
 3978SOL    HW223397   3.986   1.442   1.443 -0.3250  1.9643 -2.1604
 3979SOL     OW23398   4.671   2.134   5.717  0.3375  0.4883  0.3214
 3979SOL    HW123399   0.001   2.197   5.763  2.1820  0.2305 -1.5558
 3979SOL    HW223400   4.651   2.081   5.795  1.1739  0.0090  0.2144
 3980SOL     OW23401   3.316   0.816   9.361 -0.0069 -0.0219  0.3628
 3980SOL    HW123402   3.262   0.895   9.363 -0.3794 -0.3095  1.6326
 3980SOL    HW223403   3.259   0.753   9.406 -0.0868 -1.0125 -1.1384
 3981SOL     OW23404   3.669   2.716   6.083 -0.0475 -0.3938 -0.0747
 3981SOL    HW123405   3.607   2.780   6.050 -1.5719 -1.4840  0.6815
 3981SOL    HW223406   3.687   2.747   6.172 -2.4497 -0.8663  0.5800
 3982SOL     OW23407   0.404   3.591  13.529  0.5020 -0.5441 -0.2255
 3982SOL    HW123408   0.491   3.592  13.568  0.7815 -1.4533 -0.8426
 3982SOL    HW223409   0.408   3.523  13.462  0.4760  0.2211 -1.0050
 3983SOL     OW23410   1.072   4.209   5.495  0.7328 -0.6785 -0.1082
 3983SOL    HW123411   1.147   4.149   5.502  2.2114  1.4919  2.6563
 3983SOL    HW223412   1.110   4.295   5.509  0.3808 -1.0273  2.9014
 3984SOL     OW23413   3.107   1.812   7.273 -0.4444 -0.4049 -0.2806
 3984SOL    HW123414   3.106   1.760   7.354  0.1117  1.4567  0.9255
 3984SOL    HW223415   3.171   1.765   7.220  0.9770  1.7632 -0.4837
 3985SOL     OW23416   3.312   3.239   6.007  0.0263  0.4449 -0.5808
 3985SOL    HW123417   3.305   3.286   6.090  2.2739  1.4676 -0.9632
 3985SOL    HW223418   3.236   3.271   5.958 -0.0753  1.5441  0.2977
 3986SOL     OW23419   3.844   4.584   0.609  0.2263  0.0805  0.2401
 3986SOL    HW123420   3.863   4.491   0.616  1.9975  0.3990 -0.3905
 3986SOL    HW223421   3.832   4.596   0.515 -2.9316 -2.4440  0.3134
 3987SOL     OW23422   0.770   4.296  14.993 -0.1987  0.1283  0.1632
 3987SOL    HW123423   0.839   4.277  14.930  0.3733  0.4877  0.6939
 3987SOL    HW223424   0.804   4.244  15.066 -2.9978 -1.2403  0.5142
 3988SOL     OW23425   2.431   4.586   7.906  0.3664 -0.1994  0.4079
 3988SOL    HW123426   2.453   4.667   7.952 -1.4329  0.7139 -0.3317
 3988SOL    HW223427   2.337   4.583   7.925  0.3254 -0.0816  0.2190
 3989SOL     OW23428   1.749   3.493  15.909 -0.0488  0.7865 -0.1124
 3989SOL    HW123429   1.824   3.437  15.927 -0.1081  0.5323 -0.6485
 3989SOL    HW223430   1.771   3.518  15.819  2.0969 -0.3184  0.1160
 3990SOL     OW23431   3.801   2.694   9.606 -0.2208  0.0138  0.5750
 3990SOL    HW123432   3.865   2.707   9.675  1.2299  0.5201 -0.8616
 3990SOL    HW223433   3.735   2.758   9.631  0.0722  0.5453 -0.0148
 3991SOL     OW23434   4.316   4.033  15.860  0.3533  0.4560  0.1691
 3991SOL    HW123435   4.313   3.998  15.950  0.1689 -0.1473 -0.0719
 3991SOL    HW223436   4.237   3.991  15.827 -0.3964  2.0722 -0.0412
 3992SOL     OW23437   2.777   3.931  11.980 -0.3071  0.2476 -0.5124
 3992SOL    HW123438   2.780   3.839  11.953 -0.4826  1.2745 -4.0144
 3992SOL    HW223439   2.809   3.981  11.905  0.4659 -0.5520 -0.7191
 3993SOL     OW23440   3.474   3.404   1.722  0.3655 -0.2409  0.1285
 3993SOL    HW123441   3.458   3.438   1.810  1.0011 -0.4750  0.3369
 3993SOL    HW223442   3.383   3.395   1.694  1.4133 -1.2610 -2.9384
 3994SOL     OW23443   1.540   2.984   7.384  0.1862 -0.4183 -0.4321
 3994SOL    HW123444   1.575   2.996   7.296 -0.2518  0.3321 -0.5024
 3994SOL    HW223445   1.471   3.051   7.391  3.0609  2.4451  0.4651
 3995SOL     OW23446   2.629   2.214   9.964  0.2094 -0.3000 -0.0518
 3995SOL    HW123447   2.605   2.304   9.947  1.5820  0.1513  0.3338
 3995SOL    HW223448   2.549   2.183  10.006 -0.6665  0.1365 -1.4148
 3996SOL     OW23449   4.051   1.990  15.481  0.2116  0.2800  0.5114
 3996SOL    HW123450   3.956   1.991  15.498  0.1413  0.4865  0.0895
 3996SOL    HW223451   4.066   1.898  15.505 -2.1417 -0.2760 -0.1403
 3997SOL     OW23452   2.455   2.795   0.675 -0.3274 -0.0340 -0.2366
 3997SOL    HW123453   2.520   2.848   0.629  0.8894 -0.7435  0.6611
 3997SOL    HW223454   2.394   2.854   0.718 -2.2286 -1.7679 -0.5595
 3998SOL     OW23455   3.230   1.566   8.931 -0.4359 -0.3277 -0.5388
 3998SOL    HW123456   3.248   1.550   8.838 -0.3424 -1.7346 -0.2829
 3998SOL    HW223457   3.221   1.661   8.942  0.7923 -0.2263 -0.3915
 3999SOL     OW23458   2.525   0.978   1.675  0.5666 -0.1284 -0.2061
 3999SOL    HW123459   2.442   0.969   1.721  0.4311 -5.6533 -1.5448
 3999SOL    HW223460   2.529   0.890   1.636  0.2314 -1.1478  2.0582
 4000SOL     OW23461   1.175   2.069  17.495  0.3853 -0.1403 -0.7240
 4000SOL    HW123462   1.187   2.053  17.589 -4.2874 -0.8551 -0.2538
 4000SOL    HW223463   1.185   2.164  17.487  1.5655 -0.3649 -1.8548
 4001SOL     OW23464   1.631   1.537   3.728  0.1571 -0.1965  0.0893
 4001SOL    HW123465   1.619   1.592   3.806 -0.2035  0.3710 -0.3680
 4001SOL    HW223466   1.608   1.595   3.656  2.5428 -0.9971 -1.3090
 4002SOL     OW23467   0.147   4.600  16.111  0.0774  0.0282 -0.3366
 4002SOL    HW123468   0.150   4.586  16.205  3.3024  0.9742 -0.2924
 4002SOL    HW223469   0.193   4.518  16.094 -0.0367  0.1158 -1.0920
 4003SOL     OW23470   3.039   4.660  15.650 -0.1789  0.0141 -0.2366
 4003SOL    HW123471   3.055   4.710  15.570  0.3889 -0.4188 -0.3947
 4003SOL    HW223472   3.128   4.652  15.685  0.1777 -0.8320 -1.3396
 4004SOL     OW23473   2.137   4.643  16.899  0.4018 -0.3018  0.0578
 4004SOL    HW123474   2.191   4.698  16.842  1.2639 -1.7586 -0.5187
 4004SOL    HW223475   2.157   4.559  16.858  2.1182 -0.4241  1.1848
 4005SOL     OW23476   1.433   2.534   4.016 -0.6294 -0.4148 -0.7177
 4005SOL    HW123477   1.487   2.463   3.979  0.2056 -0.2932  0.2730
 4005SOL    HW223478   1.367   2.492   4.072  2.1281 -2.3708  1.0561
 4006SOL     OW23479   1.045   2.978   7.583 -0.1966  0.0597  0.4443
 4006SOL    HW123480   1.074   3.069   7.592 -1.3211  0.1468  3.2587
 4006SOL    HW223481   0.950   2.980   7.578 -0.1655  2.7367  1.1815
 4007SOL     OW23482   4.541   1.547   8.232 -0.0672  0.5948  0.2050
 4007SOL    HW123483   4.572   1.582   8.316  0.3803 -0.0070  0.2892
 4007SOL    HW223484   4.586   1.602   8.168 -0.1725  2.2049  1.4897
 4008SOL     OW23485   2.178   0.519   6.803  0.1591  0.2345 -0.2983
 4008SOL    HW123486   2.105   0.459   6.785 -0.7929  0.7970  1.6838
 4008SOL    HW223487   2.132   0.576   6.865  2.2055  2.7288 -1.0798
 4009SOL     OW23488   3.098   0.301   6.022 -0.1439  0.5579  0.3695
 4009SOL    HW123489   3.156   0.328   5.950  0.3977  1.4049  1.1292
 4009SOL    HW223490   3.151   0.336   6.093  1.4600 -0.0936 -0.4918
 4010SOL     OW23491   0.564   1.555   5.028  0.2697  0.3812  0.3590
 4010SOL    HW123492   0.646   1.587   5.067  1.4182 -2.0315 -0.0584
 4010SOL    HW223493   0.504   1.619   5.065 -0.8027  0.4740 -1.5874
 4011SOL     OW23494   3.587   2.225  16.782  0.8404 -0.5783  0.0434
 4011SOL    HW123495   3.649   2.200  16.713 -1.3597  1.7903 -2.8209
 4011SOL    HW223496   3.560   2.311  16.748  1.0424 -0.3655  0.4280
 4012SOL     OW23497   2.565   3.033   0.117 -0.4077  0.4037 -0.1449
 4012SOL    HW123498   2.556   3.115   0.166  0.4351  0.5543 -0.2403
 4012SOL    HW223499   2.661   3.034   0.108 -0.3689  0.4287  0.2654
 4013SOL     OW23500   1.695   3.949   6.274  0.2229  0.1850 -0.1050
 4013SOL    HW123501   1.655   4.019   6.222  2.7550  0.1836 -2.0750
 4013SOL    HW223502   1.787   3.973   6.262  0.5425 -1.2071 -0.5098
 4014SOL     OW23503   2.640   4.070  12.667  0.9682 -0.6340  0.4358
 4014SOL    HW123504   2.717   4.121  12.691 -1.3515  2.4551  1.3079
 4014SOL    HW223505   2.591   4.143  12.629 -0.0240 -1.0533  0.9022
 4015SOL     OW23506   0.686   3.891   7.802  0.4129 -0.2129 -0.0335
 4015SOL    HW123507   0.776   3.873   7.830  0.3751  0.9314  0.8236
 4015SOL    HW223508   0.638   3.896   7.884  0.1715 -0.7742 -0.1399
 4016SOL     OW23509   3.863   0.409   5.447  0.1761  0.2074  0.2087
 4016SOL    HW123510   3.855   0.356   5.368  1.1411  2.8039 -1.6396
 4016SOL    HW223511   3.865   0.337   5.510 -1.0611  0.3811  0.4331
 4017SOL     OW23512   3.632   4.141  16.358  0.2470  0.2715 -0.7000
 4017SOL    HW123513   3.666   4.164  16.272  0.4379  0.1233 -0.6666
 4017SOL    HW223514   3.655   4.048  16.365  1.6638  0.6776  0.1938
 4018SOL     OW23515   3.951   2.878   2.061  0.1019 -0.4866 -0.0768
 4018SOL    HW123516   3.942   2.967   2.026  0.3320 -0.5330 -0.2528
 4018SOL    HW223517   4.004   2.844   1.989  2.1210  0.1891  1.0853
 4019SOL     OW23518   3.117   1.755   1.976  0.3428  0.0856  0.4039
 4019SOL    HW123519   3.151   1.672   2.008  0.3303 -0.6439 -1.4758
 4019SOL    HW223520   3.023   1.742   1.990  0.2022 -0.6384 -1.1472
 4020SOL     OW23521   0.221   0.346   6.205  0.6857 -0.3387 -0.5058
 4020SOL    HW123522   0.200   0.292   6.128 -0.8136 -0.4709 -0.0189
 4020SOL    HW223523   0.316   0.344   6.200  0.6658  1.3195 -1.5218
 4021SOL     OW23524   0.626   1.435   3.865 -0.1065 -0.0230  0.1517
 4021SOL    HW123525   0.650   1.434   3.772  2.6121 -0.1930  0.8507
 4021SOL    HW223526   0.700   1.397   3.912  0.5252 -0.1303 -0.9350
 4022SOL     OW23527   1.737   3.332  14.893  0.2369  0.2013 -0.0294
 4022SOL    HW123528   1.654   3.337  14.940 -0.0734  0.1089 -0.5724
 4022SOL    HW223529   1.801   3.367  14.955  0.8385 -0.0864 -0.4777
 4023SOL     OW23530   0.080   3.461   4.416 -0.3742 -0.2468  0.3611
 4023SOL    HW123531   0.102   3.372   4.388 -0.3465 -0.6989  1.8196
 4023SOL    HW223532   0.079   3.459   4.511 -0.6127  1.1524  0.3926
 4024SOL     OW23533   3.458   4.290   0.491  0.3974  0.1372  0.1767
 4024SOL    HW123534   3.483   4.198   0.506  0.7716  0.5100  1.7702
 4024SOL    HW223535   3.368   4.275   0.462  0.2932 -0.1924  0.6617
 4025SOL     OW23536   1.319   0.153   8.179  0.7464 -0.0685  0.1062
 4025SOL    HW123537   1.327   0.247   8.193  0.3997  0.1793 -1.4129
 4025SOL    HW223538   1.230   0.147   8.214  1.2616 -0.6559  1.3292
 4026SOL     OW23539   0.760   3.466   9.524  0.3076  0.0252 -0.6339
 4026SOL    HW123540   0.757   3.370   9.515 -2.7262  0.1172 -0.7164
 4026SOL    HW223541   0.844   3.494   9.489  0.4874 -0.7505 -0.8212
 4027SOL     OW23542   2.994   3.121  10.935  0.4295 -0.6847 -0.0965
 4027SOL    HW123543   2.952   3.089  10.855  0.1928 -1.1017  0.1867
 4027SOL    HW223544   3.002   3.035  10.977 -1.5764 -0.5267  0.6267
 4028SOL     OW23545   2.041   2.003   4.260 -0.0654 -0.0341 -0.7574
 4028SOL    HW123546   2.113   2.028   4.202 -1.1476  2.8578 -0.8562
 4028SOL    HW223547   1.981   2.077   4.252  0.4668  0.2756 -1.8521
 4029SOL     OW23548   0.232   1.595  12.149  0.4061  0.1574 -0.4234
 4029SOL    HW123549   0.169   1.537  12.105 -2.3318 -0.8293  4.8031
 4029SOL    HW223550   0.283   1.537  12.205  0.8839  0.6173 -0.3794
 4030SOL     OW23551   3.592   4.249   3.279 -0.2321 -0.0432 -0.2287
 4030SOL    HW123552   3.641   4.190   3.336 -1.3168 -0.8284 -0.0942
 4030SOL    HW223553   3.575   4.187   3.208 -0.7783  1.4631 -1.4132
 4031SOL     OW23554   2.156   2.001  11.255  0.2692 -0.0314 -0.0461
 4031SOL    HW123555   2.207   1.926  11.224  0.6174  0.3907 -0.5154
 4031SOL    HW223556   2.108   2.028  11.177  1.9521 -0.6431 -1.3127
 4032SOL     OW23557   2.196   3.714   3.586 -0.1590 -0.2982  0.5760
 4032SOL    HW123558   2.244   3.654   3.529  1.4620  0.7206  0.8631
 4032SOL    HW223559   2.239   3.695   3.670  0.3181 -0.6410  0.2539
 4033SOL     OW23560   1.608   0.244  14.234 -0.4062  0.0409  0.4641
 4033SOL    HW123561   1.624   0.170  14.176 -0.7169 -0.1822  0.6611
 4033SOL    HW223562   1.520   0.222  14.263 -0.6422  3.0386  2.0092
 4034SOL     OW23563   1.368   1.675  13.497 -0.3432 -0.4315 -0.0813
 4034SOL    HW123564   1.345   1.727  13.574  1.2562 -0.6562  0.5432
 4034SOL    HW223565   1.307   1.603  13.515 -0.3834  0.4423  3.2716
 4035SOL     OW23566   2.997   4.484   6.006 -0.0310 -0.0277 -0.3447
 4035SOL    HW123567   2.951   4.537   5.941 -2.0036  1.0792  1.9119
 4035SOL    HW223568   2.934   4.510   6.074  1.4747  2.7176  0.0027
 4036SOL     OW23569   1.596   2.176   3.603  0.5951  0.0615 -0.0177
 4036SOL    HW123570   1.613   2.174   3.508  0.7467 -2.3909  0.0512
 4036SOL    HW223571   1.545   2.257   3.600  0.2854 -0.0482  2.7815
 4037SOL     OW23572   1.364   3.839   1.640  0.3260 -0.6858 -0.2071
 4037SOL    HW123573   1.407   3.788   1.708  0.4785  0.7008  0.7397
 4037SOL    HW223574   1.393   3.793   1.561 -0.3540 -0.3730 -0.6359
 4038SOL     OW23575   2.260   1.145   8.702 -0.2790 -0.3078  0.3936
 4038SOL    HW123576   2.260   1.074   8.766  0.3316 -0.7609 -0.1033
 4038SOL    HW223577   2.305   1.101   8.629 -1.4389 -0.1145 -0.4367
 4039SOL     OW23578   2.707   1.001   4.675  0.4401  0.0180  0.5025
 4039SOL    HW123579   2.687   0.992   4.768 -1.2121 -0.3114  0.1088
 4039SOL    HW223580   2.632   1.053   4.646 -0.1571 -1.4183 -0.5378
 4040SOL     OW23581   0.084   2.467  15.621 -0.0932 -0.0349 -0.3469
 4040SOL    HW123582   0.132   2.428  15.694  0.1662 -0.1910 -0.6003
 4040SOL    HW223583   4.716   2.454  15.634 -0.6018  2.3189 -1.6291
 4041SOL     OW23584   1.106   3.825   3.467 -0.4301 -0.4723  0.4421
 4041SOL    HW123585   1.190   3.785   3.489 -0.0455  0.5306  0.8191
 4041SOL    HW223586   1.138   3.907   3.430 -0.7727 -0.5190  0.0368
 4042SOL     OW23587   3.568   2.564   6.680 -0.7766  0.1003  0.1297
 4042SOL    HW123588   3.523   2.480   6.688 -0.9513  0.0554 -1.2541
 4042SOL    HW223589   3.571   2.577   6.585 -2.4102 -1.1220 -0.0863
 4043SOL     OW23590   2.994   1.423   7.127  0.0404 -0.5447 -0.7966
 4043SOL    HW123591   2.972   1.330   7.124  0.7506 -0.7894  1.8311
 4043SOL    HW223592   3.069   1.420   7.185 -1.0401  1.6194  0.7246
 4044SOL     OW23593   1.164   4.569   4.738 -0.2736  0.3857 -0.1392
 4044SOL    HW123594   1.241   4.603   4.691  0.9629  0.0280  1.6178
 4044SOL    HW223595   1.180   4.591   4.829 -0.3579  0.4721 -0.1449
 4045SOL     OW23596   2.501   0.262   6.695  0.1016 -0.0817  0.0513
 4045SOL    HW123597   2.581   0.311   6.716  0.3769 -0.4864 -0.0568
 4045SOL    HW223598   2.438   0.330   6.672 -0.5240 -0.6691  0.0379
 4046SOL     OW23599   4.333   1.652   2.396 -0.2462  0.2522 -0.9240
 4046SOL    HW123600   4.330   1.744   2.371  0.8211  0.3857 -0.5314
 4046SOL    HW223601   4.346   1.613   2.309 -0.1894 -1.6585 -0.0689
 4047SOL     OW23602   3.188   4.462  11.742  0.3636 -0.2202 -0.3688
 4047SOL    HW123603   3.173   4.555  11.725 -0.7322  0.1100  2.5663
 4047SOL    HW223604   3.137   4.430  11.667  0.3015 -2.6969  0.7344
 4048SOL     OW23605   3.110   1.575   0.270 -0.1440  0.2868 -0.1453
 4048SOL    HW123606   3.118   1.507   0.203  0.3271  0.4688 -0.2700
 4048SOL    HW223607   3.138   1.533   0.351 -0.6766  1.0171  0.4167
 4049SOL     OW23608   1.524   4.625  15.350  0.3902 -0.0929 -0.1767
 4049SOL    HW123609   1.501   4.709  15.309 -0.4333  0.5359  1.5797
 4049SOL    HW223610   1.474   4.560  15.301  1.4556 -1.4245  0.5203
 4050SOL     OW23611   2.026   4.106   7.985 -0.3100 -0.1364  0.0830
 4050SOL    HW123612   1.976   4.032   8.018 -0.7138  0.6380  1.1769
 4050SOL    HW223613   1.960   4.149   7.931 -0.5250 -1.4506 -0.6988
 4051SOL     OW23614   4.516   2.603   5.773  0.0976  0.9910  0.5835
 4051SOL    HW123615   4.480   2.660   5.841 -0.1214  0.9353  0.5123
 4051SOL    HW223616   4.473   2.634   5.694  1.1986  0.0219 -0.3978
 4052SOL     OW23617   3.248   0.731   4.292  0.4660 -0.3294  0.1461
 4052SOL    HW123618   3.210   0.764   4.210 -0.9948  1.3357  1.4853
 4052SOL    HW223619   3.186   0.659   4.304 -2.7096  2.3958  0.2125
 4053SOL     OW23620   3.319   3.459  14.795 -0.5330  0.2511  0.4231
 4053SOL    HW123621   3.295   3.386  14.852  1.0132 -1.5832 -1.2942
 4053SOL    HW223622   3.366   3.520  14.852  0.2844 -0.1811  0.2043
 4054SOL     OW23623   1.593   0.642  11.640  0.3421  0.1608  0.4156
 4054SOL    HW123624   1.660   0.603  11.696  2.5788  0.9737 -1.6849
 4054SOL    HW223625   1.528   0.681  11.698  1.1486  0.9783  0.7674
 4055SOL     OW23626   1.622   3.883   7.974 -0.5000  0.1209 -0.2677
 4055SOL    HW123627   1.706   3.901   8.016 -0.7586  0.2957  0.1816
 4055SOL    HW223628   1.625   3.944   7.900 -0.2165  0.7916  0.2951
 4056SOL     OW23629   4.545   4.318   3.389 -0.5489  0.4188 -0.2199
 4056SOL    HW123630   4.507   4.270   3.315 -0.0869 -1.7804  0.9621
 4056SOL    HW223631   4.471   4.309   3.450 -1.1641  0.4056 -0.9721
 4057SOL     OW23632   2.371   0.352   5.226  0.4044  0.0659 -0.5370
 4057SOL    HW123633   2.405   0.391   5.146 -0.1690  0.0855 -0.7729
 4057SOL    HW223634   2.373   0.262   5.193  0.2677 -0.1568  0.0513
 4058SOL     OW23635   1.953   1.265   4.712  0.4797 -0.0124  0.0480
 4058SOL    HW123636   1.970   1.314   4.792 -2.6157 -0.3398  0.9173
 4058SOL    HW223637   2.015   1.194   4.727  1.5648  1.1376  1.0086
 4059SOL     OW23638   2.726   0.293  17.260  0.1384 -0.6002 -0.2768
 4059SOL    HW123639   2.715   0.263  17.351 -0.4499  0.5253  0.0181
 4059SOL    HW223640   2.720   0.388  17.266  1.5317 -0.4616 -1.1272
 4060SOL     OW23641   4.296   0.377   7.164  0.0635  0.5054 -0.0828
 4060SOL    HW123642   4.350   0.376   7.085  1.0188  1.8963  0.5480
 4060SOL    HW223643   4.328   0.288   7.183 -1.3660 -0.3256 -1.6019
 4061SOL     OW23644   3.846   4.590   8.640  0.4942  0.4971  0.2593
 4061SOL    HW123645   3.842   4.648   8.564 -3.3719  0.2924  0.2963
 4061SOL    HW223646   3.931   4.615   8.676  0.9079 -0.2055 -0.2381
 4062SOL     OW23647   0.879   4.081   3.372  0.4590 -0.6152 -1.2051
 4062SOL    HW123648   0.895   3.990   3.346  1.3683 -1.2539  1.4868
 4062SOL    HW223649   0.811   4.055   3.435  0.9540  0.2096 -0.3347
 4063SOL     OW23650   1.618   0.549   2.448  0.9928 -0.0702 -0.0853
 4063SOL    HW123651   1.672   0.562   2.527  0.8906  3.8627 -0.6513
 4063SOL    HW223652   1.561   0.476   2.472 -0.4862  1.3060  0.6058
 4064SOL     OW23653   4.595   3.651   8.193 -0.1144  0.0355 -0.1874
 4064SOL    HW123654   4.539   3.696   8.131 -2.2051 -1.1656  0.8427
 4064SOL    HW223655   4.544   3.642   8.274  1.6950 -1.1845  0.8187
 4065SOL     OW23656   2.422   3.977   3.589 -0.0161 -0.2243  0.1468
 4065SOL    HW123657   2.485   3.917   3.549  1.3376  1.6448 -0.5151
 4065SOL    HW223658   2.408   4.046   3.523  0.9040 -0.9564 -0.8125
 4066SOL     OW23659   4.192   4.636   7.311  0.0093  0.4532  0.1796
 4066SOL    HW123660   4.232   4.654   7.396 -0.7883 -0.3185  0.7031
 4066SOL    HW223661   4.102   4.666   7.322  0.4647  1.7814  0.3587
 4067SOL     OW23662   0.535   2.238   5.316  0.2775  0.9591  0.3228
 4067SOL    HW123663   0.470   2.198   5.375 -0.0691  0.9609 -0.0577
 4067SOL    HW223664   0.620   2.213   5.353 -0.2064 -0.6568  0.3671
 4068SOL     OW23665   0.087   4.628  11.896 -0.4395 -0.1765 -0.0279
 4068SOL    HW123666   0.044   4.628  11.810  0.1589 -0.0272 -0.3225
 4068SOL    HW223667   0.049   4.550  11.937  0.6255 -1.0593 -0.7236
 4069SOL     OW23668   4.130   4.541  12.861  0.1870  0.1889  0.1700
 4069SOL    HW123669   4.068   4.512  12.928  2.3061 -1.2788  1.5211
 4069SOL    HW223670   4.213   4.528  12.907  0.0779 -2.3943 -0.3314
 4070SOL     OW23671   0.530   1.041  15.090 -0.8143 -0.0487  0.0273
 4070SOL    HW123672   0.472   1.029  15.014 -0.7073  0.2745 -0.1026
 4070SOL    HW223673   0.541   1.136  15.093  0.2380 -0.1854  0.3464
 4071SOL     OW23674   3.717   1.547   6.193 -0.2804 -0.3459 -0.2512
 4071SOL    HW123675   3.743   1.531   6.102 -0.8594  0.7847 -0.6173
 4071SOL    HW223676   3.791   1.597   6.228  0.2736 -1.1706 -0.2426
 4072SOL     OW23677   2.678   2.474   7.673  0.0618  0.1738 -0.2026
 4072SOL    HW123678   2.692   2.564   7.701  0.3670  0.3695 -0.9687
 4072SOL    HW223679   2.597   2.467   7.723 -0.5736 -2.6778 -1.6081
 4073SOL     OW23680   1.666   2.902   4.977  0.1825 -0.2068  0.7398
 4073SOL    HW123681   1.647   2.921   4.886 -1.6428  1.1951  1.4129
 4073SOL    HW223682   1.689   2.810   4.967 -1.8858 -0.4537 -1.5087
 4074SOL     OW23683   0.822   1.979   5.628  0.0574  0.1319  0.0836
 4074SOL    HW123684   0.911   1.944   5.618 -0.8607 -2.0316 -0.6808
 4074SOL    HW223685   0.769   1.903   5.603  2.2678 -1.4798  0.2986
 4075SOL     OW23686   3.285   2.759   2.012 -0.2844  0.3799  0.0605
 4075SOL    HW123687   3.205   2.808   2.028 -0.3012 -0.1475  1.6060
 4075SOL    HW223688   3.336   2.772   2.092 -0.0412  1.4203 -0.2674
 4076SOL     OW23689   4.663   3.481   5.363 -0.2492 -0.0462  0.4710
 4076SOL    HW123690   0.015   3.529   5.331  1.0152 -3.7692 -2.0557
 4076SOL    HW223691   4.657   3.533   5.443 -0.1040 -2.0818  1.8028
 4077SOL     OW23692   0.762   4.169   9.745 -0.2445 -0.1773  0.5472
 4077SOL    HW123693   0.854   4.197   9.743 -0.7240  1.2581 -1.0010
 4077SOL    HW223694   0.760   4.129   9.832  0.4549  0.8288  1.0233
 4078SOL     OW23695   1.718   2.377  12.693  0.6492 -0.5264 -0.2201
 4078SOL    HW123696   1.806   2.369  12.730  0.4003  2.5319  1.0513
 4078SOL    HW223697   1.690   2.447  12.752 -1.3198  1.7773 -3.9058
 4079SOL     OW23698   0.249   0.893   7.108 -0.1465  0.2581 -0.4185
 4079SOL    HW123699   0.307   0.960   7.072  0.8382 -0.0493  0.5945
 4079SOL    HW223700   0.165   0.936   7.096 -0.4380 -0.3149 -0.4306
 4080SOL     OW23701   0.055   3.219   0.744  0.3304  0.2684  0.4163
 4080SOL    HW123702   0.105   3.301   0.749  0.2272  0.2802  1.2949
 4080SOL    HW223703   0.028   3.220   0.836  1.8898 -2.1930  0.9001
 4081SOL     OW23704   1.156   3.456   2.259  0.4773 -0.5734  0.6314
 4081SOL    HW123705   1.242   3.494   2.280 -0.8372  2.1237  1.1166
 4081SOL    HW223706   1.107   3.533   2.231  1.1317  0.0873  1.3063
 4082SOL     OW23707   0.596   2.154  14.309 -0.0501 -0.2933  0.1238
 4082SOL    HW123708   0.539   2.223  14.273 -0.4368  0.0758  1.4363
 4082SOL    HW223709   0.610   2.105  14.228 -3.0904 -0.8495 -0.0700
 4083SOL     OW23710   2.313   0.491  14.323  0.1308 -0.5870  0.3047
 4083SOL    HW123711   2.341   0.431  14.254  0.3777  0.6565 -0.6781
 4083SOL    HW223712   2.242   0.439  14.360  0.5920 -1.7766 -0.4856
 4084SOL     OW23713   0.858   2.254  16.766 -0.6868 -0.0597 -0.7072
 4084SOL    HW123714   0.920   2.320  16.736 -0.1386 -0.2845 -0.0890
 4084SOL    HW223715   0.917   2.190  16.807 -1.9501 -0.3376  0.6874
 4085SOL     OW23716   0.671   0.346  14.917 -0.1624 -0.1846 -0.4253
 4085SOL    HW123717   0.613   0.305  14.854 -0.2825 -1.9093  0.8177
 4085SOL    HW223718   0.616   0.318  14.990  1.4897 -2.9180 -0.2124
 4086SOL     OW23719   0.542   2.198  11.893 -0.5416 -0.0687 -0.0597
 4086SOL    HW123720   0.546   2.106  11.920  1.1458  0.0604  0.1617
 4086SOL    HW223721   0.460   2.205  11.844  0.1406  2.1135 -0.8730
 4087SOL     OW23722   3.087   1.521   8.657 -0.0495 -0.3406 -0.0342
 4087SOL    HW123723   3.040   1.452   8.611 -0.0009 -1.4652  1.6093
 4087SOL    HW223724   3.007   1.569   8.680  1.0223  0.1395  2.7263
 4088SOL     OW23725   2.596   3.044  15.056  0.6634  0.0343  0.5366
 4088SOL    HW123726   2.676   3.036  15.108  0.4998 -1.1471  0.5921
 4088SOL    HW223727   2.528   3.048  15.124  0.8000  1.6032  0.5984
 4089SOL     OW23728   2.356   3.468  16.818  0.3810  0.3422  0.6885
 4089SOL    HW123729   2.345   3.438  16.728  0.1564 -1.1901  1.2177
 4089SOL    HW223730   2.264   3.452  16.838  0.1449 -0.2127 -0.9158
 4090SOL     OW23731   4.370   0.069   6.034 -0.1363  0.2928 -0.2024
 4090SOL    HW123732   4.436   4.725   6.034 -0.6295 -0.1767 -0.3314
 4090SOL    HW223733   4.418   0.148   6.058  1.2034 -0.3752 -0.6624
 4091SOL     OW23734   3.198   0.468   8.602 -0.0382  0.0813  0.2153
 4091SOL    HW123735   3.277   0.519   8.583  1.1063 -1.3191  1.2448
 4091SOL    HW223736   3.230   0.380   8.618 -1.2631 -0.6987 -1.6793
 4092SOL     OW23737   2.372   4.299   8.127  0.2832 -0.2868  0.6179
 4092SOL    HW123738   2.429   4.263   8.060 -0.2114 -1.2779  0.7386
 4092SOL    HW223739   2.434   4.326   8.196  1.8223 -0.3860 -0.7287
 4093SOL     OW23740   0.528   1.755   3.653 -0.1806 -1.1014  0.1353
 4093SOL    HW123741   0.523   1.663   3.624 -1.3805 -2.0568  3.4134
 4093SOL    HW223742   0.607   1.751   3.707  0.2136 -3.1085 -0.5772
 4094SOL     OW23743   0.206   2.414   5.438 -0.0739  0.0839 -0.4670
 4094SOL    HW123744   0.215   2.412   5.343 -0.3706  0.9197 -0.5142
 4094SOL    HW223745   0.164   2.329   5.450  3.3089 -1.3421  1.2901
 4095SOL     OW23746   2.129   3.286   9.580  0.1828  0.0993 -0.5858
 4095SOL    HW123747   2.039   3.305   9.605 -0.3506 -1.1828 -1.4757
 4095SOL    HW223748   2.105   3.224   9.511  1.8659  1.0546 -2.0421
 4096SOL     OW23749   2.551   4.568   8.744 -0.5287  0.2472 -0.1908
 4096SOL    HW123750   2.537   4.577   8.650 -1.3912  0.7780 -0.0108
 4096SOL    HW223751   2.630   4.621   8.755  1.2071 -2.1891 -0.8505
 4097SOL     OW23752   2.454   4.260   7.206  0.3228  0.0077  0.1577
 4097SOL    HW123753   2.378   4.284   7.258  1.9544  1.3004  1.9424
 4097SOL    HW223754   2.411   4.190   7.157 -0.9681  0.6198  0.4267
 4098SOL     OW23755   2.911   0.066   6.365 -0.3170  0.0690 -0.0371
 4098SOL    HW123756   2.991   0.058   6.416 -0.7578 -0.4316  0.5675
 4098SOL    HW223757   2.847   0.077   6.435  1.0278 -0.9488  1.3273
 4099SOL     OW23758   0.903   4.542   7.738 -0.4583  0.2836 -0.0098
 4099SOL    HW123759   0.947   4.620   7.705  1.0941 -0.8718 -0.6637
 4099SOL    HW223760   0.855   4.519   7.658  0.6882  0.8234 -0.8523
 4100SOL     OW23761   1.776   0.347   7.183 -0.3231 -0.1210 -0.2106
 4100SOL    HW123762   1.718   0.349   7.106 -1.1721 -0.5350  0.4184
 4100SOL    HW223763   1.843   0.281   7.166  0.6105  0.8278 -0.2522
 4101SOL     OW23764   2.819   3.636  17.666 -0.3970 -0.2257  0.0388
 4101SOL    HW123765   2.893   3.640   0.024  0.5119  0.8431 -1.1720
 4101SOL    HW223766   2.754   3.676   0.022  1.3267  1.3657  0.8806
 4102SOL     OW23767   3.108   3.346  10.922  0.2186  0.1170 -0.0156
 4102SOL    HW123768   3.101   3.251  10.918  0.7324  0.1001 -0.5765
 4102SOL    HW223769   3.160   3.357  11.002 -0.7296 -0.4190  0.6773
 4103SOL     OW23770   0.982   4.363   7.913 -0.1610  0.5517  0.2839
 4103SOL    HW123771   0.958   4.439   7.861  0.1184  1.9964  2.2736
 4103SOL    HW223772   0.909   4.302   7.904  1.5895 -1.9251  2.6374
 4104SOL     OW23773   0.380   0.573   0.004  0.0221  0.3004  0.2506
 4104SOL    HW123774   0.311   0.593   0.066  0.6025  1.6454  0.4541
 4104SOL    HW223775   0.384   0.478   0.016 -2.0660  0.1039 -0.6071
 4105SOL     OW23776   3.530   3.266   9.314  0.0739 -0.0825 -0.7829
 4105SOL    HW123777   3.549   3.204   9.385  0.4772  0.4929 -0.3833
 4105SOL    HW223778   3.453   3.230   9.270  0.4777 -1.4637 -0.3569
 4106SOL     OW23779   3.316   2.278  10.858  0.0842  0.0507  0.0617
 4106SOL    HW123780   3.294   2.186  10.841  1.0612 -0.6808  2.7193
 4106SOL    HW223781   3.235   2.322  10.831 -0.2410 -0.8330 -0.4240
 4107SOL     OW23782   4.551   0.600   2.456 -0.2865  0.6627  0.1712
 4107SOL    HW123783   4.630   0.563   2.416 -0.7820 -1.6837  1.3810
 4107SOL    HW223784   4.570   0.572   2.546 -1.8785  1.9699  0.9163
 4108SOL     OW23785   3.677   4.493   5.448 -0.1920  0.0616 -0.7256
 4108SOL    HW123786   3.657   4.435   5.521  2.6444  1.4543  1.1534
 4108SOL    HW223787   3.630   4.449   5.377 -1.2144 -0.2474  0.1389
 4109SOL     OW23788   4.495   1.677  15.020 -0.5462 -0.1883  0.2613
 4109SOL    HW123789   4.531   1.675  14.931 -0.1040  1.0114  0.4160
 4109SOL    HW223790   4.510   1.589  15.052 -0.1698  0.3090  1.4363
 4110SOL     OW23791   1.610   2.701   7.056 -0.1378 -0.5669 -0.0077
 4110SOL    HW123792   1.537   2.721   7.116 -0.9619  0.6619 -1.4095
 4110SOL    HW223793   1.564   2.663   6.981  1.9142 -3.9889  0.5096
 4111SOL     OW23794   1.930   3.741   4.234  0.5980 -0.1896  0.1460
 4111SOL    HW123795   1.930   3.669   4.171  0.9891 -0.9108  0.9796
 4111SOL    HW223796   2.019   3.771   4.214  0.8396  0.6027  2.4235
 4112SOL     OW23797   3.270   3.528   8.461  0.0739 -0.3051  0.1124
 4112SOL    HW123798   3.327   3.492   8.394  0.4085 -1.0123  0.7718
 4112SOL    HW223799   3.334   3.586   8.501 -0.8680  1.0985 -0.4264
 4113SOL     OW23800   4.597   3.685   4.591  0.0132  0.0593 -0.5742
 4113SOL    HW123801   4.584   3.604   4.542 -0.7233 -0.4077  0.3884
 4113SOL    HW223802   4.505   3.692   4.616 -0.1351  0.9316 -1.3533
 4114SOL     OW23803   0.786   1.626   3.049  0.2909 -0.4847  0.1128
 4114SOL    HW123804   0.727   1.551   3.056 -0.8763  0.4590  0.4507
 4114SOL    HW223805   0.766   1.656   2.960 -2.2831 -1.1483  0.4831
 4115SOL     OW23806   2.149   4.467   8.948 -0.8082  0.3571  0.5198
 4115SOL    HW123807   2.191   4.547   8.917  0.9429 -0.5001  0.6436
 4115SOL    HW223808   2.192   4.442   9.031 -1.2081 -1.5554  0.1510
 4116SOL     OW23809   0.931   0.665   4.810 -0.0113  0.3230 -0.0398
 4116SOL    HW123810   0.846   0.619   4.807  0.1501 -0.1093  2.5890
 4116SOL    HW223811   0.899   0.734   4.751  0.4425  1.4663  1.0552
 4117SOL     OW23812   0.994   4.551   3.695 -0.1928 -0.3280 -0.1745
 4117SOL    HW123813   1.008   4.482   3.630  0.3239 -0.9120  0.5532
 4117SOL    HW223814   0.899   4.544   3.702 -0.1131 -2.2396 -0.8532
 4118SOL     OW23815   4.504   0.018  11.205 -0.4724  0.0794  0.0848
 4118SOL    HW123816   4.542   0.012  11.293  1.8568  0.3473 -0.9081
 4118SOL    HW223817   4.421   0.060  11.226 -0.4580  0.7457 -1.1726
 4119SOL     OW23818   3.538   2.525   9.700  0.5863 -0.1281  0.4164
 4119SOL    HW123819   3.547   2.617   9.725  1.3940  0.3747 -1.7015
 4119SOL    HW223820   3.574   2.535   9.612  2.0071 -0.5649  0.9457
 4120SOL     OW23821   3.041   3.553  11.676  0.8112 -0.2793 -0.1050
 4120SOL    HW123822   3.049   3.553  11.581 -2.6145 -1.1295 -0.3672
 4120SOL    HW223823   3.126   3.587  11.706  0.6196 -0.0464  0.1716
 4121SOL     OW23824   2.183   2.280  11.281 -0.6383 -0.7141  0.1070
 4121SOL    HW123825   2.135   2.307  11.203  0.1755 -0.4302 -0.3014
 4121SOL    HW223826   2.173   2.186  11.265  1.9427 -0.3030 -3.8727
 4122SOL     OW23827   1.603   1.225   8.206  0.2864  0.4339  0.0767
 4122SOL    HW123828   1.648   1.182   8.134  1.3616  2.5243 -0.5197
 4122SOL    HW223829   1.676   1.258   8.259  0.4487 -2.0148  1.3601
 4123SOL     OW23830   2.172   1.402  13.514  0.4273  0.3429  0.0550
 4123SOL    HW123831   2.127   1.395  13.598 -2.0231 -1.2416 -1.3727
 4123SOL    HW223832   2.151   1.318  13.474  3.9584  0.3563 -1.8836
 4124SOL     OW23833   3.115   4.082  15.858  0.9153 -0.2331 -0.2879
 4124SOL    HW123834   3.060   4.155  15.885  0.3161 -0.0736 -1.9447
 4124SOL    HW223835   3.164   4.075  15.940 -0.7900 -1.8289  0.6013
 4125SOL     OW23836   2.619   2.472   2.507  0.4499 -0.0560  0.1757
 4125SOL    HW123837   2.591   2.422   2.584  0.4777 -0.2938  0.0332
 4125SOL    HW223838   2.671   2.410   2.456  0.5761  0.5783 -0.4645
 4126SOL     OW23839   1.441   0.032   2.572  0.1600  0.3507 -0.1201
 4126SOL    HW123840   1.362   4.725   2.531  0.9792  0.1392 -1.5277
 4126SOL    HW223841   1.407   0.048   2.660  2.6131 -0.3023  0.9644
 4127SOL     OW23842   4.554   2.934  12.055  0.1781  0.2959  0.3377
 4127SOL    HW123843   4.483   2.994  12.077 -0.2502 -1.0885  2.6562
 4127SOL    HW223844   4.615   2.990  12.007  1.9030 -2.1961 -0.3905
 4128SOL     OW23845   4.423   2.154   1.166  0.4444  0.2664 -0.2383
 4128SOL    HW123846   4.475   2.117   1.095  0.9176  2.1402 -0.8607
 4128SOL    HW223847   4.479   2.227   1.193  0.6510  0.1785 -0.4372
 4129SOL     OW23848   1.429   2.386   7.047  0.4309  0.2737 -0.3372
 4129SOL    HW123849   1.338   2.407   7.071  0.8305 -1.6933  2.9900
 4129SOL    HW223850   1.441   2.448   6.975  1.4005  0.5689  0.0764
 4130SOL     OW23851   1.830   3.258  11.745 -0.6232  0.0979 -0.3874
 4130SOL    HW123852   1.747   3.215  11.724 -1.1804  0.0520  1.9373
 4130SOL    HW223853   1.887   3.181  11.747  2.2327  2.2737  1.0199
 4131SOL     OW23854   2.642   1.550  11.310 -0.7227 -0.5116 -0.5825
 4131SOL    HW123855   2.618   1.593  11.227  2.2246  1.0895 -0.6216
 4131SOL    HW223856   2.586   1.474  11.325 -1.1025 -0.3291 -1.0565
 4132SOL     OW23857   1.068   1.559  14.745 -0.2835  0.0547  0.2056
 4132SOL    HW123858   1.053   1.584  14.836  2.0527  4.2275 -0.5636
 4132SOL    HW223859   1.040   1.468  14.741  0.5709 -0.2333  0.9340
 4133SOL     OW23860   3.705   1.599   1.646 -0.3964 -0.4546 -0.4055
 4133SOL    HW123861   3.785   1.650   1.638  0.6894 -2.2024 -0.6234
 4133SOL    HW223862   3.730   1.533   1.581 -0.7477  0.0191 -1.0128
 4134SOL     OW23863   1.710   2.551   6.179  0.4405  0.0451  0.0418
 4134SOL    HW123864   1.749   2.482   6.232  2.1921  1.4002  0.5352
 4134SOL    HW223865   1.779   2.567   6.114 -0.4986 -1.0319 -1.2235
 4135SOL     OW23866   2.851   3.171   3.310 -0.2762 -0.0797 -0.3368
 4135SOL    HW123867   2.894   3.105   3.365  1.6478 -0.5896 -2.4393
 4135SOL    HW223868   2.927   3.205   3.264 -1.0681  0.7010 -1.0631
 4136SOL     OW23869   2.779   3.175   1.056 -0.2803 -0.1483  0.4536
 4136SOL    HW123870   2.728   3.095   1.067  1.6621 -1.2552  1.5214
 4136SOL    HW223871   2.842   3.164   1.127 -0.4600 -0.0602  0.6259
 4137SOL     OW23872   3.035   2.321   8.839  0.1310 -0.4056  0.1281
 4137SOL    HW123873   3.089   2.376   8.783 -0.6873 -1.4982 -1.7545
 4137SOL    HW223874   3.014   2.244   8.786 -2.8951  0.6964 -0.2853
 4138SOL     OW23875   4.448   1.781   5.048 -0.3418  0.1448 -0.4833
 4138SOL    HW123876   4.521   1.720   5.053 -0.6442 -0.1007  1.0819
 4138SOL    HW223877   4.428   1.796   4.956 -1.7767 -0.1812 -0.2323
 4139SOL     OW23878   0.190   3.300  17.270  0.6763  0.0065  0.3369
 4139SOL    HW123879   0.251   3.230  17.247 -0.2107 -0.6068 -0.1587
 4139SOL    HW223880   0.193   3.303  17.366 -0.5886 -0.5153  0.3974
 4140SOL     OW23881   0.947   3.093   4.945  0.0388  0.1041 -0.7924
 4140SOL    HW123882   1.003   3.125   5.016 -1.9057 -0.6235  1.0784
 4140SOL    HW223883   0.947   2.998   4.956 -2.8021  0.1366 -0.6413
 4141SOL     OW23884   3.613   4.386   9.523 -0.4384 -0.4191  0.7066
 4141SOL    HW123885   3.567   4.303   9.517  1.4165 -1.3804 -0.3750
 4141SOL    HW223886   3.621   4.415   9.432  1.0893 -1.2316  0.5755
 4142SOL     OW23887   1.282   2.566   3.726 -0.6035 -0.0758  0.3471
 4142SOL    HW123888   1.332   2.632   3.773 -1.3031 -0.8101  2.1208
 4142SOL    HW223889   1.193   2.602   3.719 -0.3451  0.6339  0.8129
 4143SOL     OW23890   4.666   0.943   9.820  0.5174 -0.1126 -0.1672
 4143SOL    HW123891   4.586   0.945   9.768 -0.5759  3.0356  1.6614
 4143SOL    HW223892   4.630   0.984   9.898  0.9909  2.3824 -1.2532
 4144SOL     OW23893   0.112   2.151  16.208  0.3138 -0.1161 -0.1543
 4144SOL    HW123894   0.132   2.072  16.258  1.3615 -0.3764 -0.9981
 4144SOL    HW223895   0.053   2.112  16.143 -0.4066 -3.0115  2.2332
 4145SOL     OW23896   3.157   3.272   1.917  0.1144  0.1424 -0.5640
 4145SOL    HW123897   3.172   3.188   1.874  3.2664  1.3254 -1.7634
 4145SOL    HW223898   3.245   3.292   1.948 -0.8532 -2.0220  3.6140
 4146SOL     OW23899   0.497   1.560   2.916 -0.6687 -0.1378  0.2632
 4146SOL    HW123900   0.509   1.636   2.859  1.8394 -0.8424 -0.1481
 4146SOL    HW223901   0.472   1.500   2.845  1.7759 -0.2986 -0.4678
 4147SOL     OW23902   2.382   4.447  17.135 -0.4130  0.3694  0.5437
 4147SOL    HW123903   2.381   4.526  17.082 -0.8471  0.7717  1.1516
 4147SOL    HW223904   2.401   4.380  17.069 -1.0153  0.8110 -0.0855
 4148SOL     OW23905   2.313   0.417   6.544 -0.0977  0.0335  0.5041
 4148SOL    HW123906   2.275   0.486   6.598 -0.5397  0.9337 -0.9497
 4148SOL    HW223907   2.241   0.396   6.484 -1.0509  0.0051  1.6643
 4149SOL     OW23908   2.642   2.937   4.786  0.2788 -0.2594 -0.2449
 4149SOL    HW123909   2.550   2.945   4.811  0.0603 -0.9442 -0.8262
 4149SOL    HW223910   2.638   2.845   4.760  0.1831 -0.5994  0.9595
 4150SOL     OW23911   1.032   1.164  17.424 -0.2939  0.7106 -0.5317
 4150SOL    HW123912   1.029   1.164  17.329 -1.0805 -1.0089 -0.5056
 4150SOL    HW223913   0.940   1.177  17.446 -0.3078 -0.0485 -0.1288
 4151SOL     OW23914   0.681   2.831   5.692 -0.0248 -0.5016 -0.2096
 4151SOL    HW123915   0.625   2.893   5.645 -0.0681 -1.4770 -1.4425
 4151SOL    HW223916   0.740   2.801   5.623  1.3097  0.6126  0.4345
 4152SOL     OW23917   1.707   2.073   1.934  0.2565 -0.1457  0.3855
 4152SOL    HW123918   1.766   2.027   1.875 -0.5954  0.8183 -1.2240
 4152SOL    HW223919   1.765   2.082   2.010  0.8218  2.1413 -0.3378
 4153SOL     OW23920   0.249   3.118   3.724  0.5821  0.3918 -0.4959
 4153SOL    HW123921   0.236   3.184   3.656 -1.0914 -0.7759 -1.3123
 4153SOL    HW223922   0.170   3.137   3.775  3.4872  0.3894  4.0051
 4154SOL     OW23923   4.448   0.313   0.717 -0.5173 -0.6645  0.1441
 4154SOL    HW123924   4.452   0.229   0.672  3.4457 -1.0826  1.2538
 4154SOL    HW223925   4.398   0.278   0.791 -1.0765  2.8088  1.4067
 4155SOL     OW23926   0.260   0.095  12.011 -0.4671 -0.8052  0.0428
 4155SOL    HW123927   0.290   0.018  12.061 -0.8863 -0.8122  0.2884
 4155SOL    HW223928   0.196   0.053  11.953 -2.8312 -0.4973  2.4219
 4156SOL     OW23929   1.966   3.323   2.935 -0.4367  0.4007 -0.0461
 4156SOL    HW123930   1.996   3.341   3.024  0.5629  0.2283 -0.3489
 4156SOL    HW223931   1.880   3.365   2.937 -0.1211  1.0190  0.4400
 4157SOL     OW23932   2.765   0.924  16.466 -0.1814 -0.1843 -0.1295
 4157SOL    HW123933   2.759   0.931  16.561 -0.1773 -1.6542 -0.0203
 4157SOL    HW223934   2.673   0.937  16.443 -0.4302  3.3348  2.8695
 4158SOL     OW23935   2.561   3.270  13.773 -0.2679 -0.2032  0.0052
 4158SOL    HW123936   2.557   3.270  13.869  2.7988 -1.9065  0.1418
 4158SOL    HW223937   2.619   3.196  13.755  0.4513  0.3874 -0.1228
 4159SOL     OW23938   1.751   0.895  15.985  0.3927  0.2780 -0.0329
 4159SOL    HW123939   1.668   0.895  15.936 -0.1468  1.0497  0.8917
 4159SOL    HW223940   1.756   0.990  15.980  2.7270  0.1975  0.9031
 4160SOL     OW23941   2.996   1.677   1.669  0.0376  0.0596  0.1662
 4160SOL    HW123942   2.929   1.735   1.633  2.3860  1.4497 -1.9365
 4160SOL    HW223943   2.985   1.701   1.761 -0.7681 -0.1022  0.1194
 4161SOL     OW23944   0.299   0.949   5.000  0.0293 -0.5481 -0.2572
 4161SOL    HW123945   0.383   0.916   4.966 -0.1788 -0.6758 -0.6481
 4161SOL    HW223946   0.309   0.972   5.092  0.7445  1.9419 -0.9587
 4162SOL     OW23947   4.618   4.405   4.044 -0.2268  0.2764  0.5542
 4162SOL    HW123948   4.531   4.418   4.083 -0.1594 -0.7573  1.0531
 4162SOL    HW223949   4.643   4.320   4.079 -1.6828 -0.0055  0.9234
 4163SOL     OW23950   0.313   4.623   4.567 -0.0936  0.2604  0.0360
 4163SOL    HW123951   0.328   4.711   4.535  0.3448 -0.0167 -0.5156
 4163SOL    HW223952   0.259   4.646   4.643 -0.6258 -2.1246  0.4002
 4164SOL     OW23953   2.745   2.595   6.510 -0.8428 -0.5949 -0.0379
 4164SOL    HW123954   2.681   2.643   6.563 -0.2408 -0.2938  0.4202
 4164SOL    HW223955   2.779   2.666   6.455 -2.2694  0.2406  0.1540
 4165SOL     OW23956   1.745   4.223   7.253 -0.2566 -0.1596 -0.0849
 4165SOL    HW123957   1.773   4.248   7.341  1.7365  0.0231 -0.7755
 4165SOL    HW223958   1.781   4.299   7.208  3.9900 -1.0146  1.8469
 4166SOL     OW23959   4.284   1.777   7.326  0.2461 -0.4956 -0.0890
 4166SOL    HW123960   4.237   1.714   7.271  1.2177 -1.4077  0.1212
 4166SOL    HW223961   4.352   1.812   7.269 -1.1701  1.1090 -0.7919
 4167SOL     OW23962   4.623   2.105   1.550 -0.0759 -0.1841  0.5484
 4167SOL    HW123963   4.600   2.022   1.592  0.9500 -0.9037 -0.3272
 4167SOL    HW223964   4.668   2.062   1.478  1.4504  1.0447  0.7754
 4168SOL     OW23965   1.587   0.784   6.275 -0.6068 -0.1589  0.8410
 4168SOL    HW123966   1.538   0.864   6.293  0.1020  0.2176  1.0987
 4168SOL    HW223967   1.606   0.752   6.363  0.5994 -0.9538  0.2991
 4169SOL     OW23968   4.046   2.171   0.530  0.0430 -0.2923  0.2406
 4169SOL    HW123969   3.998   2.107   0.477  1.5516  1.2697 -3.0202
 4169SOL    HW223970   4.031   2.249   0.476  1.3575  0.2391  0.6348
 4170SOL     OW23971   2.487   1.576  13.678  0.2482 -0.0202 -0.1641
 4170SOL    HW123972   2.544   1.623  13.738 -0.8932  1.8683 -0.5578
 4170SOL    HW223973   2.429   1.524  13.735 -0.8046  1.4752  0.1316
 4171SOL     OW23974   4.069   1.009   8.101  0.3155  0.1435  0.3156
 4171SOL    HW123975   4.123   1.071   8.150  0.1303  0.9842 -0.5441
 4171SOL    HW223976   3.985   1.047   8.125  0.5900 -0.0554  1.5515
 4172SOL     OW23977   1.051   3.284   0.498  0.3298 -0.2103  0.0472
 4172SOL    HW123978   1.127   3.303   0.443 -0.9528  0.1492 -1.5704
 4172SOL    HW223979   1.071   3.202   0.543 -0.0364 -0.5503 -0.4220
 4173SOL     OW23980   3.913   0.455   1.802  0.4504  0.9088 -0.5523
 4173SOL    HW123981   3.987   0.505   1.767  0.0116  0.9102 -1.4900
 4173SOL    HW223982   3.895   0.511   1.878  0.4224 -1.7851  1.3940
 4174SOL     OW23983   2.808   0.626   5.295 -0.3382  0.0753  0.4323
 4174SOL    HW123984   2.839   0.536   5.285  0.7922  0.2161  2.7914
 4174SOL    HW223985   2.822   0.650   5.203 -1.6052  0.7004  0.3942
 4175SOL     OW23986   2.591   2.398   8.072 -0.5393 -0.7206 -0.2515
 4175SOL    HW123987   2.670   2.346   8.087  0.0338  0.0641 -0.5470
 4175SOL    HW223988   2.589   2.452   8.151  0.3687 -1.4373  0.2562
 4176SOL     OW23989   1.048   3.735   8.988 -0.3742  0.3838  0.5728
 4176SOL    HW123990   1.042   3.728   9.083  3.5907  1.1693  0.8670
 4176SOL    HW223991   1.023   3.648   8.956  1.1694 -0.1793  0.8838
 4177SOL     OW23992   1.640   1.381  12.839  0.2439  0.4603 -0.6998
 4177SOL    HW123993   1.555   1.338  12.852  0.6240 -0.8114 -2.4857
 4177SOL    HW223994   1.632   1.452  12.903  2.0411 -0.2553  0.3239
 4178SOL     OW23995   1.915   3.594   2.680 -0.0865 -0.1400  0.2204
 4178SOL    HW123996   1.949   3.638   2.602  0.2498 -1.6888 -0.4991
 4178SOL    HW223997   1.904   3.503   2.653 -0.0487  0.5143 -2.0120
 4179SOL     OW23998   2.297   1.570  13.136  0.0290  0.1369 -0.1398
 4179SOL    HW123999   2.206   1.594  13.152  0.1206  0.0325  0.5453
 4179SOL    HW224000   2.328   1.573  13.226 -1.5808 -1.1573  0.4652
 4180SOL     OW24001   4.668   1.317   5.961  0.5832 -0.0521 -0.1159
 4180SOL    HW124002   4.641   1.407   5.947 -0.2128 -0.2207  0.3257
 4180SOL    HW224003   4.644   1.291   5.872  1.8603  0.7581 -0.6892
 4181SOL     OW24004   0.850   0.156   4.832 -0.1917  0.1341 -0.4462
 4181SOL    HW124005   0.879   0.094   4.765 -0.7942  1.1736 -1.6749
 4181SOL    HW224006   0.889   0.239   4.805 -0.5572  0.5726  0.3755
 4182SOL     OW24007   3.462   0.114   4.263  0.2952  0.3603  0.4685
 4182SOL    HW124008   3.416   0.117   4.347  0.1105  1.6425  0.3286
 4182SOL    HW224009   3.525   0.185   4.279 -0.2646  1.0088 -0.2151
 4183SOL     OW24010   0.610   3.018  17.179 -0.7590  0.4496 -0.3920
 4183SOL    HW124011   0.557   3.073  17.237 -0.1155  0.1669  0.4735
 4183SOL    HW224012   0.701   3.028  17.210 -1.4618  0.1099  1.8234
 4184SOL     OW24013   2.940   1.112   5.464  0.2993 -0.1051 -0.1155
 4184SOL    HW124014   2.862   1.081   5.511  0.3527 -1.3213 -0.8137
 4184SOL    HW224015   2.974   1.174   5.528  1.1591 -0.2341 -0.4513
 4185SOL     OW24016   1.563   4.242   2.127 -0.2538  0.0123 -0.0738
 4185SOL    HW124017   1.572   4.275   2.038  0.1990 -1.2561 -0.4990
 4185SOL    HW224018   1.625   4.169   2.121  0.8444  1.1551 -2.9162
 4186SOL     OW24019   4.172   4.048   7.709 -0.1296 -0.3861 -0.1716
 4186SOL    HW124020   4.185   4.141   7.727 -2.6772  0.5200 -3.0903
 4186SOL    HW224021   4.142   4.039   7.619  0.5585  1.0851 -0.5368
 4187SOL     OW24022   0.362   2.306   6.923  0.1355 -0.2917 -0.0624
 4187SOL    HW124023   0.288   2.349   6.879 -0.0762 -0.4436  0.1500
 4187SOL    HW224024   0.319   2.232   6.966 -1.6060 -1.4990 -3.9025
 4188SOL     OW24025   0.611   2.144   2.024 -0.3082 -0.7714  1.2398
 4188SOL    HW124026   0.705   2.149   2.038 -0.1880  0.7449 -0.0962
 4188SOL    HW224027   0.604   2.161   1.930  0.2342 -0.4126  1.2603
 4189SOL     OW24028   3.956   3.367   6.563 -0.1887  0.5502 -0.0543
 4189SOL    HW124029   3.938   3.332   6.650  0.7715  2.2383  0.8294
 4189SOL    HW224030   4.007   3.290   6.538 -0.2326  0.1663  1.0903
 4190SOL     OW24031   1.947   0.400   0.891  0.2260  1.0343 -0.4157
 4190SOL    HW124032   1.971   0.384   0.800 -2.5857 -2.6018 -0.4866
 4190SOL    HW224033   2.026   0.362   0.930  0.2840  1.2444 -0.3273
 4191SOL     OW24034   1.722   0.796  11.954 -0.6293 -0.3060 -0.2384
 4191SOL    HW124035   1.731   0.778  12.047  1.3686 -0.6062 -0.4785
 4191SOL    HW224036   1.711   0.708  11.918  0.3344 -0.2218 -0.7504
 4192SOL     OW24037   4.253   0.135  16.111  0.0293  0.4080  0.3946
 4192SOL    HW124038   4.281   0.225  16.095 -0.8380  0.7682  0.9658
 4192SOL    HW224039   4.326   0.093  16.065 -0.0773 -0.2339  0.8113
 4193SOL     OW24040   2.994   1.719   3.072 -0.0891 -0.2837  0.1877
 4193SOL    HW124041   3.072   1.754   3.028  0.0750 -2.2375 -1.0249
 4193SOL    HW224042   2.931   1.748   3.006 -0.6140 -0.4683  0.6119
 4194SOL     OW24043   0.230   0.823   5.922 -0.4668  0.5085  0.8186
 4194SOL    HW124044   0.268   0.910   5.935 -0.0029  0.0403  2.6105
 4194SOL    HW224045   0.145   0.847   5.887  0.6367  0.7827 -1.6899
 4195SOL     OW24046   2.462   2.162   1.495  0.4533 -0.3056  0.3098
 4195SOL    HW124047   2.419   2.092   1.545  0.1747 -0.5309 -0.2430
 4195SOL    HW224048   2.383   2.215   1.482  1.2059  1.0026  1.1556
 4196SOL     OW24049   1.371   0.391  13.623 -0.2112 -0.8019  0.3109
 4196SOL    HW124050   1.461   0.424  13.619  0.4193 -2.8311 -2.3171
 4196SOL    HW224051   1.351   0.425  13.711  0.4111 -0.7130  0.4178
 4197SOL     OW24052   4.462   2.873   3.345  0.1070 -0.0567  0.0073
 4197SOL    HW124053   4.370   2.870   3.371  0.4675 -0.1302  1.2616
 4197SOL    HW224054   4.501   2.792   3.379  1.9320  0.2361 -1.3552
 4198SOL     OW24055   1.097   1.182   4.327 -0.4781 -0.1548  0.2221
 4198SOL    HW124056   1.164   1.223   4.381  0.1674  0.0636 -0.7386
 4198SOL    HW224057   1.022   1.205   4.382 -1.0231  2.6407 -1.6643
 4199SOL     OW24058   2.907   0.281  15.165 -0.5972 -0.1054  0.1997
 4199SOL    HW124059   2.842   0.220  15.130  0.7829 -0.3940 -1.8409
 4199SOL    HW224060   2.868   0.368  15.159  0.1273  0.0372 -2.2359
 4200SOL     OW24061   4.107   2.680  10.590 -0.1395 -0.4270  0.5614
 4200SOL    HW124062   4.141   2.733  10.662 -0.6276 -0.8085  1.0843
 4200SOL    HW224063   4.054   2.621  10.645  0.0447 -0.6926  0.4553
 4201SOL     OW24064   2.339   0.767   7.801  0.1926  0.5445  0.3711
 4201SOL    HW124065   2.286   0.811   7.735 -2.2317 -0.6345  1.5430
 4201SOL    HW224066   2.379   0.691   7.758 -3.6836  0.3912 -2.9052
 4202SOL     OW24067   3.305   1.731   5.384  0.2207  0.4854  0.1638
 4202SOL    HW124068   3.271   1.784   5.312 -1.6914 -0.9808 -0.0351
 4202SOL    HW224069   3.225   1.679   5.391  0.4000  0.1634 -0.1853
 4203SOL     OW24070   1.070   0.056   7.661 -0.0310  0.6606 -0.1220
 4203SOL    HW124071   1.066   0.057   7.757 -0.3619  1.5489 -0.1410
 4203SOL    HW224072   1.090   0.146   7.634 -1.1813  0.5797 -1.2383
 4204SOL     OW24073   4.658   2.115   5.204 -0.2509 -0.0097  0.1395
 4204SOL    HW124074   4.612   2.048   5.254  0.7988  1.0806  2.5663
 4204SOL    HW224075   4.699   2.075   5.128 -4.1973  0.7687 -2.4425
 4205SOL     OW24076   0.228   1.308   3.347 -0.1256 -0.0362 -0.1088
 4205SOL    HW124077   0.205   1.401   3.357  1.2364  0.3687 -0.7711
 4205SOL    HW224078   0.251   1.301   3.255  1.8788 -0.5315  0.4204
 4206SOL     OW24079   4.092   1.530   6.086  0.3155 -1.3157  0.0419
 4206SOL    HW124080   4.143   1.472   6.143  1.9543 -1.1871 -1.3229
 4206SOL    HW224081   4.051   1.584   6.154 -1.5877 -1.3350 -1.0852
 4207SOL     OW24082   1.213   3.276   8.236 -0.0116 -0.3805 -0.5497
 4207SOL    HW124083   1.231   3.347   8.298 -1.6763  1.4464 -2.1605
 4207SOL    HW224084   1.291   3.271   8.181  0.5414 -0.8605  0.2820
 4208SOL     OW24085   0.459   0.499   0.790  0.2753 -0.0105 -0.0424
 4208SOL    HW124086   0.463   0.583   0.836  3.9336 -0.6296  0.8122
 4208SOL    HW224087   0.403   0.518   0.715 -0.1618 -1.6091 -0.1319
 4209SOL     OW24088   3.891   2.691   2.674 -0.4066 -0.2198  0.0919
 4209SOL    HW124089   3.950   2.627   2.634 -0.0424 -0.0053  0.2849
 4209SOL    HW224090   3.838   2.710   2.596 -2.0758  0.1671  1.3019
 4210SOL     OW24091   0.371   0.333  14.762  0.3991 -0.0183 -0.1385
 4210SOL    HW124092   0.280   0.343  14.736  1.1362  2.2679 -1.9493
 4210SOL    HW224093   0.398   0.258  14.710  0.4748  0.9071 -1.4445
 4211SOL     OW24094   0.615   0.839   8.739 -1.0700 -0.0744  0.5707
 4211SOL    HW124095   0.597   0.929   8.767 -1.1824  0.4291 -1.1800
 4211SOL    HW224096   0.532   0.823   8.695  0.3737 -1.0481 -1.7738
 4212SOL     OW24097   1.711   4.682   0.561  0.0785  0.4506 -0.3283
 4212SOL    HW124098   1.723   4.599   0.608 -1.5553 -0.7570 -2.0493
 4212SOL    HW224099   1.786   4.679   0.502  0.1285 -0.6949 -0.2108
 4213SOL     OW24100   0.158   2.829  11.278  0.2848  0.5546 -0.6309
 4213SOL    HW124101   0.152   2.753  11.336 -2.6266  1.4966  0.2838
 4213SOL    HW224102   0.134   2.787  11.195 -0.0716 -1.1454  0.3348
 4214SOL     OW24103   4.028   4.120   7.467 -0.7926  0.4253 -0.2309
 4214SOL    HW124104   4.079   4.149   7.391 -1.4272  3.8583  0.6467
 4214SOL    HW224105   3.964   4.064   7.423 -2.1347  0.5008  1.6595
 4215SOL     OW24106   1.687   0.351   1.360  0.2116  0.2080 -0.1894
 4215SOL    HW124107   1.595   0.352   1.385  0.5832  2.2001  1.0338
 4215SOL    HW224108   1.700   0.414   1.289  1.6077  2.0461  1.7131
 4216SOL     OW24109   1.542   2.967  16.785 -0.3247 -0.0447  0.1285
 4216SOL    HW124110   1.548   2.918  16.703  0.7673 -0.5260  0.4970
 4216SOL    HW224111   1.456   3.009  16.776 -0.5502 -0.2021  1.5236
 4217SOL     OW24112   3.224   1.386  15.223 -0.5264 -0.6660 -0.0416
 4217SOL    HW124113   3.261   1.331  15.293 -0.3588  0.4543  0.7403
 4217SOL    HW224114   3.244   1.473  15.256 -0.7059 -1.3407  1.8467
 4218SOL     OW24115   3.114   2.330   5.039 -0.3457 -0.8869  0.5834
 4218SOL    HW124116   3.124   2.254   5.096 -0.8775 -0.4797  1.2383
 4218SOL    HW224117   3.023   2.353   5.060 -0.8376 -1.8984 -0.4422
 4219SOL     OW24118   4.146   2.952   4.031  0.0383 -0.0758 -0.7171
 4219SOL    HW124119   4.116   2.863   4.048 -0.7432 -0.4099 -3.8614
 4219SOL    HW224120   4.172   2.941   3.940  0.6927  0.4006 -0.5832
 4220SOL     OW24121   1.605   2.304   5.559 -0.0015 -0.0192  0.1734
 4220SOL    HW124122   1.696   2.333   5.566  0.3252 -1.3357  1.4617
 4220SOL    HW224123   1.612   2.241   5.488  1.8726 -1.9146  2.0416
 4221SOL     OW24124   1.358   3.928   5.914  0.3331 -0.2443 -0.5715
 4221SOL    HW124125   1.314   3.845   5.932  0.7647 -0.2625  0.4363
 4221SOL    HW224126   1.366   3.961   6.004  1.8555  1.3107 -1.2643
 4222SOL     OW24127   2.918   0.114   6.079  0.0574  0.2777 -0.5635
 4222SOL    HW124128   2.924   0.096   6.173 -0.3844 -1.5226 -0.8689
 4222SOL    HW224129   3.000   0.158   6.060  0.1910  0.2728  0.0078
 4223SOL     OW24130   1.110   2.951  15.709  0.6080  0.1699  0.3362
 4223SOL    HW124131   1.115   2.961  15.614  0.9254  3.7669  0.7558
 4223SOL    HW224132   1.182   2.889  15.725 -0.0086 -0.0806  2.1957
 4224SOL     OW24133   3.653   1.988   3.026 -0.2190 -0.1634  0.2195
 4224SOL    HW124134   3.617   2.066   3.070  0.0515 -0.7706  1.4922
 4224SOL    HW224135   3.687   2.030   2.947 -1.9372  1.9212  0.5893
 4225SOL     OW24136   3.306   2.213   5.589  0.5205  0.3898 -0.6921
 4225SOL    HW124137   3.280   2.272   5.659  0.8701  0.2538 -0.4475
 4225SOL    HW224138   3.399   2.210   5.609 -0.0252  0.4661  1.8365
 4226SOL     OW24139   1.679   4.700  14.490 -0.5015  0.0223  0.0436
 4226SOL    HW124140   1.708   4.664  14.574 -1.0750 -1.0041 -0.1934
 4226SOL    HW224141   1.668   0.066  14.518  2.6559  1.3111 -3.0053
 4227SOL     OW24142   1.425   4.481   8.933 -0.3764 -0.0866 -0.5061
 4227SOL    HW124143   1.350   4.536   8.955  0.6059  0.8045  0.6206
 4227SOL    HW224144   1.413   4.407   8.992 -2.9367  0.7691  0.0161
 4228SOL     OW24145   3.101   2.414   2.807  0.6435 -0.2589 -0.1732
 4228SOL    HW124146   3.079   2.322   2.820 -1.2853  0.5299  2.0254
 4228SOL    HW224147   3.126   2.442   2.895  1.0830 -2.0066  0.2576
 4229SOL     OW24148   1.336   3.214   6.066 -0.6230  0.2461 -0.0637
 4229SOL    HW124149   1.372   3.127   6.048  1.0345  1.4414 -2.6005
 4229SOL    HW224150   1.251   3.212   6.021 -0.8485  0.1204  0.3678
 4230SOL     OW24151   1.565   1.367   7.238 -0.2487  0.5224 -0.6170
 4230SOL    HW124152   1.643   1.421   7.251 -1.1076  1.8480 -0.9293
 4230SOL    HW224153   1.604   1.281   7.227 -1.7051 -0.2838  0.4399
 4231SOL     OW24154   3.926   1.665  11.687 -0.1612  0.3394  0.3693
 4231SOL    HW124155   3.839   1.679  11.724 -0.4717 -1.0500  0.1746
 4231SOL    HW224156   3.897   1.587  11.640 -0.5705  1.5656 -1.4126
 4232SOL     OW24157   2.407   1.937   9.136  0.2447 -0.2751  0.4836
 4232SOL    HW124158   2.493   1.941   9.096  0.3036 -2.7085  0.4121
 4232SOL    HW224159   2.414   1.873   9.207 -0.6410 -0.3691  0.4923
 4233SOL     OW24160   3.802   1.000  17.220  0.0344  0.9467  0.0975
 4233SOL    HW124161   3.758   0.937  17.162 -1.4539  0.1111  2.1187
 4233SOL    HW224162   3.760   1.084  17.201 -1.5715  0.0091 -0.5394
 4234SOL     OW24163   2.968   1.792   8.916 -0.1371  0.3612 -0.3165
 4234SOL    HW124164   3.060   1.810   8.934 -0.1851  0.8164 -0.5129
 4234SOL    HW224165   2.933   1.862   8.973 -1.0932  0.8530 -1.5099
 4235SOL     OW24166   1.854   1.045   6.577 -0.2150 -0.2272  0.0633
 4235SOL    HW124167   1.844   1.085   6.490  0.1503  2.2251  1.1460
 4235SOL    HW224168   1.864   1.122   6.632  1.9501 -0.1554 -0.4227
 4236SOL     OW24169   3.064   2.336   6.142 -0.1953  0.3671  0.1140
 4236SOL    HW124170   3.102   2.307   6.059 -0.3279 -1.6324  0.7479
 4236SOL    HW224171   2.972   2.322   6.120 -0.1991  1.9823 -0.9476
 4237SOL     OW24172   1.164   0.491   2.591  0.0088  0.1030 -0.1776
 4237SOL    HW124173   1.193   0.551   2.659 -0.7638 -1.4849  1.5514
 4237SOL    HW224174   1.081   0.530   2.562 -0.4457  0.1876  1.2352
 4238SOL     OW24175   1.915   2.701   3.594 -0.5415  0.3998  0.0950
 4238SOL    HW124176   1.909   2.713   3.499 -1.9849  2.9184  0.5094
 4238SOL    HW224177   1.828   2.727   3.623 -0.6341  0.1447  0.0415
 4239SOL     OW24178   1.973   2.487   9.070 -0.0028  0.5952  0.5945
 4239SOL    HW124179   1.908   2.557   9.065 -1.2061 -0.6422 -0.7579
 4239SOL    HW224180   2.051   2.541   9.061  0.6431 -0.0822  2.1566
 4240SOL     OW24181   2.337   1.985   2.520  0.2154  0.3585 -0.1598
 4240SOL    HW124182   2.264   2.048   2.515 -2.2468 -2.7264 -2.8445
 4240SOL    HW224183   2.300   1.915   2.573  0.8448  0.2542  0.1376
 4241SOL     OW24184   3.737   3.565   6.671  0.3360  0.6015  0.1417
 4241SOL    HW124185   3.804   3.497   6.664 -1.3893 -1.2190  1.3935
 4241SOL    HW224186   3.769   3.634   6.612 -1.1042  0.5119 -0.7334
 4242SOL     OW24187   0.845   1.988  16.543 -0.1613  0.0915 -0.0731
 4242SOL    HW124188   0.818   2.075  16.513  1.5751  0.5244 -0.3748
 4242SOL    HW224189   0.938   2.003  16.533 -0.5729  0.6978 -2.7901
 4243SOL     OW24190   3.508   1.118   9.951  0.3350  0.4440  0.4088
 4243SOL    HW124191   3.579   1.115   9.887  0.3997 -0.8715  0.5378
 4243SOL    HW224192   3.508   1.029   9.989 -0.2498 -0.6659 -2.2506
 4244SOL     OW24193   4.615   4.614   2.054 -0.2374  0.0278 -0.2762
 4244SOL    HW124194   4.628   4.709   2.053 -1.6225  0.2908  3.7399
 4244SOL    HW224195   4.702   4.583   2.027 -0.6454  0.5419 -2.1729
 4245SOL     OW24196   2.714   1.006   5.606 -0.3238  0.1317  0.3560
 4245SOL    HW124197   2.675   0.928   5.645  0.8019 -0.3963  0.4184
 4245SOL    HW224198   2.645   1.020   5.541 -0.2794 -3.3337 -0.4652
 4246SOL     OW24199   0.122   1.111   5.361  0.1162  0.0582 -0.2927
 4246SOL    HW124200   0.200   1.111   5.306 -0.4080 -0.6403 -1.0192
 4246SOL    HW224201   0.085   1.190   5.321 -0.9475  0.2798  1.1229
 4247SOL     OW24202   3.627   2.122   7.762 -0.8362  0.4120  0.3497
 4247SOL    HW124203   3.567   2.082   7.825  0.6993 -1.0653  0.8823
 4247SOL    HW224204   3.711   2.077   7.775 -1.7111 -1.2662  0.2377
 4248SOL     OW24205   2.707   2.510  11.250  0.4102  0.2711 -0.1749
 4248SOL    HW124206   2.718   2.603  11.273 -1.8921  1.0912 -2.4592
 4248SOL    HW224207   2.736   2.455  11.323 -0.8309  0.4778  0.4706
 4249SOL     OW24208   4.410   2.842   7.593 -0.0696 -0.0489  0.0834
 4249SOL    HW124209   4.484   2.817   7.649  0.6103  1.2582 -0.2205
 4249SOL    HW224210   4.342   2.840   7.660 -1.5389  1.0936 -1.3764
 4250SOL     OW24211   2.115   1.315   7.793  0.9551  0.7062 -0.3110
 4250SOL    HW124212   2.064   1.317   7.875  0.8668  2.4768 -0.4090
 4250SOL    HW224213   2.199   1.341   7.830  0.9672 -0.8483  0.7895
 4251SOL     OW24214   4.109   0.710  17.480 -0.4309 -0.4873  0.2728
 4251SOL    HW124215   4.181   0.725  17.542 -0.2781 -0.2375  0.0389
 4251SOL    HW224216   4.094   0.797  17.441  0.8719 -0.0642  0.7023
 4252SOL     OW24217   3.978   2.303  15.042 -0.3692  0.2795  0.2288
 4252SOL    HW124218   3.938   2.327  14.958 -3.1023  0.8641  1.6841
 4252SOL    HW224219   4.064   2.345  15.037  0.8253 -2.0606  1.6508
 4253SOL     OW24220   2.389   2.823   4.216  0.1646 -0.0332  0.2440
 4253SOL    HW124221   2.446   2.764   4.167 -0.6774 -0.1185 -0.6266
 4253SOL    HW224222   2.456   2.841   4.283 -1.8259 -1.0476  2.4893
 4254SOL     OW24223   1.964   2.914   5.681  0.2413  0.3164 -0.6031
 4254SOL    HW124224   1.957   2.993   5.734 -1.1477 -0.3398  0.1734
 4254SOL    HW224225   2.051   2.922   5.642 -0.3891 -1.6604 -2.4910
 4255SOL     OW24226   4.594   2.184  17.172 -0.3720  0.2998 -0.8305
 4255SOL    HW124227   4.639   2.255  17.127  1.1189  0.5862  1.0755
 4255SOL    HW224228   4.528   2.170  17.104 -0.9307  2.6770 -0.7935
 4256SOL     OW24229   2.446   0.030  11.109 -0.2460 -0.1004 -0.6894
 4256SOL    HW124230   2.355   0.048  11.085 -0.5526  0.9803  1.3533
 4256SOL    HW224231   2.448   4.661  11.091  1.5750  0.0557 -1.2990
 4257SOL     OW24232   1.359   2.052   3.543 -0.8011 -0.0131  0.7336
 4257SOL    HW124233   1.404   2.087   3.620  1.0046  0.6247 -0.6211
 4257SOL    HW224234   1.294   2.122   3.534 -2.8153 -2.0453 -0.4410
 4258SOL     OW24235   3.070   0.344   6.566 -0.3565  0.0560  0.4439
 4258SOL    HW124236   3.026   0.423   6.535 -1.6689  0.9374  4.5589
 4258SOL    HW224237   3.157   0.373   6.539 -0.5386  1.1395  1.0123
 4259SOL     OW24238   0.612   4.336  13.372  0.7036  0.0763  0.1047
 4259SOL    HW124239   0.685   4.331  13.310  1.9552 -0.7501  1.6258
 4259SOL    HW224240   0.636   4.418  13.415  0.0929  1.5578 -2.4027
 4260SOL     OW24241   0.741   2.737   6.645 -0.0632  0.1274  0.5966
 4260SOL    HW124242   0.810   2.740   6.579 -1.8044 -1.9681 -1.3114
 4260SOL    HW224243   0.701   2.650   6.649 -3.1791  1.4819 -0.8403
 4261SOL     OW24244   3.166   0.738   7.303  0.2715 -0.1795 -0.2582
 4261SOL    HW124245   3.079   0.772   7.280 -0.3148 -0.7907  1.0707
 4261SOL    HW224246   3.219   0.817   7.297 -0.2072  0.3002  1.8578
 4262SOL     OW24247   0.091   4.225   2.902  0.3002 -0.0150  1.0334
 4262SOL    HW124248   0.022   4.190   2.845 -0.1859 -0.3992  1.8670
 4262SOL    HW224249   0.163   4.223   2.839 -0.5363  1.7028  0.0177
 4263SOL     OW24250   4.489   1.622   8.751 -0.2069 -0.2610 -0.6992
 4263SOL    HW124251   4.418   1.561   8.770  0.3922 -1.4002 -2.0765
 4263SOL    HW224252   4.454   1.703   8.788  0.7959  0.1321 -0.6294
 4264SOL     OW24253   3.320   1.781  17.415 -0.1346  0.1574  0.5242
 4264SOL    HW124254   3.297   1.714  17.480  1.4145 -0.2141  0.6818
 4264SOL    HW224255   3.353   1.723  17.347  0.2120  1.6604 -0.5848
 4265SOL     OW24256   2.800   4.673  15.816 -0.0341  0.8527  0.5377
 4265SOL    HW124257   2.862   4.676  15.743  0.3855  0.8455  0.8964
 4265SOL    HW224258   2.861   4.638  15.881  1.4774  0.8394 -0.8910
 4266SOL     OW24259   1.270   1.957   5.293  0.4252 -0.6136 -0.1503
 4266SOL    HW124260   1.340   1.941   5.228 -0.6246 -0.1115 -1.4047
 4266SOL    HW224261   1.250   2.048   5.273 -2.0752 -1.5715 -2.0646
 4267SOL     OW24262   0.837   1.182  14.427  0.2364  0.0741 -0.1344
 4267SOL    HW124263   0.821   1.196  14.521  1.6564  0.5657  0.0204
 4267SOL    HW224264   0.765   1.238  14.398  0.0633 -0.6905 -1.1476
 4268SOL     OW24265   0.509   0.373  12.051 -1.1853  0.7580 -0.4451
 4268SOL    HW124266   0.550   0.458  12.066 -1.0139  0.5303  0.4010
 4268SOL    HW224267   0.575   0.336  11.993  1.3617 -0.3946  3.1635
 4269SOL     OW24268   3.244   2.166   6.579 -0.7856  0.0018  0.0047
 4269SOL    HW124269   3.223   2.196   6.490  1.1963 -2.2083 -1.2276
 4269SOL    HW224270   3.260   2.075   6.553 -0.0014  0.2347 -0.3331
 4270SOL     OW24271   2.992   0.634  11.921  0.3792 -0.2147 -0.7058
 4270SOL    HW124272   2.913   0.629  11.867  1.1634  1.1269 -1.9752
 4270SOL    HW224273   2.954   0.617  12.007  2.2097  0.7129  0.2778
 4271SOL     OW24274   2.336   2.713   5.744  0.0153  0.3276  0.2278
 4271SOL    HW124275   2.407   2.774   5.725 -0.8875  1.8818  1.8360
 4271SOL    HW224276   2.377   2.655   5.807 -0.3017 -1.5767 -1.3274
 4272SOL     OW24277   3.051   3.572  16.748  0.3737  0.1242  0.0758
 4272SOL    HW124278   3.085   3.625  16.821  2.1789  1.2454 -1.5687
 4272SOL    HW224279   3.070   3.483  16.777 -2.5001  0.1993  2.1120
 4273SOL     OW24280   0.884   2.000   5.099 -0.6696 -0.4733 -0.0077
 4273SOL    HW124281   0.925   1.923   5.137 -0.7846  1.2760  3.7011
 4273SOL    HW224282   0.856   1.966   5.015  0.5405  0.3900 -0.7674
 4274SOL     OW24283   3.443   2.949  10.141  0.6402  0.5670  0.6880
 4274SOL    HW124284   3.451   2.863  10.100  3.7963  1.3826 -0.4040
 4274SOL    HW224285   3.348   2.949  10.156  0.4984 -0.0473 -0.1793
 4275SOL     OW24286   3.135   1.773   8.010 -0.0557  0.1642 -0.1024
 4275SOL    HW124287   3.149   1.767   7.916 -0.9534 -0.8096 -0.1794
 4275SOL    HW224288   3.160   1.862   8.032  0.8951 -0.3650  0.9538
 4276SOL     OW24289   3.185   0.189   2.693  0.1762  0.2600  0.3184
 4276SOL    HW124290   3.112   0.173   2.752 -1.0720 -0.3260 -1.3835
 4276SOL    HW224291   3.209   0.103   2.658 -1.2586 -0.3025  0.7291
 4277SOL     OW24292   4.461   1.138   2.835 -0.4528 -0.3923 -0.4608
 4277SOL    HW124293   4.455   1.189   2.754 -0.0729  3.2391  1.8267
 4277SOL    HW224294   4.371   1.154   2.863 -0.2563 -1.7136  0.9246
 4278SOL     OW24295   0.558   4.113   7.390  0.3346  0.1285 -0.3079
 4278SOL    HW124296   0.569   4.046   7.457 -3.5842  0.4129  0.6255
 4278SOL    HW224297   0.467   4.112   7.358 -0.1213  1.0845  0.9826
 4279SOL     OW24298   0.431   2.291  11.404  0.0740 -0.3834  0.2686
 4279SOL    HW124299   0.465   2.321  11.320  0.8553 -1.3061  0.2597
 4279SOL    HW224300   0.504   2.303  11.465 -0.4280  0.3900  0.7077
 4280SOL     OW24301   3.075   3.897   6.739 -0.0384 -0.0603 -0.3551
 4280SOL    HW124302   3.047   3.807   6.754 -4.5220  1.2165 -0.9155
 4280SOL    HW224303   3.165   3.882   6.713  0.0290 -0.0689 -0.1141
 4281SOL     OW24304   0.968   1.607   5.993 -0.3268  0.3197 -0.2134
 4281SOL    HW124305   0.974   1.517   5.960  0.3483  0.0050  0.7676
 4281SOL    HW224306   0.937   1.643   5.910  1.6701  1.9186 -0.2611
 4282SOL     OW24307   4.424   3.157  12.113 -0.3027  0.0814 -0.2307
 4282SOL    HW124308   4.362   3.197  12.173 -0.3132 -2.5649  1.5328
 4282SOL    HW224309   4.501   3.213  12.110  0.5808 -1.1490 -0.9032
 4283SOL     OW24310   3.538   3.816   6.511  0.1952  0.6547  0.1369
 4283SOL    HW124311   3.586   3.869   6.447 -0.3057  1.1694  0.1889
 4283SOL    HW224312   3.617   3.782   6.553  2.0482  2.5921 -1.7714
 4284SOL     OW24313   3.545   2.085   3.779  0.2202  0.4259  0.0195
 4284SOL    HW124314   3.471   2.140   3.753  0.1531  0.1128 -0.4442
 4284SOL    HW224315   3.575   2.126   3.860 -0.8564  2.3149 -0.5354
 4285SOL     OW24316   3.785   2.640   2.434  0.2017 -0.0223 -0.2228
 4285SOL    HW124317   3.766   2.694   2.358  0.1317  0.6320  0.2569
 4285SOL    HW224318   3.776   2.553   2.395 -1.4819  0.9922 -2.0585
 4286SOL     OW24319   4.239   0.853   7.513  0.7404 -0.3907  0.0178
 4286SOL    HW124320   4.327   0.849   7.550  0.0987  0.1210  1.5741
 4286SOL    HW224321   4.239   0.931   7.457 -0.9180  0.9443  1.8990
 4287SOL     OW24322   3.114   0.499   8.003 -0.5487 -0.3065  0.5516
 4287SOL    HW124323   3.071   0.414   7.995 -1.6369  0.2283  0.6062
 4287SOL    HW224324   3.096   0.550   7.923  0.2749  0.2092  0.6954
 4288SOL     OW24325   0.805   1.694  11.817  0.2631  0.4001  0.6562
 4288SOL    HW124326   0.808   1.753  11.742 -0.7008  0.4093  0.6288
 4288SOL    HW224327   0.710   1.684  11.821  0.3144  0.8268  3.1527
 4289SOL     OW24328   3.242   1.403   3.221 -0.2196  0.7264 -0.3231
 4289SOL    HW124329   3.235   1.309   3.237  1.4097  0.6009 -0.3993
 4289SOL    HW224330   3.304   1.390   3.149 -2.1125 -0.2715 -1.7789
 4290SOL     OW24331   4.260   1.569   4.930 -0.2845  0.2267  0.2238
 4290SOL    HW124332   4.292   1.642   4.877  3.4365 -1.4114  0.1839
 4290SOL    HW224333   4.265   1.504   4.859  3.4462  1.0541 -0.2744
 4291SOL     OW24334   2.536   4.720   4.007  0.2532  0.2962 -0.1299
 4291SOL    HW124335   2.506   0.086   4.017 -0.3069  0.2118 -0.9937
 4291SOL    HW224336   2.512   4.695   3.918 -0.2078 -0.3273  0.1773
 4292SOL     OW24337   1.911   2.264   4.716  0.4509  0.2775 -0.1376
 4292SOL    HW124338   2.006   2.256   4.726  0.3690 -0.9686 -0.3597
 4292SOL    HW224339   1.903   2.295   4.626 -0.2030 -1.6001 -0.7297
 4293SOL     OW24340   0.902   4.222   2.316  0.5144  0.4189 -0.3332
 4293SOL    HW124341   0.965   4.160   2.278  1.6128  1.1334  0.3069
 4293SOL    HW224342   0.941   4.302   2.280  1.7998  1.0154  2.4272
 4294SOL     OW24343   1.107   3.017   5.493 -0.2168  0.0907  0.0758
 4294SOL    HW124344   1.098   3.068   5.412 -0.0380  0.2991  0.1878
 4294SOL    HW224345   1.147   3.085   5.547  1.7677  0.5189 -1.9257
 4295SOL     OW24346   3.157   3.162   1.568 -0.0581  0.1878 -0.4716
 4295SOL    HW124347   3.111   3.079   1.552  0.1492  0.0120 -0.1605
 4295SOL    HW224348   3.198   3.145   1.653 -3.1466 -0.0043  0.9778
 4296SOL     OW24349   1.964   1.933  12.839 -0.2382  0.0264 -0.6115
 4296SOL    HW124350   2.027   2.000  12.865  0.1770 -0.8333  0.5774
 4296SOL    HW224351   1.906   1.976  12.775 -4.3562 -0.1684  2.9527
 4297SOL     OW24352   0.030   0.222  17.302 -0.1864 -0.5644 -0.2775
 4297SOL    HW124353   0.016   0.210  17.396 -1.1134  0.6613 -0.2685
 4297SOL    HW224354   0.122   0.248  17.311 -0.4353  0.6826 -1.4514
 4298SOL     OW24355   3.143   4.276  16.769  0.1963 -0.8470 -0.8164
 4298SOL    HW124356   3.065   4.329  16.785  0.7614 -0.0495 -0.6464
 4298SOL    HW224357   3.203   4.351  16.758 -0.3949 -0.1725  0.6290
 4299SOL     OW24358   0.473   4.205   4.441 -0.1740 -0.4817  0.1411
 4299SOL    HW124359   0.464   4.283   4.497  1.6575  0.2903 -0.6419
 4299SOL    HW224360   0.567   4.200   4.426 -0.5899 -0.7969 -2.3681
 4300SOL     OW24361   2.212   2.953   4.028 -0.2167 -0.0996 -0.4757
 4300SOL    HW124362   2.261   2.923   4.104  0.0413  2.1958  0.2475
 4300SOL    HW224363   2.289   2.984   3.980  0.6597 -1.7832 -0.1444
 4301SOL     OW24364   1.664   3.011   2.210 -0.1276 -0.0768 -0.1525
 4301SOL    HW124365   1.697   3.100   2.219  2.9607 -1.3560  1.1321
 4301SOL    HW224366   1.655   3.007   2.115 -1.4035 -0.5198 -0.0116
 4302SOL     OW24367   1.465   4.661   4.293 -0.0623 -0.5739 -0.3675
 4302SOL    HW124368   1.441   4.705   4.211  0.3025 -0.2700 -0.3061
 4302SOL    HW224369   1.474   4.575   4.250  0.5831 -0.6975  0.0269
 4303SOL     OW24370   2.288   1.010  12.416  0.4259 -0.8271  0.1597
 4303SOL    HW124371   2.322   0.952  12.484 -1.4694 -0.6098  1.3051
 4303SOL    HW224372   2.212   1.051  12.457  0.4883 -0.5615  0.0031
 4304SOL     OW24373   3.182   1.546   4.664  0.0689 -0.3751  0.0424
 4304SOL    HW124374   3.190   1.479   4.732 -3.7574  1.5198  2.3451
 4304SOL    HW224375   3.251   1.510   4.609  0.2675 -0.3293  0.2589
 4305SOL     OW24376   3.989   2.302   7.524 -0.1043  0.3945 -0.2732
 4305SOL    HW124377   3.906   2.256   7.540  0.0487  0.6620  1.2857
 4305SOL    HW224378   3.983   2.374   7.586 -1.6539 -1.8197  2.1831
 4306SOL     OW24379   3.573   3.208  12.685  0.4244 -0.4433  0.6349
 4306SOL    HW124380   3.550   3.300  12.700 -0.8985 -0.6967  0.0863
 4306SOL    HW224381   3.606   3.202  12.775 -0.2818  1.2823  1.0020
 4307SOL     OW24382   0.150   2.961   7.530  0.0962 -0.2204  0.2588
 4307SOL    HW124383   0.068   2.942   7.484  0.6017  2.5943 -1.8089
 4307SOL    HW224384   0.220   2.944   7.467  0.4502  0.1513  0.5498
 4308SOL     OW24385   4.617   4.436   7.608  0.1648 -0.2675 -0.0940
 4308SOL    HW124386   4.577   4.371   7.550  0.0854 -1.4622  1.3185
 4308SOL    HW224387   4.678   4.385   7.661 -0.0352  1.9925  2.2723
 4309SOL     OW24388   0.022   3.249   5.202 -0.1961 -0.5226 -0.6070
 4309SOL    HW124389   0.063   3.176   5.156  0.3777 -1.5961  1.6312
 4309SOL    HW224390   0.075   3.251   5.282 -1.9263 -0.5598  0.5378
 4310SOL     OW24391   2.402   2.139   8.287 -0.3794 -0.1756  0.3329
 4310SOL    HW124392   2.421   2.173   8.374  1.2091  2.0195 -0.8841
 4310SOL    HW224393   2.380   2.048   8.305 -0.5801 -0.1986 -0.0134
 4311SOL     OW24394   2.330   1.673   0.601 -0.5972 -0.3303  0.2570
 4311SOL    HW124395   2.273   1.604   0.634 -2.1878  0.6047 -0.5718
 4311SOL    HW224396   2.414   1.656   0.644  1.1229  2.1602 -2.1759
 4312SOL     OW24397   1.760   1.320   8.931  0.0204 -0.2522  0.8072
 4312SOL    HW124398   1.844   1.281   8.957  0.0118  0.9451  2.6266
 4312SOL    HW224399   1.733   1.366   9.010  0.5325  1.0643  0.2183
 4313SOL     OW24400   3.974   1.702   4.724 -0.7697  0.5155 -0.1555
 4313SOL    HW124401   4.066   1.697   4.699 -0.8479  0.6963 -0.4903
 4313SOL    HW224402   3.952   1.610   4.734 -0.0417  0.3064 -0.5102
 4314SOL     OW24403   0.560   4.606   3.302 -0.2974 -0.1842 -0.3460
 4314SOL    HW124404   0.483   4.561   3.335 -0.6641  0.5099 -0.2471
 4314SOL    HW224405   0.622   4.534   3.301  0.9848  0.9122  1.4505
 4315SOL     OW24406   2.401   0.299   0.972  0.3367  0.0935  0.1570
 4315SOL    HW124407   2.351   0.256   0.904 -0.1855 -0.6491  1.0040
 4315SOL    HW224408   2.341   0.307   1.047 -1.3031  2.0446 -1.3751
 4316SOL     OW24409   3.728   3.700   7.353 -0.1946  0.5134 -0.0918
 4316SOL    HW124410   3.761   3.776   7.401 -0.0650 -1.2535  2.6381
 4316SOL    HW224411   3.658   3.665   7.409 -0.0180 -1.4109 -1.0589
 4317SOL     OW24412   3.245   1.897  13.039  0.5095 -0.2223  0.0375
 4317SOL    HW124413   3.337   1.871  13.048  1.1995  2.2216  0.2201
 4317SOL    HW224414   3.227   1.908  13.133 -0.0579  0.5680 -0.1646
 4318SOL     OW24415   4.708   3.583   7.881  0.2700  0.1413 -0.3975
 4318SOL    HW124416   0.053   3.522   7.859 -0.0237  0.1599 -1.3548
 4318SOL    HW224417   4.659   3.591   7.800  0.7833  2.5273 -0.4837
 4319SOL     OW24418   1.209   2.621   1.815  0.3342  0.2557 -0.0239
 4319SOL    HW124419   1.289   2.613   1.867 -1.5330 -1.8478  2.5374
 4319SOL    HW224420   1.179   2.533   1.835  2.3597  0.0592  2.2231
 4320SOL     OW24421   1.798   1.797   6.224  0.2415 -0.6151 -0.1273
 4320SOL    HW124422   1.806   1.773   6.316 -2.0079  1.2603  0.5500
 4320SOL    HW224423   1.715   1.844   6.221  1.2819  1.2106 -0.4291
 4321SOL     OW24424   1.064   2.142   2.418  0.5710  0.0257 -0.0318
 4321SOL    HW124425   0.978   2.160   2.455  0.5836 -1.8992  0.9583
 4321SOL    HW224426   1.055   2.060   2.369 -1.2124 -1.6208  3.0365
 4322SOL     OW24427   1.081   4.604  15.397  0.6324  0.0439  0.0539
 4322SOL    HW124428   1.013   4.618  15.464  0.3256  0.7696 -0.4103
 4322SOL    HW224429   1.134   4.530  15.426  1.3998  1.2108  1.6416
 4323SOL     OW24430   2.709   4.447   4.155  0.1914 -0.1690 -0.2511
 4323SOL    HW124431   2.653   4.518   4.186 -0.1349 -0.0503 -1.0956
 4323SOL    HW224432   2.793   4.493   4.157 -0.2268  0.4886  1.8405
 4324SOL     OW24433   2.954   3.700  13.688  0.1809 -0.0534  0.4879
 4324SOL    HW124434   3.039   3.735  13.713  0.2198 -1.3713  2.2236
 4324SOL    HW224435   2.895   3.775  13.680  0.8016  0.5640  1.7617
 4325SOL     OW24436   2.473   4.103   3.974 -0.2664  0.0945 -0.5858
 4325SOL    HW124437   2.412   4.029   3.969 -1.4707  1.1378 -0.9843
 4325SOL    HW224438   2.432   4.160   3.910  0.3729  0.0076 -1.0721
 4326SOL     OW24439   0.530   1.056   7.151  0.5426  0.9554 -0.2085
 4326SOL    HW124440   0.603   1.028   7.096  1.1341 -0.5766  1.3390
 4326SOL    HW224441   0.472   1.088   7.082  0.3927 -2.1369 -1.4837
 4327SOL     OW24442   4.139   3.168   4.606  0.3295 -0.0763  0.4693
 4327SOL    HW124443   4.205   3.104   4.635 -1.2453 -0.1396  3.8928
 4327SOL    HW224444   4.151   3.174   4.511 -1.8992  0.9880  0.2552
 4328SOL     OW24445   2.587   1.028   8.777 -0.4812  0.4354 -0.1683
 4328SOL    HW124446   2.567   1.117   8.749 -2.1125  0.0421 -0.2065
 4328SOL    HW224447   2.580   1.030   8.872  1.1947 -0.8031 -0.0046
 4329SOL     OW24448   4.175   1.118   6.048  0.2516 -0.3059 -0.1341
 4329SOL    HW124449   4.237   1.173   6.000 -0.2974  0.6658  0.2686
 4329SOL    HW224450   4.170   1.033   6.005  0.3658 -0.0152 -0.7206
 4330SOL     OW24451   1.634   1.087   6.110 -0.2642 -1.0075 -0.3845
 4330SOL    HW124452   1.605   1.161   6.056 -1.1468  0.5715  2.2260
 4330SOL    HW224453   1.568   1.018   6.104 -0.5975 -0.5355 -1.9586
 4331SOL     OW24454   1.662   3.791   7.079  0.0373  0.2311  0.2649
 4331SOL    HW124455   1.632   3.812   7.167  0.3154  0.5197  0.2924
 4331SOL    HW224456   1.604   3.720   7.054  1.4471 -0.6827 -0.4370
 4332SOL     OW24457   1.205   4.479   5.543 -0.1092  0.4996 -0.2199
 4332SOL    HW124458   1.281   4.421   5.550 -0.3546  0.3600  1.5035
 4332SOL    HW224459   1.236   4.559   5.585 -0.8127  0.1847  0.9097
 4333SOL     OW24460   4.355   1.908   3.358  0.5264 -0.3778  0.4694
 4333SOL    HW124461   4.395   1.863   3.433 -0.4377 -3.2104 -0.7721
 4333SOL    HW224462   4.418   1.893   3.287  1.4614  2.6441  0.6197
 4334SOL     OW24463   2.450   1.671   2.407 -0.4071 -0.3411  0.2546
 4334SOL    HW124464   2.399   1.627   2.475  2.4646 -2.5654  0.9854
 4334SOL    HW224465   2.523   1.708   2.456  1.4683 -3.5400 -0.1264
 4335SOL     OW24466   2.911   4.229   7.503  0.2647 -0.0857 -0.1176
 4335SOL    HW124467   2.978   4.274   7.452  0.1973 -1.2595 -1.2219
 4335SOL    HW224468   2.851   4.209   7.431  2.2004 -2.2911 -1.0948
 4336SOL     OW24469   2.103   0.424   5.050  0.5164  0.2329 -0.5732
 4336SOL    HW124470   2.073   0.359   4.987 -0.7854 -0.4649  0.7941
 4336SOL    HW224471   2.183   0.456   5.007  0.7357 -1.0809 -1.1225
 4337SOL     OW24472   4.177   0.641  11.451 -0.3210  0.2913  0.0546
 4337SOL    HW124473   4.215   0.559  11.420  0.1885  1.0428 -1.3003
 4337SOL    HW224474   4.119   0.668  11.380  0.7029 -1.4669 -1.4616
 4338SOL     OW24475   0.031   3.215   7.565 -0.0483 -0.0663 -0.4063
 4338SOL    HW124476   0.107   3.251   7.610  0.0945 -1.1377  0.2040
 4338SOL    HW224477   0.053   3.122   7.568  1.5688  0.2878 -0.9514
 4339SOL     OW24478   3.019   0.039   2.443  0.0196  0.0835  0.5831
 4339SOL    HW124479   3.005   0.084   2.359 -1.5112 -0.3407  0.5990
 4339SOL    HW224480   2.935   4.720   2.456 -1.0998  2.4590  1.5485
 4340SOL     OW24481   1.013   0.539   4.078  0.1191  0.4384  0.1464
 4340SOL    HW124482   1.031   0.446   4.065  0.5191  0.3508  1.3019
 4340SOL    HW224483   0.942   0.544   4.014  0.7119  0.5531 -0.5019
 4341SOL     OW24484   3.948   4.037   3.472 -0.0977  0.2142 -0.0766
 4341SOL    HW124485   3.958   4.104   3.405  2.9475  1.7561  1.9298
 4341SOL    HW224486   4.029   4.036   3.523 -0.6302 -1.5970  0.7460
 4342SOL     OW24487   3.518   4.043   0.534  0.0579  0.2380 -0.1289
 4342SOL    HW124488   3.445   3.993   0.570  0.0382  0.4577  0.1444
 4342SOL    HW224489   3.564   3.962   0.514  2.6250  1.9804 -1.3988
 4343SOL     OW24490   3.818   4.446  10.185  0.3090 -0.4440 -0.9725
 4343SOL    HW124491   3.782   4.438  10.274 -0.9674  1.8533 -1.2860
 4343SOL    HW224492   3.793   4.361  10.148  1.6715 -0.5709 -1.6052
 4344SOL     OW24493   1.703   3.692  17.188 -0.2460 -0.0059 -0.5683
 4344SOL    HW124494   1.797   3.678  17.205 -0.1569 -0.2271 -1.2556
 4344SOL    HW224495   1.669   3.702  17.277 -1.0093 -0.5971 -0.7964
 4345SOL     OW24496   3.236   4.466   8.945  0.3283 -0.2947 -0.1022
 4345SOL    HW124497   3.329   4.477   8.962  0.2369 -3.6383  2.5599
 4345SOL    HW224498   3.222   4.436   9.035  0.5072  2.2006  0.7676
 4346SOL     OW24499   3.774   2.198  12.758 -0.3510 -0.1803 -0.2191
 4346SOL    HW124500   3.741   2.125  12.810 -0.0381 -0.2242 -0.0789
 4346SOL    HW224501   3.692   2.214  12.712 -1.3949  0.9039  2.0052
 4347SOL     OW24502   0.561   1.179   2.001 -0.0959 -0.1419  0.6577
 4347SOL    HW124503   0.551   1.089   1.972  0.0246  0.6099 -1.7175
 4347SOL    HW224504   0.656   1.187   2.006 -0.4041  2.9182  1.8659
 4348SOL     OW24505   0.629   0.665  10.928  0.3812  0.4002  0.4466
 4348SOL    HW124506   0.556   0.673  10.989  0.5890 -0.5410  0.8221
 4348SOL    HW224507   0.674   0.595  10.975 -0.6980 -1.1568 -0.8158
 4349SOL     OW24508   1.365   2.092   4.196  0.0978 -0.1828  0.2334
 4349SOL    HW124509   1.340   2.076   4.287 -1.3795 -1.9861 -0.4960
 4349SOL    HW224510   1.435   2.156   4.211 -1.0986  1.1680  0.0766
 4350SOL     OW24511   0.211   0.901   3.542 -0.1121  0.6233 -0.1506
 4350SOL    HW124512   0.304   0.924   3.541  0.0114  0.1045 -0.7321
 4350SOL    HW224513   0.175   0.989   3.529 -1.4356 -0.2415 -2.3803
 4351SOL     OW24514   1.995   3.706  11.378 -0.7083  0.6161 -0.2940
 4351SOL    HW124515   1.986   3.653  11.299 -3.0632  0.5223  0.0176
 4351SOL    HW224516   1.911   3.752  11.390  0.8250  2.9313  1.5584
 4352SOL     OW24517   2.579   2.138   7.013 -0.0303 -0.3288  0.2440
 4352SOL    HW124518   2.589   2.203   7.082 -2.2080  0.3293 -0.0834
 4352SOL    HW224519   2.607   2.060   7.061  2.2502  1.7315  2.2884
 4353SOL     OW24520   0.971   2.359   4.298 -0.5072 -0.2163 -0.3201
 4353SOL    HW124521   0.946   2.300   4.369 -0.5402  0.4129  0.1917
 4353SOL    HW224522   0.955   2.442   4.344  1.2262 -1.2381  2.1178
 4354SOL     OW24523   4.157   1.089   6.378 -0.4369  0.2842 -0.0768
 4354SOL    HW124524   4.192   1.097   6.289  0.5062 -3.0418  0.0268
 4354SOL    HW224525   4.136   0.996   6.372 -1.0925  0.5752 -2.2549
 4355SOL     OW24526   1.756   3.725  10.244 -0.2444  0.3608  0.5651
 4355SOL    HW124527   1.767   3.807  10.294 -1.8577  0.5808  0.5621
 4355SOL    HW224528   1.683   3.686  10.293 -2.9047  2.4742 -1.6672
 4356SOL     OW24529   4.639   2.238   6.327 -0.1508 -0.6768  0.1214
 4356SOL    HW124530   4.609   2.154   6.294 -1.0732 -0.7863  1.2300
 4356SOL    HW224531   0.005   2.238   6.298  0.0524  0.2808  0.7309
 4357SOL     OW24532   4.266   0.457   3.117  0.2320 -0.4222  0.2470
 4357SOL    HW124533   4.220   0.395   3.060  3.3333 -0.6684 -2.0033
 4357SOL    HW224534   4.281   0.397   3.190 -0.6238  1.8709  2.3115
 4358SOL     OW24535   3.262   4.272   9.267  0.4672  0.7266 -0.2014
 4358SOL    HW124536   3.238   4.359   9.297  0.2692  0.1900  1.1903
 4358SOL    HW224537   3.230   4.224   9.343 -0.2305 -0.7670 -1.4151
 4359SOL     OW24538   2.341   2.966   2.834 -0.1291 -0.2321 -0.0738
 4359SOL    HW124539   2.280   3.040   2.833  0.1997  0.0335 -0.2083
 4359SOL    HW224540   2.396   2.996   2.762  1.2110  1.5980  1.6914
 4360SOL     OW24541   3.944   0.934   2.814 -0.8863  0.2367  0.0992
 4360SOL    HW124542   3.907   0.870   2.754 -1.1819 -0.1916  0.7423
 4360SOL    HW224543   3.866   0.976   2.850 -0.4743  1.9241 -0.9698
 4361SOL     OW24544   2.094   1.560   5.283  0.1785  0.6566  0.1015
 4361SOL    HW124545   2.010   1.597   5.253 -0.9349 -4.1652 -2.7318
 4361SOL    HW224546   2.070   1.475   5.320 -0.1869  0.8689  0.3580
 4362SOL     OW24547   3.421   2.242   2.208 -0.2322  0.7228  0.5267
 4362SOL    HW124548   3.385   2.309   2.149  0.2713  0.8553  0.3638
 4362SOL    HW224549   3.436   2.170   2.147  1.3616  0.9646  0.6179
 4363SOL     OW24550   0.461   0.279   3.823 -0.4041 -0.2089 -0.2502
 4363SOL    HW124551   0.386   0.221   3.806  0.2368 -1.6284  1.7295
 4363SOL    HW224552   0.465   0.334   3.744 -1.0729  2.6069  1.6929
 4364SOL     OW24553   3.453   3.542   2.593 -0.0708 -0.4874  0.0457
 4364SOL    HW124554   3.515   3.615   2.585 -0.6008  0.0044  0.4224
 4364SOL    HW224555   3.375   3.595   2.574  0.3861  0.9008  1.9965
 4365SOL     OW24556   1.697   3.208   0.615  0.3959 -0.0220 -0.6517
 4365SOL    HW124557   1.744   3.242   0.539  1.1891  1.4306  0.4896
 4365SOL    HW224558   1.666   3.124   0.581 -0.9568  0.1970  0.0171
 4366SOL     OW24559   1.396   4.397  13.820 -0.2467 -0.4279 -0.4750
 4366SOL    HW124560   1.491   4.394  13.808 -0.0381  0.9594  0.8535
 4366SOL    HW224561   1.371   4.316  13.775 -0.4131 -1.2479  1.0929
 4367SOL     OW24562   0.206   4.616   2.711 -0.5971  0.5386  0.1732
 4367SOL    HW124563   0.135   4.600   2.648  0.8457  0.2227 -1.3672
 4367SOL    HW224564   0.165   4.579   2.789 -1.8614 -0.1491 -0.8197
 4368SOL     OW24565   1.787   3.962   3.327 -0.4374 -0.1003  0.5445
 4368SOL    HW124566   1.840   3.972   3.248 -3.1685  2.6674 -0.9702
 4368SOL    HW224567   1.761   4.053   3.346 -1.1903  0.1108 -1.3997
 4369SOL     OW24568   1.677   3.363   7.495  0.3689 -0.3682  0.1287
 4369SOL    HW124569   1.702   3.347   7.404  0.8342 -0.6905  0.3110
 4369SOL    HW224570   1.684   3.276   7.534  2.6740  0.5128  1.7003
 4370SOL     OW24571   3.867   3.799   6.171 -0.2588 -0.2237  0.3362
 4370SOL    HW124572   3.820   3.787   6.254  0.1664  0.4885  0.6770
 4370SOL    HW224573   3.827   3.879   6.138  0.2784 -0.0181  0.1789
 4371SOL     OW24574   2.664   2.172   8.750 -0.3836  0.7647  0.1055
 4371SOL    HW124575   2.750   2.147   8.714 -0.5814  0.1429  0.0675
 4371SOL    HW224576   2.689   2.142   8.838  0.8826 -0.3287 -0.6310
 4372SOL     OW24577   1.188   0.961  15.960  0.3665 -0.5752 -0.1896
 4372SOL    HW124578   1.169   1.048  15.994 -1.5885 -0.9422 -0.3445
 4372SOL    HW224579   1.205   0.917  16.044  0.9708 -0.2313 -0.1312
 4373SOL     OW24580   0.428   2.130   2.759 -0.1537 -0.1406  0.9405
 4373SOL    HW124581   0.392   2.176   2.683 -1.4944 -0.0489  1.6446
 4373SOL    HW224582   0.423   2.198   2.827 -0.2064  2.4669 -1.6597
 4374SOL     OW24583   4.540   0.146   2.959  0.1948  0.3102  0.2611
 4374SOL    HW124584   4.568   0.229   2.920  0.6916  0.6950  1.4341
 4374SOL    HW224585   4.576   0.075   2.906  0.0131 -0.4917  1.2146
 4375SOL     OW24586   3.729   4.135   5.811 -0.2202  0.2754 -0.2113
 4375SOL    HW124587   3.714   4.070   5.878  2.8013 -0.2426 -0.0213
 4375SOL    HW224588   3.811   4.107   5.770 -1.2235 -1.2504 -1.1803
 4376SOL     OW24589   2.517   3.809   5.981  0.5699  0.6489 -0.2958
 4376SOL    HW124590   2.512   3.904   5.988  1.8684  0.5868  1.2886
 4376SOL    HW224591   2.463   3.788   6.057 -0.0903  0.5144 -0.7964
 4377SOL     OW24592   0.868   4.292   7.339  0.1908  0.5255 -0.0392
 4377SOL    HW124593   0.798   4.355   7.355  0.1208  0.2770  0.6553
 4377SOL    HW224594   0.813   4.230   7.292  2.5333 -0.7698 -1.0227
 4378SOL     OW24595   3.894   1.447  14.159  0.2547  0.3769  0.0432
 4378SOL    HW124596   3.843   1.443  14.077  1.8214 -1.7693 -0.8020
 4378SOL    HW224597   3.872   1.537  14.185 -2.0635 -0.1314 -0.0996
 4379SOL     OW24598   1.925   4.021   3.107 -0.8471  0.3011 -0.0580
 4379SOL    HW124599   1.895   4.108   3.078  1.5873  0.8913 -0.8345
 4379SOL    HW224600   2.004   4.004   3.056 -0.4179 -0.4103  0.8478
 4380SOL     OW24601   2.021   3.402  15.966  0.1280 -0.4987 -0.3776
 4380SOL    HW124602   2.081   3.353  15.910  1.0862  1.0674 -0.7533
 4380SOL    HW224603   2.082   3.447  16.025  1.0094 -0.9017 -0.9796
 4381SOL     OW24604   4.473   3.577   1.695 -0.2837 -0.2506  0.3995
 4381SOL    HW124605   4.501   3.506   1.637  0.9274  1.6247 -1.3017
 4381SOL    HW224606   4.398   3.619   1.653  0.7262  1.3573  0.2312
 4382SOL     OW24607   3.723   2.246   6.456 -0.4548 -0.5966 -0.5033
 4382SOL    HW124608   3.689   2.163   6.489 -0.2065  0.3312  2.0926
 4382SOL    HW224609   3.641   2.297   6.458 -1.6453 -2.5742  1.5059
 4383SOL     OW24610   3.079   0.768   4.096 -0.0487 -0.1491 -0.0560
 4383SOL    HW124611   3.129   0.768   4.015  3.2319 -0.1928  1.9957
 4383SOL    HW224612   2.992   0.772   4.055 -0.1387  2.1898  0.3722
 4384SOL     OW24613   0.805   1.687   3.730 -0.3096  0.6527  0.4423
 4384SOL    HW124614   0.865   1.630   3.778  0.4093  0.1269 -1.0846
 4384SOL    HW224615   0.839   1.773   3.754  0.8074  0.6915 -1.3295
 4385SOL     OW24616   1.794   1.815   7.518 -0.4490  0.5596 -0.6428
 4385SOL    HW124617   1.793   1.733   7.568 -1.7027  0.2769 -1.1353
 4385SOL    HW224618   1.706   1.836   7.486 -0.0660  2.6943 -0.3109
 4386SOL     OW24619   1.308   1.489   5.244  0.0779  0.2779  0.4596
 4386SOL    HW124620   1.249   1.527   5.179 -0.3665  1.6336  1.6739
 4386SOL    HW224621   1.330   1.401   5.212  0.5008  1.2127 -1.8193
 4387SOL     OW24622   2.045   0.292   5.277  0.0662  0.3383 -0.4859
 4387SOL    HW124623   2.049   0.217   5.218 -2.4292 -0.8426  0.8537
 4387SOL    HW224624   2.059   0.362   5.213 -2.9033  0.6740 -0.7941
 4388SOL     OW24625   1.061   1.216   0.615  0.6781 -0.0849  0.4110
 4388SOL    HW124626   1.013   1.286   0.659  0.6789 -1.6480  2.9408
 4388SOL    HW224627   1.027   1.145   0.669 -0.2957 -0.0278 -0.1279
 4389SOL     OW24628   1.454   3.219   8.560 -0.5094  0.2318 -0.0742
 4389SOL    HW124629   1.435   3.126   8.565 -2.3980  0.6221  0.0385
 4389SOL    HW224630   1.374   3.269   8.541 -0.1116  0.7288 -0.4700
 4390SOL     OW24631   3.463   2.600   7.852 -0.1468  0.0176  0.2190
 4390SOL    HW124632   3.422   2.579   7.768  0.2954  0.8441 -0.2103
 4390SOL    HW224633   3.521   2.524   7.849 -0.4831 -0.2639  1.1553
 4391SOL     OW24634   2.610   4.023   9.926 -0.0386 -1.0728  0.5552
 4391SOL    HW124635   2.694   3.984   9.948 -0.2943  0.4727  4.1852
 4391SOL    HW224636   2.642   4.111   9.903 -2.9428 -0.3593 -0.8084
 4392SOL     OW24637   4.072   1.251   5.161 -0.2934  0.0433  0.6353
 4392SOL    HW124638   4.144   1.189   5.147  1.2052  1.5987  1.3721
 4392SOL    HW224639   4.128   1.328   5.177 -1.7560  1.2457 -0.0351
 4393SOL     OW24640   4.258   0.638   3.680 -0.3201  0.1193 -0.2761
 4393SOL    HW124641   4.178   0.689   3.664 -1.1922 -1.3306 -0.5728
 4393SOL    HW224642   4.234   0.551   3.647 -4.2244  0.9344  0.3546
 4394SOL     OW24643   0.316   0.474   8.462 -0.1596 -0.6055 -0.0404
 4394SOL    HW124644   0.228   0.511   8.455  0.1416  0.1652  0.2128
 4394SOL    HW224645   0.290   0.399   8.515  0.6818 -2.5121 -2.3205
 4395SOL     OW24646   1.951   2.117   8.991 -0.3176  0.6986 -0.1087
 4395SOL    HW124647   1.903   2.195   8.963 -0.1058  0.3881 -1.3389
 4395SOL    HW224648   1.890   2.078   9.054 -0.3714  1.5334  0.3474
 4396SOL     OW24649   0.214   2.197   8.542 -0.0531 -0.2526  0.3809
 4396SOL    HW124650   0.226   2.292   8.535  0.3608 -0.3558 -0.2089
 4396SOL    HW224651   0.290   2.173   8.489 -0.6917 -0.4944 -0.4268
 4397SOL     OW24652   2.650   2.188  13.487 -0.1369  0.3056  0.1853
 4397SOL    HW124653   2.563   2.173  13.451  0.7910 -0.8772 -1.5636
 4397SOL    HW224654   2.696   2.113  13.451 -0.8479  0.5958 -1.3236
 4398SOL     OW24655   4.352   1.724   3.850  0.3077 -0.3104 -0.0237
 4398SOL    HW124656   4.264   1.685   3.854  0.2944 -0.1985  0.7504
 4398SOL    HW224657   4.398   1.641   3.864  2.9831  1.0366 -0.7935
 4399SOL     OW24658   4.221   3.258   5.981 -0.0892 -0.2531 -1.0904
 4399SOL    HW124659   4.131   3.234   6.005 -0.9832  0.9061 -3.2563
 4399SOL    HW224660   4.230   3.206   5.901  2.3605 -1.6726  0.0988
 4400SOL     OW24661   1.947   4.072   4.643  0.1739 -0.0842  0.2403
 4400SOL    HW124662   1.929   4.097   4.733  2.3385  1.9654  0.0995
 4400SOL    HW224663   1.904   3.988   4.630 -0.3002  0.1375  0.4033
 4401SOL     OW24664   0.093   4.183   1.033 -0.4913  0.3416  0.2960
 4401SOL    HW124665   0.171   4.223   1.072 -1.6692  2.3935  0.5154
 4401SOL    HW224666   0.038   4.174   1.110  3.0547 -2.6997  2.4700
 4402SOL     OW24667   2.037   4.636   4.379  0.3050 -0.0491 -0.0196
 4402SOL    HW124668   2.081   4.599   4.302  1.1427 -1.0476  0.9374
 4402SOL    HW224669   2.118   4.648   4.428  0.6343 -2.9033  0.1097
 4403SOL     OW24670   4.151   2.364   6.133  0.0848  0.2236 -0.1757
 4403SOL    HW124671   4.105   2.281   6.123 -0.0526  0.0098  2.2814
 4403SOL    HW224672   4.209   2.347   6.207  2.6368  1.8154 -1.8336
 4404SOL     OW24673   0.598   3.274  14.409  0.2663  1.0821  0.2094
 4404SOL    HW124674   0.563   3.260  14.321  0.6863 -1.1954  0.3796
 4404SOL    HW224675   0.652   3.353  14.404  2.3991 -0.3739 -0.0483
 4405SOL     OW24676   2.330   0.002  11.469  0.5933  0.1110  0.2270
 4405SOL    HW124677   2.287   0.079  11.507  0.6785  0.4631 -0.3928
 4405SOL    HW224678   2.374   4.695  11.548 -0.0564  0.8269  0.8939
 4406SOL     OW24679   0.334   0.294   0.029  0.5169 -1.0961 -0.5155
 4406SOL    HW124680   0.390   0.236  17.681  0.6955  0.0670 -1.6675
 4406SOL    HW224681   0.349   0.264   0.118  1.7768 -1.5556 -0.8816
 4407SOL     OW24682   4.313   0.802  17.653 -0.2375 -0.1348  0.1751
 4407SOL    HW124683   4.338   0.710  17.647 -0.4370 -0.1832  0.1029
 4407SOL    HW224684   4.390   0.832  17.701 -1.2719  0.4707  1.4472
 4408SOL     OW24685   2.213   2.422  16.149 -0.3611 -0.0205 -0.2048
 4408SOL    HW124686   2.148   2.395  16.084 -2.7859 -0.7205  2.5022
 4408SOL    HW224687   2.261   2.340  16.159 -0.3077  0.0387  0.0244
 4409SOL     OW24688   4.573   0.344   8.591 -0.8646 -0.1092 -0.3181
 4409SOL    HW124689   4.522   0.268   8.564 -0.2128 -0.3468 -0.8942
 4409SOL    HW224690   4.592   0.320   8.681  0.7049 -0.5499 -0.7736
 4410SOL     OW24691   0.249   1.143   2.145  0.0824 -0.1866  0.3634
 4410SOL    HW124692   0.314   1.091   2.193 -2.0255 -1.6218  1.6482
 4410SOL    HW224693   0.177   1.081   2.151  0.5836 -0.8329 -0.3815
 4411SOL     OW24694   4.610   1.631  16.530 -0.1546 -0.5373 -0.1623
 4411SOL    HW124695   4.580   1.560  16.586 -1.2784  1.7875  2.2053
 4411SOL    HW224696   4.531   1.664  16.486 -0.3584 -0.4346  0.2855
 4412SOL     OW24697   0.865   1.556   1.637 -0.0419  0.1215  0.1299
 4412SOL    HW124698   0.777   1.526   1.661  0.2518 -1.4572 -0.7504
 4412SOL    HW224699   0.864   1.517   1.549  0.5635 -0.9581  0.6044
 4413SOL     OW24700   1.916   0.144  17.504  0.2740 -0.2499 -0.1884
 4413SOL    HW124701   1.870   0.221  17.534 -0.4562  0.5117 -3.2654
 4413SOL    HW224702   1.888   0.149  17.413  0.7278 -1.0399 -0.3724
 4414SOL     OW24703   2.293   1.964   3.077 -0.6846  0.2067 -0.3055
 4414SOL    HW124704   2.237   1.888   3.066  0.6641 -0.8448  0.1163
 4414SOL    HW224705   2.233   2.031   3.110 -2.0943 -2.1483  1.8766
 4415SOL     OW24706   0.397   4.724   1.632 -0.3328  0.1690  0.1784
 4415SOL    HW124707   0.396   0.010   1.727  0.1528  2.3214 -0.0754
 4415SOL    HW224708   0.428   4.634   1.630 -2.3849 -0.5373  0.4796
 4416SOL     OW24709   2.413   4.720   0.982 -0.9461 -0.6292 -0.2447
 4416SOL    HW124710   2.494   0.043   0.969  0.6865 -3.4230 -0.6168
 4416SOL    HW224711   2.379   0.014   1.069  1.2404 -1.5956  0.8356
 4417SOL     OW24712   1.241   0.916   5.794  0.0552 -0.7055 -0.9437
 4417SOL    HW124713   1.221   0.834   5.748  0.6388 -0.6639 -1.2725
 4417SOL    HW224714   1.333   0.903   5.813  0.4007 -0.9060 -2.7147
 4418SOL     OW24715   3.679   2.073   1.929 -0.4885 -0.2737 -0.1763
 4418SOL    HW124716   3.620   2.098   1.858  0.3906 -0.7376 -1.0583
 4418SOL    HW224717   3.704   1.984   1.902 -1.7680 -0.9117  0.7069
 4419SOL     OW24718   1.612   4.502   2.831  0.5418  0.4789  0.3691
 4419SOL    HW124719   1.562   4.525   2.910 -2.7109 -0.1010 -1.4823
 4419SOL    HW224720   1.698   4.524   2.866  0.6126  0.6114  0.1135
 4420SOL     OW24721   2.547   4.192   7.910  0.3744 -0.2665  0.3822
 4420SOL    HW124722   2.537   4.264   7.849  0.4764  0.0663  0.7592
 4420SOL    HW224723   2.477   4.133   7.880 -0.1712  1.4133 -1.5774
 4421SOL     OW24724   3.332   3.901   6.686  0.3432 -0.1361 -0.1910
 4421SOL    HW124725   3.354   3.993   6.701 -1.8169 -0.0839  2.4721
 4421SOL    HW224726   3.411   3.881   6.635 -1.0186 -1.0561 -1.9463
 4422SOL     OW24727   4.553   2.000   6.218 -0.1180 -0.0262  0.0081
 4422SOL    HW124728   4.491   2.024   6.149  0.3004  2.3193  0.4520
 4422SOL    HW224729   4.501   1.945   6.277  0.1819  1.1863  1.3951
 4423SOL     OW24730   1.701   4.222   3.357  0.8125 -0.3772  1.1413
 4423SOL    HW124731   1.664   4.309   3.372  2.1582  0.2886  0.5945
 4423SOL    HW224732   1.690   4.191   3.447 -1.9202  0.9458  1.2449
 4424SOL     OW24733   1.406   3.602  16.401 -0.1661  0.3375  0.1362
 4424SOL    HW124734   1.400   3.669  16.470  0.8600 -2.3218  2.8134
 4424SOL    HW224735   1.463   3.640  16.335  2.5820 -0.3678  2.1211
 4425SOL     OW24736   2.530   0.410   7.977 -0.1507 -0.1175  0.1311
 4425SOL    HW124737   2.618   0.388   8.007  0.2405  0.1390 -0.8326
 4425SOL    HW224738   2.486   0.451   8.051  0.7053  0.7563  0.1482
 4426SOL     OW24739   4.386   0.270   1.859 -0.4747 -0.1974  0.6623
 4426SOL    HW124740   4.330   0.290   1.933 -1.7542 -0.4386 -0.2501
 4426SOL    HW224741   4.343   0.291   1.775  1.4465 -1.1952 -0.5696
 4427SOL     OW24742   3.729   0.261   2.196  0.4043  0.1248 -0.4510
 4427SOL    HW124743   3.636   0.266   2.172  0.2561 -1.0344 -0.0962
 4427SOL    HW224744   3.732   0.182   2.249 -1.4819  1.0016  0.9628
 4428SOL     OW24745   0.160   3.536  15.775 -0.0883  0.2611  0.5725
 4428SOL    HW124746   0.074   3.496  15.765 -0.2523  0.9336 -0.7621
 4428SOL    HW224747   0.214   3.464  15.743 -0.2581  0.3465  0.0935
 4429SOL     OW24748   2.303   3.981   0.003  0.3450  0.2028  0.4523
 4429SOL    HW124749   2.269   4.066   0.033  1.2761  0.0875  1.8660
 4429SOL    HW224750   2.335   3.941   0.084 -1.6726  0.4287  1.3721
 4430SOL     OW24751   1.080   1.442   4.127 -0.2707  0.5009  0.3110
 4430SOL    HW124752   1.156   1.430   4.184 -1.5705 -1.2565  1.6903
 4430SOL    HW224753   1.094   1.366   4.070 -0.3356  1.0307 -0.3994
 4431SOL     OW24754   4.479   2.045   4.486 -0.1622  1.1098 -0.6136
 4431SOL    HW124755   4.454   2.111   4.551  0.5964 -0.3588  1.1692
 4431SOL    HW224756   4.468   1.964   4.536 -0.6616  0.0881 -2.3739
 4432SOL     OW24757   0.149   1.584   2.971  0.3374  0.2737  0.6054
 4432SOL    HW124758   0.108   1.616   2.891 -1.9332  0.9462  2.0390
 4432SOL    HW224759   0.238   1.594   2.936  0.4522  0.1199  0.8512
 4433SOL     OW24760   3.626   3.021   8.968  0.0347 -0.1074  0.0715
 4433SOL    HW124761   3.676   3.009   9.049  1.4741 -1.1141 -0.9559
 4433SOL    HW224762   3.647   3.114   8.958  0.5289  0.0429  2.4900
 4434SOL     OW24763   2.317   1.638   5.132 -0.4675  0.1873  0.0047
 4434SOL    HW124764   2.248   1.669   5.190 -0.7929 -1.9045  0.7602
 4434SOL    HW224765   2.283   1.552   5.107  2.5789 -1.5996  1.9426
 4435SOL     OW24766   2.602   0.537  14.726 -0.1146 -0.1743  0.2699
 4435SOL    HW124767   2.587   0.515  14.634 -1.8922  0.3040  0.4427
 4435SOL    HW224768   2.606   0.632  14.719  0.8423 -0.2850 -0.6380
 4436SOL     OW24769   2.544   1.267   2.445 -0.5374  0.6362  0.4139
 4436SOL    HW124770   2.500   1.270   2.529 -3.0079 -0.4341 -0.8527
 4436SOL    HW224771   2.475   1.222   2.396  0.2149  0.1862 -0.2363
 4437SOL     OW24772   1.020   3.245   5.305  0.1207  0.6359 -0.7561
 4437SOL    HW124773   0.949   3.295   5.345  0.2920 -1.1840  1.8181
 4437SOL    HW224774   1.096   3.304   5.304  0.1014  0.6909  1.4041
 4438SOL     OW24775   4.225   2.245   4.863  0.0115  0.0134 -0.5197
 4438SOL    HW124776   4.262   2.249   4.952  4.5965  0.7366 -2.4593
 4438SOL    HW224777   4.163   2.176   4.886 -0.1577 -0.0118 -1.0645
 4439SOL     OW24778   0.819   3.541   8.578  0.5405 -0.1550 -0.1678
 4439SOL    HW124779   0.812   3.620   8.632 -0.5512 -1.1666  1.1725
 4439SOL    HW224780   0.765   3.483   8.631  1.6664  0.2675  1.4346
 4440SOL     OW24781   0.363   1.442  14.676  0.2761  0.1621  0.0403
 4440SOL    HW124782   0.407   1.361  14.701 -2.4611 -1.6006 -0.7836
 4440SOL    HW224783   0.318   1.410  14.598  0.2382 -0.9044  0.5010
 4441SOL     OW24784   3.407   2.389   1.435 -0.5710  0.0594 -0.3720
 4441SOL    HW124785   3.501   2.390   1.451 -1.1043 -0.1992  2.7243
 4441SOL    HW224786   3.390   2.294   1.438 -2.7445  0.5380  2.1955
 4442SOL     OW24787   2.879   4.490   6.546  0.0590  0.8886  0.2163
 4442SOL    HW124788   2.929   4.529   6.475  0.5136  0.2827  0.2095
 4442SOL    HW224789   2.947   4.497   6.613 -1.4034 -1.4189  1.9444
 4443SOL     OW24790   0.307   0.208   7.693 -0.3311 -0.1652 -0.3410
 4443SOL    HW124791   0.330   0.200   7.785 -0.7626 -1.0509 -0.3116
 4443SOL    HW224792   0.380   0.257   7.655  0.1359 -0.6460 -0.0506
 4444SOL     OW24793   1.195   3.511   8.370 -0.0563  0.0939  0.3577
 4444SOL    HW124794   1.243   3.591   8.349 -0.6028 -0.0798 -1.4893
 4444SOL    HW224795   1.103   3.536   8.367 -0.3729 -0.7415  2.9857
 4445SOL     OW24796   1.750   2.084  12.716 -0.5622  0.0379 -0.0609
 4445SOL    HW124797   1.708   2.167  12.736 -1.9090 -0.7708  0.4774
 4445SOL    HW224798   1.692   2.060  12.643 -0.2374 -0.6042 -0.1080
 4446SOL     OW24799   1.999   1.228  11.958  0.1970  0.0964 -0.4163
 4446SOL    HW124800   1.992   1.305  11.900  1.5784  1.5727  1.3768
 4446SOL    HW224801   2.075   1.254  12.010 -0.1263 -2.1368  1.1602
 4447SOL     OW24802   3.065   2.425  10.866 -0.0762 -0.1590  0.2112
 4447SOL    HW124803   2.985   2.414  10.917 -0.5297 -0.0749 -0.4866
 4447SOL    HW224804   3.035   2.468  10.786  0.6662 -0.9352 -0.4779
 4448SOL     OW24805   1.109   3.762  14.689  0.0307 -1.0946 -0.5005
 4448SOL    HW124806   1.100   3.674  14.655  3.8867 -2.3025  1.5651
 4448SOL    HW224807   1.196   3.767  14.730 -0.0177 -2.4126 -0.2510
 4449SOL     OW24808   2.184   0.118   0.383 -0.3793 -0.4099  0.2148
 4449SOL    HW124809   2.215   0.106   0.473 -3.4127 -1.1868  1.1705
 4449SOL    HW224810   2.099   0.155   0.409 -0.3019 -0.0560 -0.0416
 4450SOL     OW24811   1.734   1.800  13.097 -0.1161 -0.6356  0.4731
 4450SOL    HW124812   1.690   1.882  13.072  0.7578 -0.6420 -1.0783
 4450SOL    HW224813   1.791   1.833  13.166 -0.4386  3.4615 -1.2046
 4451SOL     OW24814   2.202   3.441   2.414 -0.1309  0.2472  0.2965
 4451SOL    HW124815   2.291   3.441   2.450 -0.1221 -0.8569  0.2876
 4451SOL    HW224816   2.162   3.511   2.466  1.3822  1.2043  0.1715
 4452SOL     OW24817   3.986   1.228   6.579 -0.0086  0.7287  0.1689
 4452SOL    HW124818   4.077   1.252   6.597  0.2591 -0.4817  0.4020
 4452SOL    HW224819   4.001   1.145   6.536  0.3320  1.7300 -1.6289
 4453SOL     OW24820   4.475   3.271   1.128 -0.1984 -0.3163 -0.5064
 4453SOL    HW124821   4.438   3.352   1.163  0.4505 -0.2244 -0.0495
 4453SOL    HW224822   4.409   3.209   1.159  1.3894 -2.1656 -0.7931
 4454SOL     OW24823   4.398   2.850   0.587  0.3946 -0.4142  0.5321
 4454SOL    HW124824   4.303   2.839   0.588  0.3595 -0.1442  0.4340
 4454SOL    HW224825   4.407   2.919   0.653 -0.5640 -1.4393  1.7220
 4455SOL     OW24826   2.380   2.932   6.289  0.2112  1.0346  1.1158
 4455SOL    HW124827   2.444   2.932   6.217  0.4710  4.4208  1.3669
 4455SOL    HW224828   2.402   2.846   6.326 -0.9288  0.4480  0.4515
 4456SOL     OW24829   0.114   2.928   4.698  0.0769  0.3600  0.3978
 4456SOL    HW124830   0.135   2.835   4.705 -0.4198  0.0285 -2.3215
 4456SOL    HW224831   0.153   2.955   4.781 -1.1444 -1.3737  1.5300
 4457SOL     OW24832   3.123   2.022   5.665 -0.1062 -0.5221 -0.4325
 4457SOL    HW124833   3.193   2.070   5.620 -2.5576  2.7942 -0.6577
 4457SOL    HW224834   3.171   1.966   5.726 -1.0312 -1.3289 -0.4372
 4458SOL     OW24835   2.021   2.217  10.023  0.2046 -0.3379 -0.4284
 4458SOL    HW124836   1.949   2.200   9.963 -1.8203  1.6395  1.4684
 4458SOL    HW224837   2.094   2.200   9.963  0.5887  2.7168 -0.8626
 4459SOL     OW24838   1.061   3.966  12.669  0.1297 -0.2443 -0.2322
 4459SOL    HW124839   1.101   3.989  12.753  1.7980  0.5497 -1.2431
 4459SOL    HW224840   1.137   3.961  12.611  1.3345 -1.6473  1.4406
 4460SOL     OW24841   2.994   3.703  17.299 -0.1725 -0.0066  0.2702
 4460SOL    HW124842   3.069   3.649  17.274 -0.4889  0.0604 -0.8002
 4460SOL    HW224843   2.967   3.740  17.215 -1.5235 -1.9742 -0.1679
 4461SOL     OW24844   3.465   1.912   1.018  0.5015 -0.1967 -0.5770
 4461SOL    HW124845   3.484   1.912   0.925  1.6737 -2.1450 -0.3405
 4461SOL    HW224846   3.486   2.001   1.045  3.0942 -0.5273 -1.4889
 4462SOL     OW24847   4.628   1.730   3.937 -0.3752  0.3632 -0.6174
 4462SOL    HW124848   4.552   1.713   3.880 -1.8944 -0.1193  1.5364
 4462SOL    HW224849   4.675   1.793   3.883  0.2029  0.1589 -0.3454
 4463SOL     OW24850   4.151   2.823   1.036  0.2967 -0.3742 -0.1738
 4463SOL    HW124851   4.234   2.857   1.068 -0.3256 -1.0109  2.0764
 4463SOL    HW224852   4.092   2.852   1.106  0.8662 -2.6788  1.2296
 4464SOL     OW24853   2.012   0.754  15.045 -0.3950  0.0750  0.4704
 4464SOL    HW124854   1.950   0.730  15.114 -0.7975 -0.2750 -0.0152
 4464SOL    HW224855   2.045   0.671  15.011  0.8173  1.1373 -0.9180
 4465SOL     OW24856   4.626   3.328   2.532  0.3321  0.0052 -0.3032
 4465SOL    HW124857   4.595   3.288   2.613 -0.7183 -0.2532 -0.8274
 4465SOL    HW224858   4.682   3.255   2.505 -0.8840 -0.6009 -1.1969
 4466SOL     OW24859   0.258   1.945   6.785  0.3012 -0.0860 -0.1926
 4466SOL    HW124860   0.245   1.870   6.842  2.1820  0.7650  1.3671
 4466SOL    HW224861   0.354   1.937   6.780  0.4884  1.1473  1.3793
 4467SOL     OW24862   2.188   2.561   5.097  0.1951 -0.2773  0.2755
 4467SOL    HW124863   2.194   2.656   5.084  1.1983 -0.1765  1.4322
 4467SOL    HW224864   2.239   2.536   5.020 -0.2461 -0.0817 -0.0800
 4468SOL     OW24865   0.454   0.003   5.968 -0.6629  0.5557  0.5869
 4468SOL    HW124866   0.518   0.074   5.962 -0.0140  0.0348  1.3341
 4468SOL    HW224867   0.500   4.676   6.034  1.6347  1.6349 -0.1493
 4469SOL     OW24868   1.310   4.194   9.646 -0.6498 -0.3559  0.0851
 4469SOL    HW124869   1.307   4.248   9.567  1.3872  0.4067  0.5255
 4469SOL    HW224870   1.302   4.269   9.705 -1.2262 -0.8383  0.6210
 4470SOL     OW24871   3.650   4.000   6.333  0.3369 -0.8859  0.2908
 4470SOL    HW124872   3.563   4.021   6.367  1.0069  0.5461  1.0897
 4470SOL    HW224873   3.668   4.065   6.265  1.4747  1.4615  2.8674
 4471SOL     OW24874   1.360   0.227  13.384 -0.2582 -0.2985 -0.5895
 4471SOL    HW124875   1.372   0.286  13.459  0.5945 -0.3431 -0.6925
 4471SOL    HW224876   1.441   0.178  13.398 -1.3462 -2.6868 -2.7558
 4472SOL     OW24877   1.415   0.702  15.802  0.5673 -0.2750 -0.6840
 4472SOL    HW124878   1.454   0.788  15.817  1.1677 -0.8321  0.9756
 4472SOL    HW224879   1.480   0.641  15.839 -0.2796 -0.6869  0.1497
 4473SOL     OW24880   2.716   4.278  13.081 -0.3886  0.9126 -0.3177
 4473SOL    HW124881   2.665   4.334  13.139  1.2024  1.2683  0.7155
 4473SOL    HW224882   2.728   4.194  13.125  2.4326  1.5998  0.1938
 4474SOL     OW24883   1.346   0.514   5.029 -0.1134  0.4537 -0.1939
 4474SOL    HW124884   1.342   0.587   5.090  0.2981  0.6850 -0.4403
 4474SOL    HW224885   1.434   0.482   5.050  0.8091  2.0231 -1.6846
 4475SOL     OW24886   0.582   2.316   6.519  0.7653 -0.0491  0.4320
 4475SOL    HW124887   0.666   2.347   6.553  0.4708  0.6269  0.5357
 4475SOL    HW224888   0.527   2.371   6.574 -1.6965  1.6693 -3.7067
 4476SOL     OW24889   1.151   3.350   6.773  0.2990 -0.2737  0.4529
 4476SOL    HW124890   1.157   3.345   6.677  0.2498 -1.0674  0.4934
 4476SOL    HW224891   1.081   3.287   6.789 -1.6269  1.1644 -2.2434
 4477SOL     OW24892   2.651   1.837   1.324 -0.0947  0.4372  0.2722
 4477SOL    HW124893   2.600   1.765   1.289 -0.5330 -1.0629  3.9865
 4477SOL    HW224894   2.604   1.917   1.299 -0.5997  0.5013  1.4276
 4478SOL     OW24895   4.481   2.644  16.537 -0.1074  0.6827  0.5759
 4478SOL    HW124896   4.515   2.731  16.557 -0.8527  1.4378 -1.5518
 4478SOL    HW224897   4.559   2.596  16.508 -1.9528 -0.9706 -1.6552
 4479SOL     OW24898   4.269   3.668   5.129  0.4026 -0.3301  0.8126
 4479SOL    HW124899   4.361   3.685   5.111  0.0816  0.3348 -0.1685
 4479SOL    HW224900   4.219   3.712   5.061  0.3454 -0.1651  0.9609
 4480SOL     OW24901   1.455   3.555   9.864  0.1221 -0.2162  0.0305
 4480SOL    HW124902   1.368   3.590   9.844 -0.6606 -1.7053  0.8337
 4480SOL    HW224903   1.521   3.624   9.861  0.4033 -0.4186  1.7448
 4481SOL     OW24904   2.081   4.709   1.006  0.4466 -0.1849  0.0345
 4481SOL    HW124905   2.058   4.664   0.925  2.8413 -1.7035  0.1737
 4481SOL    HW224906   2.176   4.716   0.996  0.5206 -0.6678  0.4168
 4482SOL     OW24907   2.795   0.705   0.466 -0.2823 -0.3013  0.6078
 4482SOL    HW124908   2.854   0.730   0.537  1.1105 -1.3658 -0.1734
 4482SOL    HW224909   2.855   0.716   0.392  1.8833 -1.3026  2.2263
 4483SOL     OW24910   1.611   0.485  14.977  0.2776  0.1911  0.4993
 4483SOL    HW124911   1.705   0.485  14.960  0.2815  1.4368  0.5398
 4483SOL    HW224912   1.603   0.456  15.068  1.4826  1.7583  1.1030
 4484SOL     OW24913   2.282   3.159   5.958  0.2777  0.2467  0.3361
 4484SOL    HW124914   2.337   3.211   5.899  0.8885 -2.5547 -1.5755
 4484SOL    HW224915   2.284   3.203   6.043  0.1449 -1.9836  1.5063
 4485SOL     OW24916   1.291   1.342   7.844  0.4397 -0.2620  0.0375
 4485SOL    HW124917   1.261   1.397   7.916  0.8431  0.9163 -0.6850
 4485SOL    HW224918   1.257   1.373   7.760  3.0865  1.3434 -0.4359
 4486SOL     OW24919   1.324   1.624   2.365  0.6064  0.0088 -0.0832
 4486SOL    HW124920   1.281   1.632   2.280 -0.7395 -1.6082  0.4548
 4486SOL    HW224921   1.251   1.623   2.427  0.7163 -2.1867 -0.0035
 4487SOL     OW24922   1.631   1.777  15.618  0.3256  0.4586 -0.3842
 4487SOL    HW124923   1.559   1.751  15.561 -0.6018  0.6400  0.7135
 4487SOL    HW224924   1.576   1.805  15.691  0.5731 -1.4245  0.5043
 4488SOL     OW24925   0.710   1.340   0.392 -0.4468  0.0054  0.6497
 4488SOL    HW124926   0.717   1.364   0.299  1.0660 -2.6544  0.1017
 4488SOL    HW224927   0.743   1.251   0.395  1.0135  0.4753 -1.2518
 4489SOL     OW24928   4.088   0.775   4.689  0.0233  0.4078 -0.4829
 4489SOL    HW124929   4.156   0.840   4.670 -1.1723  1.4860 -1.0245
 4489SOL    HW224930   4.077   0.780   4.784 -1.1314 -1.8866 -0.4901
 4490SOL     OW24931   3.954   2.248  11.955  0.0619  0.1608  0.3475
 4490SOL    HW124932   4.014   2.248  11.881  2.5748  0.8324  2.4014
 4490SOL    HW224933   3.883   2.191  11.925  0.0383  0.6259 -0.4656
 4491SOL     OW24934   1.721   2.647   2.147 -0.0561  0.8857 -0.4422
 4491SOL    HW124935   1.744   2.563   2.108 -0.2184  0.9867 -0.7583
 4491SOL    HW224936   1.640   2.661   2.098 -0.9014  2.5398  1.4420
 4492SOL     OW24937   0.304   3.782   7.034  0.1569 -0.2643  0.5578
 4492SOL    HW124938   0.389   3.756   7.070 -0.9744 -2.7076  1.4314
 4492SOL    HW224939   0.295   3.738   6.949 -0.7537 -0.9127  0.9975
 4493SOL     OW24940   3.046   2.864   2.145 -0.6581  0.7979 -0.7475
 4493SOL    HW124941   3.017   2.790   2.198 -2.2662  2.4319  0.6398
 4493SOL    HW224942   2.968   2.895   2.099 -1.2558  1.2113  0.5552
 4494SOL     OW24943   3.869   3.773   0.276 -0.4161 -0.1505  0.0886
 4494SOL    HW124944   3.846   3.822   0.197  0.4070  0.3193  0.1466
 4494SOL    HW224945   3.949   3.817   0.304 -0.0085 -1.2161  0.6170
 4495SOL     OW24946   4.188   1.714   6.519  0.6241  0.9750  0.4021
 4495SOL    HW124947   4.152   1.785   6.572  1.1138  2.1763 -0.8635
 4495SOL    HW224948   4.115   1.653   6.511 -0.1247  2.3693 -3.3201
 4496SOL     OW24949   0.619   2.427   7.987 -0.3572  0.0914 -0.3850
 4496SOL    HW124950   0.624   2.486   7.911  1.6683 -1.0746 -1.1315
 4496SOL    HW224951   0.710   2.402   8.001 -0.4909 -0.0574  0.2241
 4497SOL     OW24952   1.943   1.231  10.228  0.0517 -0.1597  0.0133
 4497SOL    HW124953   1.891   1.179  10.289 -0.0505  0.6976  0.6573
 4497SOL    HW224954   1.867   1.280  10.195 -0.9810 -1.6657  0.1554
 4498SOL     OW24955   4.446   0.568   2.175 -0.1492 -0.2483  0.6424
 4498SOL    HW124956   4.484   0.603   2.094  0.6428  0.0180  1.1217
 4498SOL    HW224957   4.504   0.499   2.207  2.4661  1.8844  0.4789
 4499SOL     OW24958   1.710   4.261   6.422 -0.6392 -0.0117  0.1053
 4499SOL    HW124959   1.636   4.219   6.467  0.5871  0.0236  2.1459
 4499SOL    HW224960   1.685   4.353   6.432 -0.0843  0.0621  0.7413
 4500SOL     OW24961   0.095   0.137   3.306  0.1220  0.4379  0.3632
 4500SOL    HW124962   0.035   0.064   3.321  0.9225 -0.5728 -1.3091
 4500SOL    HW224963   0.049   0.206   3.354  1.3578  0.0589  2.0731
 4501SOL     OW24964   1.976   1.676  14.802  0.3723  0.9540 -0.0301
 4501SOL    HW124965   1.937   1.601  14.758  0.2800  0.6863  0.5054
 4501SOL    HW224966   2.001   1.623  14.878  2.6932  1.0860 -0.7134
 4502SOL     OW24967   1.672   1.032   9.257 -0.0127 -0.4107  0.0565
 4502SOL    HW124968   1.676   1.017   9.163  0.8471  0.3262 -0.0243
 4502SOL    HW224969   1.766   1.028   9.271  0.1497  1.4668 -0.4863
 4503SOL     OW24970   0.041   2.731   3.854  0.0654  0.0889 -0.1657
 4503SOL    HW124971   4.678   2.743   3.890  0.1817 -0.8559  0.4463
 4503SOL    HW224972   0.029   2.768   3.767 -0.4553  0.4726  0.0706
 4504SOL     OW24973   2.862   1.772   4.506 -0.5144 -0.3868  0.0690
 4504SOL    HW124974   2.902   1.706   4.450  1.7184  0.8320  0.1966
 4504SOL    HW224975   2.873   1.744   4.597 -1.7817 -0.3232  0.2399
 4505SOL     OW24976   0.649   0.145   5.667  0.1741 -0.0462  0.6573
 4505SOL    HW124977   0.615   0.214   5.611  1.8189 -0.3183 -0.6542
 4505SOL    HW224978   0.588   0.124   5.738 -1.6573 -0.2862 -0.9764
 4506SOL     OW24979   0.786   3.465   6.886  0.1650  0.0595 -0.0824
 4506SOL    HW124980   0.733   3.386   6.876 -0.1487  0.2366  0.2026
 4506SOL    HW224981   0.823   3.483   6.799  1.4626  2.0865  0.8958
 4507SOL     OW24982   2.082   4.406  10.451 -0.3265  0.3720  0.0738
 4507SOL    HW124983   2.168   4.438  10.478 -0.6599 -0.1670  1.8316
 4507SOL    HW224984   2.058   4.492  10.417 -2.6079 -0.7637 -1.1949
 4508SOL     OW24985   1.128   0.523   7.562  0.2746 -0.3282  0.3401
 4508SOL    HW124986   1.081   0.528   7.645 -1.7184  1.2364 -0.8973
 4508SOL    HW224987   1.057   0.509   7.500 -0.0272  0.2422  0.5598
 4509SOL     OW24988   0.771   2.938   4.040 -0.2545 -0.2552  0.4961
 4509SOL    HW124989   0.822   2.859   4.058  0.9891  0.5076  0.3141
 4509SOL    HW224990   0.694   2.910   3.991  1.0688 -1.0834 -1.1113
 4510SOL     OW24991   3.870   0.515   7.405  0.1779  0.6007  0.2091
 4510SOL    HW124992   3.956   0.547   7.433  1.2094 -0.4596 -1.7272
 4510SOL    HW224993   3.849   0.458   7.478 -1.8198  0.7439 -0.2529
 4511SOL     OW24994   0.602   1.858   6.000  0.3968 -0.5122 -0.0206
 4511SOL    HW124995   0.679   1.899   5.960  0.1110 -0.6033 -0.6588
 4511SOL    HW224996   0.647   1.810   6.071 -0.0910 -0.1716  0.5216
 4512SOL     OW24997   0.981   4.476   8.160 -0.2033 -0.1125  0.2995
 4512SOL    HW124998   1.050   4.542   8.150  0.5360 -0.9206  0.0797
 4512SOL    HW224999   0.986   4.435   8.074  0.6712  2.2153 -0.7559
 4513SOL     OW25000   2.373   0.414  15.049  0.4237 -0.8711  0.2142
 4513SOL    HW125001   2.366   0.446  14.959 -0.4982 -1.3930  0.0980
 4513SOL    HW225002   2.467   0.421  15.062  0.0747  1.8688  1.1664
 4514SOL     OW25003   3.865   1.469   5.511 -0.0827 -0.5925 -0.0054
 4514SOL    HW125004   3.771   1.479   5.526 -0.2410 -0.8345 -0.8076
 4514SOL    HW225005   3.878   1.552   5.466  1.1402 -1.8792 -2.0418
 4515SOL     OW25006   3.355   0.696  16.754 -1.1731 -0.0919  0.2358
 4515SOL    HW125007   3.387   0.681  16.843 -0.5379  1.4034  0.2513
 4515SOL    HW225008   3.312   0.621  16.711 -2.0843  0.5928 -0.0484
 4516SOL     OW25009   3.007   3.737   3.223 -0.9027 -0.0913  0.3011
 4516SOL    HW125010   3.036   3.814   3.175 -1.0017  0.6492  1.4444
 4516SOL    HW225011   3.089   3.708   3.264 -0.3117  1.1290 -0.0092
 4517SOL     OW25012   0.614   2.445   0.740  0.5896  0.3822 -0.3336
 4517SOL    HW125013   0.572   2.441   0.826  4.0497 -1.2948  1.3007
 4517SOL    HW225014   0.675   2.518   0.745  2.6278 -1.5850  3.6182
 4518SOL     OW25015   3.917   4.722   7.366 -0.3557  0.3496 -0.3653
 4518SOL    HW125016   3.890   0.017   7.277 -0.6153  0.3828 -0.2786
 4518SOL    HW225017   3.839   4.686   7.408 -0.1690  0.5451  0.1549
 4519SOL     OW25018   4.460   1.912   7.127  0.7687 -0.4771 -0.4918
 4519SOL    HW125019   4.480   1.990   7.179  1.8648 -0.0499 -1.5511
 4519SOL    HW225020   4.520   1.913   7.053 -0.2935 -0.7945 -1.3496
 4520SOL     OW25021   1.529   2.414  13.986 -0.4274  0.4954 -0.0204
 4520SOL    HW125022   1.481   2.331  13.981  0.1810  0.1125  0.4102
 4520SOL    HW225023   1.621   2.387  13.990 -0.7391 -0.2656  2.0166
 4521SOL     OW25024   1.742   1.201   3.125 -0.1896  0.3690 -0.5044
 4521SOL    HW125025   1.815   1.252   3.089  0.5857 -0.6226 -0.3494
 4521SOL    HW225026   1.765   1.174   3.214 -1.1134 -0.2377 -0.4458
 4522SOL     OW25027   2.577   0.731   2.963  0.5883  0.6732 -0.0594
 4522SOL    HW125028   2.483   0.713   2.967  0.6107  0.1056 -2.0730
 4522SOL    HW225029   2.611   0.641   2.954  1.4125  1.2728 -2.7625
 4523SOL     OW25030   2.046   2.073   2.536 -0.6788 -0.1583 -0.1476
 4523SOL    HW125031   2.022   1.982   2.554  2.9690 -1.4988 -2.0636
 4523SOL    HW225032   1.964   2.122   2.542  0.5396  1.7389  1.0468
 4524SOL     OW25033   3.738   3.021  13.021  0.1731 -0.1786 -0.1903
 4524SOL    HW125034   3.747   3.076  12.943  2.3570  0.5521  0.5925
 4524SOL    HW225035   3.790   2.946  12.995 -0.4983 -1.2437  1.5656
 4525SOL     OW25036   2.342   1.202  14.500 -0.6382 -0.1052 -0.0460
 4525SOL    HW125037   2.332   1.120  14.549 -0.1482 -0.6164 -0.7959
 4525SOL    HW225038   2.326   1.268  14.567  0.3769  2.1030 -1.9626
 4526SOL     OW25039   2.097   0.192   4.864  0.1299 -0.0211  0.1193
 4526SOL    HW125040   2.178   0.210   4.817 -0.0620  0.7923  0.0994
 4526SOL    HW225041   2.109   0.103   4.896  0.9585  0.1325  0.2346
 4527SOL     OW25042   4.530   1.756   9.861  0.1225 -0.1679 -0.0889
 4527SOL    HW125043   4.468   1.736   9.791  0.6890  0.4295 -0.7620
 4527SOL    HW225044   4.483   1.712   9.933  2.8153 -5.6299 -1.6651
 4528SOL     OW25045   0.903   1.839   9.251 -0.5953  0.1434 -0.1800
 4528SOL    HW125046   0.955   1.760   9.239 -1.2441 -0.0852 -1.4835
 4528SOL    HW225047   0.816   1.803   9.271 -0.4223 -0.7052 -0.9776
 4529SOL     OW25048   1.400   4.132  13.104  0.2181  0.6880 -0.4697
 4529SOL    HW125049   1.494   4.131  13.121 -0.2268  0.5199  2.0626
 4529SOL    HW225050   1.370   4.099  13.189  1.8454 -0.9160 -0.5150
 4530SOL     OW25051   3.225   4.312   6.566  0.2605  0.2166 -0.6268
 4530SOL    HW125052   3.167   4.386   6.551  0.6242 -0.0515 -3.2975
 4530SOL    HW225053   3.217   4.265   6.483  0.5954 -0.0324 -0.5158
 4531SOL     OW25054   2.499   3.523   3.666  0.4065 -0.0534  0.3372
 4531SOL    HW125055   2.462   3.479   3.590  4.0137  2.2589 -2.7345
 4531SOL    HW225056   2.553   3.589   3.623 -1.6351  1.9370  0.7817
 4532SOL     OW25057   1.618   1.741   8.268 -0.1567  0.2545 -0.5147
 4532SOL    HW125058   1.681   1.670   8.269 -0.3474  0.0933  0.8698
 4532SOL    HW225059   1.662   1.809   8.217 -0.1291  2.2082  2.0850
 4533SOL     OW25060   0.754   4.292  10.589  0.0260  0.0337 -0.3296
 4533SOL    HW125061   0.725   4.349  10.660 -0.3335  0.8208 -1.1123
 4533SOL    HW225062   0.677   4.300  10.534 -0.9785  1.2727  1.2329
 4534SOL     OW25063   3.812   2.350   8.181 -0.0417 -0.0323 -0.5439
 4534SOL    HW125064   3.873   2.279   8.161  1.5389  0.5806  2.1532
 4534SOL    HW225065   3.730   2.308   8.155 -0.8023  1.4634 -0.5223
 4535SOL     OW25066   2.993   2.188   7.178 -0.2143  0.5201 -0.9465
 4535SOL    HW125067   3.032   2.101   7.176  1.4011  1.2821 -2.1550
 4535SOL    HW225068   3.038   2.240   7.112  3.3081 -0.0783  1.0082
 4536SOL     OW25069   3.004   0.262   3.478 -0.4723  0.0440 -0.3001
 4536SOL    HW125070   3.080   0.233   3.428  0.3000 -1.0148  1.4980
 4536SOL    HW225071   3.040   0.261   3.567 -0.3995 -1.2777 -0.3454
 4537SOL     OW25072   4.317   4.395   7.116 -0.0374  0.2993  0.0278
 4537SOL    HW125073   4.271   4.311   7.115 -0.1373  0.3587 -0.3617
 4537SOL    HW225074   4.243   4.456   7.107 -0.9337 -1.3079 -3.8478
 4538SOL     OW25075   0.693   0.500   5.301 -0.4240 -0.4071 -0.1391
 4538SOL    HW125076   0.695   0.404   5.306  0.6667 -0.3438  0.6338
 4538SOL    HW225077   0.738   0.505   5.217  1.0141  0.7246  0.7000
 4539SOL     OW25078   3.895   4.013   1.712 -0.0592 -0.4592 -0.4007
 4539SOL    HW125079   3.810   4.044   1.679 -1.1988 -1.2471  1.8017
 4539SOL    HW225080   3.952   4.089   1.703  0.2873 -0.8180 -1.3217
 4540SOL     OW25081   4.249   3.346   2.071  0.5678  0.2714 -0.3711
 4540SOL    HW125082   4.240   3.428   2.023 -1.6501  0.5709  0.5445
 4540SOL    HW225083   4.185   3.365   2.140 -0.1897 -1.6589 -0.5427
 4541SOL     OW25084   2.386   2.139  16.394 -0.2050 -0.7575 -0.3557
 4541SOL    HW125085   2.391   2.055  16.439  0.5267 -1.0746 -1.0284
 4541SOL    HW225086   2.462   2.186  16.429 -0.5450 -0.1207 -0.4614
 4542SOL     OW25087   1.868   0.461  14.876  0.4461 -0.7436 -0.0514
 4542SOL    HW125088   1.952   0.472  14.922  1.3251 -0.7542 -1.6359
 4542SOL    HW225089   1.897   0.520  14.806 -0.3962  1.4142  1.4197
 4543SOL     OW25090   1.581   1.741   3.909 -0.0033 -0.6013 -0.3013
 4543SOL    HW125091   1.509   1.765   3.850  1.1705  1.0764 -1.0544
 4543SOL    HW225092   1.553   1.783   3.990 -0.3943  0.8690 -1.1977
 4544SOL     OW25093   4.130   2.450   2.337 -0.2904  0.7995 -0.0868
 4544SOL    HW125094   4.206   2.483   2.289 -0.3760  2.8739  1.2174
 4544SOL    HW225095   4.063   2.481   2.276  1.2473  1.6529 -1.3441
 4545SOL     OW25096   4.107   1.890   9.169 -0.0588 -0.1749  0.4959
 4545SOL    HW125097   4.202   1.895   9.182  0.3733 -0.9955 -2.3878
 4545SOL    HW225098   4.075   1.886   9.259 -0.6855  0.5615  0.3021
 4546SOL     OW25099   0.812   2.864  13.489  0.3217 -0.4151  0.2861
 4546SOL    HW125100   0.743   2.809  13.525 -0.5180 -0.2144 -1.0111
 4546SOL    HW225101   0.760   2.918  13.429  0.7960 -0.1691  0.0854
 4547SOL     OW25102   2.603   3.212   3.534  0.3931  0.4266  0.0506
 4547SOL    HW125103   2.630   3.128   3.496 -0.7793  0.2376 -0.3923
 4547SOL    HW225104   2.605   3.265   3.454  2.4750  1.6720  0.9320
 4548SOL     OW25105   3.240   3.810   6.321  0.1874 -0.5462 -0.0001
 4548SOL    HW125106   3.214   3.844   6.235  0.6026 -0.3506 -0.0501
 4548SOL    HW225107   3.192   3.728   6.320  0.3827 -0.6627  0.3471
 4549SOL     OW25108   1.898   3.983  14.251 -0.3883 -0.3370  0.1292
 4549SOL    HW125109   1.991   4.004  14.253 -0.8193  1.5777  0.3189
 4549SOL    HW225110   1.884   4.015  14.162 -1.0183  1.3869  0.8588
 4550SOL     OW25111   3.355   3.740   0.093  0.4562 -0.1356 -0.5398
 4550SOL    HW125112   3.449   3.759   0.092  0.1309  1.4480 -1.0581
 4550SOL    HW225113   3.328   3.832   0.089 -0.2895 -0.2704  1.3367
 4551SOL     OW25114   1.283   4.023   5.088 -0.2205 -0.1355 -0.3514
 4551SOL    HW125115   1.348   4.035   5.158  0.4096 -2.7692 -0.4823
 4551SOL    HW225116   1.212   4.073   5.128  0.8136  1.1797 -0.1473
 4552SOL     OW25117   0.917   4.218   4.718  0.0208  0.8136 -0.4300
 4552SOL    HW125118   0.876   4.302   4.740 -1.1635  0.3519 -0.9024
 4552SOL    HW225119   0.986   4.247   4.658  1.2125  0.3672  0.7165
 4553SOL     OW25120   3.007   1.915   6.585  0.3932 -0.0539  0.0589
 4553SOL    HW125121   2.950   1.974   6.535 -0.0325  0.4446  1.1154
 4553SOL    HW225122   2.975   1.947   6.670 -2.4656  2.0359 -1.7757
 4554SOL     OW25123   3.563   1.439   5.595  0.2925 -0.0886 -0.3170
 4554SOL    HW125124   3.471   1.455   5.613  0.4444 -0.2678  0.6407
 4554SOL    HW225125   3.590   1.387   5.671  0.7376  0.8517  0.1686
 4555SOL     OW25126   2.175   1.850   2.704 -0.5037 -0.4872 -0.1191
 4555SOL    HW125127   2.081   1.837   2.720 -0.3082 -0.7595  0.7597
 4555SOL    HW225128   2.212   1.779   2.756  0.3385  2.5619  3.3740
 4556SOL     OW25129   1.390   1.594   7.022 -0.9980  0.1399  0.6510
 4556SOL    HW125130   1.397   1.631   6.934  0.0580  0.8231  1.0191
 4556SOL    HW225131   1.376   1.668   7.081 -4.0602  0.4418 -0.4511
 4557SOL     OW25132   0.930   0.045   1.396  0.1681 -0.3386 -0.1783
 4557SOL    HW125133   0.998   4.704   1.404  1.4017  0.8184 -1.2837
 4557SOL    HW225134   0.865   0.015   1.460  1.1711 -1.0731  0.4873
 4558SOL     OW25135   2.098   4.393   1.498  0.3335 -0.3336  0.1818
 4558SOL    HW125136   2.048   4.381   1.417  0.1641 -1.7968  0.5097
 4558SOL    HW225137   2.137   4.307   1.514  0.9240 -0.1013  0.0254
 4559SOL     OW25138   1.757   2.999   9.338  0.2371 -0.0724 -0.0518
 4559SOL    HW125139   1.792   3.033   9.255 -4.1243 -2.6994 -2.9683
 4559SOL    HW225140   1.713   2.918   9.311  3.2772 -1.6711 -0.1754
 4560SOL     OW25141   1.419   1.106   2.797 -0.4786 -0.2844 -0.0794
 4560SOL    HW125142   1.512   1.099   2.817  0.1478 -0.9436 -3.1425
 4560SOL    HW225143   1.406   1.184   2.743  1.1855 -0.7584 -1.1578
 4561SOL     OW25144   3.493   1.327   6.117 -0.0830  0.7740  0.0444
 4561SOL    HW125145   3.431   1.284   6.176 -1.2888  1.9994 -0.3317
 4561SOL    HW225146   3.577   1.311   6.160 -1.3510 -0.8148  1.9440
 4562SOL     OW25147   4.187   1.075   4.880 -0.1908 -0.2929 -0.3574
 4562SOL    HW125148   4.241   1.115   4.948 -1.0328  0.4136 -0.1041
 4562SOL    HW225149   4.257   1.029   4.833 -0.8930 -2.0681  0.3541
 4563SOL     OW25150   3.596   3.781   2.521  0.0065  0.0788  0.0498
 4563SOL    HW125151   3.677   3.810   2.562  0.0932  0.2785 -0.2643
 4563SOL    HW225152   3.548   3.864   2.515 -0.5181 -0.2460 -0.3273
 4564SOL     OW25153   1.623   1.311   7.826  0.0306 -0.3129  0.1525
 4564SOL    HW125154   1.566   1.241   7.860 -0.7016  0.5205  0.6284
 4564SOL    HW225155   1.573   1.392   7.836 -1.6410 -1.3430  0.2472
 4565SOL     OW25156   2.395   1.336   8.538 -0.2171 -0.4022 -0.2448
 4565SOL    HW125157   2.440   1.404   8.587  0.2236 -1.4839  0.8450
 4565SOL    HW225158   2.374   1.273   8.607 -0.4587  0.4426  0.4492
 4566SOL     OW25159   2.197   0.854  10.871  0.5116  0.4836 -0.3862
 4566SOL    HW125160   2.223   0.771  10.831 -0.4156 -0.5758  1.2134
 4566SOL    HW225161   2.247   0.846  10.952 -0.5721  1.0628  0.3238
 4567SOL     OW25162   2.485   1.740   3.608  0.0671 -0.1823  0.1123
 4567SOL    HW125163   2.391   1.758   3.621 -0.3510 -1.3806 -1.2815
 4567SOL    HW225164   2.523   1.805   3.667 -0.2330 -0.2771  0.4117
 4568SOL     OW25165   3.818   1.428   1.471  1.0065 -0.7023 -0.8148
 4568SOL    HW125166   3.802   1.336   1.452  2.1225 -1.0605 -0.0090
 4568SOL    HW225167   3.756   1.466   1.409  1.6814  1.5135 -0.1314
 4569SOL     OW25168   1.740   1.489   9.437  0.5444  0.3069 -0.2794
 4569SOL    HW125169   1.743   1.537   9.520 -1.1710  1.8520 -1.1076
 4569SOL    HW225170   1.753   1.397   9.462  1.2622  0.3443 -0.5223
 4570SOL     OW25171   4.157   4.694  16.299 -0.3532 -0.3286  0.3522
 4570SOL    HW125172   4.187   0.039  16.241  1.6287 -1.7572 -0.3776
 4570SOL    HW225173   4.243   4.671  16.334  0.6257  1.6738 -0.7377
 4571SOL     OW25174   3.653   1.627  15.806  0.1867  0.7466 -0.2612
 4571SOL    HW125175   3.744   1.626  15.776  0.9172  2.6708  1.8843
 4571SOL    HW225176   3.615   1.683  15.738  1.6972  1.1170 -0.7993
 4572SOL     OW25177   0.677   3.814   8.489  0.3211  0.0792  0.1653
 4572SOL    HW125178   0.745   3.814   8.557  0.0183  2.8841  0.4463
 4572SOL    HW225179   0.641   3.902   8.497 -1.7925 -0.6949 -0.7310
 4573SOL     OW25180   1.683   1.776   2.035  0.6710  0.0882  0.0262
 4573SOL    HW125181   1.727   1.848   2.081 -1.8735  1.0468  0.9514
 4573SOL    HW225182   1.759   1.735   1.993  0.6432  0.0360  0.0277
 4574SOL     OW25183   0.532   3.029   2.060 -0.5330  0.2874 -0.2488
 4574SOL    HW125184   0.549   2.959   1.997  1.3978 -0.9064  1.5875
 4574SOL    HW225185   0.621   3.043   2.090 -0.0166 -1.9950 -0.7033
 4575SOL     OW25186   0.896   0.013  10.895  0.7172 -0.2766  0.4171
 4575SOL    HW125187   0.967   0.036  10.836  0.5573 -0.5638  0.1102
 4575SOL    HW225188   0.918   4.647  10.917 -0.4323 -0.4134  0.9940
 4576SOL     OW25189   3.859   0.544  11.626 -0.3214  0.1658  0.4903
 4576SOL    HW125190   3.870   0.480  11.696  2.5776 -1.3365 -1.3688
 4576SOL    HW225191   3.935   0.598  11.649 -0.2972  1.3791 -2.3540
 4577SOL     OW25192   4.581   2.215   6.969  0.3516  0.1551 -0.9692
 4577SOL    HW125193   4.501   2.253   7.007  1.8643  2.0159  0.3224
 4577SOL    HW225194   4.624   2.290   6.928 -0.3292  1.6967  1.1655
 4578SOL     OW25195   2.861   4.075  11.775 -0.8220 -0.2193 -0.5511
 4578SOL    HW125196   2.832   4.160  11.743  1.2648  1.1547  1.1593
 4578SOL    HW225197   2.859   4.018  11.698  0.4777  0.5233 -1.1390
 4579SOL     OW25198   2.551   2.431   2.144 -0.0431  0.1569  0.5298
 4579SOL    HW125199   2.467   2.424   2.190 -0.6224  0.8002 -0.4282
 4579SOL    HW225200   2.550   2.526   2.136  1.6522  0.1020 -0.2989
 4580SOL     OW25201   1.384   1.655   4.924 -0.2926  0.7588 -0.0177
 4580SOL    HW125202   1.398   1.561   4.915 -0.3178  0.9116 -1.6859
 4580SOL    HW225203   1.306   1.661   4.979  0.0803 -1.4864  0.7380
 4581SOL     OW25204   3.031   0.055   4.058  0.7872  0.0620 -0.1198
 4581SOL    HW125205   3.087   0.016   3.991  0.6339  0.9657 -0.7904
 4581SOL    HW225206   3.040   0.147   4.034  0.9839 -0.0824 -0.5957
 4582SOL     OW25207   3.325   4.068   8.262  0.1432 -0.4286 -0.2916
 4582SOL    HW125208   3.286   3.982   8.277  0.7355 -0.5542  0.5261
 4582SOL    HW225209   3.295   4.115   8.339  3.9268 -0.1179  0.9668
 4583SOL     OW25210   3.801   1.722   4.294 -0.3776 -0.6678  0.2150
 4583SOL    HW125211   3.822   1.794   4.234 -1.1163  0.3249  1.1527
 4583SOL    HW225212   3.729   1.761   4.344 -1.9206 -1.7372 -1.1949
 4584SOL     OW25213   0.091   1.341   7.537  0.6250  0.3945 -0.8971
 4584SOL    HW125214   0.118   1.268   7.482  4.1211  0.2751  1.0064
 4584SOL    HW225215   0.157   1.349   7.606  0.7115 -0.1924 -0.9066
 4585SOL     OW25216   4.037   2.340  15.731  0.3371  0.2864 -0.2128
 4585SOL    HW125217   4.040   2.416  15.790 -0.2639  0.2816 -0.1783
 4585SOL    HW225218   4.033   2.378  15.643 -1.4810 -1.0916 -0.7291
 4586SOL     OW25219   3.345   0.197   4.528 -0.0214  0.0615 -0.0971
 4586SOL    HW125220   3.427   0.224   4.568  0.8642 -2.3031 -0.3207
 4586SOL    HW225221   3.292   0.263   4.573 -0.4401 -0.5110  0.2554
 4587SOL     OW25222   0.286   3.848   2.156 -0.0919  0.4870  0.6961
 4587SOL    HW125223   0.379   3.867   2.158  0.5502 -2.6999  1.8909
 4587SOL    HW225224   0.277   3.802   2.240 -1.1017  2.0704  1.4633
 4588SOL     OW25225   0.104   3.112   4.986 -0.1277 -0.2422 -0.3867
 4588SOL    HW125226   0.176   3.175   4.986  0.1274 -0.5419  0.5389
 4588SOL    HW225227   0.142   3.025   4.976  1.8749  0.3986  1.6876
 4589SOL     OW25228   0.774   3.863   5.957 -0.4963  0.0477  0.2984
 4589SOL    HW125229   0.709   3.928   5.984 -0.6411 -0.8540  2.1312
 4589SOL    HW225230   0.720   3.823   5.889 -1.2837  0.4910  0.6539
 4590SOL     OW25231   1.913   4.638   6.485 -0.3135 -0.0315 -0.0874
 4590SOL    HW125232   1.972   4.590   6.543  0.7241  1.3754  0.0178
 4590SOL    HW225233   1.949   4.611   6.400 -0.1108  3.3856 -1.1045
 4591SOL     OW25234   1.927   4.223   8.356  0.4947  0.3254  0.5780
 4591SOL    HW125235   1.874   4.303   8.350 -0.8939 -0.6083  0.2189
 4591SOL    HW225236   1.985   4.239   8.283  0.7064  0.9714  0.8884
 4592SOL     OW25237   3.024   4.020   9.935 -0.2748  0.1820  0.0842
 4592SOL    HW125238   2.957   3.988   9.996 -0.4576  0.8849  0.2490
 4592SOL    HW225239   3.090   4.063   9.989  0.3383 -1.9023  1.0044
 4593SOL     OW25240   1.069   4.385   2.128 -0.2828 -0.3925 -0.4187
 4593SOL    HW125241   1.132   4.330   2.081  3.2351  3.0234  0.2071
 4593SOL    HW225242   1.065   4.463   2.072  0.1821  0.5378  0.8397
 4594SOL     OW25243   3.648   4.208  10.865  0.3817 -0.0959 -0.5195
 4594SOL    HW125244   3.679   4.197  10.955  0.6378 -0.6965 -0.6820
 4594SOL    HW225245   3.555   4.223  10.883  0.3451 -1.6400  0.6134
 4595SOL     OW25246   3.852   2.712   7.656  0.0751 -0.0024 -0.1336
 4595SOL    HW125247   3.777   2.697   7.599  3.1723 -0.5188 -3.9941
 4595SOL    HW225248   3.844   2.633   7.709 -1.8823 -0.9804 -1.9232
 4596SOL     OW25249   3.467   1.067   1.629 -0.5203  0.0070  0.8755
 4596SOL    HW125250   3.428   1.149   1.598  0.3230  0.6101  1.4196
 4596SOL    HW225251   3.402   1.001   1.606 -0.4343 -0.5048  2.1199
 4597SOL     OW25252   3.172   1.120   6.576  0.2943 -0.3191  0.1197
 4597SOL    HW125253   3.087   1.152   6.545  0.6094 -0.4624 -0.8996
 4597SOL    HW225254   3.157   1.082   6.662 -0.4068 -0.6338 -0.1443
 4598SOL     OW25255   2.442   0.321   7.491  0.6236 -0.0828 -0.3596
 4598SOL    HW125256   2.430   0.304   7.398 -1.7095 -0.9554  0.0835
 4598SOL    HW225257   2.499   0.397   7.483 -1.9432  1.9276  0.2725
 4599SOL     OW25258   0.438   1.071   8.242 -0.3448 -0.3607  0.5479
 4599SOL    HW125259   0.531   1.074   8.222 -0.6042  2.3948 -0.1617
 4599SOL    HW225260   0.408   1.071   8.151 -0.1218 -0.3680  0.4755
 4600SOL     OW25261   3.263   1.165  10.827 -0.2095  0.2122 -0.5855
 4600SOL    HW125262   3.338   1.116  10.861 -2.0662 -2.1859  0.1105
 4600SOL    HW225263   3.291   1.162  10.736 -0.4254  0.7264 -0.6688
 4601SOL     OW25264   0.924   1.590  12.896  0.2177 -0.4586  0.4319
 4601SOL    HW125265   0.830   1.591  12.915 -0.1988 -0.5574 -1.6363
 4601SOL    HW225266   0.927   1.497  12.915  0.6068  0.0463  2.7876
 4602SOL     OW25267   0.841   4.070   5.534 -0.2251  0.6972  0.4075
 4602SOL    HW125268   0.886   3.994   5.571 -2.0598 -0.1047  0.9772
 4602SOL    HW225269   0.907   4.136   5.515 -1.1630  1.7360  0.7402
 4603SOL     OW25270   4.505   3.773   2.953 -0.1989  0.0020 -0.2178
 4603SOL    HW125271   4.499   3.678   2.966  0.8098  0.0803  0.8825
 4603SOL    HW225272   4.589   3.776   2.909  0.5871 -0.9980  1.1992
 4604SOL     OW25273   1.130   3.494   5.727 -0.0407 -0.3809  0.3832
 4604SOL    HW125274   1.098   3.545   5.652 -0.1194  1.5798  1.7317
 4604SOL    HW225275   1.052   3.450   5.762 -1.4378  1.2794 -0.6045
 4605SOL     OW25276   3.789   2.035  16.841 -0.2462  0.1043 -0.0824
 4605SOL    HW125277   3.829   2.093  16.906 -0.4151  1.9950 -1.6592
 4605SOL    HW225278   3.792   2.095  16.766 -0.3711  0.8916  0.5394
 4606SOL     OW25279   1.872   1.154   5.554  0.3643  0.4393  0.7523
 4606SOL    HW125280   1.918   1.187   5.632  0.2017 -1.0198  1.4518
 4606SOL    HW225281   1.785   1.180   5.583  0.3026  1.5224 -0.3949
 4607SOL     OW25282   3.796   0.985   7.852  0.0086 -0.4326  0.2077
 4607SOL    HW125283   3.778   0.899   7.891  3.0960 -1.6732 -1.1811
 4607SOL    HW225284   3.883   0.976   7.815  0.2145  1.2783  0.2385
 4608SOL     OW25285   3.278   1.731   8.631  0.4762 -0.2002  0.0445
 4608SOL    HW125286   3.327   1.702   8.554 -0.7632 -0.4255 -0.6686
 4608SOL    HW225287   3.202   1.672   8.632 -1.3967  2.1965 -0.2834
 4609SOL     OW25288   2.313   0.869   8.890 -0.8222 -0.3311  0.7996
 4609SOL    HW125289   2.345   0.795   8.839  1.7869  1.6713 -0.4878
 4609SOL    HW225290   2.390   0.896   8.941 -0.3108 -2.5236  1.1805
 4610SOL     OW25291   3.773   3.934  14.579 -0.0158 -0.1068 -0.5991
 4610SOL    HW125292   3.688   3.964  14.547  0.1175  1.9635  0.9925
 4610SOL    HW225293   3.813   4.020  14.585 -2.1535  0.7801  0.8546
 4611SOL     OW25294   2.369   1.639   8.033  0.2727  0.6122 -0.3439
 4611SOL    HW125295   2.431   1.613   8.101 -0.1772 -0.5965 -0.4059
 4611SOL    HW225296   2.405   1.719   7.995 -0.4104  1.6472  1.2203
 4612SOL     OW25297   1.987   1.218   8.658  0.0625  0.1826  0.1429
 4612SOL    HW125298   2.000   1.306   8.624 -0.1142  0.7242  1.4768
 4612SOL    HW225299   2.078   1.188   8.652  0.1138  0.3013  0.3275
 4613SOL     OW25300   3.921   0.733   0.510 -0.6076  0.4517 -0.3019
 4613SOL    HW125301   3.982   0.762   0.442  1.3101 -1.0732  0.7626
 4613SOL    HW225302   3.900   0.652   0.464  1.2397  0.2941 -0.8927
 4614SOL     OW25303   4.613   2.765   7.761 -0.7966 -0.0972  0.1724
 4614SOL    HW125304   4.604   2.812   7.844  1.1790 -0.7210  0.7313
 4614SOL    HW225305   4.688   2.710   7.782  0.0476  1.4799  1.2540
 4615SOL     OW25306   2.959   1.706   4.764  0.2581  0.3504 -0.3228
 4615SOL    HW125307   3.044   1.669   4.743 -0.3832  0.8063 -3.6946
 4615SOL    HW225308   2.975   1.800   4.778  0.2052  0.0738  1.5747
 4616SOL     OW25309   2.695   1.386   0.836 -0.3202  0.3642  0.2532
 4616SOL    HW125310   2.747   1.420   0.910  0.0209 -0.2250  0.2866
 4616SOL    HW225311   2.741   1.305   0.814  1.1276  1.5406 -1.0564
 4617SOL     OW25312   1.329   3.886  17.417 -0.6023 -0.7375  0.4783
 4617SOL    HW125313   1.403   3.825  17.413 -1.3323 -1.7080  1.3995
 4617SOL    HW225314   1.269   3.857  17.348 -0.3086  0.0099 -0.0777
 4618SOL     OW25315   0.578   3.254   5.930  0.1828  0.0622  0.5367
 4618SOL    HW125316   0.488   3.234   5.905  0.9382 -2.7987  0.1320
 4618SOL    HW225317   0.597   3.164   5.956 -0.4457 -0.1656  0.2212
 4619SOL     OW25318   2.833   2.282   7.578 -0.4284  0.2903  0.2102
 4619SOL    HW125319   2.784   2.354   7.619  2.6688  1.6872  1.4273
 4619SOL    HW225320   2.796   2.217   7.637 -0.9072  0.1080 -0.2847
 4620SOL     OW25321   4.108   0.673  10.059 -0.4827 -0.1613 -0.1054
 4620SOL    HW125322   4.100   0.752  10.006 -0.5045 -0.5863 -0.7414
 4620SOL    HW225323   4.018   0.671  10.090 -0.2646 -0.0961  0.5405
 4621SOL     OW25324   3.682   0.949   4.885  0.5687 -0.1630  0.1493
 4621SOL    HW125325   3.600   0.918   4.924 -0.0927 -1.3915 -2.2836
 4621SOL    HW225326   3.655   0.949   4.794  0.4489  0.7912  0.1857
 4622SOL     OW25327   2.892   3.070   2.854 -0.1630  0.8121  0.0384
 4622SOL    HW125328   2.828   3.056   2.783 -0.1824 -0.6010  0.3371
 4622SOL    HW225329   2.927   3.157   2.836  0.1586  0.7893  0.5828
 4623SOL     OW25330   0.659   3.257   5.292  0.3111  0.0561 -0.6355
 4623SOL    HW125331   0.622   3.291   5.210  1.6041  1.9391 -0.4422
 4623SOL    HW225332   0.714   3.331   5.317  1.7137 -0.9568 -0.7524
 4624SOL     OW25333   1.537   1.726  16.436 -0.6087  0.2752 -0.1350
 4624SOL    HW125334   1.543   1.798  16.498 -1.2646  0.9806 -0.9022
 4624SOL    HW225335   1.616   1.677  16.460  0.4207  1.4471 -1.1808
 4625SOL     OW25336   2.735   0.635   7.915  0.1277  0.2509 -0.5080
 4625SOL    HW125337   2.695   0.604   7.996  0.6508 -2.1882 -1.1957
 4625SOL    HW225338   2.827   0.642   7.939  0.1327  4.2853 -1.7396
 4626SOL     OW25339   0.045   0.627   6.805  0.2987 -0.4205 -0.5891
 4626SOL    HW125340   0.139   0.625   6.785  0.5564 -0.9129  0.7205
 4626SOL    HW225341   0.039   0.602   6.897  2.5605 -1.6340 -0.7725
 4627SOL     OW25342   4.302   3.985  12.145  0.3323  0.0167  0.0062
 4627SOL    HW125343   4.220   3.955  12.108 -0.6501  2.1994  0.3975
 4627SOL    HW225344   4.332   3.910  12.197  1.5655  1.4898  1.4380
 4628SOL     OW25345   1.348   1.828   3.723  0.1420 -0.4948  0.3879
 4628SOL    HW125346   1.376   1.914   3.755  2.6762 -1.9343  2.1108
 4628SOL    HW225347   1.319   1.841   3.633 -2.1563  0.7899  1.3184
 4629SOL     OW25348   1.510   2.290   2.811 -0.1538  0.3603 -0.1846
 4629SOL    HW125349   1.490   2.368   2.864 -0.9632  1.3251 -1.9181
 4629SOL    HW225350   1.600   2.308   2.783 -0.5029  0.4547 -1.2302
 4630SOL     OW25351   0.478   1.626   3.191 -0.2290 -0.4078  0.3036
 4630SOL    HW125352   0.504   1.640   3.099 -0.4279  2.1313  0.6269
 4630SOL    HW225353   0.409   1.692   3.201 -1.4645 -1.1697 -3.0614
 4631SOL     OW25354   0.220   2.584  14.139  0.3061  0.6201 -0.2100
 4631SOL    HW125355   0.129   2.599  14.113  0.4702  1.9464 -0.0379
 4631SOL    HW225356   0.213   2.640  14.216  0.7163 -1.0004  0.9882
 4632SOL     OW25357   1.447   4.567   0.419 -0.4604 -0.0798 -0.1251
 4632SOL    HW125358   1.475   4.476   0.429 -2.4017 -0.4867  1.5525
 4632SOL    HW225359   1.532   4.611   0.428 -1.0366  0.9369  0.2321
 4633SOL     OW25360   1.866   3.905   0.119  0.2737 -0.5094 -0.2116
 4633SOL    HW125361   1.862   3.813   0.094  1.1876 -0.2824 -1.1939
 4633SOL    HW225362   1.795   3.952   0.076 -0.9946 -1.5454  0.7808
 4634SOL     OW25363   0.770   2.037   7.152  0.8241  0.3834 -0.1760
 4634SOL    HW125364   0.785   2.095   7.078  1.1479 -0.2745 -0.6239
 4634SOL    HW225365   0.771   2.096   7.228  0.7872  0.1312  0.0204
 4635SOL     OW25366   1.922   1.052   8.239 -0.1613 -0.7792 -0.1970
 4635SOL    HW125367   1.971   1.133   8.251 -2.1248  0.3318  0.3110
 4635SOL    HW225368   1.860   1.066   8.168  0.9285  4.1024 -0.1449
 4636SOL     OW25369   1.241   1.552  16.365 -0.3434 -0.3118 -0.1071
 4636SOL    HW125370   1.149   1.559  16.389 -0.6717 -3.0677 -0.4907
 4636SOL    HW225371   1.260   1.495  16.440  0.8814 -0.6211 -0.6470
 4637SOL     OW25372   1.741   3.958   8.883 -0.2728 -0.1641  0.0454
 4637SOL    HW125373   1.789   4.028   8.838 -2.2312  1.7672  0.9868
 4637SOL    HW225374   1.765   3.877   8.837  1.2048 -0.7235  1.8068
 4638SOL     OW25375   2.783   1.718   9.288 -0.4846  0.0941  0.1431
 4638SOL    HW125376   2.758   1.794   9.340 -0.9133  1.3929 -1.9976
 4638SOL    HW225377   2.878   1.727   9.301 -0.0873 -2.5074 -0.9807
 4639SOL     OW25378   3.271   3.561   5.830  0.4876  0.1746  0.4449
 4639SOL    HW125379   3.323   3.585   5.906  1.0704  1.7791 -0.4725
 4639SOL    HW225380   3.324   3.489   5.796  2.0791  1.7533 -0.4199
 4640SOL     OW25381   1.119   0.174   7.930 -0.0099  0.5282 -0.8977
 4640SOL    HW125382   1.071   0.247   7.890 -0.4557  0.7785  0.0940
 4640SOL    HW225383   1.106   0.203   8.020  1.6008 -2.9800  0.4471
 4641SOL     OW25384   2.638   1.769   5.775  0.0904  0.1663 -0.0763
 4641SOL    HW125385   2.548   1.791   5.797  0.7182  0.0497  2.7219
 4641SOL    HW225386   2.640   1.763   5.680 -0.9485  1.1199 -0.1479
 4642SOL     OW25387   3.910   3.713   2.014  0.3128 -0.0476  0.0781
 4642SOL    HW125388   4.001   3.698   2.039 -0.4053  1.0402  3.4229
 4642SOL    HW225389   3.891   3.794   2.061  0.1901  0.1033 -0.2307
 4643SOL     OW25390   4.456   3.413  16.802  0.0494 -0.4656  0.7021
 4643SOL    HW125391   4.391   3.365  16.750 -0.5637  1.0281  0.0812
 4643SOL    HW225392   4.464   3.494  16.752  0.0707 -0.7935  0.1784
 4644SOL     OW25393   2.801   2.391   5.811 -0.2184  0.3735  0.6032
 4644SOL    HW125394   2.848   2.315   5.777  0.1105  0.3174  1.1788
 4644SOL    HW225395   2.822   2.385   5.904  0.7901 -3.5803  0.1223
 4645SOL     OW25396   2.276   3.563   8.257  0.5932  0.6339  0.0425
 4645SOL    HW125397   2.350   3.513   8.291  1.6083  1.1618 -1.3895
 4645SOL    HW225398   2.279   3.641   8.312 -0.6708 -0.1700  1.2653
 4646SOL     OW25399   4.348   2.518   2.190 -0.2114  0.4187  0.3834
 4646SOL    HW125400   4.424   2.574   2.175  0.5364 -0.9593 -0.9774
 4646SOL    HW225401   4.346   2.453   2.119 -0.4554  0.8242  0.0193
 4647SOL     OW25402   4.541   4.501   1.463  0.3720  0.1488  1.1484
 4647SOL    HW125403   4.557   4.422   1.514 -1.6175 -2.3051 -1.9999
 4647SOL    HW225404   4.489   4.560   1.518 -0.0474  0.7914  0.0734
 4648SOL     OW25405   1.680   4.496   0.202  0.3366  0.6992 -0.1433
 4648SOL    HW125406   1.731   4.417   0.188  2.8213  1.7223  3.1430
 4648SOL    HW225407   1.599   4.465   0.161  0.4478  0.8838 -0.5006
 4649SOL     OW25408   2.218   4.045   4.805  0.3495  0.4538  0.0278
 4649SOL    HW125409   2.268   3.994   4.869 -2.6785 -2.1212  0.3695
 4649SOL    HW225410   2.147   4.082   4.858 -1.6020  0.4840 -2.5861
 4650SOL     OW25411   2.441   4.594   4.669 -0.2734  0.1944  0.2678
 4650SOL    HW125412   2.349   4.579   4.689  0.2909 -2.9556  0.5880
 4650SOL    HW225413   2.450   4.538   4.591  0.7777  2.2362 -1.0844
 4651SOL     OW25414   0.063   0.038   7.805  0.1229 -0.0164 -0.1480
 4651SOL    HW125415   0.009   4.706   7.860  0.3031  0.1975  0.2479
 4651SOL    HW225416   0.145   0.035   7.854  1.9345 -0.9654 -3.2559
 4652SOL     OW25417   0.496   3.389   0.863 -0.0333 -0.4020 -0.1926
 4652SOL    HW125418   0.501   3.310   0.810 -1.0501 -0.5016 -0.1281
 4652SOL    HW225419   0.568   3.374   0.925  0.8041 -1.2146 -1.3542
 4653SOL     OW25420   1.368   4.496   3.512 -0.2150 -0.1435 -0.0028
 4653SOL    HW125421   1.329   4.471   3.428  1.9601 -2.2148 -0.3922
 4653SOL    HW225422   1.336   4.435   3.579 -2.4121  0.0965 -0.8234
 4654SOL     OW25423   0.114   2.264   7.881  0.2520  0.2259 -0.5800
 4654SOL    HW125424   0.107   2.223   7.967 -0.1473  0.5852 -0.4434
 4654SOL    HW225425   0.143   2.182   7.840 -0.3457 -0.5800  0.6227
 4655SOL     OW25426   4.527   1.693   1.203  0.1337 -0.5867  0.5144
 4655SOL    HW125427   4.478   1.695   1.285 -0.2510 -2.0256  0.3219
 4655SOL    HW225428   4.464   1.723   1.138  0.6439  2.1837  1.3104
 4656SOL     OW25429   0.816   3.335   0.360  0.3440  0.5116  0.3512
 4656SOL    HW125430   0.896   3.341   0.412  1.5251  2.1144 -1.6600
 4656SOL    HW225431   0.850   3.294   0.281 -0.7974  2.9411 -1.4217
 4657SOL     OW25432   4.018   3.687   6.927  0.5818  0.3503  0.9006
 4657SOL    HW125433   4.089   3.655   6.983  0.8597 -0.0561  0.3170
 4657SOL    HW225434   3.945   3.636   6.960 -0.8170  1.3279 -0.6599
 4658SOL     OW25435   0.938   1.225   2.317  0.6335 -0.4462  0.4895
 4658SOL    HW125436   0.873   1.197   2.382 -0.0489  0.4892  0.2135
 4658SOL    HW225437   0.880   1.272   2.258 -0.5561  0.4110  2.3266
 4659SOL     OW25438   2.833   3.783   9.749  0.5411 -0.5932  0.0388
 4659SOL    HW125439   2.898   3.820   9.809  0.0814 -2.8512  1.9492
 4659SOL    HW225440   2.782   3.723   9.805  0.2995  1.6636  2.2397
 4660SOL     OW25441   0.418   3.259   4.581  0.0719  0.4472  0.7860
 4660SOL    HW125442   0.346   3.280   4.521  1.0051 -1.7225 -1.0687
 4660SOL    HW225443   0.480   3.230   4.515 -1.2317 -0.1556 -0.1907
 4661SOL     OW25444   4.523   0.640   3.609 -0.3466  0.6011  0.1797
 4661SOL    HW125445   4.556   0.730   3.601  0.1915  0.6627  3.0986
 4661SOL    HW225446   4.429   0.656   3.620 -0.7753 -1.8664  0.0660
 4662SOL     OW25447   3.740   0.960   6.918 -0.0917 -0.0943 -1.2154
 4662SOL    HW125448   3.768   1.040   6.875  1.3931  0.2645  0.4412
 4662SOL    HW225449   3.703   0.933   6.834  0.1826  0.1555 -1.4158
 4663SOL     OW25450   2.555   1.027  15.765 -0.8203 -0.7050 -0.3955
 4663SOL    HW125451   2.501   1.037  15.687 -1.2822 -1.5932 -0.1859
 4663SOL    HW225452   2.545   0.935  15.788 -1.1770  0.1471  2.9684
 4664SOL     OW25453   1.608   3.580  16.771  0.2502 -0.2509  0.1228
 4664SOL    HW125454   1.548   3.505  16.763 -0.4964  0.0986  2.4202
 4664SOL    HW225455   1.660   3.576  16.691 -0.1751  2.4343 -0.2998
 4665SOL     OW25456   1.088   0.671   6.271  0.1025 -0.6309 -0.0008
 4665SOL    HW125457   1.154   0.608   6.243 -0.9598 -1.2485 -1.1560
 4665SOL    HW225458   1.013   0.611   6.264 -2.2544  2.3535 -0.5504
 4666SOL     OW25459   1.193   3.646   9.815 -0.0383 -0.1114 -0.2063
 4666SOL    HW125460   1.122   3.686   9.864  2.2772  2.3169  1.1591
 4666SOL    HW225461   1.221   3.716   9.756  1.0994  0.2701  0.7818
 4667SOL     OW25462   1.005   1.162  15.771 -0.0131 -0.0619 -0.3031
 4667SOL    HW125463   0.937   1.223  15.797 -1.0930 -0.6061 -1.8964
 4667SOL    HW225464   1.074   1.185  15.833  0.8814  1.4356 -1.8560
 4668SOL     OW25465   4.464   1.289   4.895  0.0744 -0.1177  0.0546
 4668SOL    HW125466   4.559   1.277   4.890 -0.1704 -1.8660 -0.6657
 4668SOL    HW225467   4.431   1.310   4.808  2.4684  0.8422 -0.6357
 4669SOL     OW25468   0.409   2.545   6.348 -0.2142  0.4239 -0.3130
 4669SOL    HW125469   0.327   2.592   6.331  0.1214  0.8156 -0.8600
 4669SOL    HW225470   0.385   2.455   6.369  2.4420 -0.2058 -0.0024
 4670SOL     OW25471   2.452   0.030   0.312  0.5180  0.1274 -0.2605
 4670SOL    HW125472   2.380   0.043   0.373 -0.3660 -0.8839 -1.0782
 4670SOL    HW225473   2.447   4.660   0.303 -0.8589  0.1448  0.4009
 4671SOL     OW25474   2.882   2.014  16.284 -0.3961  0.5305  0.0744
 4671SOL    HW125475   2.872   1.919  16.295  0.0699  0.3022 -1.4626
 4671SOL    HW225476   2.977   2.019  16.296 -0.3622  1.1371 -0.4694
 4672SOL     OW25477   0.172   3.284  10.790 -0.0279  0.4191  0.2635
 4672SOL    HW125478   0.254   3.259  10.748 -0.4637 -2.8335  1.4092
 4672SOL    HW225479   0.204   3.307  10.877  2.3745 -1.5119 -0.1011
 4673SOL     OW25480   0.814   4.208   5.128 -0.7939 -0.0063  0.4210
 4673SOL    HW125481   0.813   4.264   5.050  1.4500 -1.2594 -0.4959
 4673SOL    HW225482   0.736   4.231   5.179 -0.0504  0.7193  1.2299
 4674SOL     OW25483   3.907   2.897   5.289 -0.2321 -0.0517 -0.5010
 4674SOL    HW125484   3.850   2.858   5.356  0.1281 -0.5579 -0.4915
 4674SOL    HW225485   3.869   2.885   5.202 -1.9073 -3.8616  0.7418
 4675SOL     OW25486   4.079   1.817   2.811  0.1803  0.6219  0.8736
 4675SOL    HW125487   4.084   1.838   2.904  0.6458  0.1790  0.9465
 4675SOL    HW225488   3.984   1.802   2.812  0.5123 -1.5764  0.0161
 4676SOL     OW25489   2.656   1.435  12.251 -0.4610 -0.3138  0.4065
 4676SOL    HW125490   2.732   1.461  12.200 -1.1524 -2.1448 -1.5284
 4676SOL    HW225491   2.687   1.471  12.334 -1.8364 -0.1405  0.8405
 4677SOL     OW25492   1.584   2.409   4.749  0.6899 -0.0339 -0.1108
 4677SOL    HW125493   1.596   2.418   4.844  3.3381  0.8649 -0.5345
 4677SOL    HW225494   1.491   2.388   4.758  1.3079 -2.9012 -0.4473
 4678SOL     OW25495   3.782   4.288   6.537  0.1887 -0.0538 -0.6929
 4678SOL    HW125496   3.690   4.285   6.562  0.6420  0.9367  1.0774
 4678SOL    HW225497   3.827   4.309   6.619 -1.3276 -3.6699  1.0866
 4679SOL     OW25498   1.442   0.047  14.741 -0.7180  0.4893 -0.5222
 4679SOL    HW125499   1.409   0.074  14.827 -1.3485 -1.5785 -0.1182
 4679SOL    HW225500   1.522   4.725  14.764 -1.9433 -0.7849  1.0772
 4680SOL     OW25501   0.640   2.228   8.477 -0.3382 -0.7862 -0.2614
 4680SOL    HW125502   0.721   2.203   8.433  0.5141  1.1618  0.1838
 4680SOL    HW225503   0.672   2.257   8.562 -0.3785 -2.2845  0.2641
 4681SOL     OW25504   2.176   3.096   6.497 -0.2194  0.5450  0.3889
 4681SOL    HW125505   2.164   3.066   6.587 -0.5180 -0.1418  0.1226
 4681SOL    HW225506   2.105   3.160   6.492 -0.5507  0.0891 -0.8192
 4682SOL     OW25507   3.648   0.244   0.331  0.1635 -0.3195 -0.0802
 4682SOL    HW125508   3.606   0.213   0.410 -4.4618 -2.0953 -3.2449
 4682SOL    HW225509   3.580   0.275   0.271 -0.4401  1.7964  1.7215
 4683SOL     OW25510   3.864   1.947   5.650  0.4379 -0.0767 -0.9650
 4683SOL    HW125511   3.800   1.949   5.579 -1.4700 -1.7329  0.7041
 4683SOL    HW225512   3.941   1.912   5.605  2.2884  1.4455  0.9836
 4684SOL     OW25513   2.662   1.144   0.020  0.8073 -0.4175 -0.6526
 4684SOL    HW125514   2.706   1.064   0.050  0.8354 -0.0197  0.3540
 4684SOL    HW225515   2.571   1.114   0.028  0.9314 -0.8747 -0.9272
 4685SOL     OW25516   2.181   3.081  13.227 -0.3163 -0.6234 -0.8861
 4685SOL    HW125517   2.125   3.119  13.294 -1.2591 -0.5992 -1.6771
 4685SOL    HW225518   2.259   3.131  13.248 -1.1812 -0.4882  1.9914
 4686SOL     OW25519   2.799   3.660  16.618 -0.7337  0.0419 -0.0497
 4686SOL    HW125520   2.880   3.620  16.650 -0.6216  1.2704  1.1753
 4686SOL    HW225521   2.778   3.605  16.542  0.5504  0.7195 -0.9019
 4687SOL     OW25522   1.368   3.051   3.734 -0.0677 -0.1774 -0.2633
 4687SOL    HW125523   1.338   2.993   3.664  0.1296 -1.0084  0.3481
 4687SOL    HW225524   1.285   3.094   3.755  0.0575 -0.5873  1.0659
 4688SOL     OW25525   3.337   2.470   3.495  0.1075 -0.4865  0.2234
 4688SOL    HW125526   3.250   2.503   3.516  0.1374  0.4598 -1.1516
 4688SOL    HW225527   3.322   2.386   3.452  0.8858  0.4121 -1.7909
 4689SOL     OW25528   0.749   0.766   1.163 -0.1808  0.5367  0.1799
 4689SOL    HW125529   0.812   0.707   1.205 -0.1921  0.2469 -0.2159
 4689SOL    HW225530   0.726   0.819   1.240 -2.7162 -1.5316  0.8298
 4690SOL     OW25531   3.414   3.458   3.504 -0.4044 -0.0619  0.2614
 4690SOL    HW125532   3.388   3.521   3.436 -2.5682 -1.2981 -0.0474
 4690SOL    HW225533   3.493   3.410   3.479  1.0445  1.0495  2.6607
 4691SOL     OW25534   1.355   1.184   7.527  0.3368  0.1363 -0.5639
 4691SOL    HW125535   1.379   1.098   7.561  0.2244  0.0651 -0.6688
 4691SOL    HW225536   1.334   1.161   7.437 -0.1039 -2.3104  0.1665
 4692SOL     OW25537   3.610   4.258   0.216  0.4591  0.1205  0.4356
 4692SOL    HW125538   3.558   4.231   0.291  2.6764  0.0168  1.9289
 4692SOL    HW225539   3.542   4.304   0.166 -0.4851  0.0347  1.6618
 4693SOL     OW25540   3.134   0.099  15.430  0.8647  0.1163  0.0617
 4693SOL    HW125541   3.047   0.138  15.430  1.2403  0.9638 -1.1809
 4693SOL    HW225542   3.127   0.040  15.355  2.5482 -1.6621  1.3057
 4694SOL     OW25543   2.242   3.155  14.969  0.5019 -0.2130  0.2399
 4694SOL    HW125544   2.159   3.184  15.007  0.2291 -1.5846  0.6885
 4694SOL    HW225545   2.294   3.224  15.009 -1.6946  1.2303  0.6323
 4695SOL     OW25546   4.006   1.364   5.724  0.4678  0.3995  0.6734
 4695SOL    HW125547   3.948   1.384   5.651 -0.4302 -0.1488  1.2461
 4695SOL    HW225548   3.981   1.272   5.724 -2.0856  1.1010  1.5960
 4696SOL     OW25549   0.754   2.230   9.788 -0.3474  0.4167  0.4560
 4696SOL    HW125550   0.795   2.255   9.871 -0.5807 -2.1932  1.3453
 4696SOL    HW225551   0.707   2.153   9.821 -2.8343  1.4877 -0.5543
 4697SOL     OW25552   0.737   3.939  10.638  0.0562  0.4041  0.2448
 4697SOL    HW125553   0.803   3.912  10.573 -0.7720  0.4185 -0.5995
 4697SOL    HW225554   0.678   3.991  10.584  0.4968  1.1207  0.4572
 4698SOL     OW25555   4.471   4.167   5.442 -0.5142  0.0139 -0.2619
 4698SOL    HW125556   4.545   4.192   5.387  1.5434 -0.3782  2.3676
 4698SOL    HW225557   4.470   4.246   5.497  0.5220  1.1103 -1.8100
 4699SOL     OW25558   4.042   3.332   5.466 -0.3925 -0.3358 -0.4516
 4699SOL    HW125559   3.961   3.362   5.508  0.7520  2.6041 -0.3412
 4699SOL    HW225560   4.012   3.270   5.400  1.6706 -1.2663 -0.5259
 4700SOL     OW25561   3.413   2.235   7.641  0.7516  0.6057  0.0744
 4700SOL    HW125562   3.491   2.203   7.686  0.1942 -3.2943 -1.7174
 4700SOL    HW225563   3.459   2.291   7.578 -1.5507  1.3291 -0.9623
 4701SOL     OW25564   0.037   0.671   1.047 -0.0201  0.4555 -0.3559
 4701SOL    HW125565   0.077   0.718   0.974  0.0992  1.7643  0.5547
 4701SOL    HW225566   0.068   0.584   1.021 -0.8105 -0.4375  1.6365
 4702SOL     OW25567   1.362   1.945  10.166 -0.0228 -0.0493 -0.0465
 4702SOL    HW125568   1.441   1.904  10.131  1.0258  1.0943  1.0248
 4702SOL    HW225569   1.351   2.022  10.111  2.7530 -0.6987 -1.5120
 4703SOL     OW25570   3.488   1.623   2.793 -0.6518  0.0699  0.1683
 4703SOL    HW125571   3.467   1.703   2.745  0.2993 -0.8964 -1.8492
 4703SOL    HW225572   3.571   1.593   2.756 -1.2333  0.3952 -1.4056
 4704SOL     OW25573   1.586   1.666  13.326  0.5116  0.1901  1.1513
 4704SOL    HW125574   1.502   1.668  13.371  0.4302 -0.2743  1.0173
 4704SOL    HW225575   1.562   1.711  13.245 -1.0869  0.5617  1.8379
 4705SOL     OW25576   1.700   4.653   2.043 -0.6305  0.2259  0.4403
 4705SOL    HW125577   1.641   4.628   1.973 -1.2538  1.4575  0.5203
 4705SOL    HW225578   1.782   4.611   2.017 -0.6579  1.7013 -1.9799
 4706SOL     OW25579   1.859   0.967   2.719 -0.5315  0.4275 -0.5804
 4706SOL    HW125580   1.902   1.053   2.723  1.1198 -0.4179 -0.0407
 4706SOL    HW225581   1.823   0.977   2.631 -2.2129 -0.9933 -0.0571
 4707SOL     OW25582   0.522   0.534   3.104  0.5632 -0.5206  0.3867
 4707SOL    HW125583   0.520   0.440   3.087 -0.4492 -0.3411 -0.4850
 4707SOL    HW225584   0.555   0.566   3.020 -0.9434  0.3483  0.1221
 4708SOL     OW25585   0.476   0.318   5.539 -0.7441  0.2805  0.2667
 4708SOL    HW125586   0.432   0.380   5.480 -2.8258 -1.2899  0.1327
 4708SOL    HW225587   0.493   0.257   5.467  3.0902  1.5103  0.1544
 4709SOL     OW25588   4.530   3.013   5.615 -0.1179  0.5581  0.5244
 4709SOL    HW125589   4.463   3.038   5.551  0.6910  2.2737  0.3608
 4709SOL    HW225590   4.481   3.004   5.697 -0.5685  1.3047  0.3262
 4710SOL     OW25591   0.537   3.023  10.120  0.0852 -0.3266  0.3838
 4710SOL    HW125592   0.483   2.944  10.116 -0.6569  0.2704 -1.1999
 4710SOL    HW225593   0.584   3.011  10.203 -0.5029  0.2885  0.8017
 4711SOL     OW25594   4.165   2.283   2.732  0.4421  0.1682  0.0851
 4711SOL    HW125595   4.159   2.247   2.821 -2.8328 -1.6949 -0.9275
 4711SOL    HW225596   4.259   2.299   2.718  0.7299 -1.3776  0.2485
 4712SOL     OW25597   3.248   2.215   3.402  0.2670  0.5670 -0.0431
 4712SOL    HW125598   3.283   2.200   3.489  0.8486 -0.3186 -0.4359
 4712SOL    HW225599   3.270   2.134   3.356 -0.4789  0.2728  0.1179
 4713SOL     OW25600   2.418   2.483   7.764  0.6179 -0.0258  0.1968
 4713SOL    HW125601   2.376   2.506   7.847 -0.3900 -0.3948 -0.2089
 4713SOL    HW225602   2.392   2.567   7.727  1.1512  0.6469  1.3272
 4714SOL     OW25603   1.473   2.858   2.316  0.2933 -0.4595 -0.7485
 4714SOL    HW125604   1.545   2.917   2.295  1.8397 -1.8453  0.6087
 4714SOL    HW225605   1.461   2.811   2.233 -1.3628  1.4356 -1.5939
 4715SOL     OW25606   4.606   2.659  10.204  0.2733  0.2063  0.2390
 4715SOL    HW125607   4.629   2.723  10.137  2.9376 -0.5963  0.3870
 4715SOL    HW225608   4.601   2.582  10.149  0.4877 -2.0269  3.3304
 4716SOL     OW25609   1.025   1.030   6.526 -0.3491 -0.0755 -0.7057
 4716SOL    HW125610   1.103   1.084   6.516 -0.3860  0.0401 -0.3782
 4716SOL    HW225611   0.990   1.056   6.440 -0.1755 -0.0116 -0.7568
 4717SOL     OW25612   2.970   1.338   8.044 -0.0416  0.1171  0.6215
 4717SOL    HW125613   2.921   1.420   8.058  0.5580  0.5250  0.3320
 4717SOL    HW225614   3.037   1.361   8.109 -0.6806  1.0996  0.9308
 4718SOL     OW25615   1.174   3.499   7.659 -0.0085  0.1912 -0.2709
 4718SOL    HW125616   1.255   3.450   7.641  0.5916  0.8895  0.5625
 4718SOL    HW225617   1.207   3.535   7.741 -1.1678  1.6636 -0.4563
 4719SOL     OW25618   4.434   2.623   0.462 -0.1435 -0.2447 -0.3391
 4719SOL    HW125619   4.412   2.706   0.504  2.3548  0.0253  0.4166
 4719SOL    HW225620   4.526   2.617   0.485 -0.2565  0.0899  0.1976
 4720SOL     OW25621   0.277   1.767   2.055  0.2611  0.2430  0.4901
 4720SOL    HW125622   0.357   1.777   2.107 -1.5845  1.9077  3.0036
 4720SOL    HW225623   0.237   1.695   2.103  0.1502 -0.9209 -1.3641
 4721SOL     OW25624   2.103   3.535   5.250 -0.3383  0.7173  0.5598
 4721SOL    HW125625   2.021   3.584   5.239 -0.5586  0.2137 -0.0611
 4721SOL    HW225626   2.158   3.612   5.239  1.2622 -0.3745  1.0479
 4722SOL     OW25627   1.345   4.708   2.076  0.0487 -0.7005 -0.4113
 4722SOL    HW125628   1.381   4.642   2.136 -0.6151 -0.2960  0.4383
 4722SOL    HW225629   1.260   4.714   2.120  0.6779  1.3041  0.5252
 4723SOL     OW25630   1.874   1.698   3.019  0.1999  0.6353  0.2505
 4723SOL    HW125631   1.801   1.723   3.076 -0.6054 -0.4029 -0.3328
 4723SOL    HW225632   1.863   1.748   2.938  0.0826  0.6693  0.2870
 4724SOL     OW25633   2.527   2.078   1.251 -0.3530 -0.2284  0.3634
 4724SOL    HW125634   2.513   2.120   1.336 -0.0605  1.5407 -0.4605
 4724SOL    HW225635   2.455   2.114   1.200  0.3681  1.2871  0.4182
 4725SOL     OW25636   3.384   0.639   2.170  0.0493 -0.5218 -0.1429
 4725SOL    HW125637   3.289   0.634   2.156  0.3089 -2.3908 -1.2267
 4725SOL    HW225638   3.383   0.637   2.266 -0.2795 -0.7264 -0.1517
 4726SOL     OW25639   1.167   0.845   9.364 -0.0319  0.2885  0.2741
 4726SOL    HW125640   1.205   0.925   9.329 -0.1227  0.1922 -0.0438
 4726SOL    HW225641   1.116   0.814   9.289  0.9533 -0.3069 -0.1553
 4727SOL     OW25642   3.628   2.841   3.182 -0.4375  0.0273  0.2612
 4727SOL    HW125643   3.622   2.745   3.190  0.6391 -0.1542 -1.1765
 4727SOL    HW225644   3.698   2.849   3.118 -0.4287 -2.0723  0.0089
 4728SOL     OW25645   2.320   4.484   1.994 -0.1362 -1.0863  0.1446
 4728SOL    HW125646   2.402   4.445   1.964  1.8340  0.6437  3.3388
 4728SOL    HW225647   2.310   4.438   2.077  1.2806 -0.0766  0.8606
 4729SOL     OW25648   0.281   4.624   7.128  0.0761 -0.3162  0.2301
 4729SOL    HW125649   0.222   4.576   7.070  0.3838  0.1321 -0.4561
 4729SOL    HW225650   0.321   4.567   7.194 -0.8584  1.5841  2.4280
 4730SOL     OW25651   3.846   0.412   0.112  0.2037 -0.1081  0.1426
 4730SOL    HW125652   3.905   0.439   0.042  0.0805 -1.0250 -0.3164
 4730SOL    HW225653   3.776   0.474   0.091 -1.2661 -1.3241  1.4528
 4731SOL     OW25654   3.686   4.421   7.363  0.5633  0.6423  0.6198
 4731SOL    HW125655   3.733   4.452   7.440  0.5379  0.6401  0.6361
 4731SOL    HW225656   3.625   4.358   7.400 -1.0094  2.2487  0.7539
 4732SOL     OW25657   2.562   3.178   9.708  0.0630 -0.2338 -0.0798
 4732SOL    HW125658   2.537   3.103   9.654  2.1470  0.2878 -1.7410
 4732SOL    HW225659   2.473   3.189   9.743  0.4579  0.8655  0.5637
 4733SOL     OW25660   3.269   4.575  10.616 -0.2502 -0.0127  0.2384
 4733SOL    HW125661   3.232   4.661  10.594  1.1835  0.8878  1.3446
 4733SOL    HW225662   3.360   4.583  10.586 -0.7697  0.8243 -1.1233
 4734SOL     OW25663   3.858   4.041   2.014 -0.2031  0.8915  0.5672
 4734SOL    HW125664   3.850   4.083   1.929 -1.2305 -0.7003 -0.1140
 4734SOL    HW225665   3.947   4.006   2.006 -1.0647 -0.7658 -1.7202
 4735SOL     OW25666   2.437   1.584  14.073  0.1611 -0.1779 -0.5679
 4735SOL    HW125667   2.453   1.620  13.985  0.2133  0.2126 -0.3970
 4735SOL    HW225668   2.491   1.506  14.075 -0.9178 -0.8841  1.2000
 4736SOL     OW25669   2.777   3.922   6.834  0.1853  0.3129 -0.7738
 4736SOL    HW125670   2.716   3.861   6.792  0.4791 -1.3005  1.1428
 4736SOL    HW225671   2.858   3.878   6.809 -0.4644 -1.7250  0.7173
 4737SOL     OW25672   3.713   1.011   6.442  0.1440  0.3201  0.0908
 4737SOL    HW125673   3.799   0.976   6.419 -1.1179 -0.8916 -2.8045
 4737SOL    HW225674   3.724   1.097   6.400 -1.4090 -0.3419 -1.6881
 4738SOL     OW25675   3.477   0.839   0.041  0.2930  0.3720  0.0577
 4738SOL    HW125676   3.392   0.867   0.006 -1.3019 -2.0998  2.0128
 4738SOL    HW225677   3.465   0.865   0.132  0.8632  2.0727 -0.3549
 4739SOL     OW25678   0.853   0.287   1.895  0.1866  0.3227 -0.0786
 4739SOL    HW125679   0.936   0.331   1.915  0.6461 -0.8002  0.4334
 4739SOL    HW225680   0.789   0.335   1.947  1.4394  1.5482  0.3506
 4740SOL     OW25681   4.476   4.490  12.970 -0.4605 -0.1655  0.2621
 4740SOL    HW125682   4.476   4.585  12.956 -1.0614 -0.2006  0.0450
 4740SOL    HW225683   4.568   4.477  12.945  0.0469  0.6776  1.6811
 4741SOL     OW25684   2.320   3.671  12.328  0.2169 -0.0494 -0.4263
 4741SOL    HW125685   2.350   3.586  12.297 -3.3244 -1.0735 -1.0607
 4741SOL    HW225686   2.400   3.708  12.366 -0.4431  0.8540  0.0981
 4742SOL     OW25687   2.019   1.571   6.699 -0.3946 -0.3678  0.4013
 4742SOL    HW125688   2.108   1.566   6.735 -0.0924 -0.0557 -0.3077
 4742SOL    HW225689   2.017   1.666   6.694 -0.1816 -0.4425 -0.9196
 4743SOL     OW25690   4.482   3.677   8.445  0.0718 -0.3396  0.0248
 4743SOL    HW125691   4.555   3.728   8.481 -1.3098  0.6718  1.4044
 4743SOL    HW225692   4.484   3.602   8.505 -1.5493  0.6284  1.2661
 4744SOL     OW25693   3.552   1.042   2.155 -0.0888  0.0438 -0.3264
 4744SOL    HW125694   3.495   0.995   2.216 -1.4248  0.5030 -1.2349
 4744SOL    HW225695   3.629   1.037   2.212 -1.2958  1.1803  1.4079
 4745SOL     OW25696   1.787   3.851   4.643 -0.2511 -0.1703  0.4614
 4745SOL    HW125697   1.719   3.802   4.596 -0.0408  2.6093 -2.6992
 4745SOL    HW225698   1.735   3.881   4.718 -0.4459  2.9509 -0.9256
 4746SOL     OW25699   1.992   3.575   8.640  0.0760 -0.0553  0.1165
 4746SOL    HW125700   1.955   3.588   8.553  0.3214  2.2745  0.3684
 4746SOL    HW225701   2.055   3.647   8.644 -0.8603  0.8802 -1.8013
 4747SOL     OW25702   1.309   4.172  14.461  0.3492  0.6773 -0.6482
 4747SOL    HW125703   1.252   4.101  14.490 -1.2745  2.5588  0.8800
 4747SOL    HW225704   1.246   4.225  14.412 -0.3488  0.9192  0.4976
 4748SOL     OW25705   0.949   1.223   8.257 -0.6227 -0.2848 -0.4428
 4748SOL    HW125706   0.863   1.183   8.260 -0.8783  0.3494  0.9902
 4748SOL    HW225707   0.964   1.209   8.351  1.7938  2.1582 -0.4612
 4749SOL     OW25708   3.128   0.860  16.845  0.2794 -0.2142  0.2619
 4749SOL    HW125709   3.051   0.809  16.818  0.1588 -0.5856  1.3076
 4749SOL    HW225710   3.184   0.824  16.776  0.1690  0.6219 -0.2520
 4750SOL     OW25711   3.561   4.220  12.568  0.2716  0.9141  0.2592
 4750SOL    HW125712   3.514   4.299  12.590 -1.2552  0.0570  0.0439
 4750SOL    HW225713   3.584   4.243  12.478 -1.5625  2.1219  0.1110
 4751SOL     OW25714   1.411   2.181  11.665 -0.2535 -0.4483  0.3498
 4751SOL    HW125715   1.500   2.203  11.690 -0.2333 -0.8508  0.6304
 4751SOL    HW225716   1.400   2.100  11.715 -0.5025  0.2538  1.4437
 4752SOL     OW25717   2.659   0.961   2.857  0.1884 -0.2361  0.3365
 4752SOL    HW125718   2.750   0.973   2.884  0.2650 -1.9834  0.8300
 4752SOL    HW225719   2.627   0.895   2.918  1.6813 -0.2633  1.0960
 4753SOL     OW25720   2.748   1.424   5.378 -0.1115 -0.0850  0.2375
 4753SOL    HW125721   2.709   1.350   5.332  1.1350 -0.4063 -0.3222
 4753SOL    HW225722   2.689   1.486   5.335  0.0953 -0.3441 -0.4339
 4754SOL     OW25723   4.416   0.072   8.797  0.1183 -0.4445  0.4078
 4754SOL    HW125724   4.395   0.125   8.874 -1.4072  0.5760 -0.7191
 4754SOL    HW225725   4.356   4.725   8.815 -1.0102  0.1187 -1.0986
 4755SOL     OW25726   1.682   3.357   8.659 -0.1912  0.0572  0.2459
 4755SOL    HW125727   1.616   3.301   8.618 -0.9157  0.3555  1.0188
 4755SOL    HW225728   1.761   3.325   8.615 -0.2843 -1.3119  1.0677
 4756SOL     OW25729   4.012   1.876   3.094  0.4070  0.0397  0.1189
 4756SOL    HW125730   3.965   1.865   3.177  1.6665 -2.9591  0.4379
 4756SOL    HW225731   4.064   1.796   3.105 -1.0735 -0.7924  1.1548
 4757SOL     OW25732   0.553   0.595   3.857  0.1485  0.1361  0.2810
 4757SOL    HW125733   0.506   0.515   3.877 -2.6243  0.8739 -3.3049
 4757SOL    HW225734   0.526   0.606   3.766  0.8712  0.1576  0.0700
 4758SOL     OW25735   0.514   0.448   4.563 -0.6151  0.1419 -0.3417
 4758SOL    HW125736   0.453   0.445   4.489 -1.0356  0.7776 -0.0178
 4758SOL    HW225737   0.595   0.433   4.515  0.8794  0.9412  1.9352
 4759SOL     OW25738   3.080   2.597   2.599 -0.0011  0.2124 -0.5036
 4759SOL    HW125739   3.039   2.528   2.547  0.2197 -0.2086 -0.1103
 4759SOL    HW225740   3.068   2.548   2.680  1.7918 -1.1384 -1.0752
 4760SOL     OW25741   3.180   1.615  10.448 -0.0958 -0.4161 -0.4906
 4760SOL    HW125742   3.259   1.573  10.414  1.0977  0.8847  0.6685
 4760SOL    HW225743   3.120   1.594  10.377  0.6907  0.9134 -1.5544
 4761SOL     OW25744   3.078   2.905   3.893 -0.4840 -0.3061  0.6720
 4761SOL    HW125745   3.002   2.959   3.870 -0.3954 -1.3400 -1.9904
 4761SOL    HW225746   3.097   2.859   3.811  2.3813  0.6832  0.7691
 4762SOL     OW25747   1.399   1.117   7.929  0.0688 -0.0620  0.0735
 4762SOL    HW125748   1.359   1.198   7.897 -1.1459 -0.4755  0.5685
 4762SOL    HW225749   1.364   1.102   8.017 -1.8808  4.8477  0.1227
 4763SOL     OW25750   4.187   2.643   4.718 -0.1243  0.2072 -0.1705
 4763SOL    HW125751   4.240   2.669   4.643  1.6253 -1.1396  0.6254
 4763SOL    HW225752   4.164   2.554   4.691 -0.5127  0.0303  0.7467
 4764SOL     OW25753   4.484   3.502   2.918 -1.0809  0.2282  0.2715
 4764SOL    HW125754   4.561   3.486   2.864  0.7478  0.2492  2.8688
 4764SOL    HW225755   4.410   3.490   2.858  0.6990 -2.8021 -1.2807
 4765SOL     OW25756   2.697   1.119   7.615  0.4436  0.2360  0.5158
 4765SOL    HW125757   2.687   1.199   7.563  0.0958  1.3890  2.3314
 4765SOL    HW225758   2.708   1.158   7.701  0.9568 -1.0579  1.0313
 4766SOL     OW25759   0.222   3.397   5.490 -0.5963  0.5207  0.6950
 4766SOL    HW125760   0.189   3.314   5.526 -0.3217 -0.3296 -1.0364
 4766SOL    HW225761   0.312   3.389   5.521  0.1649 -0.2037 -1.6886
 4767SOL     OW25762   0.116   0.553   3.938 -0.3093  0.0464  0.0619
 4767SOL    HW125763   0.087   0.535   4.027  0.8979 -0.5357  0.3491
 4767SOL    HW225764   0.033   0.524   3.900  0.2172  1.0245 -1.8243
 4768SOL     OW25765   0.714   1.485   7.480 -0.1630 -0.0294  0.6239
 4768SOL    HW125766   0.709   1.390   7.494 -0.4377 -0.0358  0.4917
 4768SOL    HW225767   0.657   1.486   7.402 -1.0272 -1.6773  1.2159
 4769SOL     OW25768   4.552   0.918   4.189 -0.3418 -0.4791  0.3827
 4769SOL    HW125769   4.537   0.869   4.108 -1.2408 -1.5881  1.2199
 4769SOL    HW225770   4.626   0.969   4.156 -2.2995  1.5228 -0.8983
 4770SOL     OW25771   1.346   0.215  14.316  0.4011  0.2496  0.4091
 4770SOL    HW125772   1.373   0.229  14.407  0.3908 -0.1308  0.4717
 4770SOL    HW225773   1.297   0.298  14.311 -1.9574 -1.1176  0.8176
 4771SOL     OW25774   2.189   2.808   8.278  0.0388 -0.0182 -0.2370
 4771SOL    HW125775   2.194   2.712   8.269 -0.4189  0.1735 -2.4814
 4771SOL    HW225776   2.097   2.828   8.260 -0.2540 -1.6876 -0.5753
 4772SOL     OW25777   3.786   3.422   6.326  0.5799  0.0183  0.0849
 4772SOL    HW125778   3.855   3.409   6.391  0.6127  1.0275  0.2578
 4772SOL    HW225779   3.720   3.356   6.343 -0.5683  0.8220 -1.2153
 4773SOL     OW25780   4.205   2.856   3.740 -0.0212  0.1393  0.1708
 4773SOL    HW125781   4.146   2.781   3.735 -0.3713  0.3341  1.4494
 4773SOL    HW225782   4.224   2.866   3.646 -2.0102  0.0677 -0.2455
 4774SOL     OW25783   1.975   4.285  17.374 -0.4558 -0.1871  0.4249
 4774SOL    HW125784   1.905   4.265  17.312  0.4043  3.1273 -1.6235
 4774SOL    HW225785   1.995   4.375  17.348  4.2830 -1.4234 -0.1914
 4775SOL     OW25786   1.058   2.139   8.636  0.0827  0.3647  0.0329
 4775SOL    HW125787   0.964   2.126   8.630 -0.2920  2.7941  0.6452
 4775SOL    HW225788   1.091   2.049   8.627 -0.9415 -0.1590  1.4077
 4776SOL     OW25789   3.635   1.826   6.946  0.3140 -0.4080  0.1380
 4776SOL    HW125790   3.623   1.731   6.953 -0.6389 -0.2287  0.9185
 4776SOL    HW225791   3.612   1.833   6.853 -3.7150  0.9967  1.2321
 4777SOL     OW25792   2.698   0.395   6.395  0.2236 -0.4585  0.6562
 4777SOL    HW125793   2.722   0.303   6.392 -0.4695 -0.5944 -0.4831
 4777SOL    HW225794   2.779   0.433   6.360 -0.1865  1.0192  1.3067
 4778SOL     OW25795   1.012   0.499   0.642  0.2122 -0.0085  0.5573
 4778SOL    HW125796   1.085   0.473   0.699 -1.0435  0.3237  2.3104
 4778SOL    HW225797   0.942   0.518   0.705 -0.1199 -2.8826  1.0870
 4779SOL     OW25798   0.096   2.174   7.596  0.2425  0.4929 -0.0722
 4779SOL    HW125799   0.108   2.266   7.575  0.5521 -0.1820 -2.7722
 4779SOL    HW225800   0.177   2.155   7.643  0.8410 -0.6877 -1.5891
 4780SOL     OW25801   2.681   1.152  11.818  0.4921 -0.1509  0.3950
 4780SOL    HW125802   2.612   1.088  11.800  1.2720 -0.7098 -0.5958
 4780SOL    HW225803   2.640   1.183  11.899 -1.7769 -4.4004  0.9116
 4781SOL     OW25804   3.179   4.703   3.840 -0.0172  0.2716  0.1744
 4781SOL    HW125805   3.133   0.044   3.789 -0.0182  0.0837 -0.0662
 4781SOL    HW225806   3.236   4.673   3.769  0.5564  0.5329  0.5172
 4782SOL     OW25807   2.600   1.656   6.100 -0.1252 -0.1827 -0.1780
 4782SOL    HW125808   2.619   1.738   6.146  0.3356 -0.4047  0.0227
 4782SOL    HW225809   2.630   1.590   6.162 -3.2239  1.0438  2.6110
 4783SOL     OW25810   1.777   2.871   6.900  0.6007 -0.1712 -0.4163
 4783SOL    HW125811   1.784   2.811   6.825 -1.1154  0.4900 -1.1015
 4783SOL    HW225812   1.727   2.821   6.965  0.1477 -0.4614 -0.9802
 4784SOL     OW25813   1.150   4.664   8.075 -0.1798 -0.4706  0.1072
 4784SOL    HW125814   1.130   0.009   8.014  1.0802 -0.5870 -0.4220
 4784SOL    HW225815   1.244   4.653   8.067  0.0122 -0.7151  2.6466
 4785SOL     OW25816   3.987   3.713  15.227  0.0639 -0.6168 -0.1910
 4785SOL    HW125817   4.026   3.719  15.140 -2.0107 -0.0469 -1.0915
 4785SOL    HW225818   4.042   3.772  15.280  0.3480 -1.6400  0.6609
 4786SOL     OW25819   2.737   1.492  12.516  0.2800  0.2037  0.1563
 4786SOL    HW125820   2.759   1.467  12.606  0.6752  1.4221  0.3942
 4786SOL    HW225821   2.662   1.547  12.537  0.1194 -0.2620  0.7998
 4787SOL     OW25822   1.057   3.211   2.358  0.0752 -0.6145  0.2375
 4787SOL    HW125823   1.084   3.299   2.334 -1.1762  0.0337  1.2176
 4787SOL    HW225824   1.117   3.151   2.313 -0.7496  1.2165 -3.2639
 4788SOL     OW25825   3.009   2.704   4.350 -0.7821 -0.6545 -0.1968
 4788SOL    HW125826   3.010   2.780   4.408  1.8835 -1.1327  0.3940
 4788SOL    HW225827   3.104   2.699   4.337 -0.9798  1.2260 -2.2868
 4789SOL     OW25828   1.604   3.114  11.677  0.2867 -0.3090  0.1901
 4789SOL    HW125829   1.620   3.030  11.634 -1.0484  0.8634 -2.6072
 4789SOL    HW225830   1.512   3.106  11.700  0.2129  0.0376  0.0209
 4790SOL     OW25831   1.791   1.871   4.495  0.5026 -0.3648  0.3829
 4790SOL    HW125832   1.883   1.880   4.519  0.0701  1.8497  1.2184
 4790SOL    HW225833   1.776   1.785   4.454  0.9585  0.3296 -1.2261
 4791SOL     OW25834   1.989   3.924   3.799 -0.2354  0.9488 -0.2968
 4791SOL    HW125835   1.936   3.968   3.732  1.3672  0.3268 -1.9694
 4791SOL    HW225836   2.005   3.841   3.754 -0.7163 -0.0468  1.3628
 4792SOL     OW25837   3.815   3.414   2.073 -0.3383  0.0140 -0.3671
 4792SOL    HW125838   3.811   3.324   2.039 -0.3550 -0.3788  0.6849
 4792SOL    HW225839   3.834   3.468   1.996  1.1964  0.5596  0.3942
 4793SOL     OW25840   4.581   1.261   6.192 -0.3916 -0.4018 -0.5085
 4793SOL    HW125841   4.647   1.267   6.123  0.3996  1.1659  0.4037
 4793SOL    HW225842   4.537   1.181   6.163 -0.0717 -0.5854 -0.4874
 4794SOL     OW25843   3.038   3.938  13.259 -0.4657  0.2914 -0.2477
 4794SOL    HW125844   3.088   3.997  13.202  3.3165 -0.3076  2.4536
 4794SOL    HW225845   3.093   3.935  13.338 -0.0135 -1.4016 -0.6377
 4795SOL     OW25846   0.960   1.511   1.877 -0.2002  0.7528 -0.3433
 4795SOL    HW125847   0.934   1.529   1.787 -0.9633 -0.8593 -0.4472
 4795SOL    HW225848   1.053   1.534   1.876  0.6255 -2.5994 -0.9786
 4796SOL     OW25849   4.536   0.810   0.151  0.4849 -0.1630  0.4439
 4796SOL    HW125850   4.551   0.762   0.232  0.1723 -0.6140  0.2337
 4796SOL    HW225851   4.620   0.856   0.143  0.4773 -0.3510 -0.7641
 4797SOL     OW25852   0.669   1.548   5.389  0.2240  0.0815  0.8073
 4797SOL    HW125853   0.580   1.517   5.407 -0.0146  0.9921  1.2051
 4797SOL    HW225854   0.720   1.487   5.444  1.2955 -0.0878 -0.3734
 4798SOL     OW25855   1.706   0.646   8.153  0.1413 -0.3695  1.1189
 4798SOL    HW125856   1.768   0.579   8.181  1.6505 -0.3444 -2.0796
 4798SOL    HW225857   1.727   0.717   8.213 -1.3058  2.1111 -1.3131
 4799SOL     OW25858   2.965   4.061   8.932 -0.3112  0.6202  0.1797
 4799SOL    HW125859   3.041   4.101   8.891  0.7732 -3.2353 -1.5777
 4799SOL    HW225860   2.901   4.085   8.866 -1.8300  0.9946  1.7813
 4800SOL     OW25861   1.545   0.548  16.015 -0.0618 -0.1178  0.0315
 4800SOL    HW125862   1.510   0.477  15.962  0.4240 -1.9705  2.1822
 4800SOL    HW225863   1.611   0.502  16.067 -1.7272 -0.0540  2.2159
 4801SOL     OW25864   2.903   2.301   4.512 -0.0561  0.3638  0.4921
 4801SOL    HW125865   2.859   2.286   4.428 -0.5394 -1.2603  1.0322
 4801SOL    HW225866   2.985   2.261   4.484 -0.1285 -0.2080  1.0942
 4802SOL     OW25867   0.133   4.565  15.640  0.1331 -0.0265 -0.0070
 4802SOL    HW125868   0.195   4.555  15.568 -0.9867  1.6278 -1.1952
 4802SOL    HW225869   0.149   4.657  15.662  0.4936  1.0458 -4.8478
 4803SOL     OW25870   2.320   3.899   5.031  0.0262  0.2104 -0.3367
 4803SOL    HW125871   2.349   3.811   5.008 -1.2791 -0.0827 -0.8715
 4803SOL    HW225872   2.270   3.869   5.107 -0.7803  1.7524 -0.2586
 4804SOL     OW25873   2.659   3.210   4.150 -0.3486 -0.0221  0.3257
 4804SOL    HW125874   2.699   3.297   4.147 -3.4768  1.3467 -0.8326
 4804SOL    HW225875   2.587   3.230   4.210 -0.7523 -4.0997  1.2508
 4805SOL     OW25876   2.021   4.238   4.263 -0.3718 -0.0011 -0.4218
 4805SOL    HW125877   1.985   4.178   4.198  2.6372  0.9343 -2.9559
 4805SOL    HW225878   2.086   4.185   4.311  1.1571  1.1062 -1.2709
 4806SOL     OW25879   3.737   4.675  13.673 -0.2601  0.5317 -0.4847
 4806SOL    HW125880   3.736   0.046  13.671 -1.1739  0.5443  0.7156
 4806SOL    HW225881   3.725   4.651  13.581  1.6981 -2.1331 -0.0371
 4807SOL     OW25882   0.464   0.432   6.470 -0.2118  0.2916 -0.3598
 4807SOL    HW125883   0.493   0.359   6.526 -0.8922  0.1172 -0.2371
 4807SOL    HW225884   0.369   0.430   6.473 -0.2213  0.8107 -0.3331
 4808SOL     OW25885   2.523   3.178   2.961  0.3124 -0.1935 -0.2917
 4808SOL    HW125886   2.577   3.165   2.882 -1.0769 -2.6040 -0.8289
 4808SOL    HW225887   2.441   3.196   2.914  0.3359  2.8298  0.8307
 4809SOL     OW25888   2.141   2.510   1.956  0.0126  0.0070 -0.1893
 4809SOL    HW125889   2.163   2.461   1.877  1.5948 -0.3233  0.4665
 4809SOL    HW225890   2.125   2.438   2.016 -0.1958  0.3987  0.2318
 4810SOL     OW25891   0.709   0.968   4.959 -0.0418 -0.1930 -0.6799
 4810SOL    HW125892   0.707   0.950   4.865 -1.5785  1.8060 -1.0220
 4810SOL    HW225893   0.645   0.903   4.987  0.9468 -0.1815  1.6831
 4811SOL     OW25894   4.545   0.825   1.104 -0.1442 -0.2026 -0.0687
 4811SOL    HW125895   4.563   0.817   1.198  1.1202 -1.5826 -0.4336
 4811SOL    HW225896   4.613   0.767   1.071 -0.4505  0.0711 -1.1607
 4812SOL     OW25897   4.600   3.917   1.746  0.0920  0.0590 -0.1990
 4812SOL    HW125898   4.677   3.867   1.721  0.9268  0.6168  1.2147
 4812SOL    HW225899   4.581   3.883   1.834  0.5947  1.7425  0.5570
 4813SOL     OW25900   2.547   4.137  11.282  0.3847  0.0246 -0.8597
 4813SOL    HW125901   2.487   4.147  11.208  0.2332  1.4299 -0.5530
 4813SOL    HW225902   2.628   4.118  11.235  0.6255  0.0268 -0.4432
 4814SOL     OW25903   2.387   0.656  16.238 -0.1615 -0.2706  0.7333
 4814SOL    HW125904   2.388   0.735  16.292 -2.1973  1.5909 -1.9906
 4814SOL    HW225905   2.300   0.624  16.261 -0.3072  0.3047  0.9775
 4815SOL     OW25906   4.125   0.039   0.607 -0.0829 -0.0113  0.2245
 4815SOL    HW125907   4.037   0.012   0.581 -0.1230 -1.1267  1.5044
 4815SOL    HW225908   4.141   0.023   0.700  2.5469 -1.3071 -0.4779
 4816SOL     OW25909   3.154   4.287   1.583  0.3134 -0.2062 -0.1292
 4816SOL    HW125910   3.133   4.261   1.494  1.8744 -1.1321 -0.2307
 4816SOL    HW225911   3.070   4.313   1.621 -0.0920  0.6086 -1.5985
 4817SOL     OW25912   0.011   4.462   5.717  0.3572 -0.8358 -0.2215
 4817SOL    HW125913   4.696   4.527   5.660 -1.6690 -2.2377 -0.4120
 4817SOL    HW225914   4.717   4.379   5.674  1.0100 -1.3626  0.4937
 4818SOL     OW25915   1.881   2.789  10.112  0.1672  0.2986  0.5213
 4818SOL    HW125916   1.817   2.737  10.064  0.1155  0.8777 -0.0542
 4818SOL    HW225917   1.862   2.870  10.063 -1.4022 -0.5801 -0.3103
 4819SOL     OW25918   2.559   3.909   9.056 -0.6529  0.3848  0.2143
 4819SOL    HW125919   2.474   3.866   9.056 -1.6272  2.3126  1.0195
 4819SOL    HW225920   2.522   3.995   9.042 -0.8803 -0.0099 -1.5890
 4820SOL     OW25921   2.972   0.772  14.313  0.2422 -0.1707 -0.8188
 4820SOL    HW125922   3.029   0.704  14.349  0.3491 -0.5584 -1.7103
 4820SOL    HW225923   2.883   0.739  14.326 -0.0187  1.2550  0.9858
 4821SOL     OW25924   2.775   3.861   2.759  0.3517  0.0859 -0.1656
 4821SOL    HW125925   2.746   3.776   2.727 -0.5360  0.8647 -1.4099
 4821SOL    HW225926   2.729   3.922   2.701  0.1746  1.4896  1.4405
 4822SOL     OW25927   3.704   0.361   6.229  0.2039 -0.1253 -0.1955
 4822SOL    HW125928   3.777   0.420   6.247  0.3442 -0.4735  0.3944
 4822SOL    HW225929   3.747   0.276   6.227  2.0511  0.7945  0.0495
 4823SOL     OW25930   3.292   1.864   2.429  0.0524 -0.5599 -0.8022
 4823SOL    HW125931   3.270   1.956   2.413  1.7825 -0.0570 -0.2471
 4823SOL    HW225932   3.216   1.819   2.391 -0.2897 -0.0747 -0.6904
 4824SOL     OW25933   1.669   1.555   3.218  0.3480 -0.4781  0.0274
 4824SOL    HW125934   1.733   1.484   3.212 -0.5073 -1.0841 -1.7751
 4824SOL    HW225935   1.628   1.520   3.139  2.1818  1.4435 -1.7515
 4825SOL     OW25936   2.783   2.752   2.906 -0.2949  0.4694 -0.1121
 4825SOL    HW125937   2.786   2.712   2.819 -1.6378 -0.0637  0.0823
 4825SOL    HW225938   2.802   2.843   2.884  2.1365  0.5164  2.2023
 4826SOL     OW25939   4.042   0.193   8.832  0.3228  0.0124  0.4541
 4826SOL    HW125940   3.948   0.214   8.832  0.2007 -0.5352 -0.8290
 4826SOL    HW225941   4.078   0.244   8.905  0.4256 -0.2107  0.5583
 4827SOL     OW25942   1.335   1.056  13.714  0.6163 -0.2947 -0.3176
 4827SOL    HW125943   1.292   0.976  13.743 -0.9424  0.7831  0.3755
 4827SOL    HW225944   1.263   1.118  13.702  0.4667 -0.0803  1.7112
 4828SOL     OW25945   1.613   1.330   5.231  0.5585  0.0428 -0.5322
 4828SOL    HW125946   1.547   1.329   5.162  0.7004  0.3823 -0.6689
 4828SOL    HW225947   1.684   1.276   5.196  0.6466  0.7784 -1.4878
 4829SOL     OW25948   1.106   2.094  16.475  0.2478 -0.0122  0.1967
 4829SOL    HW125949   1.165   2.158  16.513  0.7462  0.0041 -0.5952
 4829SOL    HW225950   1.072   2.138  16.396  0.3050  1.2491  0.8724
 4830SOL     OW25951   0.936   1.692   4.104  0.0204 -1.0485  0.9172
 4830SOL    HW125952   0.983   1.728   4.029 -2.3936  0.5372  0.1727
 4830SOL    HW225953   0.975   1.605   4.110 -2.8691 -2.5650 -2.2078
 4831SOL     OW25954   1.560   0.417  13.219  0.2963 -0.0951  1.0858
 4831SOL    HW125955   1.481   0.396  13.169 -0.7409  0.3790  2.5472
 4831SOL    HW225956   1.598   0.329  13.210  0.7950  0.4805 -2.2677
 4832SOL     OW25957   3.819   4.261   2.231 -0.3348  0.9964 -0.1632
 4832SOL    HW125958   3.823   4.197   2.303 -1.5673 -0.4290 -1.3598
 4832SOL    HW225959   3.876   4.213   2.171 -0.7707  0.3816 -0.0816
 4833SOL     OW25960   4.349   0.964   0.946 -0.2172 -0.1095  0.1831
 4833SOL    HW125961   4.404   0.895   0.983 -0.1730  0.2987  0.8668
 4833SOL    HW225962   4.379   1.042   0.993 -0.2851  0.4352 -0.6845
 4834SOL     OW25963   2.040   0.662   4.941 -0.2890  0.0088  0.0242
 4834SOL    HW125964   2.051   0.572   4.972  2.9991  1.2532  2.5601
 4834SOL    HW225965   1.950   0.684   4.965 -0.1858 -0.7738  1.1534
 4835SOL     OW25966   3.863   3.758   3.711  0.6274  0.5136 -0.0087
 4835SOL    HW125967   3.929   3.704   3.754 -0.1907  0.1988  0.8638
 4835SOL    HW225968   3.904   3.756   3.625 -1.7337 -2.4068 -1.0684
 4836SOL     OW25969   0.321   1.006   4.215 -0.3084  0.2850 -0.0527
 4836SOL    HW125970   0.387   1.069   4.186 -0.3813  0.2215 -0.3522
 4836SOL    HW225971   0.379   0.941   4.256  0.7607  1.3992  0.2018
 4837SOL     OW25972   2.579   0.754  15.449 -0.1853 -0.5323 -0.6606
 4837SOL    HW125973   2.655   0.720  15.495  1.1893  2.9178 -0.4125
 4837SOL    HW225974   2.510   0.741  15.515  1.3688  1.9430  1.4250
 4838SOL     OW25975   0.997   0.274   9.107  0.1087  0.0523  0.5472
 4838SOL    HW125976   0.940   0.345   9.076  0.2154 -0.2048 -0.2355
 4838SOL    HW225977   1.058   0.330   9.156  1.9641  0.4768 -2.2212
 4839SOL     OW25978   2.669   1.632   3.333  0.2491  0.0986 -0.1317
 4839SOL    HW125979   2.764   1.640   3.342  0.0477  2.3272  0.0747
 4839SOL    HW225980   2.661   1.541   3.305 -0.3341  0.0163  0.3109
 4840SOL     OW25981   1.047   2.702   8.255 -0.2663  0.7519 -0.7981
 4840SOL    HW125982   0.994   2.718   8.176  0.3868  0.0157 -1.3799
 4840SOL    HW225983   0.975   2.680   8.314 -0.1726  1.4782 -0.4115
 4841SOL     OW25984   2.446   4.127  16.112  0.0307 -0.0794 -0.0147
 4841SOL    HW125985   2.390   4.200  16.086 -1.2457 -0.7894  0.7764
 4841SOL    HW225986   2.521   4.175  16.147 -0.1084 -1.5729  2.2862
 4842SOL     OW25987   4.187   2.381   4.252  0.0621 -0.3482  0.0983
 4842SOL    HW125988   4.107   2.387   4.304 -0.5913 -1.7156 -0.7677
 4842SOL    HW225989   4.254   2.400   4.319  2.1095 -2.4296 -1.3647
 4843SOL     OW25990   1.247   1.617   4.437 -0.1414 -0.2505  0.0212
 4843SOL    HW125991   1.229   1.699   4.392  1.8347  1.2167  1.9508
 4843SOL    HW225992   1.282   1.646   4.521  0.9371 -0.4465 -0.3711
 4844SOL     OW25993   3.703   4.415  12.956  0.5224 -0.4347 -0.7187
 4844SOL    HW125994   3.764   4.376  12.894  0.2962 -1.5036 -0.2605
 4844SOL    HW225995   3.621   4.424  12.909 -0.2609  2.2259  1.1351
 4845SOL     OW25996   3.783   4.496   0.339  0.0773  0.1887  0.3041
 4845SOL    HW125997   3.727   4.556   0.291  1.3207  1.3474  0.3118
 4845SOL    HW225998   3.722   4.448   0.395  0.1575  0.3438  0.5220
 4846SOL     OW25999   0.267   1.915   8.160  0.3699  0.3510 -0.0689
 4846SOL    HW126000   0.334   1.893   8.095 -0.8575 -1.1343 -0.8237
 4846SOL    HW226001   0.212   1.976   8.111  1.2048  0.1583 -1.2296
 4847SOL     OW26002   4.414   3.519   3.816  0.3288  0.2050  0.2957
 4847SOL    HW126003   4.465   3.439   3.802  1.9455  1.3397 -0.2796
 4847SOL    HW226004   4.393   3.499   3.907 -0.1470  1.9376  0.5704
 4848SOL     OW26005   1.786   1.923   7.823  0.1124  0.4624 -0.6132
 4848SOL    HW126006   1.805   1.963   7.738  2.7828 -0.2605 -0.3475
 4848SOL    HW226007   1.779   1.831   7.798  0.6070  0.5344 -1.0176
 4849SOL     OW26008   1.445   1.316   1.931 -0.4960  0.2364 -0.2145
 4849SOL    HW126009   1.522   1.365   1.961  0.1024 -0.5901 -0.4007
 4849SOL    HW226010   1.486   1.233   1.907  0.0596  0.5085 -0.2007
 4850SOL     OW26011   2.199   2.625   3.933 -0.0450  0.4196 -0.1467
 4850SOL    HW126012   2.292   2.610   3.950  0.2838  1.9787 -0.5628
 4850SOL    HW226013   2.187   2.711   3.973  1.2673 -0.7212  2.6666
 4851SOL     OW26014   4.015   0.138   6.433  0.2339  0.3913 -0.3693
 4851SOL    HW126015   4.048   0.215   6.388 -0.7199  0.9337 -0.1442
 4851SOL    HW226016   4.084   0.076   6.407  1.2090  0.9173  0.9752
 4852SOL     OW26017   4.177   4.042   2.361 -0.6187  0.2632 -1.1253
 4852SOL    HW126018   4.226   3.988   2.299 -0.0962 -0.3422 -0.1787
 4852SOL    HW226019   4.234   4.043   2.437 -1.8161 -3.5865 -0.1943
 4853SOL     OW26020   3.083   2.774   8.360  0.0322  0.5630 -1.0638
 4853SOL    HW126021   3.008   2.722   8.390  2.2943 -2.7592 -1.2155
 4853SOL    HW226022   3.081   2.851   8.418  0.4837 -0.0003 -0.3104
 4854SOL     OW26023   1.268   2.412   4.831 -0.7574  0.0771  0.0294
 4854SOL    HW126024   1.254   2.370   4.746  0.4903  1.2303 -0.7387
 4854SOL    HW226025   1.263   2.340   4.894  0.3859  0.0951  0.1291
 4855SOL     OW26026   1.891   4.241   0.729 -0.2369  0.2188 -0.2589
 4855SOL    HW126027   1.955   4.270   0.794  0.8549  2.4172 -2.3252
 4855SOL    HW226028   1.908   4.316   0.673  0.8470  1.1979  1.3894
 4856SOL     OW26029   4.288   3.105   7.522 -0.1126  0.8659 -0.0572
 4856SOL    HW126030   4.294   3.013   7.547 -2.6726  1.8800  4.2031
 4856SOL    HW226031   4.339   3.141   7.594 -1.6185 -2.6379  2.7624
 4857SOL     OW26032   2.026   0.347  10.573 -0.0360 -0.6549 -0.4654
 4857SOL    HW126033   2.032   0.252  10.572  1.8185 -0.5348 -0.7277
 4857SOL    HW226034   1.931   0.360  10.575  0.2236  0.8513  1.7092
 4858SOL     OW26035   0.290   3.734   4.678  0.4077 -0.0748  0.1513
 4858SOL    HW126036   0.277   3.640   4.690  0.7700 -0.1130  0.2608
 4858SOL    HW226037   0.285   3.767   4.768 -2.0503  0.3048 -0.1291
 4859SOL     OW26038   1.459   2.571   6.875  0.0020 -0.2279  0.0274
 4859SOL    HW126039   1.401   2.641   6.845  0.3101 -0.0571 -0.1819
 4859SOL    HW226040   1.463   2.506   6.805  1.7400  1.4446 -1.4650
 4860SOL     OW26041   3.244   4.060  10.737 -0.1005  0.1513 -0.2750
 4860SOL    HW126042   3.286   3.975  10.752  0.0868  0.2318 -0.3481
 4860SOL    HW226043   3.159   4.051  10.782 -0.8828  1.1068 -1.5764
 4861SOL     OW26044   2.486   3.856   5.361  0.8428 -0.3731  0.3193
 4861SOL    HW126045   2.577   3.883   5.374  0.4246 -0.9408  4.2404
 4861SOL    HW226046   2.503   3.762   5.374 -0.5929 -0.3993  1.9190
 4862SOL     OW26047   2.017   4.090  15.706  0.3851  0.4472  0.4797
 4862SOL    HW126048   2.086   4.110  15.643  0.5888  0.0283  0.5700
 4862SOL    HW226049   2.052   4.104  15.793  1.4435  1.8147 -0.1728
 4863SOL     OW26050   3.765   1.090   2.647 -0.6439  0.2112 -0.1800
 4863SOL    HW126051   3.780   1.169   2.595  1.4826 -1.3909 -2.0397
 4863SOL    HW226052   3.786   1.016   2.590 -2.8712 -0.8695  0.4103
 4864SOL     OW26053   1.779   3.652  11.978  0.2061 -0.0910  0.1050
 4864SOL    HW126054   1.792   3.558  11.991 -0.8294 -0.5467 -2.2135
 4864SOL    HW226055   1.859   3.690  12.015 -0.4043 -0.8662  2.2105
 4865SOL     OW26056   3.416   1.868   6.743  0.1018 -0.2781 -0.6888
 4865SOL    HW126057   3.358   1.902   6.811 -0.4521  0.2130 -1.4019
 4865SOL    HW226058   3.356   1.850   6.670 -1.7873 -1.8159  1.2397
 4866SOL     OW26059   0.295   3.846   7.715  0.1545  0.1057  0.0881
 4866SOL    HW126060   0.243   3.871   7.791  1.0535  0.3445  0.6259
 4866SOL    HW226061   0.233   3.800   7.659 -0.9574 -0.2354  1.6077
 4867SOL     OW26062   3.199   2.653  10.613  0.0267  0.2246 -0.0455
 4867SOL    HW126063   3.190   2.732  10.666  0.8438 -1.0073  1.9528
 4867SOL    HW226064   3.108   2.627  10.599  0.1425 -1.6451  2.6348
 4868SOL     OW26065   0.878   2.973   0.471  0.1895 -0.0525 -0.3421
 4868SOL    HW126066   0.971   2.990   0.488  0.3085 -2.0991  1.1046
 4868SOL    HW226067   0.870   2.914   0.396 -1.0039 -1.0390  0.5721
 4869SOL     OW26068   2.680   4.354   3.861  0.0593 -0.8431  0.2610
 4869SOL    HW126069   2.605   4.294   3.856 -0.2380 -0.4995  0.6297
 4869SOL    HW226070   2.672   4.393   3.949  0.0538 -0.9443  0.3055
 4870SOL     OW26071   2.805   4.091  11.123 -0.0434 -0.2073  0.4269
 4870SOL    HW126072   2.888   4.100  11.076  0.0561 -0.0010  0.6388
 4870SOL    HW226073   2.767   4.013  11.083 -1.5067  0.9680 -0.4845
 4871SOL     OW26074   4.587   1.162   4.479  0.5607  0.3557 -0.4072
 4871SOL    HW126075   4.559   1.242   4.524  1.6160 -0.3363  1.4727
 4871SOL    HW226076   4.654   1.191   4.417 -0.0116 -1.9862 -2.1509
 4872SOL     OW26077   4.519   0.128   9.825  0.0449  0.2346 -0.4214
 4872SOL    HW126078   4.478   0.198   9.774 -3.7095 -2.2613 -0.7371
 4872SOL    HW226079   4.519   0.049   9.772 -0.8315 -0.0630  0.0265
 4873SOL     OW26080   4.552   3.782  17.242 -0.3626 -0.5925  0.8297
 4873SOL    HW126081   4.531   3.708  17.185  0.2506  0.1687 -0.3795
 4873SOL    HW226082   4.550   3.739  17.328 -1.3656 -3.1224 -0.4511
 4874SOL     OW26083   1.649   1.039  11.065  0.1099  0.4069  0.1566
 4874SOL    HW126084   1.570   1.093  11.067 -1.4745 -2.0222  1.9427
 4874SOL    HW226085   1.670   1.044  11.158  3.3249 -2.2660 -0.4127
 4875SOL     OW26086   0.128   2.003   1.796 -0.1668  0.2817 -0.5529
 4875SOL    HW126087   0.160   2.046   1.876 -2.6109  0.7971  0.1584
 4875SOL    HW226088   0.211   1.981   1.753 -0.5200 -1.5949 -0.2599
 4876SOL     OW26089   3.962   3.825  16.644  0.1877  0.1942 -0.3486
 4876SOL    HW126090   4.053   3.796  16.630  0.4997  1.4747 -0.9112
 4876SOL    HW226091   3.983   3.915  16.620 -0.6611  0.3250 -0.6048
 4877SOL     OW26092   3.653   0.987  12.562  0.6587 -0.3242 -0.1642
 4877SOL    HW126093   3.656   1.049  12.489 -0.9938  1.1046  1.0215
 4877SOL    HW226094   3.573   1.017  12.604  0.3679 -0.4158 -0.6475
 4878SOL     OW26095   3.054   4.700   7.895  0.7503  0.2396  0.8224
 4878SOL    HW126096   3.148   4.718   7.898  0.5592  1.1362  1.2584
 4878SOL    HW226097   3.041   4.638   7.823 -1.6818  1.5034  0.1830
 4879SOL     OW26098   3.039   1.997  17.046 -0.1906 -0.5306 -0.3674
 4879SOL    HW126099   2.992   2.008  17.129  2.8166 -0.7574  1.3806
 4879SOL    HW226100   3.095   2.075  17.056  2.5568 -2.4835 -0.6085
 4880SOL     OW26101   1.435   4.344   5.600 -0.4032 -0.2068 -0.3712
 4880SOL    HW126102   1.428   4.301   5.685  0.9622 -1.6565 -0.9730
 4880SOL    HW226103   1.515   4.395   5.614 -0.6451 -0.0700  0.4712
 4881SOL     OW26104   4.518   4.450   1.037 -0.5340 -0.0628  0.2428
 4881SOL    HW126105   4.506   4.521   0.974  1.0873 -0.7577 -0.8652
 4881SOL    HW226106   4.577   4.491   1.100  0.7956 -0.8124 -0.5099
 4882SOL     OW26107   0.863   3.796  11.581 -0.4396  0.0371  0.3303
 4882SOL    HW126108   0.959   3.799  11.574 -0.5148 -1.2053 -1.2760
 4882SOL    HW226109   0.831   3.800  11.491  1.2524 -3.6799 -0.4641
 4883SOL     OW26110   4.705   2.164  10.018 -0.2647 -0.0722 -0.0826
 4883SOL    HW126111   4.648   2.104   9.970 -1.9990 -0.0375  1.9629
 4883SOL    HW226112   0.049   2.171   9.952 -1.7902 -1.2506 -1.8129
 4884SOL     OW26113   2.399   4.425   3.383 -0.5015 -0.1152  0.0509
 4884SOL    HW126114   2.410   4.519   3.396 -1.2912 -0.0546  0.2877
 4884SOL    HW226115   2.427   4.414   3.292  0.8076  0.6499  0.3708
 4885SOL     OW26116   0.524   1.185   2.470  0.0817  0.0189  0.5108
 4885SOL    HW126117   0.476   1.214   2.393  0.2791  2.2889  1.2592
 4885SOL    HW226118   0.457   1.196   2.538  0.0917 -0.5212  0.6067
 4886SOL     OW26119   3.543   2.223   3.116 -0.2114 -0.3005 -0.3568
 4886SOL    HW126120   3.469   2.179   3.158 -0.1938  0.6512  0.6605
 4886SOL    HW226121   3.495   2.270   3.047  0.1563  2.5424  1.3253
 4887SOL     OW26122   3.933   4.254  15.625 -0.4257  0.7364  0.3083
 4887SOL    HW126123   3.841   4.280  15.640 -0.6643  0.1784 -0.2126
 4887SOL    HW226124   3.957   4.239  15.717  0.1262  1.2368  0.2442
 4888SOL     OW26125   0.113   0.191  11.453 -0.3642 -0.3691 -0.5125
 4888SOL    HW126126   0.144   0.262  11.397  2.4916 -1.0066  0.2735
 4888SOL    HW226127   0.079   0.122  11.395  1.6041 -2.0861  0.3878
 4889SOL     OW26128   0.752   3.394   5.675  0.0468 -0.1568 -0.1084
 4889SOL    HW126129   0.798   3.311   5.661  1.9382  0.3424  3.1169
 4889SOL    HW226130   0.769   3.401   5.769  2.3473  0.9117 -0.6127
 4890SOL     OW26131   1.103   3.864   8.555  0.3503  0.1763  0.3166
 4890SOL    HW126132   1.170   3.796   8.544  0.1260 -0.1936  1.1736
 4890SOL    HW226133   1.151   3.932   8.601 -0.0563 -0.0559  1.0940
 4891SOL     OW26134   1.298   2.298   8.184  0.1146  0.0469  0.3874
 4891SOL    HW126135   1.278   2.207   8.166  0.1450  0.2477 -0.6791
 4891SOL    HW226136   1.309   2.336   8.097  0.8132  0.0795  0.4895
 4892SOL     OW26137   3.917   3.183  15.168 -0.2778 -0.0795 -0.5305
 4892SOL    HW126138   3.955   3.248  15.227 -0.2210  0.7070 -1.4276
 4892SOL    HW226139   3.975   3.178  15.092 -0.2542 -0.0501 -0.5143
 4893SOL     OW26140   0.372   1.368   7.565 -0.4504 -0.3118  0.3672
 4893SOL    HW126141   0.455   1.324   7.548 -0.8122 -0.6427 -0.5049
 4893SOL    HW226142   0.309   1.340   7.499 -0.1562 -0.4494  0.1496
 4894SOL     OW26143   0.643   0.188   5.984  0.2570  0.3002 -0.6489
 4894SOL    HW126144   0.735   0.210   5.993 -0.0025  1.0374  0.1976
 4894SOL    HW226145   0.600   0.240   6.051 -1.2606  0.7814 -1.9767
 4895SOL     OW26146   0.717   0.465   6.019  0.8283  0.0371  0.5871
 4895SOL    HW126147   0.792   0.406   6.024  0.4339 -0.2813  2.5218
 4895SOL    HW226148   0.697   0.442   5.928  1.6421  0.5890  0.2640
 4896SOL     OW26149   3.706   4.210  13.800 -0.1038 -0.7704 -0.0281
 4896SOL    HW126150   3.700   4.305  13.797 -0.8801 -0.8278 -0.2034
 4896SOL    HW226151   3.702   4.189  13.894 -1.3344 -0.8471 -0.0903
 4897SOL     OW26152   4.673   1.299   5.645 -0.7383  0.4651  0.1999
 4897SOL    HW126153   4.600   1.243   5.670  0.5560 -0.6794  1.3953
 4897SOL    HW226154   4.630   1.379   5.616 -3.1021 -0.6086  0.7612
 4898SOL     OW26155   3.158   3.456   8.082  0.4023 -0.1161  0.0176
 4898SOL    HW126156   3.109   3.404   8.017 -0.5634 -0.2136  0.8172
 4898SOL    HW226157   3.239   3.408   8.099  0.1153 -0.1181  1.3967
 4899SOL     OW26158   2.515   0.972  16.667 -0.2582 -0.1173  0.0605
 4899SOL    HW126159   2.585   1.016  16.715  0.3535 -1.6202  0.5436
 4899SOL    HW226160   2.439   0.988  16.723 -0.7865 -2.1543 -0.0903
 4900SOL     OW26161   2.130   3.658   9.052  0.2619  0.1640 -0.7174
 4900SOL    HW126162   2.204   3.693   9.003  0.2576 -0.1629 -0.9630
 4900SOL    HW226163   2.165   3.593   9.113 -1.9249  1.2408  1.6758
 4901SOL     OW26164   1.812   1.086  12.795  0.3615  0.1988  0.7535
 4901SOL    HW126165   1.724   1.052  12.811  0.9527 -1.1736  1.0719
 4901SOL    HW226166   1.784   1.133  12.717  0.4189 -0.8584  0.0897
 4902SOL     OW26167   0.211   0.442   0.979  0.0023 -0.0031  0.3212
 4902SOL    HW126168   0.279   0.501   1.012  0.9701 -1.3877  0.8066
 4902SOL    HW226169   0.242   0.362   1.021 -1.1516 -0.4623  0.2917
 4903SOL     OW26170   1.054   1.559   3.807 -0.6696 -0.6146  0.2360
 4903SOL    HW126171   1.039   1.478   3.758 -2.7646 -0.7250  1.0695
 4903SOL    HW226172   1.148   1.541   3.813 -0.3354  0.5105 -1.5195
 4904SOL     OW26173   2.088   1.924   4.516  0.2659 -0.1694  0.2352
 4904SOL    HW126174   2.063   1.933   4.424 -0.5528 -0.0590  0.4705
 4904SOL    HW226175   2.082   2.013   4.553 -0.0486  0.0159 -0.2654
 4905SOL     OW26176   4.052   2.587   7.246 -0.3016 -0.3734 -0.4779
 4905SOL    HW126177   4.077   2.679   7.238 -2.3321  0.4216  2.5058
 4905SOL    HW226178   4.101   2.552   7.321  0.5369  1.8935  0.0083
 4906SOL     OW26179   2.257   0.176   7.065  0.1543 -0.1404 -0.0967
 4906SOL    HW126180   2.329   0.148   7.009  2.4084 -0.4778  3.0081
 4906SOL    HW226181   2.297   0.180   7.152 -1.8214  2.0163  0.7113
 4907SOL     OW26182   3.354   2.667   2.955 -0.5635 -0.1437 -0.4736
 4907SOL    HW126183   3.299   2.711   2.889  0.5195  0.0010 -1.2801
 4907SOL    HW226184   3.411   2.744   2.955  0.5248 -0.9552 -1.2212
 4908SOL     OW26185   1.300   1.031   3.108  0.3227 -0.2214  0.0273
 4908SOL    HW126186   1.365   1.085   3.154  0.2503 -0.4266  0.3701
 4908SOL    HW226187   1.339   1.037   3.020 -0.6274 -0.5599 -0.4111
 4909SOL     OW26188   4.712   1.460   8.832 -0.2270  0.1930  0.0263
 4909SOL    HW126189   4.655   1.537   8.841 -0.5719  0.0512 -0.9324
 4909SOL    HW226190   4.655   1.393   8.870  0.9688  0.4192  2.2020
 4910SOL     OW26191   1.436   0.800   4.859 -0.9589 -0.1786 -1.1052
 4910SOL    HW126192   1.410   0.788   4.950  1.3767 -0.5661 -0.4831
 4910SOL    HW226193   1.352   0.786   4.816 -1.6923 -0.3702  0.3944
 4911SOL     OW26194   2.313   0.671   6.205 -0.7462  0.0248 -0.1764
 4911SOL    HW126195   2.373   0.624   6.263 -0.7770  2.4586  1.8146
 4911SOL    HW226196   2.368   0.679   6.128 -1.7995 -1.8091 -1.1343
 4912SOL     OW26197   4.605   2.514   2.926 -0.2197  0.2273 -0.0663
 4912SOL    HW126198   4.617   2.428   2.967 -1.5399  0.0235 -0.1249
 4912SOL    HW226199   4.697   2.543   2.930 -0.1669 -0.0925  1.2672
 4913SOL     OW26200   4.066   3.794  16.202  0.4928  0.2757 -0.1096
 4913SOL    HW126201   4.146   3.818  16.154  0.1571  2.4592  0.4236
 4913SOL    HW226202   4.029   3.877  16.231 -0.5128 -0.9433  2.1239
 4914SOL     OW26203   3.097   2.447   7.590  0.8284 -0.2081 -0.1752
 4914SOL    HW126204   3.034   2.378   7.610 -0.6504  0.8874 -1.0534
 4914SOL    HW226205   3.158   2.412   7.526  0.8685 -1.2232  0.4195
 4915SOL     OW26206   2.687   2.342  10.334 -0.0385 -0.1288  0.1583
 4915SOL    HW126207   2.606   2.387  10.310 -0.3839 -0.6205  0.4043
 4915SOL    HW226208   2.678   2.342  10.429 -2.1627  1.7035 -0.0472
 4916SOL     OW26209   0.611   0.740   8.390 -0.0130 -0.2642  0.1482
 4916SOL    HW126210   0.630   0.666   8.448  1.0890 -0.1662 -0.0937
 4916SOL    HW226211   0.534   0.774   8.436  0.3370 -0.9937  1.2727
 4917SOL     OW26212   1.118   1.478  17.065 -0.2660 -0.2008  0.1593
 4917SOL    HW126213   1.096   1.571  17.064 -0.5542 -0.2805 -0.6353
 4917SOL    HW226214   1.213   1.473  17.074 -0.1452 -0.5845 -1.4321
 4918SOL     OW26215   1.623   0.866   7.596  0.0897  0.1998  0.3344
 4918SOL    HW126216   1.545   0.910   7.629  0.5608  2.3780 -1.4617
 4918SOL    HW226217   1.582   0.795   7.546 -1.7958  2.2338 -0.9771
 4919SOL     OW26218   1.060   2.804  10.549  0.7065 -0.3713 -0.4607
 4919SOL    HW126219   1.059   2.785  10.643  3.4948  1.3242 -0.0829
 4919SOL    HW226220   1.095   2.722  10.515  0.9349 -0.0563 -0.9894
 4920SOL     OW26221   4.404   3.559   9.912 -0.2352  0.1402  0.0469
 4920SOL    HW126222   4.410   3.594  10.001  0.3557  0.0358  0.0422
 4920SOL    HW226223   4.456   3.623   9.863  0.1154 -0.9384 -0.9756
 4921SOL     OW26224   2.528   2.561   9.304 -1.1679 -0.3396  0.3453
 4921SOL    HW126225   2.461   2.541   9.239  1.3123 -1.7534 -1.7660
 4921SOL    HW226226   2.601   2.589   9.248  0.6063 -1.1764  2.1967
 4922SOL     OW26227   2.176   4.466   0.429  0.2925  0.2528 -0.2575
 4922SOL    HW126228   2.264   4.445   0.459  0.2969 -1.8867 -1.7588
 4922SOL    HW226229   2.189   4.493   0.338 -1.1857  1.2610 -0.1694
 4923SOL     OW26230   0.994   2.595   5.206 -0.0173 -0.0953 -0.4409
 4923SOL    HW126231   1.045   2.603   5.126  1.6279 -1.0385  0.5128
 4923SOL    HW226232   1.029   2.670   5.253 -1.8925 -0.2532  1.2468
 4924SOL     OW26233   2.410   1.376   7.819  0.0888  0.2641 -0.6146
 4924SOL    HW126234   2.475   1.330   7.872 -0.8229 -1.3699 -0.8969
 4924SOL    HW226235   2.435   1.467   7.832  0.1660  0.0549  0.7810
 4925SOL     OW26236   3.256   2.184   6.310 -0.4795  0.9925  0.1876
 4925SOL    HW126237   3.210   2.251   6.259 -0.9796  1.2308  0.9451
 4925SOL    HW226238   3.242   2.112   6.249  2.9194  0.2524  0.2660
 4926SOL     OW26239   3.400   1.219   1.199  0.5816  0.0628 -0.2175
 4926SOL    HW126240   3.312   1.230   1.233  0.4818 -1.4621  0.0235
 4926SOL    HW226241   3.397   1.129   1.167  1.1012  0.1632 -0.5552
 4927SOL     OW26242   4.121   3.583   3.242  0.2317 -0.1749 -0.5127
 4927SOL    HW126243   4.086   3.606   3.156  1.6531  0.3277 -0.9572
 4927SOL    HW226244   4.189   3.532   3.198 -0.3754 -2.8684  1.6015
 4928SOL     OW26245   1.094   4.366   6.308  0.0265 -0.1344 -0.5705
 4928SOL    HW126246   1.157   4.319   6.255  0.4323  1.8361 -1.8302
 4928SOL    HW226247   1.071   4.301   6.374  1.3707 -1.2454 -1.1988
 4929SOL     OW26248   2.180   2.845   7.798 -0.4021  0.0830 -0.2806
 4929SOL    HW126249   2.172   2.940   7.803  1.1809  0.3015 -1.7877
 4929SOL    HW226250   2.090   2.824   7.825  0.2745 -1.2831  0.9062
 4930SOL     OW26251   2.888   2.161   5.706  0.1548 -0.0195  0.7794
 4930SOL    HW126252   2.892   2.087   5.767 -0.1682 -0.1275  0.6666
 4930SOL    HW226253   2.973   2.145   5.664 -0.1025  0.9658 -0.0986
 4931SOL     OW26254   4.621   1.875   1.715 -0.0902 -0.1370 -0.6547
 4931SOL    HW126255   4.698   1.903   1.763 -1.1296  0.0867  0.8956
 4931SOL    HW226256   4.629   1.779   1.713 -0.4816 -0.1758 -0.4724
 4932SOL     OW26257   3.717   2.538   4.053  0.3632  0.0654 -0.5079
 4932SOL    HW126258   3.794   2.491   4.085  1.0482 -0.7594 -3.3928
 4932SOL    HW226259   3.745   2.630   4.052 -1.5664  0.6801  2.3202
 4933SOL     OW26260   3.727   1.911   5.882 -0.0190  0.5976 -0.2005
 4933SOL    HW126261   3.768   1.931   5.798  1.0465  1.0097  0.4199
 4933SOL    HW226262   3.680   1.992   5.898  0.2613  0.9102 -0.9446
 4934SOL     OW26263   1.349   0.059  12.218  0.2210 -0.2329 -0.1757
 4934SOL    HW126264   1.404   0.130  12.183  1.4444 -0.3911  1.4303
 4934SOL    HW226265   1.394   0.057  12.302 -0.3607  0.5344  0.1568
 4935SOL     OW26266   3.497   3.358   3.171 -0.2202 -0.0110  0.2374
 4935SOL    HW126267   3.549   3.391   3.244 -3.9652  1.8282  2.1029
 4935SOL    HW226268   3.515   3.264   3.167  0.6744  0.2596 -1.9322
 4936SOL     OW26269   3.160   0.428  11.825  0.1855 -0.0886 -0.3915
 4936SOL    HW126270   3.145   0.495  11.891 -1.2448  1.1426 -1.9588
 4936SOL    HW226271   3.088   0.443  11.764 -1.5372  0.0881  1.7223
 4937SOL     OW26272   0.782   1.938   2.271 -0.2911 -0.2555  0.3028
 4937SOL    HW126273   0.771   1.906   2.360 -0.7890 -2.0193 -0.3924
 4937SOL    HW226274   0.870   1.904   2.255  0.1750  1.0594  0.1119
 4938SOL     OW26275   2.265   0.250  14.008  0.0049 -0.3314  0.0266
 4938SOL    HW126276   2.213   0.330  14.005  1.1597  0.4303  0.2685
 4938SOL    HW226277   2.329   0.271  14.076 -1.4209  2.3619  0.5271
 4939SOL     OW26278   4.601   4.680   8.282 -0.8764  0.3661  0.2876
 4939SOL    HW126279   4.641   0.018   8.222  2.0629  0.7272  2.6689
 4939SOL    HW226280   4.592   4.602   8.227  0.7333  0.2294  0.2349
 4940SOL     OW26281   3.937   1.311   7.652 -0.9203 -0.0399  0.2184
 4940SOL    HW126282   4.001   1.291   7.720 -0.3233  1.0488 -0.0089
 4940SOL    HW226283   3.999   1.320   7.580 -2.0448  0.8793 -0.6475
 4941SOL     OW26284   1.951   4.701   1.777  0.0143  0.2152  0.4160
 4941SOL    HW126285   1.862   4.719   1.746  0.1652  0.0680 -0.0988
 4941SOL    HW226286   1.973   0.052   1.830 -1.2953  1.4205 -0.7458
 4942SOL     OW26287   0.078   3.623   1.842  0.5277  0.1453 -0.2736
 4942SOL    HW126288   0.069   3.659   1.754  1.3394 -1.0527 -0.8358
 4942SOL    HW226289   0.109   3.703   1.884  0.4935  0.4598 -0.8427
 4943SOL     OW26290   3.056   2.556   6.347  0.4696  0.1523  0.0526
 4943SOL    HW126291   3.091   2.493   6.409 -0.4499  2.3031  2.7630
 4943SOL    HW226292   3.073   2.509   6.266 -2.5431 -0.4132 -0.2620
 4944SOL     OW26293   2.800   2.267   4.276  0.1328 -0.2429  0.2255
 4944SOL    HW126294   2.711   2.235   4.264 -0.4450  1.3189  0.3092
 4944SOL    HW226295   2.840   2.235   4.195  0.0624 -0.0046  0.0948
 4945SOL     OW26296   1.640   0.138   8.342 -0.1251 -0.0370  0.2273
 4945SOL    HW126297   1.620   0.073   8.409  0.2198 -1.6302 -1.1925
 4945SOL    HW226298   1.663   0.086   8.265  1.2996 -0.6399  1.0785
 4946SOL     OW26299   0.070   4.052   3.787 -0.5379 -0.0737  0.1889
 4946SOL    HW126300   0.100   4.143   3.796 -0.5714 -0.3672  3.0752
 4946SOL    HW226301   0.042   4.039   3.696 -0.3100 -2.3040  0.4512
 4947SOL     OW26302   3.202   4.006   0.090 -0.3486  0.1785 -0.2399
 4947SOL    HW126303   3.119   4.043   0.120  0.2431  0.9723  0.4168
 4947SOL    HW226304   3.172   3.945   0.022 -0.8353  0.7803 -0.5712
 4948SOL     OW26305   1.889   3.341   2.556 -0.2370  0.1707 -0.1234
 4948SOL    HW126306   1.931   3.282   2.493 -0.3262  0.2527 -0.2600
 4948SOL    HW226307   1.840   3.279   2.610 -1.5872  2.1477  0.9112
 4949SOL     OW26308   2.787   3.489  15.136 -0.3832 -0.3591 -0.0103
 4949SOL    HW126309   2.731   3.532  15.200  1.0549  0.3553  0.7511
 4949SOL    HW226310   2.862   3.548  15.138 -0.2851 -0.5006  0.3712
 4950SOL     OW26311   1.599   4.300   0.470 -0.1374  0.8338  0.8284
 4950SOL    HW126312   1.589   4.231   0.536  1.3397 -0.8523 -0.7035
 4950SOL    HW226313   1.694   4.310   0.457 -0.4518 -2.0589 -3.6667
 4951SOL     OW26314   2.216   0.025  10.770 -0.1277  0.1563  0.1260
 4951SOL    HW126315   2.198   0.080  10.846 -1.6684 -0.6647  0.3623
 4951SOL    HW226316   2.292   0.066  10.729 -0.2157 -0.3840 -0.5863
 4952SOL     OW26317   1.025   0.595  10.016  0.6688  0.4280 -0.4128
 4952SOL    HW126318   1.020   0.628   9.927 -1.8808 -1.6168 -1.0327
 4952SOL    HW226319   1.111   0.555  10.014 -0.1957 -1.5097  0.7375
 4953SOL     OW26320   2.671   2.610  16.371  0.4802 -0.3406 -0.6387
 4953SOL    HW126321   2.721   2.657  16.304 -0.7579  0.8918 -0.6991
 4953SOL    HW226322   2.580   2.603  16.342  1.2876 -3.6474 -2.3771
 4954SOL     OW26323   0.079   0.372   3.672  0.1804 -0.5735  0.6295
 4954SOL    HW126324   4.724   0.419   3.696 -1.0328 -1.1855 -2.2649
 4954SOL    HW226325   0.157   0.425   3.690 -1.0502  1.6006 -0.3795
 4955SOL     OW26326   0.297   0.635   2.392 -0.2439  0.3325  0.8426
 4955SOL    HW126327   0.353   0.559   2.376 -0.8496 -0.0613  0.5690
 4955SOL    HW226328   0.335   0.669   2.473  0.2724  1.6104  0.0505
 4956SOL     OW26329   2.566   1.804   7.179  0.0420  0.0690 -0.1236
 4956SOL    HW126330   2.655   1.824   7.151  1.5532 -3.6835  1.9512
 4956SOL    HW226331   2.586   1.730   7.236  1.9263 -0.2119 -1.1453
 4957SOL     OW26332   1.203   3.978   7.707  0.3839  0.3356 -0.3794
 4957SOL    HW126333   1.132   4.013   7.653  0.9486  0.2017 -1.2025
 4957SOL    HW226334   1.208   4.042   7.778 -1.3880  0.1290 -0.0649
 4958SOL     OW26335   4.088   0.012   3.241  0.3976  0.4602 -0.6657
 4958SOL    HW126336   4.142   4.686   3.301  0.8893  1.7285 -0.0103
 4958SOL    HW226337   4.034   0.055   3.308 -1.4162 -1.2238 -1.0396
 4959SOL     OW26338   4.384   4.542   1.949 -0.0217  0.6217  0.4167
 4959SOL    HW126339   4.429   4.580   1.874 -1.1261  1.3486  0.1309
 4959SOL    HW226340   4.459   4.546   2.008 -1.0185 -0.9825  1.8008
 4960SOL     OW26341   1.966   3.376  13.556 -0.2184 -0.2456 -0.3471
 4960SOL    HW126342   1.918   3.301  13.522 -0.7324  0.1604 -0.5228
 4960SOL    HW226343   1.954   3.426  13.475 -1.5009 -0.4451 -0.2876
 4961SOL     OW26344   1.290   0.202   3.476  0.3345 -0.1130 -0.1175
 4961SOL    HW126345   1.213   0.162   3.516 -1.4920  1.3446 -2.1803
 4961SOL    HW226346   1.356   0.141   3.508  0.5479  0.9913  1.5456
 4962SOL     OW26347   4.074   3.101  12.124  0.0571 -0.1249  0.1143
 4962SOL    HW126348   4.137   3.149  12.178 -0.1483  0.9344 -0.6024
 4962SOL    HW226349   4.137   3.035  12.096 -0.8080 -0.8707 -0.0781
 4963SOL     OW26350   1.411   0.216  10.695  0.2279 -0.0091 -0.0011
 4963SOL    HW126351   1.369   0.130  10.699 -0.5099  0.1838 -2.9428
 4963SOL    HW226352   1.426   0.230  10.788  0.4551 -0.1005 -0.0252
 4964SOL     OW26353   1.960   3.138   2.363  0.2676  0.1608 -0.0631
 4964SOL    HW126354   2.028   3.150   2.296  1.5065 -1.3957  0.8950
 4964SOL    HW226355   1.975   3.045   2.382 -2.0648 -0.5181 -1.5443
 4965SOL     OW26356   2.840   4.227  12.827  0.4892  0.2874 -0.9036
 4965SOL    HW126357   2.792   4.262  12.902  0.9877 -2.4284  0.7147
 4965SOL    HW226358   2.913   4.182  12.870 -0.2121 -1.4280 -1.5227
 4966SOL     OW26359   2.362   2.472   2.330 -0.1622 -0.4129  0.8916
 4966SOL    HW126360   2.301   2.404   2.356 -0.3138 -0.1118  1.3257
 4966SOL    HW226361   2.402   2.486   2.416 -0.6022 -2.1337  1.3654
 4967SOL     OW26362   2.446   4.378   4.488 -0.4027 -0.3041  0.1763
 4967SOL    HW126363   2.376   4.334   4.536 -2.5015  0.8088 -1.8252
 4967SOL    HW226364   2.422   4.353   4.399  3.0641  0.7980 -1.0406
 4968SOL     OW26365   4.273   3.896   0.525  0.0686  0.1596 -0.0966
 4968SOL    HW126366   4.331   3.829   0.560 -1.6088 -1.7102 -0.9014
 4968SOL    HW226367   4.308   3.973   0.570  0.0448  1.4652 -2.2804
 4969SOL     OW26368   2.829   1.756  16.273  0.0396 -0.2310  0.5507
 4969SOL    HW126369   2.816   1.663  16.253 -2.4493  0.3908 -0.6799
 4969SOL    HW226370   2.761   1.763  16.340 -0.5566  2.4163 -0.3430
 4970SOL     OW26371   1.938   3.014   6.705  0.3095  0.4952  0.9282
 4970SOL    HW126372   1.898   2.957   6.639  0.8863  0.3186  0.7313
 4970SOL    HW226373   1.911   2.974   6.787 -2.0857  0.1776 -0.0132
 4971SOL     OW26374   1.227   0.186  13.976 -0.4520  0.0604  0.1700
 4971SOL    HW126375   1.290   0.257  13.965  0.5465 -0.9258 -0.4683
 4971SOL    HW226376   1.281   0.108  13.989 -0.4001  0.2957  1.3785
 4972SOL     OW26377   0.745   2.966   7.247 -0.3343 -0.4708 -0.7050
 4972SOL    HW126378   0.693   2.976   7.167  1.4096  2.6734 -1.4893
 4972SOL    HW226379   0.835   2.995   7.228 -0.1261 -0.4797  0.2875
 4973SOL     OW26380   3.493   0.525   4.393  0.1242  0.0626  0.1902
 4973SOL    HW126381   3.423   0.577   4.353 -2.3255 -2.8651  0.6420
 4973SOL    HW226382   3.472   0.532   4.486  0.7135  1.4671  0.2234
 4974SOL     OW26383   0.584   1.393   3.129 -0.4094 -0.0837  0.0973
 4974SOL    HW126384   0.545   1.474   3.162 -0.1185  0.9603 -2.1293
 4974SOL    HW226385   0.558   1.405   3.038 -0.0313  0.9388  0.1242
 4975SOL     OW26386   1.454   0.727   7.803  0.0289  0.0335 -0.2442
 4975SOL    HW126387   1.442   0.688   7.889  0.7917  2.8361  1.1405
 4975SOL    HW226388   1.459   0.642   7.760  1.1528  0.3666 -0.7601
 4976SOL     OW26389   2.258   1.049   9.222 -0.1052 -0.2266  0.2237
 4976SOL    HW126390   2.191   1.004   9.171  0.4468 -0.7221 -0.0660
 4976SOL    HW226391   2.260   0.996   9.301  0.6028 -0.5486 -0.0030
 4977SOL     OW26392   1.568   2.013  13.069 -0.1770 -0.0737 -0.2660
 4977SOL    HW126393   1.556   2.055  13.154 -1.5528  0.7101 -0.8587
 4977SOL    HW226394   1.529   2.079  13.011  0.5553 -1.1798 -2.0045
 4978SOL     OW26395   4.393   2.138   6.037  0.9889  0.3851 -0.1818
 4978SOL    HW126396   4.361   2.195   5.967 -1.3865 -0.3906  0.2759
 4978SOL    HW226397   4.385   2.185   6.121 -1.2480 -0.3476  0.0126
 4979SOL     OW26398   1.274   1.163   6.555 -0.5096  0.0280  0.5154
 4979SOL    HW126399   1.216   1.235   6.529 -2.3981 -2.0073 -0.9081
 4979SOL    HW226400   1.331   1.209   6.617 -1.0197 -0.3050  1.2294
 4980SOL     OW26401   0.323   3.990   6.244 -0.0695 -0.6809  0.1725
 4980SOL    HW126402   0.260   3.991   6.316  0.1274  1.2417  0.3296
 4980SOL    HW226403   0.398   4.031   6.288 -1.2448  1.5824  0.0674
 4981SOL     OW26404   0.326   3.129  11.385  0.0752  0.5476 -0.1643
 4981SOL    HW126405   0.269   3.173  11.448  0.9931 -0.3414  1.2719
 4981SOL    HW226406   0.268   3.130  11.309 -0.7080 -0.4898  0.4335
 4982SOL     OW26407   1.182   2.697   0.439  0.0547  0.6241  0.5020
 4982SOL    HW126408   1.258   2.678   0.383  0.7344 -1.0729  1.9995
 4982SOL    HW226409   1.154   2.786   0.418 -2.8094 -0.4800 -0.4696
 4983SOL     OW26410   4.019   1.720   8.037 -0.5067 -0.5296  0.1284
 4983SOL    HW126411   4.057   1.797   7.993 -0.8294 -0.7243 -0.4946
 4983SOL    HW226412   3.951   1.760   8.091  0.8523 -0.2886  1.6564
 4984SOL     OW26413   4.225   4.615   5.203  0.0523  0.3061 -0.9432
 4984SOL    HW126414   4.182   4.563   5.135 -1.7625  0.2656  0.2184
 4984SOL    HW226415   4.177   4.696   5.184  0.1457  0.6237  0.1447
 4985SOL     OW26416   0.625   3.200   4.969  0.1416 -0.2544  0.2501
 4985SOL    HW126417   0.681   3.278   4.976  2.1398 -1.6149 -0.7550
 4985SOL    HW226418   0.691   3.131   4.976  1.2561  0.8663  0.8488
 4986SOL     OW26419   1.667   1.508   2.443 -0.3402 -0.7157 -0.4251
 4986SOL    HW126420   1.593   1.474   2.393 -1.9407  0.8207  0.8754
 4986SOL    HW226421   1.640   1.600   2.454 -1.0806 -1.0468  0.5819
 4987SOL     OW26422   1.879   0.653  15.892 -0.5248  0.2112 -0.3564
 4987SOL    HW126423   1.809   0.619  15.837 -2.7523  1.6399  1.6176
 4987SOL    HW226424   1.839   0.734  15.923 -0.2324  1.1355 -2.3772
 4988SOL     OW26425   1.440   3.706   7.701 -0.0205 -0.1485 -0.1875
 4988SOL    HW126426   1.488   3.672   7.776  0.7868  0.1957 -0.5405
 4988SOL    HW226427   1.418   3.625   7.655 -2.8390 -1.6926  3.8978
 4989SOL     OW26428   3.601   2.843   1.854 -0.3733 -0.7981 -0.1882
 4989SOL    HW126429   3.545   2.782   1.806  0.5242  0.9029 -3.4125
 4989SOL    HW226430   3.547   2.894   1.913 -0.4682  1.7121 -2.4694
 4990SOL     OW26431   3.582   4.588   2.946 -0.0917  0.3365  0.5914
 4990SOL    HW126432   3.659   4.599   2.890 -0.3264  0.6549  0.3281
 4990SOL    HW226433   3.631   4.573   3.027 -0.2621 -0.1823  0.5950
 4991SOL     OW26434   0.496   4.024   0.076  0.3449 -0.4229  0.3047
 4991SOL    HW126435   0.559   4.000   0.008  0.7472  1.4317  0.0304
 4991SOL    HW226436   0.436   4.088   0.039  0.2654  0.3744  1.8155
 4992SOL     OW26437   1.794   3.638   7.283 -0.1231 -0.0420  0.4486
 4992SOL    HW126438   1.773   3.728   7.260 -1.5190 -0.3776  0.4086
 4992SOL    HW226439   1.850   3.618   7.208 -2.0145  1.2015 -1.2658
 4993SOL     OW26440   1.600   0.156   0.726  0.4565 -0.2646 -0.1802
 4993SOL    HW126441   1.623   0.084   0.669 -0.2677 -1.5069  1.0960
 4993SOL    HW226442   1.677   0.155   0.783 -0.9675 -3.0960  1.6965
 4994SOL     OW26443   3.367   3.835   8.434  0.6468 -0.0559  0.1540
 4994SOL    HW126444   3.344   3.928   8.438 -2.3824 -0.7788  0.1505
 4994SOL    HW226445   3.370   3.802   8.524 -0.1264 -1.6219 -0.3823
 4995SOL     OW26446   4.087   3.654   5.429  0.1854  0.1839 -0.1541
 4995SOL    HW126447   4.141   3.678   5.504  1.3836  1.2762 -1.3784
 4995SOL    HW226448   4.029   3.586   5.466  0.0923  0.5436  0.3674
 4996SOL     OW26449   1.591   2.724   6.346  0.0948 -0.2246  0.4344
 4996SOL    HW126450   1.512   2.670   6.351 -0.3344  0.4610  0.9428
 4996SOL    HW226451   1.644   2.667   6.290  0.9945  0.3227  0.7241
 4997SOL     OW26452   4.701   1.059   8.664 -0.0156  0.1620 -0.3081
 4997SOL    HW126453   4.622   1.030   8.710  1.7218  0.2203  2.6922
 4997SOL    HW226454   0.027   1.064   8.745  0.3043  3.1518 -0.6698
 4998SOL     OW26455   3.787   3.956   5.148 -0.3207  0.2211  0.1894
 4998SOL    HW126456   3.753   4.023   5.208  0.7539 -0.5242  1.6540
 4998SOL    HW226457   3.869   3.946   5.197 -1.3890 -0.6016  1.8256
 4999SOL     OW26458   1.072   4.318   6.784 -0.1155 -0.0207 -0.3411
 4999SOL    HW126459   1.028   4.252   6.838 -2.1304  1.9301  0.3956
 4999SOL    HW226460   1.019   4.398   6.788  0.2577  0.2076 -0.0240
 5000SOL     OW26461   3.429   1.220   0.834  0.1622 -0.1603  0.9810
 5000SOL    HW126462   3.500   1.162   0.803  0.6538 -1.2375  4.1050
 5000SOL    HW226463   3.356   1.171   0.797 -0.3076  0.8707  0.5529
 5001SOL     OW26464   3.815   3.231   9.233 -0.3862  0.1707  0.0212
 5001SOL    HW126465   3.789   3.139   9.242  3.7755 -0.8238  1.8226
 5001SOL    HW226466   3.738   3.275   9.270 -1.3421 -0.2890 -1.4388
 5002SOL     OW26467   4.499   0.057   5.229  0.2533 -0.1700  0.7596
 5002SOL    HW126468   4.479   4.696   5.267 -0.0511 -1.3453 -2.0838
 5002SOL    HW226469   4.539   0.037   5.144  1.6963 -0.8569  1.5904
 5003SOL     OW26470   1.051   1.985   4.324 -0.3041  0.2234  0.3826
 5003SOL    HW126471   1.052   1.999   4.229  2.2014 -1.7203  0.1362
 5003SOL    HW226472   1.129   2.033   4.351  0.5673 -1.3784  0.7259
 5004SOL     OW26473   4.680   4.071   6.932  0.1293 -0.1761  0.0221
 5004SOL    HW126474   0.046   4.097   6.942 -0.6524  1.2997  3.3141
 5004SOL    HW226475   4.631   4.154   6.930 -0.2452 -0.4283 -1.2277
 5005SOL     OW26476   0.488   0.964   3.641 -0.2392 -0.0456  0.8281
 5005SOL    HW126477   0.554   0.982   3.574  0.4821 -0.2913  1.4803
 5005SOL    HW226478   0.497   1.041   3.696  1.8150 -1.7583  2.8792
 5006SOL     OW26479   0.588   3.728   5.223  0.1929  0.4839 -0.1288
 5006SOL    HW126480   0.552   3.763   5.142 -0.1703 -2.0792 -1.0836
 5006SOL    HW226481   0.559   3.798   5.282 -0.9386 -1.4338  1.5800
 5007SOL     OW26482   3.363   1.643   4.367  0.1733 -0.2400  0.2178
 5007SOL    HW126483   3.386   1.572   4.427 -0.6872 -0.3559  0.4077
 5007SOL    HW226484   3.445   1.692   4.360 -0.8999  1.1563 -2.4666
 5008SOL     OW26485   2.557   1.169   6.617 -0.1006 -0.0676 -0.0627
 5008SOL    HW126486   2.475   1.174   6.665 -0.1487 -1.3080 -0.0161
 5008SOL    HW226487   2.538   1.209   6.532 -0.7123  0.1314  0.1705
 5009SOL     OW26488   4.685   0.320   5.480 -0.0127  0.0531 -0.1098
 5009SOL    HW126489   4.620   0.281   5.538 -1.9247  1.0834 -1.5753
 5009SOL    HW226490   4.644   0.386   5.424  0.2496  1.2563  1.1090
 5010SOL     OW26491   3.211   3.616  17.168 -0.2827 -0.0410  0.3488
 5010SOL    HW126492   3.267   3.541  17.146  0.4418  0.7150 -0.3829
 5010SOL    HW226493   3.192   3.655  17.083  2.3676  0.0574 -0.2094
 5011SOL     OW26494   0.394   0.418   1.545  0.3327 -0.7628 -0.0303
 5011SOL    HW126495   0.401   0.514   1.539 -1.5309 -0.6492 -0.5445
 5011SOL    HW226496   0.305   0.408   1.580  0.3618  1.4461  0.6823
 5012SOL     OW26497   3.150   2.078   5.978  0.2235  0.0499 -0.0285
 5012SOL    HW126498   3.173   1.986   5.968  4.0162  1.0784 -0.6772
 5012SOL    HW226499   3.223   2.125   5.937 -0.6171 -1.2263 -2.9805
 5013SOL     OW26500   3.584   1.361  15.817 -0.2170  0.5225 -0.2140
 5013SOL    HW126501   3.614   1.452  15.814  1.3036 -0.0727 -2.6853
 5013SOL    HW226502   3.658   1.329  15.765 -1.4880 -0.5229 -1.3808
 5014SOL     OW26503   3.745   2.640  13.314 -0.8017 -0.0113 -0.0619
 5014SOL    HW126504   3.794   2.589  13.378  2.3899 -0.3224 -2.7441
 5014SOL    HW226505   3.809   2.652  13.244 -0.7634 -1.9846 -0.3589
 5015SOL     OW26506   3.892   2.036   2.269 -0.4331  0.4600  0.3084
 5015SOL    HW126507   3.811   1.985   2.270  0.6955 -1.3514 -1.2859
 5015SOL    HW226508   3.955   1.979   2.313 -0.2962  0.6300  0.3306
 5016SOL     OW26509   2.444   0.131   7.961  0.0092  0.5298  0.3346
 5016SOL    HW126510   2.453   0.224   7.940  0.8142  0.2020 -0.7382
 5016SOL    HW226511   2.445   0.148   8.056  0.7748  0.8297  0.2683
 5017SOL     OW26512   1.082   1.094   7.645 -0.2719  0.5330 -0.6120
 5017SOL    HW126513   1.177   1.089   7.636 -0.4118 -0.6954 -1.3244
 5017SOL    HW226514   1.059   1.150   7.571 -0.2680  0.0724 -0.9564
 5018SOL     OW26515   2.713   0.022   7.065  0.2172 -0.0254  0.0300
 5018SOL    HW126516   2.754   4.687   7.127 -0.4393  1.0514  1.5023
 5018SOL    HW226517   2.762   0.101   7.087  1.6734 -0.6010 -1.1681
 5019SOL     OW26518   0.205   4.642   3.589 -0.0009 -0.2534 -0.7016
 5019SOL    HW126519   0.140   4.706   3.559 -2.3117 -2.5421 -0.5327
 5019SOL    HW226520   0.173   4.614   3.675 -2.3893  1.6172 -0.9923
 5020SOL     OW26521   4.199   2.386   3.590 -0.4211  0.0352  0.0635
 5020SOL    HW126522   4.124   2.376   3.532 -0.0585  0.4137 -0.4700
 5020SOL    HW226523   4.171   2.350   3.674 -0.6428 -1.4338 -0.6562
 5021SOL     OW26524   0.777   2.249   5.058 -0.0085 -0.1063 -0.4685
 5021SOL    HW126525   0.821   2.299   5.127 -2.1007 -2.0173  2.2312
 5021SOL    HW226526   0.820   2.164   5.070 -2.0032 -0.8657  1.4156
 5022SOL     OW26527   4.384   1.828   8.894  0.3916  0.5716  0.1021
 5022SOL    HW126528   4.362   1.867   8.979 -0.5014  3.0034 -1.2372
 5022SOL    HW226529   4.299   1.790   8.871  0.5502 -0.0963  0.6238
 5023SOL     OW26530   3.438   2.563  10.748 -0.4428  0.8840 -0.0167
 5023SOL    HW126531   3.347   2.542  10.727 -0.1558 -1.5539  1.1474
 5023SOL    HW226532   3.455   2.493  10.812  0.4784  0.2254 -0.9980
 5024SOL     OW26533   2.097   1.387   7.519 -0.7022  0.1881  0.0888
 5024SOL    HW126534   2.086   1.368   7.613 -1.5449  0.9428  0.1347
 5024SOL    HW226535   2.165   1.454   7.522 -0.4775 -0.0433  0.1636
 5025SOL     OW26536   4.375   2.709   7.358  0.5428  0.7965  0.3178
 5025SOL    HW126537   4.337   2.785   7.314 -1.8066 -1.0624 -0.8732
 5025SOL    HW226538   4.379   2.756   7.441  0.0017 -2.1871  1.9921
 5026SOL     OW26539   0.079   3.719   7.574  0.2214 -0.7278  0.2940
 5026SOL    HW126540   4.722   3.678   7.600  0.3402 -0.6909  0.7310
 5026SOL    HW226541   0.129   3.638   7.579 -0.9410 -1.5715 -2.0942
 5027SOL     OW26542   0.928   2.703  10.788  0.0393  0.4208 -0.6961
 5027SOL    HW126543   0.914   2.700  10.882 -0.6767 -0.7827 -0.8443
 5027SOL    HW226544   0.874   2.778  10.763 -0.6560  0.2765  0.3810
 5028SOL     OW26545   3.186   0.458  15.811  0.5932 -0.5013 -0.0771
 5028SOL    HW126546   3.158   0.385  15.756 -0.3390 -0.9947  1.0412
 5028SOL    HW226547   3.272   0.434  15.844  1.2204  1.5464 -0.1809
 5029SOL     OW26548   2.594   2.065   0.011 -0.2606  0.2961 -0.1338
 5029SOL    HW126549   2.655   2.109  17.654 -0.8632  1.9725  0.5059
 5029SOL    HW226550   2.591   2.133   0.078 -1.0474 -0.6072  0.7442
 5030SOL     OW26551   4.255   0.588  15.246  0.1151  0.0603  0.2575
 5030SOL    HW126552   4.228   0.680  15.243 -1.0184 -0.1926  2.9376
 5030SOL    HW226553   4.178   0.535  15.226  0.0348  0.2818 -0.0271
 5031SOL     OW26554   2.972   4.007   8.293  0.3853 -0.2939  0.8785
 5031SOL    HW126555   2.917   3.971   8.224  0.5869 -1.0788  1.1219
 5031SOL    HW226556   2.977   4.093   8.252  0.0786  0.1907  1.8528
 5032SOL     OW26557   3.326   2.806  16.644 -0.2656  0.5135  0.3938
 5032SOL    HW126558   3.265   2.772  16.579  2.2870  2.0978 -2.8550
 5032SOL    HW226559   3.361   2.725  16.680 -1.4739  0.7262  2.0301
 5033SOL     OW26560   4.590   1.881   2.283 -0.6157 -0.0957  0.7213
 5033SOL    HW126561   4.635   1.965   2.273  2.5932 -1.4463  3.3128
 5033SOL    HW226562   4.497   1.902   2.294 -0.7552 -0.1640 -0.3402
 5034SOL     OW26563   2.952   1.846   7.766  0.3784  0.8202  0.2272
 5034SOL    HW126564   3.046   1.839   7.753  0.1053 -0.1057 -1.2345
 5034SOL    HW226565   2.925   1.762   7.803 -0.8359  1.7689  1.4883
 5035SOL     OW26566   0.555   1.751   8.940 -0.2942 -0.4062 -0.0914
 5035SOL    HW126567   0.519   1.746   8.852 -0.9610 -1.3279  0.2461
 5035SOL    HW226568   0.579   1.659   8.953  1.0039  0.0232  0.6006
 5036SOL     OW26569   1.978   4.574   6.238 -0.3462 -0.3311 -0.4137
 5036SOL    HW126570   2.038   4.503   6.260 -2.1731 -1.1654  1.9439
 5036SOL    HW226571   2.038   4.620   6.180 -0.8447  0.5080 -0.2696
 5037SOL     OW26572   3.498   1.877   9.242  0.6072 -0.0694  0.1167
 5037SOL    HW126573   3.508   1.923   9.159 -0.4790  1.2648  0.7261
 5037SOL    HW226574   3.576   1.905   9.290  0.3884 -0.4487  0.6954
 5038SOL     OW26575   0.904   1.766   4.378 -0.3168  0.0113  0.0798
 5038SOL    HW126576   0.965   1.838   4.361  0.0703 -0.7146 -1.5573
 5038SOL    HW226577   0.898   1.724   4.293 -0.5224 -0.1388  0.1683
 5039SOL     OW26578   2.857   1.221   3.319 -0.4611 -0.3192 -0.2806
 5039SOL    HW126579   2.871   1.273   3.239  0.7945 -0.7127 -0.3110
 5039SOL    HW226580   2.933   1.245   3.370 -0.4432  0.7736 -0.8103
 5040SOL     OW26581   1.106   3.227   5.908  0.2188 -0.0064  0.4301
 5040SOL    HW126582   1.109   3.238   5.813  1.4562 -1.1017  0.3472
 5040SOL    HW226583   1.033   3.285   5.932 -0.7948 -0.4447 -1.6024
 5041SOL     OW26584   2.517   3.985  16.850 -0.0748  0.2617 -0.0025
 5041SOL    HW126585   2.428   3.949  16.849 -0.3015  0.9286 -2.4550
 5041SOL    HW226586   2.562   3.911  16.808  2.4790  1.3736  0.8112
 5042SOL     OW26587   3.089   2.479  17.176 -0.2185  0.2080 -0.3118
 5042SOL    HW126588   3.039   2.517  17.104  0.8335  2.1560 -0.0188
 5042SOL    HW226589   3.148   2.553  17.195 -0.5291 -0.1769  2.1262
 5043SOL     OW26590   1.462   2.432  14.630  0.1087 -0.5237 -0.3729
 5043SOL    HW126591   1.477   2.473  14.544  1.3726  1.6362  0.8714
 5043SOL    HW226592   1.452   2.339  14.611  0.2117 -0.6306  0.1110
 5044SOL     OW26593   4.307   3.128   9.714  0.3722 -0.0499  0.1980
 5044SOL    HW126594   4.362   3.091   9.645 -0.3951 -0.5485 -0.1452
 5044SOL    HW226595   4.268   3.049   9.753 -1.1384 -0.2033 -1.6323
 5045SOL     OW26596   0.051   0.534   2.298  0.5174 -0.3070  0.1380
 5045SOL    HW126597   0.139   0.565   2.318 -0.3004  3.6387 -2.2605
 5045SOL    HW226598   0.026   0.575   2.214  1.6967 -3.0084 -1.5379
 5046SOL     OW26599   2.453   2.179   4.797 -0.2499 -0.3176 -0.0044
 5046SOL    HW126600   2.509   2.120   4.846  0.3103  0.9059  0.8068
 5046SOL    HW226601   2.519   2.242   4.770 -1.0006 -0.1386 -1.4698
 5047SOL     OW26602   1.274   1.358   4.519  0.1457 -0.2879  0.0757
 5047SOL    HW126603   1.349   1.314   4.478 -0.3971  0.5786 -1.8150
 5047SOL    HW226604   1.287   1.446   4.486 -1.7164 -0.0784 -0.0770
 5048SOL     OW26605   1.230   4.022   6.709  0.1749  0.2078 -0.2191
 5048SOL    HW126606   1.310   4.021   6.762 -0.1549  1.3496  0.3190
 5048SOL    HW226607   1.178   3.948   6.739  1.4887 -0.9533 -0.7889
 5049SOL     OW26608   2.237   4.584  16.138  0.4286  0.4695 -0.2969
 5049SOL    HW126609   2.256   4.678  16.135 -1.1276  0.7798 -0.7418
 5049SOL    HW226610   2.282   4.559  16.218  1.5008 -0.8370 -1.3133
 5050SOL     OW26611   4.658   0.583  14.924  0.2907 -0.0573  0.5746
 5050SOL    HW126612   4.565   0.569  14.908 -0.1478  0.4372  2.6926
 5050SOL    HW226613   4.659   0.677  14.940  1.7414 -0.2679  1.7943
 5051SOL     OW26614   3.109   3.449  12.006 -0.9162  0.7946 -0.2330
 5051SOL    HW126615   3.124   3.488  12.092  1.4850  0.6881 -0.6008
 5051SOL    HW226616   3.165   3.505  11.952 -1.2621  0.3293 -1.0776
 5052SOL     OW26617   1.246   1.794  14.734 -0.1376  0.0241 -0.4982
 5052SOL    HW126618   1.215   1.703  14.734  2.8240 -0.9831 -0.0881
 5052SOL    HW226619   1.177   1.844  14.777  2.0533  2.2585  0.3790
 5053SOL     OW26620   2.987   4.249   5.677  0.0796 -0.1355  0.2069
 5053SOL    HW126621   3.010   4.264   5.586 -0.4359  1.2098  0.2916
 5053SOL    HW226622   2.891   4.255   5.678  0.0341 -0.8278 -0.0811
 5054SOL     OW26623   2.265   3.653   1.714  0.0758  0.3243 -0.0079
 5054SOL    HW126624   2.251   3.610   1.630  0.7753  0.2852 -0.1116
 5054SOL    HW226625   2.217   3.593   1.771 -0.4268  0.5554 -0.1899
 5055SOL     OW26626   2.344   3.653   7.238  0.0807  0.2552  0.2213
 5055SOL    HW126627   2.366   3.640   7.146 -0.4435  1.0474 -0.0180
 5055SOL    HW226628   2.415   3.595   7.265  0.7211  0.6044 -0.7313
 5056SOL     OW26629   4.257   4.394   3.144  0.0630 -0.1795 -0.2984
 5056SOL    HW126630   4.169   4.430   3.132  0.2091  0.2821  0.0101
 5056SOL    HW226631   4.282   4.380   3.053 -0.8297 -0.8498 -0.4443
 5057SOL     OW26632   0.227   3.006  16.124 -0.4519 -0.7363 -0.2404
 5057SOL    HW126633   0.160   3.042  16.182  2.0999 -0.2127  2.4312
 5057SOL    HW226634   0.299   3.066  16.143  0.2242 -1.4266 -0.6165
 5058SOL     OW26635   0.679   1.179   3.244  0.5992  0.2869  0.4776
 5058SOL    HW126636   0.657   1.258   3.193 -2.6955 -1.7625 -1.2474
 5058SOL    HW226637   0.647   1.113   3.182  0.7141  0.2121  0.4981
 5059SOL     OW26638   0.542   3.629   8.322 -0.8513 -0.4165 -0.3014
 5059SOL    HW126639   0.596   3.703   8.349 -1.7454 -0.4661  1.6927
 5059SOL    HW226640   0.606   3.575   8.276  0.5021  0.0344  1.0580
 5060SOL     OW26641   0.250   4.667   2.203 -0.7245 -0.2446  0.0964
 5060SOL    HW126642   0.344   4.667   2.188 -0.7579  2.2718 -0.0594
 5060SOL    HW226643   0.212   4.638   2.120 -0.3251  0.7857 -0.4520
 5061SOL     OW26644   4.495   2.784  13.121  0.4655  0.4779  0.5158
 5061SOL    HW126645   4.560   2.714  13.118 -0.6109 -0.5438  0.6610
 5061SOL    HW226646   4.549   2.855  13.087  1.5635 -0.0033  1.2740
 5062SOL     OW26647   1.082   4.192  11.524 -0.0567  0.4515  0.3404
 5062SOL    HW126648   1.076   4.256  11.594  1.5156  1.5659 -0.5471
 5062SOL    HW226649   1.110   4.113  11.570  2.9477  1.7698  0.7859
 5063SOL     OW26650   1.606   2.302   9.574  0.4286  0.1056 -0.0603
 5063SOL    HW126651   1.575   2.367   9.637 -0.8980 -0.2463 -0.3489
 5063SOL    HW226652   1.657   2.238   9.625 -0.2360 -0.1515  0.2787
 5064SOL     OW26653   1.010   0.654   9.740  0.0695  0.1003 -1.1413
 5064SOL    HW126654   1.084   0.693   9.693  0.0080  0.2563 -1.1082
 5064SOL    HW226655   0.948   0.610   9.681 -1.5053 -3.2522  3.0423
 5065SOL     OW26656   2.397   0.115   9.087  0.4728 -0.2297 -0.6342
 5065SOL    HW126657   2.403   0.098   9.181  0.3649  2.6107 -0.1153
 5065SOL    HW226658   2.481   0.161   9.085  1.2309 -1.6125  0.0748
 5066SOL     OW26659   2.738   0.350   5.416  0.3247  0.0715  0.0459
 5066SOL    HW126660   2.826   0.318   5.395  0.1324 -2.1014  2.6846
 5066SOL    HW226661   2.700   0.366   5.329 -1.4334  0.1842  0.8361
 5067SOL     OW26662   2.233   4.103   7.149  0.4256 -0.3349 -0.1139
 5067SOL    HW126663   2.243   4.087   7.055 -0.4576  2.6060 -0.7189
 5067SOL    HW226664   2.272   4.030   7.196  0.5193 -0.2770 -0.1012
 5068SOL     OW26665   3.443   0.285   7.656 -0.6288  0.2641  0.2560
 5068SOL    HW126666   3.426   0.293   7.562  3.0086  1.4969 -0.2655
 5068SOL    HW226667   3.350   0.301   7.671 -0.0581  2.9695  0.7893
 5069SOL     OW26668   4.708   1.013   8.150  0.0508  0.6148  0.1636
 5069SOL    HW126669   0.033   1.087   8.114  2.8532 -2.0300 -1.3184
 5069SOL    HW226670   0.021   0.932   8.118  0.2975  1.0039 -0.5253
 5070SOL     OW26671   2.482   1.229  15.050 -0.4422  0.6997 -0.6757
 5070SOL    HW126672   2.499   1.301  14.989  0.1668 -1.0736 -2.6104
 5070SOL    HW226673   2.400   1.186  15.026 -0.6177  1.0006 -0.6127
 5071SOL     OW26674   2.281   4.468   0.111 -0.4288  0.6378 -0.0039
 5071SOL    HW126675   2.361   4.483   0.162  0.5414 -0.6606 -1.1508
 5071SOL    HW226676   2.227   4.546   0.125 -1.4600 -0.2952  1.2339
 5072SOL     OW26677   2.790   2.327   2.862  0.4260  0.0815 -0.4073
 5072SOL    HW126678   2.856   2.260   2.843 -1.4513 -1.0950 -2.7474
 5072SOL    HW226679   2.727   2.303   2.794  1.4449 -0.1327 -1.2732
 5073SOL     OW26680   4.511   4.040   6.099  0.0991  0.1704  0.0448
 5073SOL    HW126681   4.454   3.985   6.046  1.5548 -2.6400  1.4075
 5073SOL    HW226682   4.565   3.972   6.138  0.4669  0.5380  0.1777
 5074SOL     OW26683   3.951   0.876   8.377  0.5241  0.0760  0.2061
 5074SOL    HW126684   4.014   0.832   8.434 -0.3892 -0.3411  0.9191
 5074SOL    HW226685   4.006   0.902   8.304  2.1046  0.5026  1.5628
 5075SOL     OW26686   4.374   0.706   9.703  0.2663  0.2703  0.3611
 5075SOL    HW126687   4.370   0.802   9.712 -1.9533  0.4541 -2.4138
 5075SOL    HW226688   4.393   0.704   9.609 -1.2836  0.1142  0.0528
 5076SOL     OW26689   2.489   1.918   7.934  0.1014 -0.8878  0.7103
 5076SOL    HW126690   2.544   1.968   7.994  2.1904  0.0735 -1.9907
 5076SOL    HW226691   2.401   1.942   7.964 -0.1100 -2.0744  1.0142
 5077SOL     OW26692   3.859   3.852   8.251 -0.1565 -0.7806 -0.3569
 5077SOL    HW126693   3.887   3.785   8.314 -0.1850  0.5638  1.0994
 5077SOL    HW226694   3.935   3.859   8.194 -0.7523  0.8491 -0.9690
 5078SOL     OW26695   2.158   2.772   0.636  0.4193 -0.2990 -0.2723
 5078SOL    HW126696   2.210   2.851   0.650 -0.9054  0.5828 -0.3393
 5078SOL    HW226697   2.143   2.768   0.731  0.3649  1.7886 -0.2053
 5079SOL     OW26698   3.240   1.444   0.503 -0.4078 -0.0350 -0.1805
 5079SOL    HW126699   3.292   1.446   0.584  1.5044 -2.0287 -1.3554
 5079SOL    HW226700   3.152   1.435   0.539  0.7729 -1.3686  2.4188
 5080SOL     OW26701   0.977   2.724   3.825 -0.3890 -0.4558  0.0723
 5080SOL    HW126702   0.887   2.704   3.851 -1.6810  0.9224 -3.4356
 5080SOL    HW226703   1.025   2.737   3.907  0.0376  0.6841 -0.3532
 5081SOL     OW26704   4.050   1.151  10.612 -0.0018 -0.4923  0.0794
 5081SOL    HW126705   3.972   1.199  10.641 -0.0187 -0.9476  0.7867
 5081SOL    HW226706   4.028   1.062  10.639 -2.6948  0.3183  0.6016
 5082SOL     OW26707   1.169   2.472   5.756  0.0866 -0.2210 -0.2261
 5082SOL    HW126708   1.217   2.524   5.691 -1.8348  0.2350 -1.2907
 5082SOL    HW226709   1.119   2.544   5.795 -0.6008 -0.9956  0.3195
 5083SOL     OW26710   2.695   1.696   2.541  0.6863 -0.5013 -0.1108
 5083SOL    HW126711   2.689   1.682   2.636 -1.2739 -0.1894 -0.1827
 5083SOL    HW226712   2.779   1.656   2.520  1.8402  1.7877  0.1284
 5084SOL     OW26713   3.670   1.540  15.435 -0.2684  0.3319 -0.3288
 5084SOL    HW126714   3.680   1.543  15.340 -1.1053  1.8182 -0.3704
 5084SOL    HW226715   3.579   1.567  15.443  0.2689  1.8902  0.5570
 5085SOL     OW26716   2.310   2.221   5.678 -0.1111 -0.1402 -0.6131
 5085SOL    HW126717   2.309   2.231   5.773 -1.3617 -0.0255 -0.6403
 5085SOL    HW226718   2.283   2.310   5.655 -0.1034 -0.5873 -2.3869
 5086SOL     OW26719   3.199   3.820  15.859 -0.1928  0.1137  0.4186
 5086SOL    HW126720   3.152   3.901  15.838  1.5972  0.9447 -0.3822
 5086SOL    HW226721   3.281   3.842  15.904  0.8097  0.3473 -1.5204
 5087SOL     OW26722   2.259   4.042   4.350 -0.9450  0.1863  0.2792
 5087SOL    HW126723   2.309   4.013   4.426  0.7453 -0.3154 -1.0267
 5087SOL    HW226724   2.247   3.968   4.290  1.7222  0.3656 -0.4723
 5088SOL     OW26725   3.264   4.426   7.234  0.0387  0.0702  0.3143
 5088SOL    HW126726   3.190   4.447   7.176 -0.7480 -0.3939  1.1510
 5088SOL    HW226727   3.288   4.513   7.266 -1.4856  0.3586  0.6884
 5089SOL     OW26728   2.269   2.406   5.943 -0.3705 -0.1974  0.6019
 5089SOL    HW126729   2.243   2.451   6.024 -0.7277 -0.9018  0.8808
 5089SOL    HW226730   2.351   2.452   5.928 -1.8215  2.4371  0.6013
 5090SOL     OW26731   3.889   0.336  10.866  0.5158 -0.4890  0.2406
 5090SOL    HW126732   3.961   0.307  10.922  0.1631  0.8865  1.4275
 5090SOL    HW226733   3.895   0.263  10.805  1.4963  0.1913 -0.4747
 5091SOL     OW26734   2.013   3.724  13.630  0.6886  0.4513  0.1240
 5091SOL    HW126735   1.926   3.704  13.595  0.8313  0.0734 -0.0173
 5091SOL    HW226736   2.066   3.748  13.554  1.0837 -0.6627  0.0418
 5092SOL     OW26737   0.965   2.580   2.231 -0.0568  0.3792 -0.7280
 5092SOL    HW126738   1.037   2.518   2.242 -0.4419  0.2317  0.9987
 5092SOL    HW226739   1.020   2.655   2.206  0.3214  0.0401 -0.9045
 5093SOL     OW26740   0.134   2.538   2.589 -0.6198 -0.7639 -0.4451
 5093SOL    HW126741   0.211   2.548   2.645 -1.3255  0.6095  0.2674
 5093SOL    HW226742   0.078   2.605   2.629  1.8297  1.2378 -0.3640
 5094SOL     OW26743   2.919   2.725   5.062  0.2520 -0.5604 -0.4611
 5094SOL    HW126744   2.993   2.786   5.072 -0.0813 -0.1314 -0.6339
 5094SOL    HW226745   2.954   2.686   4.981 -1.2437  0.3866 -1.5508
 5095SOL     OW26746   3.507   1.303  13.829  0.0322  0.0247  0.4515
 5095SOL    HW126747   3.455   1.250  13.769  2.1022 -0.3908 -0.9663
 5095SOL    HW226748   3.503   1.395  13.804  1.0136 -0.0559  0.0209
 5096SOL     OW26749   4.067   0.882  11.585 -0.0285 -0.2384  0.0260
 5096SOL    HW126750   4.050   0.952  11.522  1.1813  0.4491  0.4546
 5096SOL    HW226751   4.080   0.807  11.528 -1.6363 -0.1001 -0.5091
 5097SOL     OW26752   1.415   3.619   3.911  0.1873 -0.3295 -0.6099
 5097SOL    HW126753   1.438   3.706   3.943  0.2404 -0.7580  0.5045
 5097SOL    HW226754   1.480   3.614   3.840  0.9510  0.6207  0.0178
 5098SOL     OW26755   0.044   3.598   1.346  0.4570 -0.1657  0.0804
 5098SOL    HW126756   0.064   3.691   1.339  1.0149 -0.3163 -0.4123
 5098SOL    HW226757   0.085   3.563   1.267 -2.5069 -0.8823 -1.1575
 5099SOL     OW26758   1.347   1.734   4.667  0.1199 -0.2381 -0.2413
 5099SOL    HW126759   1.376   1.698   4.750  1.5487 -0.4709 -0.8506
 5099SOL    HW226760   1.421   1.791   4.647  0.8950 -0.9048  0.8016
 5100SOL     OW26761   1.076   2.943   3.164  0.5268  0.1400  0.4498
 5100SOL    HW126762   1.012   2.911   3.228 -0.1205 -0.5973 -0.5570
 5100SOL    HW226763   1.019   2.995   3.108 -0.4986  0.0263  1.3753
 5101SOL     OW26764   3.582   2.522  14.550 -0.0956 -0.3133 -0.9924
 5101SOL    HW126765   3.511   2.472  14.509 -2.1584  1.8456  0.0043
 5101SOL    HW226766   3.638   2.451  14.582 -0.6181 -1.2186 -2.0501
 5102SOL     OW26767   1.934   2.062   0.466  0.0473  0.6009  0.1428
 5102SOL    HW126768   1.846   2.035   0.444 -0.0156  0.7370  0.2245
 5102SOL    HW226769   1.956   2.137   0.411  0.3388 -0.4358 -1.1485
 5103SOL     OW26770   1.870   3.693   5.210  0.2809 -0.2832 -0.4265
 5103SOL    HW126771   1.811   3.699   5.135 -0.1492  1.4724  0.0407
 5103SOL    HW226772   1.862   3.783   5.241 -0.0246 -0.6117  0.4538
 5104SOL     OW26773   4.248   0.637  17.249 -0.1614 -0.0143 -0.2105
 5104SOL    HW126774   4.160   0.604  17.234 -0.3925  0.9725 -1.1158
 5104SOL    HW226775   4.258   0.623  17.343 -2.7655  0.7021  0.1743
 5105SOL     OW26776   2.396   4.327   3.775 -0.0906 -0.4033  0.3238
 5105SOL    HW126777   2.397   4.420   3.755 -1.7540 -0.3072  0.7136
 5105SOL    HW226778   2.339   4.294   3.705  0.2473 -0.7042  0.1873
 5106SOL     OW26779   3.592   1.992   1.530 -0.2937  0.0293  0.0363
 5106SOL    HW126780   3.664   2.037   1.487 -0.5960  0.4284 -0.0485
 5106SOL    HW226781   3.549   1.954   1.453  0.5587 -1.1657  0.1498
 5107SOL     OW26782   2.559   4.511   9.194 -0.0619  0.2344  0.1927
 5107SOL    HW126783   2.518   4.520   9.280  0.0635  1.3297  0.1446
 5107SOL    HW226784   2.490   4.456   9.156 -0.3029 -0.4876  1.6643
 5108SOL     OW26785   4.393   3.453   8.607 -0.0526 -0.0857 -0.1385
 5108SOL    HW126786   4.299   3.452   8.591 -0.0274 -0.1738 -0.2762
 5108SOL    HW226787   4.404   3.361   8.634 -0.0776 -0.4727 -1.4576
 5109SOL     OW26788   3.666   1.254  14.959 -0.0634 -0.3529  0.3453
 5109SOL    HW126789   3.689   1.225  15.047 -0.4697 -0.2750  0.4734
 5109SOL    HW226790   3.580   1.288  14.982 -0.4822 -0.8057 -0.5875
 5110SOL     OW26791   0.900   0.285   6.001 -0.5907  0.4184  0.3853
 5110SOL    HW126792   0.983   0.265   6.045 -1.3056  1.1215  2.0348
 5110SOL    HW226793   0.921   0.263   5.910 -1.5020 -0.2626  0.3371
 5111SOL     OW26794   2.332   3.620   6.144 -0.4253 -0.3173 -0.5489
 5111SOL    HW126795   2.283   3.600   6.223  0.2030  1.2385  0.2170
 5111SOL    HW226796   2.259   3.628   6.083 -1.7354 -0.5648  0.9884
 5112SOL     OW26797   3.496   1.702   8.917 -0.5862 -0.0343 -0.0037
 5112SOL    HW126798   3.517   1.711   8.824 -1.2171 -1.1937 -0.2551
 5112SOL    HW226799   3.466   1.612   8.923  0.4860 -0.2981  1.5827
 5113SOL     OW26800   2.609   4.333   7.687  0.8468 -0.0159  0.0795
 5113SOL    HW126801   2.605   4.290   7.601  0.2291 -2.1530  1.1743
 5113SOL    HW226802   2.603   4.422   7.652  1.4832 -0.9641 -2.4972
 5114SOL     OW26803   1.700   3.777   2.618 -0.0409 -0.2311  0.2617
 5114SOL    HW126804   1.786   3.743   2.643  0.3606  0.3267 -0.3653
 5114SOL    HW226805   1.652   3.703   2.580  1.4233 -0.9156 -0.2476
 5115SOL     OW26806   0.865   0.869   4.091 -0.1663  0.4217 -0.3317
 5115SOL    HW126807   0.847   0.941   4.031  2.8429  2.5674  1.3369
 5115SOL    HW226808   0.850   0.800   4.026 -0.7643  1.0431 -0.8410
 5116SOL     OW26809   2.745   0.080   4.826 -0.2630 -0.8558  0.2310
 5116SOL    HW126810   2.676   0.016   4.806 -1.4072 -0.0033  1.4458
 5116SOL    HW226811   2.813   0.019   4.856  0.0356 -0.3795  0.5145
 5117SOL     OW26812   1.800   2.745   9.803 -0.0238 -0.0206  0.3537
 5117SOL    HW126813   1.791   2.737   9.708  3.3167  0.0555  0.0144
 5117SOL    HW226814   1.837   2.833   9.811 -0.8553  0.1745  1.9466
 5118SOL     OW26815   3.447   1.236   2.011  0.2935  0.6195  0.1606
 5118SOL    HW126816   3.491   1.177   2.072  2.0591  0.7591 -0.9790
 5118SOL    HW226817   3.520   1.271   1.961 -0.3119  0.7732 -0.6105
 5119SOL     OW26818   2.591   4.645  10.257 -0.8388 -0.0032  0.2726
 5119SOL    HW126819   2.639   4.663  10.337 -0.7250 -1.2343  0.4862
 5119SOL    HW226820   2.544   0.003  10.252 -1.0000 -0.1431 -0.5834
 5120SOL     OW26821   0.380   0.139   1.875  0.6012  0.2626  0.2365
 5120SOL    HW126822   0.287   0.138   1.855  0.1215 -1.2958  2.4545
 5120SOL    HW226823   0.398   0.232   1.870  2.5546 -0.1531 -0.7034
 5121SOL     OW26824   2.315   4.011   7.892  0.0306 -0.5740 -0.3889
 5121SOL    HW126825   2.296   3.918   7.896  1.5053 -0.8484  0.2280
 5121SOL    HW226826   2.227   4.048   7.887  0.3425  0.3990  1.0527
 5122SOL     OW26827   4.575   2.791  11.188  0.3113 -0.6130 -0.3869
 5122SOL    HW126828   4.639   2.849  11.229 -1.7991  1.4415 -0.0045
 5122SOL    HW226829   4.618   2.706  11.203 -0.8839 -0.8347  1.8245
 5123SOL     OW26830   4.511   2.879   3.005 -0.0086  0.2625  0.5456
 5123SOL    HW126831   4.565   2.848   3.077 -1.4635  1.1952  2.0578
 5123SOL    HW226832   4.576   2.928   2.956  2.4376 -2.2222  1.3497
 5124SOL     OW26833   0.353   4.521   7.635 -0.1749 -0.2105 -0.6028
 5124SOL    HW126834   0.258   4.530   7.626  0.2951  1.2287 -4.1347
 5124SOL    HW226835   0.358   4.522   7.731  1.8228  0.9360 -0.7186
 5125SOL     OW26836   4.286   3.606   6.476 -0.4498  0.1099 -0.2218
 5125SOL    HW126837   4.314   3.562   6.395  0.5918 -0.0898  0.2379
 5125SOL    HW226838   4.317   3.552   6.549  0.5013  2.7044  1.3179
 5126SOL     OW26839   2.368   4.253  15.721 -0.7082  0.0031  0.3942
 5126SOL    HW126840   2.365   4.222  15.811 -0.1558  1.7737  1.0065
 5126SOL    HW226841   2.280   4.288  15.706 -1.6506 -0.8327  3.9486
 5127SOL     OW26842   2.876   3.772   3.494 -0.0283 -0.8115 -0.1272
 5127SOL    HW126843   2.895   3.746   3.404 -0.3645 -1.6084  0.0350
 5127SOL    HW226844   2.931   3.851   3.496 -0.7804 -0.3266  1.0565
 5128SOL     OW26845   0.997   1.391   1.423 -0.4147 -0.3009  0.1622
 5128SOL    HW126846   1.066   1.438   1.377  1.5289 -3.0874  0.2418
 5128SOL    HW226847   0.935   1.361   1.357 -2.4980  0.0942  1.9433
 5129SOL     OW26848   4.626   3.859   4.045 -0.9658 -0.1077  0.5296
 5129SOL    HW126849   4.575   3.831   3.969  0.7774 -1.2437 -0.2334
 5129SOL    HW226850   4.644   3.776   4.090 -0.1710 -0.5786 -0.6663
 5130SOL     OW26851   0.012   1.303   4.272 -0.5351 -0.2968  0.3074
 5130SOL    HW126852   0.080   1.370   4.278  1.2511 -2.0093 -0.9991
 5130SOL    HW226853   4.711   1.321   4.182  0.7669 -1.8643 -0.3815
 5131SOL     OW26854   4.276   3.547   8.259 -0.0536 -0.4204  0.6412
 5131SOL    HW126855   4.307   3.536   8.169 -0.1462 -0.5795  0.6289
 5131SOL    HW226856   4.353   3.515   8.306  1.9234  1.5473 -1.2863
 5132SOL     OW26857   2.981   2.785  13.826 -0.6799  0.1586  0.1233
 5132SOL    HW126858   3.000   2.875  13.800 -0.0329  0.3838  1.4015
 5132SOL    HW226859   3.011   2.749  13.742 -2.4869  0.0499 -0.4863
 5133SOL     OW26860   1.161   2.799   7.747 -0.0390  0.2121  0.0407
 5133SOL    HW126861   1.117   2.856   7.684  0.9994  0.7708 -0.1800
 5133SOL    HW226862   1.109   2.828   7.822  1.2414  0.4684  0.8264
 5134SOL     OW26863   2.760   2.750   5.776 -0.0907  0.1613 -0.0306
 5134SOL    HW126864   2.739   2.720   5.688 -0.4587  0.7701 -0.1493
 5134SOL    HW226865   2.778   2.669   5.824  2.5849  0.8384  0.1172
 5135SOL     OW26866   1.874   1.957  15.604  0.4471 -0.3208 -0.1871
 5135SOL    HW126867   1.821   1.879  15.587 -0.8618  1.2173 -3.2751
 5135SOL    HW226868   1.843   2.020  15.539 -2.0695 -0.1477  1.1857
 5136SOL     OW26869   0.022   2.829   7.116  0.2341  0.1221  0.7203
 5136SOL    HW126870   0.011   2.760   7.182 -1.9413 -1.3364 -1.1750
 5136SOL    HW226871   0.094   2.785   7.070  0.3929  1.1167  0.0184
 5137SOL     OW26872   3.569   2.791  15.891  0.3149  0.4290 -0.1404
 5137SOL    HW126873   3.549   2.811  15.983  1.4447 -0.9559  0.4136
 5137SOL    HW226874   3.495   2.830  15.844 -1.4694 -0.8311  1.6366
 5138SOL     OW26875   0.810   1.229   1.754 -0.3987  0.4725 -0.3502
 5138SOL    HW126876   0.888   1.273   1.787  0.3084 -0.6904 -0.4515
 5138SOL    HW226877   0.751   1.304   1.763  0.1061  0.9225 -0.7905
 5139SOL     OW26878   3.032   1.545   4.436 -0.0377 -0.4106 -0.1391
 5139SOL    HW126879   3.045   1.451   4.422  0.8839 -0.5786  1.8444
 5139SOL    HW226880   3.092   1.567   4.508 -0.6133 -2.3370  0.9423
 5140SOL     OW26881   3.580   1.370   1.818  0.3067  0.3779 -0.8328
 5140SOL    HW126882   3.515   1.337   1.756 -1.1793 -0.6696  1.2844
 5140SOL    HW226883   3.589   1.455   1.775 -1.0620  0.7061 -0.4918
 5141SOL     OW26884   3.526   0.636  14.580  0.3413  0.1497 -0.6202
 5141SOL    HW126885   3.539   0.599  14.667 -0.7377  1.4360  0.1027
 5141SOL    HW226886   3.474   0.565  14.541  0.5969 -0.4338  0.1042
 5142SOL     OW26887   1.564   3.007   6.317 -0.0208  0.5944  0.2131
 5142SOL    HW126888   1.574   3.007   6.222  0.5702  2.3939  0.2761
 5142SOL    HW226889   1.559   2.914   6.339  1.1326  0.7174  1.0237
 5143SOL     OW26890   0.988   0.846   1.918 -0.1177 -0.5959 -0.3822
 5143SOL    HW126891   1.056   0.784   1.891  0.7370  0.4709 -0.6922
 5143SOL    HW226892   0.912   0.793   1.895  0.6071 -0.7782 -2.4286
 5144SOL     OW26893   2.883   2.932   6.461 -0.2052 -0.6340 -0.0401
 5144SOL    HW126894   2.979   2.933   6.456 -0.1744  0.4490  0.8447
 5144SOL    HW226895   2.870   2.942   6.556  0.5272  3.2823 -0.3486
 5145SOL     OW26896   3.594   4.057   4.643  0.1311  0.0675 -0.0778
 5145SOL    HW126897   3.528   4.016   4.587  0.2937 -1.0200  0.5250
 5145SOL    HW226898   3.627   3.977   4.683  0.2624  0.1394 -0.0437
 5146SOL     OW26899   4.591   4.225   9.020  0.0356 -0.0702  0.8566
 5146SOL    HW126900   4.549   4.174   9.089  0.1196 -0.4984  0.5894
 5146SOL    HW226901   4.515   4.269   8.982  0.9533 -0.2123 -1.1449
 5147SOL     OW26902   0.761   1.731  16.597  0.9435  0.6282 -0.2475
 5147SOL    HW126903   0.681   1.745  16.648 -0.7180 -0.3655 -2.6548
 5147SOL    HW226904   0.782   1.824  16.584 -2.6748  1.5097  0.2238
 5148SOL     OW26905   1.498   0.599   3.897 -0.2098 -0.2962  0.1189
 5148SOL    HW126906   1.409   0.629   3.917 -0.7725 -1.4567 -0.6722
 5148SOL    HW226907   1.535   0.604   3.985  0.5249  0.6272 -0.2498
 5149SOL     OW26908   4.341   2.347   6.745 -0.1938  0.6551 -0.0833
 5149SOL    HW126909   4.249   2.362   6.767 -0.2755  1.7901 -1.2291
 5149SOL    HW226910   4.344   2.255   6.718 -1.7032  0.4167  0.5407
 5150SOL     OW26911   4.155   2.673   8.545 -0.8656 -0.0750  0.3660
 5150SOL    HW126912   4.243   2.682   8.581 -0.9770  1.1869  0.3069
 5150SOL    HW226913   4.150   2.578   8.530  1.3851  0.0518 -1.2748
 5151SOL     OW26914   0.659   2.595   8.341  0.3942 -0.1240 -0.5657
 5151SOL    HW126915   0.626   2.661   8.401  0.7374 -1.0625  0.6621
 5151SOL    HW226916   0.744   2.564   8.375  0.7376  0.8584 -0.5363
 5152SOL     OW26917   2.150   1.227   2.896 -0.2539 -0.2290 -0.1255
 5152SOL    HW126918   2.145   1.133   2.913 -1.1546 -0.0595  0.5473
 5152SOL    HW226919   2.058   1.247   2.879 -0.7779 -2.5921 -0.0791
 5153SOL     OW26920   1.486   3.894   8.394 -0.2523  0.1521  0.3630
 5153SOL    HW126921   1.559   3.930   8.444 -0.0008 -2.2874  1.7479
 5153SOL    HW226922   1.443   3.970   8.355  1.9277 -0.0978 -2.5090
 5154SOL     OW26923   0.041   0.429   1.226  0.4213 -0.2739 -0.2716
 5154SOL    HW126924   0.015   0.413   1.135  0.1094 -1.1810 -0.0267
 5154SOL    HW226925   0.090   0.350   1.251 -1.3844 -0.5676  2.2954
 5155SOL     OW26926   0.825   2.398   2.666  0.3665  0.1750 -0.8928
 5155SOL    HW126927   0.875   2.476   2.644 -3.1546  2.1056 -2.0975
 5155SOL    HW226928   0.741   2.430   2.698  0.3848  0.0579 -0.7291
 5156SOL     OW26929   0.231   1.644   5.338  0.0299 -0.0050 -0.0847
 5156SOL    HW126930   0.170   1.571   5.323 -1.0988  0.7634  0.7881
 5156SOL    HW226931   0.180   1.723   5.355 -0.5238 -0.4598  0.4115
 5157SOL     OW26932   4.577   1.960  16.351  0.3753  0.4397  0.2517
 5157SOL    HW126933   4.525   1.880  16.357  2.1143 -0.7483 -0.5162
 5157SOL    HW226934   4.661   1.924  16.320 -0.3314 -0.0593 -1.0861
 5158SOL     OW26935   3.355   4.388   1.933 -0.0838  0.1462 -0.5777
 5158SOL    HW126936   3.411   4.310   1.931 -1.2255 -0.6293 -2.1787
 5158SOL    HW226937   3.356   4.424   2.022  0.8957  0.3535 -0.6707
 5159SOL     OW26938   2.287   1.355   5.084  0.3003  1.5096  0.7022
 5159SOL    HW126939   2.349   1.338   5.014 -0.5979 -0.5330  0.3898
 5159SOL    HW226940   2.241   1.271   5.084  1.2273  1.0003 -0.0396
 5160SOL     OW26941   4.314   3.812  14.767 -0.0686  0.8062 -0.5807
 5160SOL    HW126942   4.284   3.754  14.697 -1.3060 -1.8698  2.1583
 5160SOL    HW226943   4.295   3.752  14.839 -1.8489  2.4557  0.3160
 5161SOL     OW26944   2.545   1.287   8.065 -0.4186 -0.1527 -0.3227
 5161SOL    HW126945   2.613   1.248   8.119 -0.5480 -2.9651 -2.2268
 5161SOL    HW226946   2.496   1.334   8.133 -0.7191 -3.9699  2.0516
 5162SOL     OW26947   1.908   1.012  17.113 -0.2389  0.0641  0.4143
 5162SOL    HW126948   1.841   1.005  17.045  0.5711  1.2074 -0.4977
 5162SOL    HW226949   1.903   0.928  17.159 -0.8706  0.1813  0.5661
 5163SOL     OW26950   3.442   0.996   6.022  0.5499 -0.3682  0.5034
 5163SOL    HW126951   3.464   0.998   5.929  2.3728  0.0309  0.9390
 5163SOL    HW226952   3.525   1.035   6.049  1.3291 -1.4051 -0.3996
 5164SOL     OW26953   0.706   1.546   4.232 -0.3107  0.1213  1.3815
 5164SOL    HW126954   0.661   1.544   4.316  0.5850  0.0324  1.8537
 5164SOL    HW226955   0.686   1.637   4.209  2.1133  0.7569  1.7970
 5165SOL     OW26956   3.540   3.806  12.226 -0.7352  1.0970 -0.1931
 5165SOL    HW126957   3.538   3.824  12.132  0.6390  1.0829 -0.2224
 5165SOL    HW226958   3.621   3.850  12.253  1.0874 -2.1549 -0.4734
 5166SOL     OW26959   0.880   3.760  11.304  0.1440  0.3831  0.2210
 5166SOL    HW126960   0.945   3.704  11.260 -2.3920 -2.5770  0.2252
 5166SOL    HW226961   0.806   3.760  11.244  0.3696 -0.3080 -0.0573
 5167SOL     OW26962   4.046   4.077   4.321  0.1459  0.2824  0.2041
 5167SOL    HW126963   4.110   4.039   4.382 -0.4840  0.6373  1.0835
 5167SOL    HW226964   4.034   4.003   4.261  0.8945  2.3947 -2.5467
 5168SOL     OW26965   3.502   1.628   6.325 -0.0151  0.7582 -0.1938
 5168SOL    HW126966   3.464   1.636   6.238 -1.6715 -4.3418  0.0590
 5168SOL    HW226967   3.582   1.584   6.295 -0.5278 -0.4072  0.1434
 5169SOL     OW26968   1.750   4.264   9.650  0.0980 -0.1804 -0.2992
 5169SOL    HW126969   1.707   4.235   9.731  1.9500 -1.8134  0.0825
 5169SOL    HW226970   1.830   4.309   9.677 -1.7246  2.2566  1.0251
 5170SOL     OW26971   3.080   0.174   7.336  0.3987 -0.5309  0.6372
 5170SOL    HW126972   3.150   0.122   7.374  0.3057 -1.3707 -0.3424
 5170SOL    HW226973   3.047   0.225   7.410  0.1476  1.3456 -0.7648
 5171SOL     OW26974   3.934   1.720   1.563 -0.5375  0.4491 -0.7249
 5171SOL    HW126975   4.019   1.676   1.559 -1.4451 -1.2530 -1.2806
 5171SOL    HW226976   3.925   1.759   1.476 -0.4977  1.7560 -0.1497
 5172SOL     OW26977   4.384   1.359   5.340  0.3788 -0.3128  0.1705
 5172SOL    HW126978   4.356   1.273   5.372 -2.3811 -1.1046 -4.2930
 5172SOL    HW226979   4.415   1.382   5.428 -0.1974 -1.7670  0.7705
 5173SOL     OW26980   2.706   1.967   3.470  0.5163 -0.4549  0.5626
 5173SOL    HW126981   2.795   1.938   3.491  0.8424 -0.4537 -0.8163
 5173SOL    HW226982   2.690   2.030   3.540  1.3581 -0.6762  0.9431
 5174SOL     OW26983   1.729   4.047  11.858  0.0667  0.0604 -0.1226
 5174SOL    HW126984   1.733   4.089  11.944 -0.9115 -0.4578  0.1793
 5174SOL    HW226985   1.803   4.088  11.814  1.4654 -2.7948 -0.4077
 5175SOL     OW26986   2.706   3.228   3.799  0.0119  0.2932  0.0881
 5175SOL    HW126987   2.776   3.286   3.768 -0.3952  0.1472 -1.1273
 5175SOL    HW226988   2.653   3.229   3.719  0.2292  1.7832 -0.0488
 5176SOL     OW26989   4.686   0.941   3.765  0.4105  0.4420 -0.8323
 5176SOL    HW126990   4.678   0.949   3.670  2.2249 -2.5661 -1.2378
 5176SOL    HW226991   0.049   0.976   3.775 -0.2271  1.8405 -0.1432
 5177SOL     OW26992   2.953   0.283   7.552 -0.3863  0.1708 -0.0556
 5177SOL    HW126993   2.919   0.361   7.507 -0.1107  0.4026  0.1346
 5177SOL    HW226994   2.871   0.258   7.596  0.6535 -2.2706  0.4427
 5178SOL     OW26995   4.006   3.377  10.187  0.2742 -0.6162 -0.6417
 5178SOL    HW126996   4.017   3.287  10.216 -0.1808 -0.4103  0.1666
 5178SOL    HW226997   4.008   3.372  10.092  4.5050  0.5417 -0.6101
 5179SOL     OW26998   0.461   4.004   6.671 -0.1658 -0.6377 -0.0942
 5179SOL    HW126999   0.449   3.909   6.664  0.7749 -0.8718  1.3369
 5179SOL    HW227000   0.506   4.008   6.756  0.9479 -0.0044 -0.7059
 5180SOL     OW27001   2.750   0.011   8.706 -0.3689  0.5738 -0.0350
 5180SOL    HW127002   2.825   0.035   8.760  0.8051 -1.3942 -0.7847
 5180SOL    HW227003   2.800   4.724   8.625 -2.0027 -0.2967 -0.9071
 5181SOL     OW27004   3.493   1.967   5.159  0.6633 -0.0917 -0.0615
 5181SOL    HW127005   3.461   2.039   5.213 -1.0916 -0.5600 -0.4818
 5181SOL    HW227006   3.586   1.967   5.182  1.1782  1.4070 -2.0805
 5182SOL     OW27007   2.274   3.174   6.834 -0.1160 -0.3025 -0.2471
 5182SOL    HW127008   2.215   3.244   6.861 -0.1441  0.3342 -1.9652
 5182SOL    HW227009   2.359   3.216   6.829 -0.7620  1.2302  1.4372
 5183SOL     OW27010   3.135   2.504   8.129  0.5373  0.9338  0.1416
 5183SOL    HW127011   3.210   2.558   8.152  0.4077  2.1581 -2.2710
 5183SOL    HW227012   3.145   2.495   8.034 -1.3620  1.9768 -0.1608
 5184SOL     OW27013   4.367   0.584   5.945  0.2478  0.5895  0.0223
 5184SOL    HW127014   4.358   0.545   5.858 -0.5474 -0.5039  0.5863
 5184SOL    HW227015   4.461   0.600   5.942  0.4817 -0.5311  1.6041
 5185SOL     OW27016   3.340   2.933  17.137  0.3077 -0.3635  0.4024
 5185SOL    HW127017   3.330   2.962  17.046  3.4616  1.4194  0.6152
 5185SOL    HW227018   3.430   2.901  17.140  0.4104  0.0050  1.4008
 5186SOL     OW27019   1.905   4.673  14.816 -0.1701 -0.0498 -0.0966
 5186SOL    HW127020   1.998   4.669  14.838  0.1238  1.1395 -1.0994
 5186SOL    HW227021   1.902   0.034  14.775 -0.7657  0.7457  1.6505
 5187SOL     OW27022   4.235   3.854   7.877 -0.4074  0.0102 -0.6691
 5187SOL    HW127023   4.243   3.790   7.806 -3.0717 -0.4145 -0.5968
 5187SOL    HW227024   4.213   3.935   7.832 -1.8484 -1.2734 -2.2925
 5188SOL     OW27025   4.181   0.786  14.844 -0.2810 -0.3075 -0.6283
 5188SOL    HW127026   4.237   0.826  14.910  0.1819 -1.1527 -0.5127
 5188SOL    HW227027   4.109   0.849  14.839  0.2501  0.3253 -0.3689
 5189SOL     OW27028   3.286   4.316   7.869  0.7135 -0.7406 -0.3951
 5189SOL    HW127029   3.211   4.263   7.840  1.0602 -1.2567 -0.3537
 5189SOL    HW227030   3.330   4.251   7.924 -2.5025 -1.9363  0.7793
 5190SOL     OW27031   0.959   4.535   6.931  0.2086  0.7760  0.9999
 5190SOL    HW127032   0.967   4.520   7.025 -0.5651 -2.9532  0.4465
 5190SOL    HW227033   0.999   4.622   6.924 -3.6630  2.7142  2.3043
 5191SOL     OW27034   3.570   3.147   9.971  0.3054 -0.3045 -0.1180
 5191SOL    HW127035   3.507   3.096  10.020  1.7124 -2.2216 -0.3053
 5191SOL    HW227036   3.608   3.204  10.038 -1.2065  0.7894 -0.1997
 5192SOL     OW27037   2.758   1.531   8.064  0.5038  0.1576 -0.0820
 5192SOL    HW127038   2.685   1.475   8.090 -1.8951  3.8236  1.0233
 5192SOL    HW227039   2.728   1.554   7.976  0.2679  1.5682  0.3599
 5193SOL     OW27040   3.218   1.431   1.063  0.1790 -0.0953  0.1312
 5193SOL    HW127041   3.287   1.371   1.091  0.1526  1.6407  3.8899
 5193SOL    HW227042   3.276   1.492   1.018  1.0798 -0.8256  0.2950
 5194SOL     OW27043   3.521   1.389   8.011 -0.1338 -0.1696  0.2235
 5194SOL    HW127044   3.577   1.409   7.937  1.2914 -0.1100  1.3156
 5194SOL    HW227045   3.442   1.440   7.993  1.1163  1.1337 -1.4732
 5195SOL     OW27046   4.710   2.342   3.484  0.0409 -0.0838 -0.2674
 5195SOL    HW127047   4.616   2.361   3.482  0.3296  1.4716  1.5456
 5195SOL    HW227048   4.715   2.256   3.525 -1.1491  0.4007  0.8871
 5196SOL     OW27049   2.608   0.756   5.661  0.0827  1.1082  0.1238
 5196SOL    HW127050   2.656   0.726   5.739 -0.9222 -1.3040 -0.1823
 5196SOL    HW227051   2.518   0.728   5.676  0.1370  1.3639  0.9213
 5197SOL     OW27052   0.282   3.802   3.751  0.1073 -0.4706 -0.1956
 5197SOL    HW127053   0.320   3.888   3.732  2.0461 -0.6459  2.8271
 5197SOL    HW227054   0.204   3.813   3.806  1.3138  1.0228  1.2250
 5198SOL     OW27055   0.405   1.014   6.509 -0.0952 -0.0859  1.0673
 5198SOL    HW127056   0.332   0.974   6.462  1.4733 -0.2673 -1.1982
 5198SOL    HW227057   0.455   0.935   6.527 -0.1325 -0.2218  0.5603
 5199SOL     OW27058   0.871   0.496  15.616  0.2326 -0.4042  0.2090
 5199SOL    HW127059   0.797   0.556  15.603  0.6690  0.0960  0.0367
 5199SOL    HW227060   0.921   0.531  15.690 -1.4798  1.2421  0.5755
 5200SOL     OW27061   1.879   2.952   3.331  0.4141 -0.3808 -0.3465
 5200SOL    HW127062   1.903   2.864   3.361  1.0190 -0.8390 -2.1540
 5200SOL    HW227063   1.831   2.925   3.253 -2.1046  1.7034  0.5119
 5201SOL     OW27064   2.840   4.125   1.488 -0.5321  0.2283 -0.0424
 5201SOL    HW127065   2.860   4.202   1.541 -1.7446  1.7740 -1.8269
 5201SOL    HW227066   2.923   4.085   1.462 -1.0565  0.3171 -1.8816
 5202SOL     OW27067   1.270   4.383  15.411 -0.3438 -0.0299 -0.5800
 5202SOL    HW127068   1.226   4.322  15.351 -1.3195  0.8147 -0.7240
 5202SOL    HW227069   1.349   4.402  15.361 -1.3542 -0.1709 -2.2517
 5203SOL     OW27070   3.841   4.148   7.063 -0.3853 -0.6131 -0.3678
 5203SOL    HW127071   3.861   4.054   7.067  3.5998  0.2554  0.3291
 5203SOL    HW227072   3.866   4.164   6.972 -0.1014 -0.9632 -0.3531
 5204SOL     OW27073   4.551   0.687  10.130  0.1192 -0.5515 -0.4217
 5204SOL    HW127074   4.480   0.638  10.171 -1.1435 -0.0546 -2.0143
 5204SOL    HW227075   4.548   0.763  10.189 -0.2072 -1.2988  0.5196
 5205SOL     OW27076   3.048   0.906   8.181  0.0763  0.1106 -0.1675
 5205SOL    HW127077   3.094   0.940   8.257 -0.7889 -2.4302  1.4747
 5205SOL    HW227078   3.112   0.916   8.110 -0.0700  2.5511  0.0424
 5206SOL     OW27079   3.346   0.845   6.684 -0.0116  0.1484 -0.2032
 5206SOL    HW127080   3.363   0.902   6.608  0.0707  1.5819  0.8984
 5206SOL    HW227081   3.438   0.829   6.703 -0.1228  1.3334  1.2843
 5207SOL     OW27082   1.294   1.371   9.043  0.5369  0.3257  0.2296
 5207SOL    HW127083   1.245   1.292   9.020  0.0217  1.1878 -1.6324
 5207SOL    HW227084   1.220   1.432   9.049 -0.0990 -0.5038  0.8145
 5208SOL     OW27085   0.671   3.398   8.233  0.3011 -0.1163  0.0962
 5208SOL    HW127086   0.708   3.311   8.217  1.0028  0.3690 -0.9695
 5208SOL    HW227087   0.594   3.373   8.284  0.0126  1.0909  0.2618
 5209SOL     OW27088   1.418   1.123  10.909 -0.2399 -0.3148 -0.2213
 5209SOL    HW127089   1.352   1.069  10.953 -0.2925  0.1558  0.2739
 5209SOL    HW227090   1.463   1.056  10.858  0.8495 -0.5300  1.0178
 5210SOL     OW27091   3.211   3.543   7.774 -0.8230 -0.4620  0.3935
 5210SOL    HW127092   3.229   3.600   7.849  3.4446  0.9132 -1.6387
 5210SOL    HW227093   3.240   3.603   7.705 -1.8551 -1.6733 -1.0870
 5211SOL     OW27094   2.315   1.522   8.750 -0.7605  0.7544  0.1672
 5211SOL    HW127095   2.223   1.496   8.760 -0.2655 -1.0887 -0.0012
 5211SOL    HW227096   2.333   1.581   8.823  1.9317 -0.0220  0.1307
 5212SOL     OW27097   2.291   2.146   2.854  0.1005  0.4572  0.1636
 5212SOL    HW127098   2.236   2.099   2.791  0.8914 -0.2274 -0.0088
 5212SOL    HW227099   2.298   2.089   2.931 -1.4140 -0.5689 -0.4550
 5213SOL     OW27100   4.563   3.120   4.910 -0.0174 -0.6058 -0.1561
 5213SOL    HW127101   4.560   3.192   4.847  0.3248 -1.1141 -0.7568
 5213SOL    HW227102   4.657   3.108   4.924  0.1442 -2.3868 -2.6485
 5214SOL     OW27103   4.508   0.564   6.753  0.2925 -0.3185 -0.1067
 5214SOL    HW127104   4.603   0.574   6.768 -0.1638  2.9914  0.5140
 5214SOL    HW227105   4.484   0.508   6.827  0.6861 -0.5690 -0.1676
 5215SOL     OW27106   1.284   3.996  17.653 -0.2004  0.5530  0.3942
 5215SOL    HW127107   1.320   3.967  17.569  0.1938  0.4641  0.5922
 5215SOL    HW227108   1.205   4.043  17.626 -0.4064  0.2077  0.4004
 5216SOL     OW27109   2.850   4.373   8.380  0.3203  0.5239  0.0152
 5216SOL    HW127110   2.916   4.345   8.445 -0.1478  0.3449  0.4124
 5216SOL    HW227111   2.858   4.462   8.413 -2.0702 -0.0278  2.0839
 5217SOL     OW27112   2.982   0.488  11.428  0.9617  0.2777 -0.2899
 5217SOL    HW127113   2.979   0.477  11.523  1.1642  0.1742 -0.2950
 5217SOL    HW227114   2.989   0.583  11.427  1.0306  0.2680 -0.8208
 5218SOL     OW27115   4.294   3.630   5.713 -0.4682 -0.7878  0.6438
 5218SOL    HW127116   4.272   3.685   5.638 -0.7407  0.1096  1.3940
 5218SOL    HW227117   4.209   3.630   5.756 -0.3598  0.1616  0.8593
 5219SOL     OW27118   1.898   3.557   4.909 -0.4782 -0.5985 -0.0559
 5219SOL    HW127119   1.856   3.488   4.960 -0.5162  0.3713  1.2379
 5219SOL    HW227120   1.842   3.631   4.932  1.0794  0.6821 -0.3965
 5220SOL     OW27121   1.917   4.453   2.924  0.2857  0.0044 -0.4844
 5220SOL    HW127122   1.899   4.435   2.832 -0.8669  1.0741 -0.4623
 5220SOL    HW227123   1.910   4.361   2.948  0.8155 -0.0461 -0.5109
 5221SOL     OW27124   1.525   1.643   9.104  0.7465  0.1494  0.1354
 5221SOL    HW127125   1.564   1.557   9.119  0.8625  0.4007  1.2651
 5221SOL    HW227126   1.450   1.647   9.163  0.6144  0.3810 -0.0462
 5222SOL     OW27127   0.862   3.819   8.693  0.1068 -0.0371  0.1492
 5222SOL    HW127128   0.875   3.888   8.758 -1.6095  0.2592  0.1960
 5222SOL    HW227129   0.944   3.834   8.647 -0.2364  1.4744  0.0145
 5223SOL     OW27130   1.503   2.782   7.554 -0.4156  0.0767 -0.2586
 5223SOL    HW127131   1.577   2.728   7.527 -0.2380  1.3350 -2.2593
 5223SOL    HW227132   1.519   2.858   7.498 -0.5195  0.3448  0.0729
 5224SOL     OW27133   3.152   2.896   3.276 -0.0193 -0.1802 -0.1524
 5224SOL    HW127134   3.208   2.829   3.237  0.0339  0.4604 -1.1798
 5224SOL    HW227135   3.108   2.913   3.193 -0.5010 -0.7187 -0.0159
 5225SOL     OW27136   4.268   3.663   9.574  0.0856  0.1119 -0.1076
 5225SOL    HW127137   4.314   3.674   9.491 -0.3187  0.0925 -0.3335
 5225SOL    HW227138   4.277   3.568   9.586  0.5537  0.1146 -0.4478
 5226SOL     OW27139   2.829   3.422   8.104 -0.2089  0.8694  0.0528
 5226SOL    HW127140   2.779   3.425   8.022  0.8601  0.1710 -0.6305
 5226SOL    HW227141   2.810   3.512   8.130  2.1391  1.5544 -0.5465
 5227SOL     OW27142   2.371   1.133   5.772 -0.0416  0.0084  0.3429
 5227SOL    HW127143   2.441   1.139   5.837  0.7857  0.7530 -0.6301
 5227SOL    HW227144   2.414   1.177   5.699 -2.1807  2.2738  0.4566
 5228SOL     OW27145   1.877   2.276  16.128  0.3206 -0.2341  0.6168
 5228SOL    HW127146   1.927   2.197  16.107  1.3460  0.8546 -0.9721
 5228SOL    HW227147   1.915   2.333  16.061  1.3302  0.0112  1.4029
 5229SOL     OW27148   0.797   3.514   3.917 -0.3386  0.4544 -0.0714
 5229SOL    HW127149   0.876   3.567   3.908  0.7658 -0.8262  1.9904
 5229SOL    HW227150   0.760   3.548   3.999  0.2482  0.8283  0.0396
 5230SOL     OW27151   3.158   3.741   3.843 -0.6464 -0.4565 -0.3290
 5230SOL    HW127152   3.185   3.821   3.798 -0.4584 -1.2459 -1.6318
 5230SOL    HW227153   3.082   3.721   3.788 -0.3038  2.4696 -1.8717
 5231SOL     OW27154   4.080   2.474  15.450  0.6497 -0.1592  0.4342
 5231SOL    HW127155   4.042   2.562  15.460  1.4610  0.4295 -1.4788
 5231SOL    HW227156   4.122   2.477  15.364 -1.9137  0.5394 -0.7914
 5232SOL     OW27157   0.001   2.881   3.604 -0.0862 -0.3190  0.5186
 5232SOL    HW127158   4.692   2.825   3.534 -1.9444  1.5329 -0.0532
 5232SOL    HW227159   0.050   2.952   3.563  0.1308 -1.8423 -1.9142
 5233SOL     OW27160   1.048   1.970  14.793  0.4476  0.4507  0.4947
 5233SOL    HW127161   1.046   1.954  14.699 -3.4724 -0.6528  0.7852
 5233SOL    HW227162   0.996   2.050  14.797  1.0145  0.9407 -1.8138
 5234SOL     OW27163   3.774   4.491   4.178 -0.3507 -0.3422  0.1165
 5234SOL    HW127164   3.732   4.406   4.166  0.6889 -0.7961 -0.2596
 5234SOL    HW227165   3.712   4.557   4.147  0.9585  1.4586  1.3464
 5235SOL     OW27166   1.780   4.005  17.163  0.1858  0.3095  0.4126
 5235SOL    HW127167   1.769   3.946  17.088  2.0611  1.6570 -0.9183
 5235SOL    HW227168   1.774   4.095  17.132 -1.0573  0.6254  1.5749
 5236SOL     OW27169   0.606   3.352   3.736 -0.3850  0.0444  0.0269
 5236SOL    HW127170   0.548   3.417   3.695  1.7948  2.5731  1.0043
 5236SOL    HW227171   0.650   3.387   3.813  1.7436  0.5297 -1.3850
 5237SOL     OW27172   2.863   0.409  10.081  0.1811  0.5358  0.2961
 5237SOL    HW127173   2.914   0.457  10.146 -0.0655  1.7341 -0.3867
 5237SOL    HW227174   2.832   0.338  10.138  0.9660 -0.5487 -0.6346
 5238SOL     OW27175   2.691   1.045  12.654  0.3441  0.1558 -0.0461
 5238SOL    HW127176   2.774   1.093  12.658  0.3538  0.4220 -2.9093
 5238SOL    HW227177   2.721   0.959  12.682  0.4494  0.0669 -0.4300
 5239SOL     OW27178   0.589   4.207   6.265 -0.7558  0.2637  0.3674
 5239SOL    HW127179   0.638   4.135   6.306 -0.7723  0.4179  0.6555
 5239SOL    HW227180   0.590   4.185   6.172  0.3080  2.1495 -0.0688
 5240SOL     OW27181   0.956   0.513   3.127  0.3316  0.2091 -0.0819
 5240SOL    HW127182   0.992   0.475   3.207  1.2809  0.7171 -0.2660
 5240SOL    HW227183   0.906   0.437   3.098 -1.5249  1.7485 -0.9197
 5241SOL     OW27184   4.301   1.982   7.696 -0.0628  0.1071 -0.4997
 5241SOL    HW127185   4.313   2.075   7.676  0.4004  0.4201  1.2015
 5241SOL    HW227186   4.378   1.944   7.653  1.2477 -0.3118  2.2087
 5242SOL     OW27187   4.511   4.011   0.382  0.6034 -0.2119  0.3808
 5242SOL    HW127188   4.431   3.995   0.432  0.4506  0.5454  0.3733
 5242SOL    HW227189   4.572   4.036   0.450 -1.1666 -0.4136  2.0465
 5243SOL     OW27190   3.685   2.873  11.263 -0.4854  0.4423 -0.4360
 5243SOL    HW127191   3.726   2.937  11.206 -1.2316  0.2514 -1.1957
 5243SOL    HW227192   3.723   2.785  11.257  3.4737  2.2166 -1.1456
 5244SOL     OW27193   3.578   0.328   5.218 -0.1308  0.8402 -0.0557
 5244SOL    HW127194   3.509   0.387   5.188 -1.0420 -0.2884 -0.1933
 5244SOL    HW227195   3.533   0.258   5.265 -2.1286  0.7310 -2.1387
 5245SOL     OW27196   0.851   1.697  15.959  0.1196  0.4244  0.2338
 5245SOL    HW127197   0.849   1.691  16.055 -0.5292 -0.3383  0.1661
 5245SOL    HW227198   0.790   1.771  15.951  1.5332  1.5799  0.2022
 5246SOL     OW27199   4.047   2.866   4.619 -0.1921  0.2815  0.1753
 5246SOL    HW127200   4.131   2.897   4.585 -0.3696  0.1370 -0.3940
 5246SOL    HW227201   4.072   2.781   4.655 -3.0431 -1.2395 -1.4322
 5247SOL     OW27202   3.173   2.124   7.733  0.0563 -0.0681  0.0170
 5247SOL    HW127203   3.136   2.089   7.652 -0.6353  0.0666  0.2788
 5247SOL    HW227204   3.262   2.148   7.707 -0.2103 -1.3105 -2.1122
 5248SOL     OW27205   3.406   2.796   3.987 -0.1183 -0.1239  0.1961
 5248SOL    HW127206   3.474   2.861   3.969  1.1992 -1.3548  0.7545
 5248SOL    HW227207   3.327   2.848   3.971 -0.1962 -0.2588  0.1441
 5249SOL     OW27208   0.526   4.713   7.520  0.0560  0.0295 -0.3507
 5249SOL    HW127209   0.484   0.049   7.460 -0.7434  0.0040  0.1833
 5249SOL    HW227210   0.456   4.657   7.555  0.4112  0.7421  1.5001
 5250SOL     OW27211   0.893   4.215   8.345 -0.3538  0.0214  0.4310
 5250SOL    HW127212   0.815   4.250   8.303 -0.8947  0.1397  1.5366
 5250SOL    HW227213   0.889   4.251   8.434  4.2098  2.4908 -0.3534
 5251SOL     OW27214   0.398   1.374   4.313  0.4347  0.1044  0.7775
 5251SOL    HW127215   0.461   1.424   4.365  2.1793 -4.2264  2.8564
 5251SOL    HW227216   0.430   1.383   4.223  0.4398 -0.6410  0.7078
 5252SOL     OW27217   0.506   2.116  13.193  0.2465 -0.4288 -0.4094
 5252SOL    HW127218   0.568   2.095  13.264  1.3761 -0.7867 -1.5124
 5252SOL    HW227219   0.450   2.180  13.237 -1.8696 -3.3469  1.1774
 5253SOL     OW27220   3.656   0.946  17.560  0.9274  0.3118 -0.1134
 5253SOL    HW127221   3.583   0.908  17.608 -0.3656 -1.7459 -3.6906
 5253SOL    HW227222   3.711   0.868  17.554  3.7020  2.1478  0.9775
 5254SOL     OW27223   2.980   1.114   6.949 -0.8505  0.5238  0.0891
 5254SOL    HW127224   2.932   1.142   6.871  1.0906  0.3679 -1.1568
 5254SOL    HW227225   2.907   1.101   7.010 -0.2345 -1.4365  0.4093
 5255SOL     OW27226   1.166   2.343   1.882  0.5753  0.9879 -1.0754
 5255SOL    HW127227   1.176   2.312   1.972 -0.2233 -0.2421 -1.4196
 5255SOL    HW227228   1.217   2.282   1.829  1.3292  1.0208 -0.4000
 5256SOL     OW27229   0.151   4.423   9.816  0.6766  0.0330  0.7021
 5256SOL    HW127230   0.231   4.468   9.790  0.2069 -0.1596 -1.1033
 5256SOL    HW227231   0.096   4.441   9.739 -0.5391  0.6679  1.7134
 5257SOL     OW27232   4.681   4.453   7.932  0.2635 -0.5419  0.4607
 5257SOL    HW127233   4.594   4.455   7.973 -0.7767 -1.1437 -1.7048
 5257SOL    HW227234   4.699   4.359   7.930  0.2638 -0.5567  1.1507
 5258SOL     OW27235   4.030   4.129   9.996  0.2583 -0.4838  0.3109
 5258SOL    HW127236   4.123   4.131  10.018 -0.0523  1.7621  1.4231
 5258SOL    HW227237   4.014   4.211   9.948 -1.9686 -0.6306  0.7945
 5259SOL     OW27238   2.628   1.923   4.921  0.1932 -0.1916 -0.7830
 5259SOL    HW127239   2.639   1.830   4.904  2.8720  0.3079 -1.6595
 5259SOL    HW227240   2.533   1.916   4.931  0.3881 -0.4920  0.9928
 5260SOL     OW27241   2.960   3.289   6.203  0.2065  0.0823 -1.1206
 5260SOL    HW127242   2.931   3.378   6.186 -1.3159  0.2011  2.2338
 5260SOL    HW227243   2.981   3.255   6.116 -0.6398  2.2285 -2.1505
 5261SOL     OW27244   3.750   3.129   7.504  0.2228  0.2576  0.2410
 5261SOL    HW127245   3.664   3.171   7.508  0.3637  0.6429 -0.6098
 5261SOL    HW227246   3.769   3.154   7.594  5.1187  2.9652 -1.5197
 5262SOL     OW27247   3.621   2.173   5.902 -0.0898 -0.1562  0.1028
 5262SOL    HW127248   3.530   2.198   5.915  0.5663  2.4165 -0.2623
 5262SOL    HW227249   3.659   2.198   5.986  0.9812  2.3919 -1.1451
 5263SOL     OW27250   2.103   3.317   7.015  0.1656 -0.3121 -0.2682
 5263SOL    HW127251   2.169   3.345   7.077  0.5272  0.1767 -0.8699
 5263SOL    HW227252   2.079   3.230   7.045 -0.5131  0.4703  1.4704
 5264SOL     OW27253   1.020   0.316   5.269  0.3586  0.2142 -0.3312
 5264SOL    HW127254   0.946   0.263   5.238  0.2376 -0.0883  0.4808
 5264SOL    HW227255   0.980   0.361   5.343  1.2692 -1.1360  0.9815
 5265SOL     OW27256   0.216   1.391   5.581  0.4586 -0.6440  0.4771
 5265SOL    HW127257   0.255   1.304   5.581  0.8652 -0.4422  3.3349
 5265SOL    HW227258   0.134   1.362   5.619 -0.0655 -0.8195 -0.7967
 5266SOL     OW27259   1.700   0.228   2.400 -0.0036 -0.0130  0.2946
 5266SOL    HW127260   1.776   0.182   2.363  0.6135  1.1053  0.1533
 5266SOL    HW227261   1.692   0.177   2.480 -1.1689 -1.2207 -0.5853
 5267SOL     OW27262   1.882   3.608  16.630 -0.1594 -0.7495 -0.0891
 5267SOL    HW127263   1.853   3.691  16.593 -1.6259 -0.7601  1.0289
 5267SOL    HW227264   1.905   3.555  16.554 -1.1482 -0.3414 -0.6628
 5268SOL     OW27265   3.943   0.556   6.931 -0.0364 -0.4304 -0.4762
 5268SOL    HW127266   3.867   0.608   6.958 -0.0967 -0.3023 -0.8842
 5268SOL    HW227267   3.984   0.602   6.858  1.5658 -2.5452 -0.9134
 5269SOL     OW27268   1.597   1.005   4.946 -0.2566 -0.1185 -0.5022
 5269SOL    HW127269   1.587   1.062   4.870  1.8868 -0.4263 -1.0351
 5269SOL    HW227270   1.569   0.923   4.906  0.4940 -1.6564  2.1355
 5270SOL     OW27271   2.194   1.626   7.193  0.5791 -0.3986  0.5869
 5270SOL    HW127272   2.239   1.700   7.234  1.8846 -2.6259  3.2350
 5270SOL    HW227273   2.107   1.663   7.181  0.6854 -0.9029 -1.6952
 5271SOL     OW27274   0.366   1.511   2.404 -0.1220 -0.4821  0.2029
 5271SOL    HW127275   0.386   1.447   2.336  0.3569  0.2220 -0.3318
 5271SOL    HW227276   0.278   1.498   2.437  0.1973 -0.8347  0.9115
 5272SOL     OW27277   3.896   2.752  13.104 -0.8973  0.3570  0.2111
 5272SOL    HW127278   3.933   2.664  13.106  1.9836  1.5670 -1.1040
 5272SOL    HW227279   3.949   2.792  13.036  0.0374 -1.5595 -0.1910
 5273SOL     OW27280   0.941   3.885   5.102  0.0134 -0.1921 -0.4616
 5273SOL    HW127281   0.951   3.864   5.009 -0.7257 -2.9190  0.0654
 5273SOL    HW227282   0.937   3.980   5.096  0.4634 -0.1458 -0.0556
 5274SOL     OW27283   2.115   1.592   7.955 -0.1163 -0.2456  0.0271
 5274SOL    HW127284   2.107   1.658   7.886  1.7858  0.3182  0.3285
 5274SOL    HW227285   2.201   1.614   7.991 -0.7149  2.8864 -0.4422
 5275SOL     OW27286   3.796   0.454   2.388  0.3843  0.1802  0.1763
 5275SOL    HW127287   3.753   0.369   2.379  3.1925 -1.2727  0.5011
 5275SOL    HW227288   3.758   0.497   2.311 -1.5210  1.6982  1.9512
 5276SOL     OW27289   3.586   0.953  13.012 -0.5772  0.2105 -0.1534
 5276SOL    HW127290   3.585   0.959  13.108 -2.0594  0.2910 -0.1629
 5276SOL    HW227291   3.609   1.044  12.991  0.2276 -0.0530 -0.3778
 5277SOL     OW27292   2.922   1.561   2.474  0.2720 -0.5488 -0.2269
 5277SOL    HW127293   2.880   1.476   2.485 -0.5849  0.1357  1.8208
 5277SOL    HW227294   3.012   1.538   2.495 -0.5057 -1.8893  1.6296
 5278SOL     OW27295   1.607   2.705   3.146 -0.1138 -0.8008  0.2273
 5278SOL    HW127296   1.653   2.672   3.068 -0.1087 -0.6721  0.1761
 5278SOL    HW227297   1.567   2.620   3.168 -2.2384  0.4653  1.2498
 5279SOL     OW27298   0.376   3.431   4.770  0.2159 -0.1417 -0.0259
 5279SOL    HW127299   0.451   3.486   4.749 -0.6424 -0.4937 -4.0753
 5279SOL    HW227300   0.382   3.355   4.711  4.5341  1.3987 -1.5678
 5280SOL     OW27301   2.144   2.518   8.282 -0.2668 -0.2740  0.1980
 5280SOL    HW127302   2.117   2.488   8.369  2.9809  1.2937  1.7753
 5280SOL    HW227303   2.202   2.446   8.257 -0.8941  1.0547 -5.0889
 5281SOL     OW27304   0.656   2.843  15.144 -0.2299 -0.0782  0.0892
 5281SOL    HW127305   0.675   2.876  15.232  1.3237  0.7088 -0.5436
 5281SOL    HW227306   0.729   2.871  15.089 -1.2103 -1.1765 -1.7528
 5282SOL     OW27307   4.269   0.791   1.919  0.3572  0.3851 -0.1782
 5282SOL    HW127308   4.226   0.731   1.979  0.7036  1.7156  1.4186
 5282SOL    HW227309   4.199   0.846   1.884  1.9570  2.2431 -0.4720
 5283SOL     OW27310   1.959   2.900   0.858 -0.1680  0.0378  0.4746
 5283SOL    HW127311   1.968   2.996   0.862  0.9719 -0.0938  0.9584
 5283SOL    HW227312   1.948   2.884   0.951 -1.0120  1.1329  0.5601
 5284SOL     OW27313   2.252   3.061   7.469  0.0013 -0.6153  0.0063
 5284SOL    HW127314   2.313   3.004   7.517  0.5798 -0.7819 -0.9320
 5284SOL    HW227315   2.170   3.012   7.461 -0.8860  0.8653  0.1256
 5285SOL     OW27316   0.823   1.179  14.991  0.9037 -0.2422 -0.5758
 5285SOL    HW127317   0.812   1.135  14.906 -1.9736 -1.0476  0.2045
 5285SOL    HW227318   0.815   1.104  15.050 -1.0693  2.0542  2.0445
 5286SOL     OW27319   1.048   3.712   2.205  0.2066 -0.1350  0.2755
 5286SOL    HW127320   1.089   3.762   2.134 -2.0278 -1.7920 -2.1747
 5286SOL    HW227321   1.046   3.773   2.279 -0.4132  0.3503 -0.1396
 5287SOL     OW27322   2.716   1.238  16.175 -0.1494 -0.2844 -0.0290
 5287SOL    HW127323   2.745   1.218  16.086  0.1186  0.6805 -0.1586
 5287SOL    HW227324   2.656   1.169  16.203 -0.4695 -0.0432 -0.1179
 5288SOL     OW27325   2.064   2.767   8.998  0.3997  0.1747  0.3295
 5288SOL    HW127326   2.088   2.835   9.061 -1.3323  2.4567 -1.4831
 5288SOL    HW227327   1.969   2.769   9.010  0.2648  1.9463 -1.1959
 5289SOL     OW27328   4.642   0.365  11.164 -0.6470 -0.3156 -0.3101
 5289SOL    HW127329   4.638   0.458  11.143  0.5328 -0.2317 -0.1747
 5289SOL    HW227330   4.725   0.368  11.213 -0.4359 -1.6587 -0.5893
 5290SOL     OW27331   3.572   4.255   0.755  0.5898 -0.3759 -0.1002
 5290SOL    HW127332   3.543   4.265   0.664 -1.7889 -0.9822  0.5948
 5290SOL    HW227333   3.611   4.168   0.760 -2.0674 -1.6583 -1.5222
 5291SOL     OW27334   4.565   3.607   8.948 -0.7740 -0.3677 -0.2060
 5291SOL    HW127335   4.591   3.623   9.039  0.4295 -2.3332 -0.2086
 5291SOL    HW227336   4.618   3.678   8.911 -0.8940  0.7285  1.7355
 5292SOL     OW27337   2.923   2.090   8.717  0.3347  0.8500 -0.0765
 5292SOL    HW127338   2.888   2.077   8.805  0.7427  1.2587  0.1400
 5292SOL    HW227339   3.006   2.043   8.712 -0.4242 -0.5153 -0.0531
 5293SOL     OW27340   0.812   2.299  15.326 -0.0275  0.2856 -0.7093
 5293SOL    HW127341   0.876   2.335  15.264 -0.0680  2.0922  0.3019
 5293SOL    HW227342   0.734   2.332  15.281  0.5374  0.6264 -1.4397
 5294SOL     OW27343   1.945   1.628  13.679 -0.6235  0.2969 -0.2107
 5294SOL    HW127344   1.955   1.544  13.724  0.8514 -0.3107 -1.6396
 5294SOL    HW227345   1.852   1.628  13.656 -0.4308  0.2225 -1.0018
 5295SOL     OW27346   1.631   0.405   8.367  0.0104 -0.1762  0.3546
 5295SOL    HW127347   1.615   0.311   8.363 -0.5166 -0.0937  0.5129
 5295SOL    HW227348   1.723   0.402   8.340 -0.6326  0.7808 -1.9242
 5296SOL     OW27349   3.384   0.962  12.172  0.4959 -0.2779 -0.4039
 5296SOL    HW127350   3.473   0.930  12.187 -0.1370 -1.3015  1.2263
 5296SOL    HW227351   3.341   0.885  12.135 -0.5601 -0.6227  1.5483
 5297SOL     OW27352   0.611   1.090   8.978 -0.1681  0.4052  0.0396
 5297SOL    HW127353   0.577   1.176   8.952  0.2967  0.9704  1.3200
 5297SOL    HW227354   0.695   1.118   9.013 -0.3760  0.2819  0.6379
 5298SOL     OW27355   0.990   1.633  16.482  0.4885 -0.0568  0.4898
 5298SOL    HW127356   1.009   1.573  16.554  0.1871 -1.1030 -0.3093
 5298SOL    HW227357   0.906   1.668  16.512  0.9329  2.9059 -1.7667
 5299SOL     OW27358   1.383   2.925   9.297 -0.5464  0.2221  0.1603
 5299SOL    HW127359   1.449   2.986   9.262 -0.9605  0.2161 -0.6381
 5299SOL    HW227360   1.375   2.881   9.213 -0.6461 -0.7305  0.6758
 5300SOL     OW27361   1.493   0.212   8.804 -0.7091  0.2180  0.4370
 5300SOL    HW127362   1.430   0.266   8.756  1.2178  0.4698 -1.7910
 5300SOL    HW227363   1.537   0.273   8.863  1.1326 -0.5986 -0.0883
 5301SOL     OW27364   4.590   3.525   0.991 -0.3119  0.2430  0.3241
 5301SOL    HW127365   4.530   3.477   1.049 -0.4913  2.5020  2.0489
 5301SOL    HW227366   4.533   3.596   0.961 -1.1766 -1.3796 -1.7893
 5302SOL     OW27367   3.567   0.522   0.369 -0.1497 -0.3363 -0.2040
 5302SOL    HW127368   3.588   0.528   0.275  1.8268  2.3940  0.3941
 5302SOL    HW227369   3.542   0.610   0.398  2.0143 -0.1771  1.1955
 5303SOL     OW27370   1.748   4.648   8.514  0.7213 -0.2659 -0.1970
 5303SOL    HW127371   1.788   0.003   8.547 -1.0019  1.0769 -1.4032
 5303SOL    HW227372   1.695   4.615   8.587  1.3252  2.5538  1.5031
 5304SOL     OW27373   0.811   3.131   6.614 -0.5208  0.0798 -0.4333
 5304SOL    HW127374   0.765   3.143   6.531  1.1109  1.1167 -1.1801
 5304SOL    HW227375   0.902   3.113   6.590 -0.8095 -0.1724 -1.3310
 5305SOL     OW27376   3.191   1.042   0.905  0.3284 -0.2954  0.2205
 5305SOL    HW127377   3.253   1.027   0.977 -0.1922  1.4239  1.0256
 5305SOL    HW227378   3.110   1.042   0.956  0.3831 -3.0531  0.3472
 5306SOL     OW27379   3.259   4.250   5.116 -0.5131  0.0708 -0.8490
 5306SOL    HW127380   3.197   4.316   5.085 -0.4388  0.3757 -0.3418
 5306SOL    HW227381   3.288   4.197   5.041 -0.5995 -0.2423 -0.6647
 5307SOL     OW27382   2.659   1.443   2.718 -0.3841 -0.3348  0.3944
 5307SOL    HW127383   2.689   1.407   2.634 -1.3307  2.2245 -1.0525
 5307SOL    HW227384   2.736   1.416   2.768  0.3891  2.3382  0.6476
 5308SOL     OW27385   3.609   4.268   1.985 -0.0713  0.4089  0.2477
 5308SOL    HW127386   3.672   4.247   1.917 -0.5650 -0.7596  0.1499
 5308SOL    HW227387   3.662   4.283   2.063 -0.1158 -0.0931  0.3703
 5309SOL     OW27388   4.684   0.934   7.046 -0.2361  0.3424  0.0489
 5309SOL    HW127389   4.608   0.943   6.988 -0.3192  0.8052  0.2298
 5309SOL    HW227390   4.724   0.856   7.008  1.1094 -0.9072  4.0235
 5310SOL     OW27391   1.396   2.140   4.942 -0.3141  0.6405  0.0782
 5310SOL    HW127392   1.396   2.063   4.999  1.1646  0.1239 -0.6371
 5310SOL    HW227393   1.444   2.205   4.993  0.9954 -0.0303 -0.3009
 5311SOL     OW27394   4.574   0.062  17.596 -0.0382  0.4107  0.5163
 5311SOL    HW127395   4.565   0.057  17.691 -2.2695 -1.2399  0.2028
 5311SOL    HW227396   4.670   0.071  17.595 -0.1676  1.4418 -3.1033
 5312SOL     OW27397   0.775   1.148   2.591 -0.4286  0.3810 -0.0009
 5312SOL    HW127398   0.796   1.233   2.631  0.3517  1.4960 -2.7824
 5312SOL    HW227399   0.693   1.159   2.542  0.2047 -0.4801 -1.2426
 5313SOL     OW27400   1.224   2.914   8.381 -0.0544 -0.0795 -0.3187
 5313SOL    HW127401   1.186   2.838   8.337  0.2252 -0.1564 -0.4278
 5313SOL    HW227402   1.174   2.981   8.335 -2.1091 -1.0892  0.4632
 5314SOL     OW27403   1.995   4.009   0.351 -0.5909  0.3973  0.0712
 5314SOL    HW127404   1.986   3.964   0.267 -1.4104  0.1285  0.3016
 5314SOL    HW227405   1.920   3.971   0.397 -0.9135  2.0794  0.9137
 5315SOL     OW27406   0.350   1.701   5.082 -0.4598 -0.5029 -0.9828
 5315SOL    HW127407   0.370   1.794   5.088 -1.1105 -0.3150 -1.7398
 5315SOL    HW227408   0.323   1.682   5.172 -1.2998  3.5393 -0.3998
 5316SOL     OW27409   0.092   1.674   6.715 -0.1702 -0.2458 -0.3347
 5316SOL    HW127410   0.054   1.616   6.649  2.5819 -0.4588 -1.6972
 5316SOL    HW227411   0.029   1.745   6.707 -1.5703 -1.4750 -0.4065
 5317SOL     OW27412   3.700   2.696   0.345 -0.1615  0.2536  0.5513
 5317SOL    HW127413   3.692   2.640   0.268  1.9128  0.0858  0.4793
 5317SOL    HW227414   3.681   2.783   0.309 -1.8073  0.2294  1.3396
 5318SOL     OW27415   0.757   2.732   1.621  0.3695 -0.2530  0.4241
 5318SOL    HW127416   0.817   2.711   1.550  0.3003  1.9807 -0.2901
 5318SOL    HW227417   0.730   2.646   1.653  1.3258 -0.9983 -0.7722
 5319SOL     OW27418   0.802   1.204   7.339 -0.1287 -0.2452  0.6264
 5319SOL    HW127419   0.791   1.185   7.246  0.8620  0.3306  0.3886
 5319SOL    HW227420   0.714   1.209   7.377  0.2352  1.6440  1.2175
 5320SOL     OW27421   2.448   1.994   6.438 -0.3447  0.1695  0.3648
 5320SOL    HW127422   2.407   1.933   6.500  0.9412  1.4618  2.4588
 5320SOL    HW227423   2.523   2.020   6.491 -0.5053 -1.4081  1.3806
 5321SOL     OW27424   1.358   2.888   0.106 -0.2456  0.0931  0.2550
 5321SOL    HW127425   1.362   2.966   0.050 -2.0983 -1.5409 -2.1367
 5321SOL    HW227426   1.313   2.822   0.054  0.0560 -0.6603  0.9598
 5322SOL     OW27427   1.418   4.050  13.380  0.5607  0.3394 -0.2692
 5322SOL    HW127428   1.479   3.983  13.411  1.6472  1.7958  0.7693
 5322SOL    HW227429   1.429   4.112  13.452  1.0106  0.1258 -0.1576
 5323SOL     OW27430   0.635   0.706  14.965  0.1153 -0.1926  0.2785
 5323SOL    HW127431   0.640   0.719  14.870 -1.2011 -1.3118  0.0655
 5323SOL    HW227432   0.557   0.654  14.983 -1.0735  1.6049  0.2930
 5324SOL     OW27433   4.209   2.041   9.796  0.2207 -0.2274 -0.2158
 5324SOL    HW127434   4.291   2.034   9.844  0.1118 -1.9342 -0.2749
 5324SOL    HW227435   4.147   2.064   9.865 -2.3192 -0.5078 -2.4012
 5325SOL     OW27436   3.489   4.313  10.569  0.0632  1.0310  0.0837
 5325SOL    HW127437   3.542   4.392  10.575  1.1184  0.3996 -0.9184
 5325SOL    HW227438   3.431   4.326  10.644  2.9775  1.0406  2.3627
 5326SOL     OW27439   1.763   1.481   5.496 -0.5293  0.2114  0.1503
 5326SOL    HW127440   1.819   1.554   5.523  1.7371 -0.8389 -1.6656
 5326SOL    HW227441   1.701   1.521   5.435  0.3199  1.6323  0.2077
 5327SOL     OW27442   4.598   2.720   1.070 -0.1711  0.1357  0.5672
 5327SOL    HW127443   4.608   2.631   1.106  1.6597  0.4901  0.9639
 5327SOL    HW227444   4.590   2.698   0.977 -0.5220  2.3132  0.0961
 5328SOL     OW27445   3.320   3.773  12.401  0.8693 -0.2663  0.0014
 5328SOL    HW127446   3.397   3.770  12.345  1.3191 -1.6615  0.7116
 5328SOL    HW227447   3.343   3.841  12.464 -0.4605 -2.8004  3.1658
 5329SOL     OW27448   1.766   3.058  17.101 -0.3756 -0.1254 -0.4927
 5329SOL    HW127449   1.749   3.151  17.090  0.2669  0.0358 -0.1476
 5329SOL    HW227450   1.753   3.043  17.008 -0.1620 -0.3228 -0.4920
 5330SOL     OW27451   0.828   0.671   2.124  0.0979 -1.3233 -0.0799
 5330SOL    HW127452   0.736   0.696   2.119 -0.0169 -1.9879 -1.2838
 5330SOL    HW227453   0.857   0.729   2.194  0.2596 -1.5346  0.0271
 5331SOL     OW27454   2.144   0.528   3.542 -0.3474  0.2698 -0.4441
 5331SOL    HW127455   2.186   0.534   3.456  0.9014  1.4486  0.2432
 5331SOL    HW227456   2.097   0.611   3.542 -3.2254 -1.3958  2.8474
 5332SOL     OW27457   0.270   4.204   2.684 -0.3374  0.3199  0.1459
 5332SOL    HW127458   0.273   4.297   2.660 -1.9632  0.4261  0.3678
 5332SOL    HW227459   0.340   4.180   2.745 -0.3588  1.0409  0.4552
 5333SOL     OW27460   4.716   3.027   8.929 -0.0162  0.2853  0.1316
 5333SOL    HW127461   0.037   2.944   8.912 -2.0156 -0.9820  0.8717
 5333SOL    HW227462   0.041   3.055   9.006 -0.1775  1.2664 -0.1245
 5334SOL     OW27463   2.306   3.865   8.452  0.7858  0.6223  0.2072
 5334SOL    HW127464   2.391   3.868   8.496  1.4466 -0.1879 -1.0192
 5334SOL    HW227465   2.296   3.958   8.434 -0.0794  0.5201  0.1775
 5335SOL     OW27466   0.027   3.206   5.585 -0.3104 -0.5395  0.1059
 5335SOL    HW127467   4.692   3.180   5.516  0.3127  1.0286 -1.0231
 5335SOL    HW227468   4.704   3.271   5.636 -2.6643 -1.6484 -0.6940
 5336SOL     OW27469   1.921   2.059   5.200 -0.2381 -0.9812 -0.0377
 5336SOL    HW127470   1.962   2.134   5.157 -0.5798 -0.6086  0.2862
 5336SOL    HW227471   1.915   2.092   5.290 -0.4721 -1.2021  0.0255
 5337SOL     OW27472   3.122   1.364  10.648 -0.7636  0.0486 -0.5604
 5337SOL    HW127473   3.161   1.301  10.587 -2.3710 -1.1508 -0.3747
 5337SOL    HW227474   3.162   1.343  10.732 -0.0740  1.8479 -0.4291
 5338SOL     OW27475   2.855   0.044   3.109 -0.2193  0.2555  0.3023
 5338SOL    HW127476   2.851   4.719   3.191  2.7195 -1.9901 -0.9322
 5338SOL    HW227477   2.773   0.019   3.065  0.4161 -0.2258 -0.5906
 5339SOL     OW27478   3.936   0.103   3.439 -0.4429  0.3229  0.0528
 5339SOL    HW127479   3.843   0.126   3.430 -0.4065  0.9318  1.2768
 5339SOL    HW227480   3.953   0.149   3.521 -2.3349 -1.6032  1.5274
 5340SOL     OW27481   0.283   4.129   4.033 -0.0363  0.1028 -0.2648
 5340SOL    HW127482   0.302   4.185   3.958 -2.8696  0.9282 -0.3748
 5340SOL    HW227483   0.249   4.042   4.012 -0.2288  0.3240 -0.8635
 5341SOL     OW27484   0.784   3.245   2.404  0.0106 -0.2063  0.0355
 5341SOL    HW127485   0.733   3.223   2.483  1.6083 -1.2920  0.7630
 5341SOL    HW227486   0.876   3.230   2.424 -0.0795 -0.2394  0.4335
 5342SOL     OW27487   4.400   0.967   9.752 -0.8769 -0.3840  0.3848
 5342SOL    HW127488   4.417   0.974   9.846 -4.5921 -0.4523  1.0674
 5342SOL    HW227489   4.332   1.034   9.741  2.0019  2.3783 -0.6369
 5343SOL     OW27490   2.580   0.127   7.665 -0.0683  0.4705  0.8234
 5343SOL    HW127491   2.522   0.174   7.605 -3.0120 -0.5515  2.8307
 5343SOL    HW227492   2.619   0.202   7.710  1.3156  0.3614 -0.2271
 5344SOL     OW27493   4.186   2.267   1.486 -0.4281  0.6333  0.2636
 5344SOL    HW127494   4.280   2.285   1.486 -0.2553 -0.2335  1.8784
 5344SOL    HW227495   4.172   2.173   1.475 -0.5603  0.9458 -2.0649
 5345SOL     OW27496   1.467   2.756   6.620  0.3040  0.1337 -0.6457
 5345SOL    HW127497   1.480   2.845   6.587 -0.4768  0.7811  0.7861
 5345SOL    HW227498   1.556   2.739   6.650  0.5360  1.4198 -0.6029
 5346SOL     OW27499   3.994   2.218  11.362 -0.3208 -0.1733 -0.4867
 5346SOL    HW127500   3.942   2.299  11.363  0.3752  0.2686 -0.0468
 5346SOL    HW227501   4.076   2.253  11.326 -0.0460  0.8222  1.1269
 5347SOL     OW27502   0.293   1.291  17.539  0.3928  0.2155 -0.3196
 5347SOL    HW127503   0.211   1.327  17.571  0.7291  0.3268  0.4258
 5347SOL    HW227504   0.267   1.287  17.447 -2.8299 -1.9188  0.6948
 5348SOL     OW27505   2.097   4.570   3.420 -0.8892  0.0659 -0.1664
 5348SOL    HW127506   2.173   4.530   3.460 -0.8034 -0.6126 -1.0008
 5348SOL    HW227507   2.104   4.550   3.326  0.2234 -0.4089  0.0232
 5349SOL     OW27508   1.301   4.150   8.124  0.1986  0.3115 -0.3106
 5349SOL    HW127509   1.235   4.095   8.166 -0.8116  1.3235 -0.5812
 5349SOL    HW227510   1.253   4.177   8.046 -2.1031  2.9635  2.0094
 5350SOL     OW27511   2.692   3.485   4.195 -0.1280  0.0120  0.0925
 5350SOL    HW127512   2.656   3.478   4.106  0.6010 -0.0342 -0.2019
 5350SOL    HW227513   2.718   3.577   4.191 -1.8043  0.4802 -0.0766
 5351SOL     OW27514   4.608   2.944   7.397 -0.0202  0.3342  0.4895
 5351SOL    HW127515   4.548   2.977   7.464 -0.8182  0.4029 -0.2602
 5351SOL    HW227516   4.560   2.970   7.319  1.9572 -0.3647 -0.9727
 5352SOL     OW27517   0.392   2.196  10.655 -0.6029  1.0040 -0.1399
 5352SOL    HW127518   0.396   2.126  10.589  1.8281  1.1495 -0.1534
 5352SOL    HW227519   0.484   2.192  10.682  0.0027 -2.4152 -2.6773
 5353SOL     OW27520   1.363   1.766   8.485  0.1858 -0.5160  0.2091
 5353SOL    HW127521   1.397   1.681   8.512 -0.4091 -1.5772 -2.4586
 5353SOL    HW227522   1.365   1.810   8.571  1.4611  0.0641 -0.1168
 5354SOL     OW27523   3.609   0.775   2.398 -0.0726  0.1250  0.0826
 5354SOL    HW127524   3.566   0.723   2.465  1.1133 -3.3633 -1.8389
 5354SOL    HW227525   3.537   0.838   2.394 -0.3531 -0.2014 -0.0163
 5355SOL     OW27526   2.703   2.327   5.063 -0.3513 -0.5476 -0.1817
 5355SOL    HW127527   2.706   2.401   5.002  1.1978 -0.1270  0.4011
 5355SOL    HW227528   2.617   2.339   5.105  0.3678  1.0220  0.8595
 5356SOL     OW27529   2.180   1.320   4.226 -0.0996  0.0916 -0.2304
 5356SOL    HW127530   2.217   1.369   4.152 -1.4336  2.0054  0.3749
 5356SOL    HW227531   2.255   1.319   4.285  0.9486 -2.8857 -1.6481
 5357SOL     OW27532   3.102   2.786   7.340  0.2355  0.1877 -0.2019
 5357SOL    HW127533   3.028   2.831   7.300 -0.0849 -0.6063 -0.5077
 5357SOL    HW227534   3.066   2.698   7.328 -0.6169  0.8747 -2.5623
 5358SOL     OW27535   1.757   2.724   6.639  0.1437 -0.3422 -0.6645
 5358SOL    HW127536   1.809   2.771   6.574  0.8006 -0.6040 -0.3300
 5358SOL    HW227537   1.775   2.633   6.613  1.2549 -0.3369  0.0741
 5359SOL     OW27538   2.834   0.656   4.785  0.2239  0.2258  0.2595
 5359SOL    HW127539   2.846   0.701   4.701 -2.2027 -1.0883 -0.7821
 5359SOL    HW227540   2.800   0.572   4.754 -0.5333  1.0917 -1.2658
 5360SOL     OW27541   3.736   3.425   7.588 -0.2341 -0.2087  0.7947
 5360SOL    HW127542   3.803   3.481   7.626 -1.5221  2.0348 -0.2245
 5360SOL    HW227543   3.739   3.344   7.639 -0.6247 -0.5982  0.2031
 5361SOL     OW27544   3.725   1.471   8.310  0.2597 -0.5981 -0.1552
 5361SOL    HW127545   3.811   1.444   8.279 -0.3067 -2.8919  0.2715
 5361SOL    HW227546   3.679   1.389   8.328  0.0784 -0.8290 -1.6072
 5362SOL     OW27547   0.639   2.176   2.405 -0.7591 -0.2195  0.7907
 5362SOL    HW127548   0.616   2.120   2.331  0.2450 -0.2896  0.5263
 5362SOL    HW227549   0.591   2.255   2.382  0.5383  0.7961  1.5299
 5363SOL     OW27550   3.494   3.001   7.259 -0.0417  0.2663  0.1752
 5363SOL    HW127551   3.548   2.922   7.253  1.0222  0.9179  1.2334
 5363SOL    HW227552   3.420   2.973   7.205 -0.6202  1.5126  0.3370
 5364SOL     OW27553   0.578   2.766   4.660 -0.4643  0.2348 -0.0182
 5364SOL    HW127554   0.536   2.852   4.665 -1.5753 -0.4868  3.2247
 5364SOL    HW227555   0.567   2.731   4.748  0.4788  0.8712  0.3489
 5365SOL     OW27556   0.571   1.071   4.093 -0.3595 -0.4987 -0.0153
 5365SOL    HW127557   0.654   1.098   4.054 -1.0386  0.1600 -1.0006
 5365SOL    HW227558   0.567   0.981   4.062 -2.3679  0.2789 -1.9533
 5366SOL     OW27559   2.230   2.268   4.925 -0.3823 -0.2963 -0.6261
 5366SOL    HW127560   2.185   2.336   4.876 -1.1954  0.7593  1.6040
 5366SOL    HW227561   2.312   2.255   4.876 -0.1446 -1.9741  0.2190
 5367SOL     OW27562   3.102   2.472   3.642 -0.1688 -0.5053  0.0496
 5367SOL    HW127563   3.053   2.417   3.703 -0.9498 -0.1528 -0.2555
 5367SOL    HW227564   3.033   2.522   3.596 -0.1989 -0.0952  0.5463
 5368SOL     OW27565   2.064   3.356  14.639  0.3781  0.2660 -0.3221
 5368SOL    HW127566   2.150   3.315  14.642  0.5523  0.4315 -2.7348
 5368SOL    HW227567   2.050   3.390  14.550  0.1253  0.6269 -0.1448
 5369SOL     OW27568   1.795   4.272   0.128  0.4861  0.8643 -0.7026
 5369SOL    HW127569   1.858   4.274   0.056  0.7658  2.0195 -0.4275
 5369SOL    HW227570   1.746   4.191   0.114  2.0983 -0.4873  1.3756
 5370SOL     OW27571   0.840   1.555   9.423 -0.4240 -0.3358 -0.1271
 5370SOL    HW127572   0.817   1.645   9.446  1.0467 -0.5326  2.0776
 5370SOL    HW227573   0.755   1.519   9.400 -0.1377 -0.2962 -1.2531
 5371SOL     OW27574   4.466   1.487   3.817 -0.4383 -0.2170 -0.6747
 5371SOL    HW127575   4.397   1.446   3.765  0.0277 -1.4839 -0.2883
 5371SOL    HW227576   4.551   1.460   3.781  0.5415  2.6176 -0.4888
 5372SOL     OW27577   4.025   1.893  11.886 -0.5401  0.2866 -0.6779
 5372SOL    HW127578   3.978   1.809  11.881 -0.2157  0.1393 -1.2957
 5372SOL    HW227579   3.990   1.933  11.807  0.3281  0.9232 -0.7357
 5373SOL     OW27580   3.981   0.488  17.568  0.2172 -0.1314 -0.4769
 5373SOL    HW127581   4.023   0.412  17.529 -0.7813 -0.8988 -0.0457
 5373SOL    HW227582   4.035   0.559  17.532  2.0467 -1.1241  0.3003
 5374SOL     OW27583   1.101   2.564   7.891 -0.0082  0.3059 -0.2216
 5374SOL    HW127584   1.126   2.621   7.818  0.7955  0.3313  0.0759
 5374SOL    HW227585   1.168   2.496   7.894 -0.3799 -0.0027  1.4199
 5375SOL     OW27586   2.985   1.278   4.397  0.0318  0.9086  0.4095
 5375SOL    HW127587   2.914   1.260   4.335  0.5761 -0.6526  0.2381
 5375SOL    HW227588   2.962   1.219   4.468  0.9047 -0.1733 -0.2074
 5376SOL     OW27589   3.421   0.920   4.394 -0.1515 -0.1471  0.1021
 5376SOL    HW127590   3.492   0.900   4.333 -0.2793 -1.1188  0.2762
 5376SOL    HW227591   3.351   0.856   4.381 -0.4894 -0.3027  2.5881
 5377SOL     OW27592   2.549   1.592   9.653  0.9492  0.1431  0.0379
 5377SOL    HW127593   2.526   1.536   9.727 -1.4946 -0.7914 -1.4317
 5377SOL    HW227594   2.580   1.674   9.692  1.3343 -1.5397  3.2717
 5378SOL     OW27595   0.647   0.807  15.365 -0.0997  0.0902  0.0347
 5378SOL    HW127596   0.694   0.786  15.446  0.1865  1.2222  0.1614
 5378SOL    HW227597   0.585   0.871  15.399 -1.0750 -1.6112  1.4565
 5379SOL     OW27598   3.543   2.383  14.922 -0.3839  0.0108  0.2000
 5379SOL    HW127599   3.490   2.458  14.894  1.0310  0.8432 -0.2305
 5379SOL    HW227600   3.511   2.316  14.862 -1.0996 -0.1487  0.7614
 5380SOL     OW27601   2.082   1.108   3.576  0.6897  0.2398  0.3946
 5380SOL    HW127602   2.047   1.150   3.654  0.2425  3.3519 -1.4674
 5380SOL    HW227603   2.176   1.124   3.578  0.0785  3.2633  4.9938
 5381SOL     OW27604   0.807   1.904   8.726  0.7242 -0.0531  0.2616
 5381SOL    HW127605   0.805   1.905   8.822  1.1261 -1.5672  0.2825
 5381SOL    HW227606   0.714   1.904   8.702  0.4169  0.3931  1.4426
 5382SOL     OW27607   1.751   3.338   4.968  0.0013  0.5796  0.0309
 5382SOL    HW127608   1.664   3.341   4.928 -0.1072 -0.5995  0.1918
 5382SOL    HW227609   1.764   3.244   4.974 -0.0441  0.5231 -0.7481
 5383SOL     OW27610   3.116   4.040   2.114  0.1138  0.3248  0.6953
 5383SOL    HW127611   3.103   4.003   2.026 -1.5274  0.5522  0.8435
 5383SOL    HW227612   3.027   4.064   2.139  0.3432  0.2129  1.6047
 5384SOL     OW27613   0.710   1.024   6.700  0.4507 -0.4020  0.2568
 5384SOL    HW127614   0.708   1.013   6.795 -1.4498 -1.0656  0.1334
 5384SOL    HW227615   0.755   0.943   6.677 -2.6727 -2.0441 -0.0014
 5385SOL     OW27616   1.203   3.550   4.074  0.1968 -0.2630 -0.0494
 5385SOL    HW127617   1.191   3.627   4.130  0.8505 -1.3052  1.5380
 5385SOL    HW227618   1.271   3.583   4.015 -1.3532 -0.5448 -1.9987
 5386SOL     OW27619   2.809   0.015  10.049  0.1812 -0.3275 -0.4624
 5386SOL    HW127620   2.735   0.072  10.069  0.3321 -0.1118 -0.5097
 5386SOL    HW227621   2.862   0.042  10.124  0.0801 -1.2365 -0.0658
 5387SOL     OW27622   0.433   0.695   1.025 -0.3675 -0.1304 -0.1851
 5387SOL    HW127623   0.407   0.778   1.065 -2.9233 -0.1953 -1.6876
 5387SOL    HW227624   0.467   0.654   1.105 -1.6372 -2.7304 -0.9748
 5388SOL     OW27625   3.621   4.585   4.591 -0.1004 -0.5489 -0.0921
 5388SOL    HW127626   3.694   4.604   4.532 -1.1189 -0.7538 -1.3951
 5388SOL    HW227627   3.612   4.490   4.585 -0.0761 -0.5288 -0.4296
 5389SOL     OW27628   1.874   2.587   7.082  0.2332  0.3337 -0.1960
 5389SOL    HW127629   1.779   2.591   7.088  0.2318 -0.5705  0.3679
 5389SOL    HW227630   1.886   2.512   7.023  1.7160  0.9313 -0.6620
 5390SOL     OW27631   0.520   4.025   2.538  0.8145  0.0064 -0.2785
 5390SOL    HW127632   0.439   4.028   2.487 -0.5245 -2.7263  1.6948
 5390SOL    HW227633   0.565   4.101   2.502  0.1150  1.6016  2.1991
 5391SOL     OW27634   3.739   1.181  13.887 -0.0288  0.0522  0.3932
 5391SOL    HW127635   3.645   1.200  13.883  0.2102  1.3306  0.7854
 5391SOL    HW227636   3.765   1.204  13.977  0.0167 -0.6928  0.5702
 5392SOL     OW27637   1.555   4.668  11.688  0.5284  0.0897  0.0667
 5392SOL    HW127638   1.542   0.024  11.639  2.7315  0.0601 -0.5506
 5392SOL    HW227639   1.545   4.600  11.621  0.8472  0.0084  0.1040
 5393SOL     OW27640   4.169   3.226   5.704 -0.0350 -0.0854 -0.3120
 5393SOL    HW127641   4.176   3.320   5.716 -2.1575  0.4873 -3.6883
 5393SOL    HW227642   4.131   3.212   5.617 -1.1938  0.4373  0.1089
 5394SOL     OW27643   2.934   3.228   7.008 -0.2558 -0.7870  0.2123
 5394SOL    HW127644   2.964   3.195   6.923 -1.6599  0.2253 -0.6702
 5394SOL    HW227645   3.012   3.240   7.062 -0.7165  0.7796  0.5267
 5395SOL     OW27646   0.615   1.646   7.941 -0.2757  0.1685  0.3447
 5395SOL    HW127647   0.551   1.602   7.885 -0.4604 -0.8035  1.3188
 5395SOL    HW227648   0.654   1.572   7.987 -0.3392  0.6148  1.1141
 5396SOL     OW27649   0.232   1.484   8.900 -0.0753 -0.0488 -0.9399
 5396SOL    HW127650   0.142   1.454   8.885 -1.1102  1.7893  1.6496
 5396SOL    HW227651   0.227   1.572   8.864  1.8469 -0.8782 -3.2552
 5397SOL     OW27652   2.044   0.804   3.553  0.1574 -0.0564  0.0066
 5397SOL    HW127653   1.966   0.835   3.600  0.2034  2.9119 -1.8554
 5397SOL    HW227654   2.078   0.889   3.524  0.9307 -0.7112 -0.9814
 5398SOL     OW27655   0.779   2.335   3.768 -0.8097  0.0059  0.0301
 5398SOL    HW127656   0.741   2.261   3.816 -1.4820  0.3417  0.0192
 5398SOL    HW227657   0.832   2.368   3.841 -1.0068  1.7863 -0.6231
 5399SOL     OW27658   4.600   2.887  16.615  0.3715 -0.5946 -0.6864
 5399SOL    HW127659   4.543   2.956  16.581 -1.7141 -1.8624  0.3085
 5399SOL    HW227660   4.625   2.929  16.697  1.3145 -1.4820 -0.5113
 5400SOL     OW27661   2.940   0.180   8.216  0.0132 -0.4390 -0.5843
 5400SOL    HW127662   3.024   0.139   8.196 -0.9652 -1.5128 -2.5281
 5400SOL    HW227663   2.945   0.220   8.303  1.8893  1.2607 -1.4765
 5401SOL     OW27664   1.737   0.186  15.034  0.3818 -0.1124 -0.1374
 5401SOL    HW127665   1.742   0.096  15.067  2.1492  0.1353  0.2678
 5401SOL    HW227666   1.755   0.175  14.941  0.3304  0.3859 -0.2042
 5402SOL     OW27667   0.182   0.889  16.938 -0.4908 -0.4645 -0.3806
 5402SOL    HW127668   0.164   0.798  16.963 -1.9611 -0.0881 -0.0959
 5402SOL    HW227669   0.116   0.904  16.871 -1.3874 -1.8561  0.1964
 5403SOL     OW27670   1.828   3.300   5.791 -0.5329 -0.2968  0.0133
 5403SOL    HW127671   1.773   3.295   5.713  0.8351 -0.9179 -0.9117
 5403SOL    HW227672   1.910   3.319   5.746 -0.2425  0.4644  0.8579
 5404SOL     OW27673   1.181   2.296   5.978 -0.5849  0.0821  0.1814
 5404SOL    HW127674   1.178   2.358   5.905  1.1830  0.0259  0.0724
 5404SOL    HW227675   1.204   2.219   5.925 -2.1501  0.7728 -1.5033
 5405SOL     OW27676   0.974   0.008   9.156  0.4117 -0.0807 -0.7840
 5405SOL    HW127677   0.948   0.016   9.248  1.4735  1.5134 -0.6281
 5405SOL    HW227678   1.009   0.095   9.140  1.0235 -0.3447 -0.9144
 5406SOL     OW27679   2.159   1.014   5.626  0.1330  0.3690  0.2562
 5406SOL    HW127680   2.091   1.073   5.656  0.9153  1.9134 -1.0278
 5406SOL    HW227681   2.240   1.058   5.654 -0.5649  1.8930 -0.1453
 5407SOL     OW27682   3.400   4.083   5.605 -0.2480  0.0636 -0.0236
 5407SOL    HW127683   3.317   4.037   5.612 -0.2702  0.4185  2.1110
 5407SOL    HW227684   3.390   4.148   5.535  1.0445 -1.4747 -1.6351
 5408SOL     OW27685   2.531   3.856  16.348  0.0416 -0.2554  0.1998
 5408SOL    HW127686   2.608   3.826  16.299  2.7670  0.4957  4.0813
 5408SOL    HW227687   2.522   3.799  16.424 -1.8970  0.3068  0.3935
 5409SOL     OW27688   0.057   3.141   7.123  0.1248  0.3952  0.2085
 5409SOL    HW127689   0.095   3.054   7.113 -1.6221 -0.2347 -0.9600
 5409SOL    HW227690   0.136   3.191   7.104  0.2283 -1.3741 -3.8363
 5410SOL     OW27691   1.409   0.682   2.273 -0.0573  0.7944  0.2351
 5410SOL    HW127692   1.399   0.762   2.324 -2.8661 -0.2065  1.3003
 5410SOL    HW227693   1.451   0.624   2.336 -1.1016 -1.8949 -1.5459
 5411SOL     OW27694   3.315   4.553   6.759  0.5487 -0.4031  0.2184
 5411SOL    HW127695   3.220   4.559   6.744  0.5132 -2.0477 -0.2136
 5411SOL    HW227696   3.321   4.648   6.770  0.0356 -0.7408  3.4992
 5412SOL     OW27697   1.939   0.052   7.668  0.5513 -0.1015 -0.4315
 5412SOL    HW127698   1.889   0.065   7.748  0.4148  0.0352 -0.5397
 5412SOL    HW227699   1.885   0.093   7.601  0.5875 -0.4271 -0.6602
 5413SOL     OW27700   1.051   1.572  11.830 -0.2036 -0.1908 -0.6911
 5413SOL    HW127701   1.086   1.624  11.903  0.0607 -2.0477  0.5150
 5413SOL    HW227702   0.957   1.590  11.827 -0.1193  0.3416 -0.1623
 5414SOL     OW27703   2.688   0.754  12.972 -0.0725 -0.3844 -0.6307
 5414SOL    HW127704   2.715   0.839  12.936  2.6962 -0.7628  0.5351
 5414SOL    HW227705   2.629   0.746  12.897 -0.7451 -0.5969 -0.0723
 5415SOL     OW27706   2.025   4.531   5.560  0.0393  0.1756 -0.3191
 5415SOL    HW127707   1.943   4.533   5.511  1.0283  1.7072 -1.9157
 5415SOL    HW227708   2.075   4.482   5.495  2.3548  0.8683  0.9419
 5416SOL     OW27709   3.316   1.904   1.575 -0.2322  0.7611  0.5429
 5416SOL    HW127710   3.316   1.826   1.631 -2.2520 -0.0869 -0.6178
 5416SOL    HW227711   3.400   1.936   1.605 -0.7829  0.7920  2.0331
 5417SOL     OW27712   0.441   2.727   8.929 -0.0728  0.0623  0.0458
 5417SOL    HW127713   0.506   2.688   8.988 -0.3086 -0.2461  0.0980
 5417SOL    HW227714   0.500   2.794   8.894 -0.9924  0.6390 -0.3861
 5418SOL     OW27715   0.646   3.438  14.666 -0.7380 -0.2240 -0.2967
 5418SOL    HW127716   0.636   3.403  14.578 -0.2968 -0.7872 -0.1257
 5418SOL    HW227717   0.553   3.449  14.685 -0.4112  1.4303  0.3944
 5419SOL     OW27718   3.631   3.936   5.575 -0.0073  0.3159  0.1900
 5419SOL    HW127719   3.574   3.874   5.620  2.5151 -0.6090  2.0986
 5419SOL    HW227720   3.577   4.015   5.582  0.1222  0.5683 -1.6417
 5420SOL     OW27721   0.947   1.036   6.273  0.3326 -0.1508  0.2693
 5420SOL    HW127722   0.913   1.126   6.280  1.2251  0.2838 -0.9504
 5420SOL    HW227723   0.863   0.992   6.277  0.2704 -0.0640 -0.0479
 5421SOL     OW27724   3.672   3.951  13.267  0.1893 -0.2301  0.1594
 5421SOL    HW127725   3.604   3.954  13.335  1.3897 -0.2576  1.3570
 5421SOL    HW227726   3.652   4.037  13.230  0.8514 -0.3361 -0.4357
 5422SOL     OW27727   1.160   3.760   1.885 -0.2521 -0.0974 -0.1049
 5422SOL    HW127728   1.072   3.750   1.921 -0.4587  0.4489 -0.4609
 5422SOL    HW227729   1.162   3.682   1.829 -1.0184  0.4080 -0.8450
 5423SOL     OW27730   3.950   3.611   2.995 -0.2206  0.6867 -0.0149
 5423SOL    HW127731   3.886   3.663   3.042 -1.9337  0.1479 -1.7263
 5423SOL    HW227732   3.994   3.674   2.937 -2.3376  1.5218 -0.7121
 5424SOL     OW27733   2.453   3.663  17.515  0.3253 -0.1037  0.5964
 5424SOL    HW127734   2.530   3.673  17.570  1.3887 -0.4199 -0.8292
 5424SOL    HW227735   2.497   3.657  17.430  1.0734  0.0132  0.9760
 5425SOL     OW27736   1.713   3.511   2.387  0.2075 -0.4944 -0.0742
 5425SOL    HW127737   1.801   3.479   2.368  0.8510  1.5082 -0.4462
 5425SOL    HW227738   1.708   3.586   2.328  1.5575 -0.5345 -0.2168
 5426SOL     OW27739   4.136   4.525   2.450  0.2901 -0.4993 -0.0429
 5426SOL    HW127740   4.225   4.517   2.482 -0.3655  2.3009  2.4031
 5426SOL    HW227741   4.134   4.456   2.384 -1.6640  0.4220 -0.9556
 5427SOL     OW27742   4.112   1.221  11.734 -0.4835 -0.4146  0.1929
 5427SOL    HW127743   4.047   1.192  11.671 -1.7457  2.7251  0.0351
 5427SOL    HW227744   4.185   1.161  11.722  0.8713  1.0838  0.8600
 5428SOL     OW27745   2.161   4.022   3.551 -0.1463  0.5382  0.0218
 5428SOL    HW127746   2.156   3.938   3.505  2.2799  1.1249 -1.3201
 5428SOL    HW227747   2.246   4.011   3.594 -1.0453 -1.1683  1.3951
 5429SOL     OW27748   2.221   0.527  10.005 -0.1673  0.2161  0.1771
 5429SOL    HW127749   2.198   0.526   9.912  0.0897 -0.9920  0.1240
 5429SOL    HW227750   2.194   0.614  10.033 -0.6596  0.2871 -0.5282
 5430SOL     OW27751   2.345   3.958   9.904 -0.2197 -0.6542  0.8473
 5430SOL    HW127752   2.435   3.972   9.934  0.5626 -1.6187 -1.0090
 5430SOL    HW227753   2.315   3.900   9.973 -3.4794 -1.6763 -1.4040
 5431SOL     OW27754   1.123   0.527  11.052 -0.2583  0.0591  0.6646
 5431SOL    HW127755   1.104   0.447  11.003  1.2156 -0.4116  0.8825
 5431SOL    HW227756   1.172   0.482  11.120  1.8980  0.1325 -0.8532
 5432SOL     OW27757   3.975   2.505  13.090  0.2616  0.2235  0.1890
 5432SOL    HW127758   3.910   2.438  13.065  0.4624 -0.7799  2.3892
 5432SOL    HW227759   4.000   2.477  13.178 -4.4822 -0.2607  1.3887
 5433SOL     OW27760   1.896   1.913   1.799 -0.2081 -0.1940 -0.5237
 5433SOL    HW127761   1.946   1.864   1.864 -0.9842  1.6329  1.4701
 5433SOL    HW227762   1.892   1.846   1.731 -2.5035 -0.8075  0.2083
 5434SOL     OW27763   1.580   2.439  13.261 -0.2729 -0.2996 -0.0815
 5434SOL    HW127764   1.625   2.523  13.248  0.5088 -1.1870 -3.3544
 5434SOL    HW227765   1.605   2.413  13.349 -1.8417 -0.3575  0.3490
 5435SOL     OW27766   4.303   0.146   6.883 -0.0996 -0.0498 -0.1053
 5435SOL    HW127767   4.246   0.203   6.832  0.8723 -1.3409 -2.6691
 5435SOL    HW227768   4.234   0.086   6.910 -0.6918  1.9601  2.7579
 5436SOL     OW27769   0.999   0.441   1.627 -0.0135  0.0779  0.0451
 5436SOL    HW127770   0.913   0.405   1.605 -0.9575  0.6667  2.9039
 5436SOL    HW227771   1.049   0.363   1.650 -1.5882 -0.6379  0.9954
 5437SOL     OW27772   2.363   2.703   2.835  0.0667  0.0728  0.4279
 5437SOL    HW127773   2.405   2.726   2.918 -1.3264  2.8690  0.3483
 5437SOL    HW227774   2.337   2.792   2.813  0.0131 -0.3121 -1.0083
 5438SOL     OW27775   1.749   4.029  16.655  0.4728  0.1704 -0.3846
 5438SOL    HW127776   1.673   4.077  16.623  0.1413  0.1750  0.3880
 5438SOL    HW227777   1.816   4.094  16.677 -0.4608  0.4951  1.5676
 5439SOL     OW27778   0.456   3.380  13.372 -0.0370 -0.1747 -0.0906
 5439SOL    HW127779   0.422   3.303  13.327 -2.3927  0.8352  0.0179
 5439SOL    HW227780   0.551   3.373  13.358  0.0889  1.0519  0.1636
 5440SOL     OW27781   2.137   1.568   5.692  0.2458  0.5464  0.5096
 5440SOL    HW127782   2.229   1.571   5.720  0.4924 -1.1750 -0.1609
 5440SOL    HW227783   2.134   1.654   5.649 -0.5940  1.0950  1.6586
 5441SOL     OW27784   0.841   2.150   2.570  0.0386  0.1233 -0.2304
 5441SOL    HW127785   0.832   2.239   2.604 -1.7177 -0.9567  2.1261
 5441SOL    HW227786   0.763   2.150   2.515 -0.0444 -1.4130 -0.1081
 5442SOL     OW27787   0.931   0.544  16.354  0.2933 -0.3872  0.3786
 5442SOL    HW127788   0.937   0.518  16.446 -0.2236 -1.5323  0.0810
 5442SOL    HW227789   1.002   0.489  16.320  0.2924 -0.6572  0.8126
 5443SOL     OW27790   1.993   1.985   6.328  0.5605  0.1262  0.0890
 5443SOL    HW127791   1.940   1.909   6.305 -0.4923  0.9469 -0.1869
 5443SOL    HW227792   2.060   1.974   6.260  0.0096 -2.9575  0.0327
 5444SOL     OW27793   1.781   2.427   3.617 -0.1464 -0.0021  0.3110
 5444SOL    HW127794   1.687   2.441   3.608 -0.1578  1.0697  2.0483
 5444SOL    HW227795   1.817   2.514   3.600 -1.0652 -0.0629 -1.8632
 5445SOL     OW27796   3.582   2.004   9.017  0.1079 -0.4031  0.3478
 5445SOL    HW127797   3.590   1.976   8.926 -0.2638 -0.3134  0.2877
 5445SOL    HW227798   3.606   2.096   9.007 -0.1993 -0.5016 -1.2562
 5446SOL     OW27799   1.278   0.404   8.816  0.1426 -0.0381  0.3076
 5446SOL    HW127800   1.290   0.431   8.908  0.2107  0.6279  0.1028
 5446SOL    HW227801   1.207   0.464   8.793 -1.0320 -0.2883  3.1754
 5447SOL     OW27802   3.531   0.732   0.582  0.0780  0.3740  0.0130
 5447SOL    HW127803   3.473   0.804   0.606 -1.7176 -0.4860 -1.7393
 5447SOL    HW227804   3.612   0.776   0.556 -0.6584  0.7447 -1.6708
 5448SOL     OW27805   4.134   0.257  13.972  0.6509 -0.1198 -0.5790
 5448SOL    HW127806   4.126   0.343  14.014  0.3941  0.3721 -1.6318
 5448SOL    HW227807   4.120   0.193  14.042  1.2847 -2.0197 -2.1865
 5449SOL     OW27808   0.122   3.072  11.177 -0.1162  0.0841 -0.4966
 5449SOL    HW127809   0.090   3.068  11.087 -0.3512 -1.3115 -0.3493
 5449SOL    HW227810   0.127   2.979  11.201  0.0854 -0.6614 -3.4638
 5450SOL     OW27811   1.898   1.560   2.639  0.0780  0.3434 -0.0680
 5450SOL    HW127812   1.847   1.501   2.694  2.5908 -1.1486  0.6664
 5450SOL    HW227813   1.898   1.514   2.556  1.9788 -2.1659  1.3082
 5451SOL     OW27814   2.865   1.453   7.398  0.4631  0.4402 -0.6903
 5451SOL    HW127815   2.898   1.459   7.308  0.0671  1.3066 -0.7815
 5451SOL    HW227816   2.800   1.383   7.387  0.2700  0.5300 -0.1231
 5452SOL     OW27817   0.764   4.480   1.637 -0.0909 -0.2828 -0.1105
 5452SOL    HW127818   0.787   4.570   1.615  1.5924 -0.9061 -0.9686
 5452SOL    HW227819   0.845   4.438   1.607  1.1476  2.3826 -0.5248
 5453SOL     OW27820   1.252   2.232   5.257  0.1936  0.5251 -0.0828
 5453SOL    HW127821   1.341   2.259   5.280  0.9731  0.1759 -2.6694
 5453SOL    HW227822   1.197   2.295   5.304  0.1960 -0.4951  1.2812
 5454SOL     OW27823   4.313   2.390   8.142 -0.5774  0.6507  0.8677
 5454SOL    HW127824   4.269   2.400   8.058  1.4098 -2.5241 -0.5484
 5454SOL    HW227825   4.388   2.446   8.125 -0.8487  0.6700 -0.2743
 5455SOL     OW27826   1.582   3.024   2.805  0.4451  0.0553 -0.2260
 5455SOL    HW127827   1.500   2.984   2.776  0.2646  1.1302 -1.1654
 5455SOL    HW227828   1.645   2.953   2.789  0.0239 -0.4842  0.4713
 5456SOL     OW27829   1.791   4.157   8.733 -0.2699  0.9558  0.1573
 5456SOL    HW127830   1.860   4.219   8.754 -0.2422  0.9704  0.0194
 5456SOL    HW227831   1.736   4.223   8.691 -0.2592  1.6646  1.2499
 5457SOL     OW27832   1.895   1.762   5.186  0.2490 -0.3239 -0.3164
 5457SOL    HW127833   1.832   1.742   5.117  0.0886  0.6765 -0.4614
 5457SOL    HW227834   1.913   1.854   5.170  0.2787 -0.2975 -0.1374
 5458SOL     OW27835   3.056   1.749   6.056  0.0909  0.7295  0.6875
 5458SOL    HW127836   2.975   1.742   6.006  1.1330 -0.3042 -0.8446
 5458SOL    HW227837   3.113   1.694   6.003 -1.9048 -0.3975 -0.2646
 5459SOL     OW27838   4.006   1.932   5.367 -0.2127  0.4940 -0.0372
 5459SOL    HW127839   4.039   2.019   5.388 -0.2136  0.4010  0.3496
 5459SOL    HW227840   4.081   1.897   5.318 -0.9722  0.4729 -1.1988
 5460SOL     OW27841   4.149   1.213   3.141  0.6571  0.3447 -0.0524
 5460SOL    HW127842   4.137   1.119   3.127 -1.6036  0.4287  1.1846
 5460SOL    HW227843   4.059   1.246   3.131  1.1004  1.3854 -0.6253
 5461SOL     OW27844   1.915   3.442  15.067 -0.1270 -0.3219 -0.2672
 5461SOL    HW127845   1.939   3.357  15.103  0.7190  0.4076  0.8904
 5461SOL    HW227846   2.002   3.475  15.045  0.2002 -1.2341 -0.3549
 5462SOL     OW27847   2.777   0.421   0.430 -0.6418 -0.0750  0.5727
 5462SOL    HW127848   2.754   0.512   0.410  0.3656 -0.1424 -0.9148
 5462SOL    HW227849   2.715   0.370   0.379 -0.4999 -0.4090  0.7378
 5463SOL     OW27850   0.895   2.901  15.058 -0.1331 -0.2914 -0.2022
 5463SOL    HW127851   0.899   2.971  14.992 -0.8195  0.1223  0.1930
 5463SOL    HW227852   0.987   2.878  15.070 -0.3731 -1.5186 -0.7739
 5464SOL     OW27853   2.290   4.680   8.882  0.6514 -0.0254 -0.0297
 5464SOL    HW127854   2.324   4.723   8.961  0.4032  0.9662 -0.4657
 5464SOL    HW227855   2.362   4.641   8.831 -0.2282 -0.4680 -0.9267
 5465SOL     OW27856   4.349   0.281   3.835  0.3175 -0.1122 -0.3228
 5465SOL    HW127857   4.346   0.219   3.908 -1.9314  0.9392  0.4664
 5465SOL    HW227858   4.271   0.329   3.862  0.3494 -0.1861 -0.1000
 5466SOL     OW27859   2.671   1.586   7.804  0.4755 -0.1173  0.4868
 5466SOL    HW127860   2.599   1.628   7.757 -0.3906 -0.8961  1.1121
 5466SOL    HW227861   2.733   1.546   7.744 -2.0100  0.0595 -2.2297
 5467SOL     OW27862   4.141   3.747   4.341 -0.5288 -0.0658 -0.3993
 5467SOL    HW127863   4.049   3.722   4.332 -0.0290 -1.1716 -2.4872
 5467SOL    HW227864   4.187   3.666   4.318 -0.0550 -0.7498  3.0054
 5468SOL     OW27865   1.430   2.492  13.002  0.1104  0.2475 -0.1039
 5468SOL    HW127866   1.452   2.447  13.083 -0.4567 -3.7178 -2.1265
 5468SOL    HW227867   1.337   2.509  13.019  0.8539  1.1589  2.9283
 5469SOL     OW27868   3.313   2.124   8.850 -0.1912  0.2481  0.4442
 5469SOL    HW127869   3.390   2.122   8.794  0.5488  0.4230  1.4396
 5469SOL    HW227870   3.311   2.214   8.884 -0.8236  0.2945  0.2746
 5470SOL     OW27871   0.270   2.984   1.913 -0.4020  0.3802 -0.2609
 5470SOL    HW127872   0.362   2.971   1.892 -0.6369 -1.0757 -0.3573
 5470SOL    HW227873   0.266   2.971   2.008 -1.2478  1.8017 -0.0937
 5471SOL     OW27874   1.866   3.801  11.753 -0.0472 -0.0176  0.3955
 5471SOL    HW127875   1.825   3.734  11.808 -0.3785  0.6189  0.9158
 5471SOL    HW227876   1.789   3.858  11.750  1.1326  1.5304 -0.4308
 5472SOL     OW27877   3.740   3.238   7.765 -0.1096  0.0472  0.7087
 5472SOL    HW127878   3.800   3.265   7.835  1.5365 -0.3222 -0.5655
 5472SOL    HW227879   3.681   3.189   7.822 -0.1107  0.8068  1.3639
 5473SOL     OW27880   2.414   3.145   0.947 -0.4142  0.9716 -0.3770
 5473SOL    HW127881   2.415   3.184   1.035 -0.7334  0.1120  0.0027
 5473SOL    HW227882   2.344   3.203   0.917 -0.8513  1.8778  2.3994
 5474SOL     OW27883   4.209   0.714  14.554  0.1719 -0.2475 -0.4391
 5474SOL    HW127884   4.192   0.799  14.596  0.0421 -1.1546  1.3770
 5474SOL    HW227885   4.244   0.673  14.633  1.2198  0.8199 -0.3611
 5475SOL     OW27886   4.635   1.071   3.291  0.4520  0.0828  0.6022
 5475SOL    HW127887   4.660   1.036   3.206 -0.8117  0.2081  0.1822
 5475SOL    HW227888   4.566   1.137   3.281  1.4058  0.5498 -2.7054
 5476SOL     OW27889   4.175   3.545   3.994  0.5794  0.0757  0.1307
 5476SOL    HW127890   4.164   3.490   3.916  1.3592  2.9009 -1.9842
 5476SOL    HW227891   4.084   3.538   4.020  0.9300 -0.2907  1.2544
 5477SOL     OW27892   1.507   3.188   7.809 -0.5117  0.8808  0.1338
 5477SOL    HW127893   1.493   3.093   7.801  0.4766  0.5457  2.5777
 5477SOL    HW227894   1.597   3.199   7.780 -0.3774  0.1614  0.2742
 5478SOL     OW27895   0.492   3.856   0.484  0.5075 -0.0000  0.3730
 5478SOL    HW127896   0.586   3.870   0.477  0.3837  1.6316  1.9318
 5478SOL    HW227897   0.460   3.941   0.514  0.0007  1.1618 -3.4791
 5479SOL     OW27898   3.871   0.297   7.647 -0.7553  0.5633  0.2898
 5479SOL    HW127899   3.881   0.378   7.698  1.6733  0.3379  0.1719
 5479SOL    HW227900   3.797   0.262   7.697  0.4672 -1.2865  0.7977
 5480SOL     OW27901   4.283   0.078   7.973  0.0691 -0.0061 -0.6764
 5480SOL    HW127902   4.229   0.136   8.026  1.5656  0.0383  0.8104
 5480SOL    HW227903   4.358   0.058   8.029 -1.3463  2.4572  2.0878
 5481SOL     OW27904   0.894   2.633   8.749  0.0984  0.3415  0.4555
 5481SOL    HW127905   0.920   2.663   8.836 -1.4155  0.4509  0.8667
 5481SOL    HW227906   0.811   2.679   8.734  0.2884  0.0145 -1.6289
 5482SOL     OW27907   2.116   4.514  17.303 -0.7068 -0.1820 -0.0190
 5482SOL    HW127908   2.137   4.570  17.378  1.0014  1.2936 -1.6066
 5482SOL    HW227909   2.192   4.523  17.246 -1.0385 -0.3614 -0.4914
 5483SOL     OW27910   1.038   3.560  11.210  0.2672 -0.0011 -0.3343
 5483SOL    HW127911   1.126   3.529  11.191 -0.1003  0.1245 -2.1841
 5483SOL    HW227912   0.989   3.489  11.169  0.3059 -0.0963 -0.2156
 5484SOL     OW27913   2.997   0.886   5.774  0.6897 -0.0549  0.0907
 5484SOL    HW127914   2.990   0.848   5.687  1.9362 -0.9677  0.4003
 5484SOL    HW227915   2.957   0.969   5.748 -0.9071 -0.9956 -0.4514
 5485SOL     OW27916   0.637   3.588  13.661  0.1855 -0.3671  0.5714
 5485SOL    HW127917   0.574   3.595  13.733  0.6275  0.9048  0.8370
 5485SOL    HW227918   0.705   3.653  13.680  1.7448 -1.2845 -1.9264
 5486SOL     OW27919   1.631   4.667   4.908  0.1132 -0.3883  0.6812
 5486SOL    HW127920   1.630   0.008   4.977  2.8319 -0.5090  0.8315
 5486SOL    HW227921   1.676   4.717   4.841 -1.1072  0.3219  0.3868
 5487SOL     OW27922   1.833   4.016  12.462 -0.0811 -0.2596  0.1506
 5487SOL    HW127923   1.745   4.007  12.498 -0.7757  1.7360 -1.0371
 5487SOL    HW227924   1.849   4.106  12.490 -0.6953 -0.6745  1.8183
 5488SOL     OW27925   4.701   4.278  15.923 -0.0840 -0.5586  0.7069
 5488SOL    HW127926   4.647   4.237  15.856  0.9594 -0.1885 -0.3462
 5488SOL    HW227927   0.034   4.202  15.925 -1.0992 -1.3441  0.6463
 5489SOL     OW27928   3.872   4.204   0.085 -0.5712 -0.0213 -0.0526
 5489SOL    HW127929   3.790   4.221   0.132  0.4062  0.6035  1.4375
 5489SOL    HW227930   3.870   4.290   0.044 -0.7219 -0.4862 -1.0223
 5490SOL     OW27931   4.459   4.239   1.564  0.0467  0.0585  0.0059
 5490SOL    HW127932   4.376   4.275   1.595 -0.4634  0.2071 -1.5356
 5490SOL    HW227933   4.443   4.149   1.536 -2.4378  0.8619 -1.1418
 5491SOL     OW27934   3.522   1.445  11.969 -0.0275 -0.1266  0.2975
 5491SOL    HW127935   3.481   1.519  12.016  2.0149  1.0457  0.2181
 5491SOL    HW227936   3.472   1.445  11.888 -1.3641  0.2438  1.1057
 5492SOL     OW27937   0.564   1.841   2.151 -0.1495 -0.1218 -1.0656
 5492SOL    HW127938   0.507   1.912   2.182 -0.5553 -0.1863 -1.6638
 5492SOL    HW227939   0.653   1.873   2.163 -0.6396  0.5997  0.5597
 5493SOL     OW27940   3.759   3.771   5.408  0.3749 -0.0653  0.0716
 5493SOL    HW127941   3.829   3.800   5.349  1.2087 -1.0934  0.5494
 5493SOL    HW227942   3.717   3.854   5.430 -1.2062 -1.0395  0.7224
 5494SOL     OW27943   2.581   2.883  17.573  0.1131 -0.1339 -0.3364
 5494SOL    HW127944   2.645   2.929  17.519  2.0071 -0.1651  1.8895
 5494SOL    HW227945   2.571   2.949  17.642  1.1925 -0.7495  0.4295
 5495SOL     OW27946   0.593   0.266  11.298 -0.0742  0.2027  0.0194
 5495SOL    HW127947   0.549   0.345  11.330  0.7953  0.2432  1.1472
 5495SOL    HW227948   0.685   0.291  11.313  0.6166 -1.8161 -0.8992
 5496SOL     OW27949   2.790   4.286  17.155  0.3941 -0.2446  0.5821
 5496SOL    HW127950   2.770   4.291  17.061  1.3686  2.3791  0.5062
 5496SOL    HW227951   2.732   4.349  17.199  1.0326 -0.0282  1.1161
 5497SOL     OW27952   4.681   3.497  11.830  0.1660  0.4670 -0.0333
 5497SOL    HW127953   4.619   3.468  11.763  0.5858  0.1610 -0.2903
 5497SOL    HW227954   4.653   3.587  11.849 -0.3024 -0.0155  1.5468
 5498SOL     OW27955   3.001   3.573  11.383  0.1885 -0.1468  0.0149
 5498SOL    HW127956   2.981   3.553  11.292 -2.7322 -0.1137  0.6475
 5498SOL    HW227957   2.940   3.645  11.396  1.0247  0.5717 -0.0573
 5499SOL     OW27958   2.982   3.525   5.772 -0.4479 -0.4561  0.5609
 5499SOL    HW127959   3.063   3.574   5.788 -0.7637  1.5050 -3.5579
 5499SOL    HW227960   2.925   3.558   5.841 -0.2277 -0.9141  0.9629
 5500SOL     OW27961   4.052   0.045  13.004 -0.6088 -0.0120 -1.0625
 5500SOL    HW127962   4.061   4.705  13.073  1.1245  1.7606  0.4059
 5500SOL    HW227963   3.984   0.018  12.943  1.6765 -0.4235 -3.4057
 5501SOL     OW27964   1.857   4.332   4.654  0.1030 -0.0289  0.0455
 5501SOL    HW127965   1.787   4.346   4.589  0.9133 -1.3147 -1.0979
 5501SOL    HW227966   1.869   4.239   4.638  0.9758 -0.1059  1.2181
 5502SOL     OW27967   0.747   2.674   0.563 -0.3741  0.6294 -0.0011
 5502SOL    HW127968   0.772   2.735   0.493 -3.5651  1.6209 -0.2899
 5502SOL    HW227969   0.655   2.701   0.567 -0.0958  1.5127  0.6151
 5503SOL     OW27970   1.738   0.080   6.282  0.4567  0.1486  0.2534
 5503SOL    HW127971   1.803   0.063   6.350  0.1113 -0.8125  0.3509
 5503SOL    HW227972   1.724   0.174   6.273  1.2748  0.4774  2.3423
 5504SOL     OW27973   0.608   1.425  10.347  0.4100  0.1665 -0.5739
 5504SOL    HW127974   0.546   1.493  10.372  0.7536  0.0891  0.5322
 5504SOL    HW227975   0.555   1.347  10.331  0.2576  0.0462  0.4772
 5505SOL     OW27976   1.141   3.666   1.307  0.5178  0.1662  0.2040
 5505SOL    HW127977   1.196   3.619   1.244 -0.7982 -1.1326  0.0267
 5505SOL    HW227978   1.165   3.753   1.274 -0.3444  0.1718 -0.4122
 5506SOL     OW27979   2.173   3.810  14.315  0.2881  0.2771 -0.0226
 5506SOL    HW127980   2.155   3.893  14.271 -0.9919  0.7552  1.3721
 5506SOL    HW227981   2.230   3.764  14.254 -1.1481  0.1128 -1.2459
 5507SOL     OW27982   3.056   2.034   4.838 -0.4940 -0.3112 -0.6171
 5507SOL    HW127983   3.084   2.122   4.813  0.8449 -0.3981  0.5618
 5507SOL    HW227984   3.098   2.014   4.921 -0.8545 -0.4761 -0.4763
 5508SOL     OW27985   2.632   3.099   0.806 -0.6629 -0.2388  0.0659
 5508SOL    HW127986   2.709   3.140   0.846  0.8604 -1.8028 -1.2814
 5508SOL    HW227987   2.563   3.102   0.872 -1.6250  1.5063 -1.0003
 5509SOL     OW27988   1.560   1.392  14.965  0.0595  0.2975 -0.1841
 5509SOL    HW127989   1.592   1.474  15.002 -0.6426  0.8900 -0.8914
 5509SOL    HW227990   1.471   1.412  14.993  0.9297  0.7218  2.2776
 5510SOL     OW27991   0.723   2.906   3.020  0.3081  0.3228  0.4673
 5510SOL    HW127992   0.778   2.845   2.971  0.6748  2.4629 -1.8182
 5510SOL    HW227993   0.769   2.990   3.012  0.9063 -0.1902 -1.5431
 5511SOL     OW27994   0.853   1.564  15.709  0.2693 -0.1017 -0.3422
 5511SOL    HW127995   0.870   1.629  15.641  1.5474 -0.1830 -0.0897
 5511SOL    HW227996   0.852   1.620  15.787  0.2707 -2.1113  1.1109
 5512SOL     OW27997   2.034   1.362  13.731  0.6538  0.4225  0.4215
 5512SOL    HW127998   1.965   1.370  13.665  0.3272 -2.2064  0.4426
 5512SOL    HW227999   2.009   1.284  13.780 -1.8769  0.6224 -0.5389
 5513SOL     OW28000   2.590   1.012   4.928 -0.1260  0.2388  0.6127
 5513SOL    HW128001   2.567   1.018   5.021 -0.3587  1.8926  0.4500
 5513SOL    HW228002   2.548   0.930   4.905  2.8174 -1.1179  0.1003
 5514SOL     OW28003   2.430   2.927   9.843  0.4144  0.5795 -0.5056
 5514SOL    HW128004   2.416   2.948   9.936 -1.3473 -0.1388 -0.6015
 5514SOL    HW228005   2.377   2.996   9.805 -0.6522 -0.1166 -0.2796
 5515SOL     OW28006   0.151   1.219   0.797 -0.1722 -0.4838  0.2303
 5515SOL    HW128007   0.190   1.292   0.750  0.2202 -0.5124  0.5174
 5515SOL    HW228008   0.207   1.148   0.766 -0.8801 -0.7259 -0.5212
 5516SOL     OW28009   2.339   4.241   0.596  0.4306 -0.2278  0.3646
 5516SOL    HW128010   2.293   4.209   0.518  0.9884  3.8747 -1.6705
 5516SOL    HW228011   2.382   4.319   0.560  0.5071 -0.0581  0.8340
 5517SOL     OW28012   0.830   3.919   3.906 -0.0615  0.4155  0.4401
 5517SOL    HW128013   0.864   3.838   3.946  2.2655  0.7119 -0.9669
 5517SOL    HW228014   0.893   3.940   3.837  0.4437  0.7830  1.0059
 5518SOL     OW28015   1.077   3.349   8.002  0.3021 -0.2100 -0.4902
 5518SOL    HW128016   1.099   3.335   8.094  2.2909  2.1052 -0.6041
 5518SOL    HW228017   1.135   3.423   7.983  1.6725 -1.8630 -2.7580
 5519SOL     OW28018   4.081   2.431   3.032 -0.0252  0.3156  0.0689
 5519SOL    HW128019   4.051   2.348   2.994  0.0653 -0.2012  1.1397
 5519SOL    HW228020   4.050   2.500   2.973 -0.2539  2.8635  3.1876
 5520SOL     OW28021   1.843   2.521   7.386  0.3075 -0.1939  0.5415
 5520SOL    HW128022   1.782   2.478   7.327  0.4552 -0.8611  0.8719
 5520SOL    HW228023   1.924   2.479   7.358 -0.1530  1.5054 -3.2768
 5521SOL     OW28024   3.708   0.104   7.526 -0.2029 -0.1503 -0.4253
 5521SOL    HW128025   3.789   0.154   7.524  0.0268 -0.5345 -0.6896
 5521SOL    HW228026   3.703   0.090   7.621  0.3000  0.7570 -0.2693
 5522SOL     OW28027   1.873   2.447   0.075 -0.5232 -0.4930 -0.8089
 5522SOL    HW128028   1.892   2.362   0.034 -1.5642 -0.1434 -1.9782
 5522SOL    HW228029   1.822   2.497   0.013 -2.3447 -2.5628 -0.9853
 5523SOL     OW28030   3.881   0.183   2.469  0.2144 -0.0563  0.5139
 5523SOL    HW128031   3.808   0.236   2.502 -1.7846 -2.4535 -0.0775
 5523SOL    HW228032   3.829   0.105   2.449 -0.7210  0.7587 -0.2291
 5524SOL     OW28033   0.784   1.998   7.534 -0.0549  0.1158 -0.1000
 5524SOL    HW128034   0.800   2.010   7.627  0.1764  0.6162 -0.2045
 5524SOL    HW228035   0.794   1.903   7.532 -0.9828  0.0028  0.7339
 5525SOL     OW28036   1.104   2.220   2.977  0.1708  0.2271 -0.2332
 5525SOL    HW128037   1.011   2.239   2.970  0.4855  2.5806  1.8749
 5525SOL    HW228038   1.139   2.306   2.954 -0.8758  0.5745 -0.5295
 5526SOL     OW28039   4.508   1.480  16.704  0.7367 -0.2580  0.0348
 5526SOL    HW128040   4.430   1.492  16.759  0.1681 -2.5226 -0.2878
 5526SOL    HW228041   4.571   1.449  16.769 -0.2959  2.1248  2.1946
 5527SOL     OW28042   1.736   1.217  13.033  0.0754  0.6351 -0.1680
 5527SOL    HW128043   1.716   1.253  12.947  1.7597  2.6964  0.3114
 5527SOL    HW228044   1.831   1.218  13.041  0.0591 -3.5929  0.8830
 5528SOL     OW28045   0.353   1.881  11.260 -0.0505  0.3111 -0.6231
 5528SOL    HW128046   0.440   1.921  11.262  0.1650 -0.2192  1.0358
 5528SOL    HW228047   0.374   1.809  11.321 -1.7849  1.5160  1.4129
 5529SOL     OW28048   0.505   2.215  15.465  0.5627 -0.3159  0.2369
 5529SOL    HW128049   0.505   2.260  15.550 -1.5445 -0.2595  0.2158
 5529SOL    HW228050   0.433   2.155  15.482 -0.3277  0.2922 -1.4133
 5530SOL     OW28051   0.162   4.342   2.373 -0.6039 -0.6983  0.3846
 5530SOL    HW128052   0.126   4.310   2.291 -2.8985 -2.8737  2.2292
 5530SOL    HW228053   0.235   4.280   2.380  0.4174  0.3064 -1.5667
 5531SOL     OW28054   3.470   1.412   8.709  0.0689 -0.4615 -0.1208
 5531SOL    HW128055   3.561   1.429   8.684 -0.1099 -0.3597 -0.7005
 5531SOL    HW228056   3.474   1.324   8.745  2.1774 -0.4802 -0.3904
 5532SOL     OW28057   3.842   0.746   7.613  0.6589  0.8170 -0.2079
 5532SOL    HW128058   3.910   0.687   7.581  0.6800 -0.2265  1.8271
 5532SOL    HW228059   3.890   0.822   7.647 -0.2583  0.2097  2.3800
 5533SOL     OW28060   4.090   2.862   7.302  0.1596 -0.1529 -0.0821
 5533SOL    HW128061   4.000   2.887   7.322 -0.2150 -2.3444  1.0430
 5533SOL    HW228062   4.108   2.822   7.387  3.4772  2.1384  0.3119
 5534SOL     OW28063   0.421   0.082  17.521 -0.3623 -0.1819 -0.3584
 5534SOL    HW128064   0.489   0.062  17.456  0.2013  0.1796  0.1170
 5534SOL    HW228065   0.349   0.024  17.494  0.9374 -2.2039  0.4956
 5535SOL     OW28066   3.370   1.664   3.722 -0.0099  0.1097  0.0827
 5535SOL    HW128067   3.423   1.584   3.727  0.1080  0.1768 -0.1324
 5535SOL    HW228068   3.336   1.667   3.812 -1.0235  0.8363 -0.3370
 5536SOL     OW28069   0.977   0.534   7.193 -0.5763  0.5678  0.2095
 5536SOL    HW128070   1.046   0.502   7.135 -1.4553 -0.7355 -0.1127
 5536SOL    HW228071   0.992   0.628   7.198 -0.3224  0.6892 -3.1605
 5537SOL     OW28072   2.138   2.185   3.243 -0.0023 -0.1173 -0.2883
 5537SOL    HW128073   2.174   2.256   3.189 -0.2401  1.0262  1.0712
 5537SOL    HW228074   2.160   2.216   3.331  0.4876 -2.2374  0.3173
 5538SOL     OW28075   1.968   3.605   7.080 -0.6293 -0.7538 -0.0085
 5538SOL    HW128076   2.023   3.682   7.093 -1.1880 -0.5856  1.3161
 5538SOL    HW228077   2.015   3.524   7.099  0.6362 -0.2201 -0.8979
 5539SOL     OW28078   1.239   3.708  12.638  0.6962 -0.3256 -0.1709
 5539SOL    HW128079   1.309   3.751  12.590  0.9938 -2.2842 -1.4842
 5539SOL    HW228080   1.183   3.692  12.562 -1.7986 -0.3865  1.6870
 5540SOL     OW28081   0.129   2.310   5.180  0.0155  0.0409  0.1358
 5540SOL    HW128082   0.058   2.246   5.180  1.6118 -1.6940  2.0083
 5540SOL    HW228083   0.194   2.250   5.145 -1.4379 -0.8733 -0.9591
 5541SOL     OW28084   3.928   1.583   5.189 -0.6168  0.4987 -0.2772
 5541SOL    HW128085   4.014   1.543   5.205 -0.8896  0.1314  0.2324
 5541SOL    HW228086   3.901   1.612   5.276 -1.4075  2.1048 -1.0628
 5542SOL     OW28087   0.278   0.874   1.609  0.5487 -0.0190  0.3242
 5542SOL    HW128088   0.347   0.817   1.577  2.4190  1.5105  1.6336
 5542SOL    HW228089   0.258   0.933   1.536 -1.7896 -0.5302  0.5526
 5543SOL     OW28090   2.552   0.986  16.132 -0.6064  0.4846  0.2233
 5543SOL    HW128091   2.486   0.948  16.190 -0.9474  1.3740  0.4143
 5543SOL    HW228092   2.579   0.915  16.074 -0.4607 -0.0627  0.9489
 5544SOL     OW28093   1.822   2.567  12.403 -0.6608  0.1845  0.3809
 5544SOL    HW128094   1.844   2.634  12.468 -1.9942 -2.3499  3.4440
 5544SOL    HW228095   1.769   2.621  12.345  0.6792  1.0955 -0.0108
 5545SOL     OW28096   1.991   2.229   8.367  0.0226 -0.3620 -0.6283
 5545SOL    HW128097   1.929   2.283   8.416  2.9389  0.1082  2.4938
 5545SOL    HW228098   2.068   2.261   8.413 -0.5656 -0.7790  0.6558
 5546SOL     OW28099   4.363   0.144   3.177 -0.2202 -0.0352  0.5295
 5546SOL    HW128100   4.444   0.176   3.137 -1.8952  2.4746 -0.9014
 5546SOL    HW228101   4.313   0.103   3.106  0.9985  0.7226 -0.7674
 5547SOL     OW28102   3.924   2.097   1.075  0.0896  0.4029  0.1502
 5547SOL    HW128103   4.014   2.130   1.078  1.1768 -2.6010  0.1397
 5547SOL    HW228104   3.868   2.174   1.088 -0.6193 -0.1739  0.4663
 5548SOL     OW28105   4.444   2.156   5.557 -0.1405 -0.0817  0.3616
 5548SOL    HW128106   4.475   2.188   5.472 -0.5358 -2.2044 -0.5766
 5548SOL    HW228107   4.525   2.157   5.609  1.7742  0.7244 -2.6055
 5549SOL     OW28108   1.686   4.269   6.798  0.1936 -0.1377 -0.0154
 5549SOL    HW128109   1.632   4.318   6.859 -0.5856  1.0066 -1.6230
 5549SOL    HW228110   1.769   4.314   6.809 -0.6400  1.5866 -0.8438
 5550SOL     OW28111   2.281   4.684   7.464 -0.1756  0.2373  0.0899
 5550SOL    HW128112   2.285   0.001   7.549 -0.4043  0.8386 -0.1954
 5550SOL    HW228113   2.356   4.723   7.419 -0.8267  1.3340 -0.0494
 5551SOL     OW28114   2.503   0.823  17.378  0.6647  0.2993 -0.3906
 5551SOL    HW128115   2.426   0.800  17.326 -0.7121  0.6367  1.5130
 5551SOL    HW228116   2.559   0.844  17.302  0.4597  2.0101 -0.0763
 5552SOL     OW28117   4.545   0.852   2.315 -0.0655 -0.1721 -0.5309
 5552SOL    HW128118   4.536   0.762   2.346  3.9880  0.4228  2.3059
 5552SOL    HW228119   4.553   0.890   2.402 -2.1314  2.4569 -1.4792
 5553SOL     OW28120   0.606   0.892  13.903  0.2230  0.6619  0.4173
 5553SOL    HW128121   0.686   0.926  13.865  1.4834  1.1807  3.5962
 5553SOL    HW228122   0.580   0.960  13.965  0.1655  1.3871 -0.3922
 5554SOL     OW28123   4.304   0.711   8.114 -0.1914 -0.0721  0.1492
 5554SOL    HW128124   4.346   0.634   8.152 -1.2066 -0.6531  0.1134
 5554SOL    HW228125   4.321   0.692   8.022  1.6459 -2.6313  1.0159
 5555SOL     OW28126   4.138   0.227   8.155  0.4097  0.2177 -0.1564
 5555SOL    HW128127   4.168   0.204   8.243  1.9099 -3.6558 -1.6447
 5555SOL    HW228128   4.095   0.308   8.182 -0.6250 -0.8029  1.2095
 5556SOL     OW28129   3.950   1.223   3.707  0.3833 -0.9045  0.1488
 5556SOL    HW128130   4.022   1.230   3.770 -0.7988 -0.7303  1.4794
 5556SOL    HW228131   3.957   1.134   3.672 -0.4522  0.2556 -2.9459
 5557SOL     OW28132   2.258   3.016  10.542 -0.1889  0.0537 -0.0645
 5557SOL    HW128133   2.290   3.064  10.466 -1.5613 -1.4852 -1.6083
 5557SOL    HW228134   2.226   2.933  10.507  1.3422 -0.2103 -0.8076
 5558SOL     OW28135   2.013   2.079   1.521  0.0255 -0.6476  0.1102
 5558SOL    HW128136   2.047   2.054   1.606  0.6300  1.4062  0.4687
 5558SOL    HW228137   2.077   2.050   1.456 -1.1676  3.0476 -2.7260
 5559SOL     OW28138   1.150   3.343  12.380  0.0244 -0.0337 -0.1597
 5559SOL    HW128139   1.079   3.394  12.418  1.5367  0.4975  1.9256
 5559SOL    HW228140   1.099   3.301  12.311  0.9313  0.8243 -1.3688
 5560SOL     OW28141   2.836   0.820  10.431  0.0023  0.1694 -0.3837
 5560SOL    HW128142   2.743   0.837  10.416 -0.3728 -0.8166  0.8242
 5560SOL    HW228143   2.840   0.730  10.397  0.6558  0.8340 -2.0853
 5561SOL     OW28144   3.340   3.688   4.048 -0.2407  0.3402  0.5941
 5561SOL    HW128145   3.318   3.764   4.102  0.3354 -0.2265  1.6281
 5561SOL    HW228146   3.266   3.689   3.987 -0.5748  3.2348  1.0188
 5562SOL     OW28147   0.081   2.722   8.081  0.0974 -0.1588  0.3922
 5562SOL    HW128148   0.095   2.677   7.998  1.0825 -3.1551  2.1856
 5562SOL    HW228149   0.168   2.733   8.117 -0.7617  0.1914  2.3645
 5563SOL     OW28150   2.565   0.789   6.509  0.2062 -0.3467  0.3335
 5563SOL    HW128151   2.510   0.859   6.474 -1.0162 -1.5571 -0.1998
 5563SOL    HW228152   2.585   0.750   6.424 -1.7074 -2.5704  0.8951
 5564SOL     OW28153   3.041   4.574   8.605 -0.3350  0.1311  0.4681
 5564SOL    HW128154   2.991   4.605   8.529  0.0300 -2.0114 -0.6263
 5564SOL    HW228155   3.082   4.494   8.574  2.2875  1.2588  1.0612
 5565SOL     OW28156   0.468   4.231  14.985 -0.1311 -0.4091  0.4621
 5565SOL    HW128157   0.562   4.253  14.985 -0.4508  0.9585 -0.1923
 5565SOL    HW228158   0.424   4.308  14.949  0.2809 -1.1951 -1.7399
 5566SOL     OW28159   2.096   2.499   9.719 -0.3075  0.1405 -0.4795
 5566SOL    HW128160   2.029   2.565   9.734 -3.1284 -2.6121 -1.0042
 5566SOL    HW228161   2.158   2.552   9.668  1.5445 -0.5699  1.0203
 5567SOL     OW28162   0.199   1.637   6.051  0.5255 -0.2896  0.4220
 5567SOL    HW128163   0.171   1.558   6.098  1.8855 -0.7146  0.5232
 5567SOL    HW228164   0.277   1.615   6.001  1.0047  2.4644 -0.0426
 5568SOL     OW28165   1.227   1.025  12.200  0.3504  0.0953 -0.2116
 5568SOL    HW128166   1.160   1.068  12.146 -1.3107 -1.3247  0.7002
 5568SOL    HW228167   1.176   1.012  12.280  0.2351  0.7520 -0.1786
 5569SOL     OW28168   2.941   2.021  10.000  0.3954 -0.0005  0.2573
 5569SOL    HW128169   2.925   2.020   9.906  0.1794  0.3790  0.2862
 5569SOL    HW228170   2.912   2.109  10.026  0.8867 -0.2031  1.4941
 5570SOL     OW28171   0.396   0.104   7.296  0.1241  0.3310  1.0047
 5570SOL    HW128172   0.349   0.031   7.257  0.8351  0.2900  0.2298
 5570SOL    HW228173   0.322   0.165   7.291  0.1630  0.0628 -2.4356
 5571SOL     OW28174   1.475   0.563   9.630  0.1733  0.7568  0.1622
 5571SOL    HW128175   1.425   0.495   9.674  1.7878 -2.2494 -2.6321
 5571SOL    HW228176   1.500   0.531   9.544  0.7011 -1.4198  1.1364
 5572SOL     OW28177   3.083   4.661   3.490 -0.6563 -0.2703 -0.4943
 5572SOL    HW128178   3.112   0.021   3.457 -0.8148  0.1301  0.3894
 5572SOL    HW228179   3.162   4.633   3.537 -0.1917 -2.1050 -2.3730
 5573SOL     OW28180   4.527   3.382   3.227  0.2570  0.0477  0.0249
 5573SOL    HW128181   4.507   3.290   3.244 -0.2779 -0.0666 -1.2352
 5573SOL    HW228182   4.604   3.386   3.170 -0.3690  0.9573 -0.7416
 5574SOL     OW28183   2.109   1.980   2.124  0.0880  0.8247 -0.1955
 5574SOL    HW128184   2.124   1.920   2.197  1.3257  0.1394 -1.0162
 5574SOL    HW228185   2.016   2.000   2.133 -0.1559  0.0072 -0.9718
 5575SOL     OW28186   2.301   4.134  10.408 -0.1886 -0.1381  0.2566
 5575SOL    HW128187   2.277   4.151  10.317  1.5658  0.1253 -0.1471
 5575SOL    HW228188   2.392   4.163  10.411 -0.4972  1.0859 -2.3328
 5576SOL     OW28189   3.120   4.063   2.700  0.4321 -0.6855  0.2996
 5576SOL    HW128190   3.031   4.081   2.730  1.7693  3.1479  1.9851
 5576SOL    HW228191   3.118   4.107   2.615  1.1161  0.2725  0.7893
 5577SOL     OW28192   2.347   0.092   1.230  0.2399  0.2031  0.7635
 5577SOL    HW128193   2.306   0.033   1.293  0.5767 -1.1072 -0.2450
 5577SOL    HW228194   2.418   0.129   1.283  0.8994  1.1589 -0.7699
 5578SOL     OW28195   1.809   2.880   8.785 -0.0258  0.2332 -0.4728
 5578SOL    HW128196   1.876   2.934   8.743  1.6978 -2.1826 -0.7987
 5578SOL    HW228197   1.803   2.808   8.722 -1.8868  0.3109 -0.4050
 5579SOL     OW28198   4.575   0.582   5.442 -0.3790  0.0284 -0.3993
 5579SOL    HW128199   4.570   0.622   5.355 -1.4353  1.0187  0.1250
 5579SOL    HW228200   4.577   0.649   5.510 -1.3448 -1.0396  0.6707
 5580SOL     OW28201   0.925   2.818   2.882 -0.1275 -0.4166 -0.4426
 5580SOL    HW128202   0.987   2.890   2.899  1.3208 -1.6204 -0.6536
 5580SOL    HW228203   0.956   2.792   2.795 -0.7238 -1.6917 -0.2669
 5581SOL     OW28204   4.206   1.148   7.403 -0.1926 -0.1458  0.4326
 5581SOL    HW128205   4.134   1.135   7.342 -1.1613  1.5863  1.1872
 5581SOL    HW228206   4.188   1.235   7.440 -0.3902  0.3896 -0.9125
 5582SOL     OW28207   1.797   3.222   7.788  0.0039 -0.0421  0.2456
 5582SOL    HW128208   1.807   3.179   7.703 -1.2475  2.6728 -1.2480
 5582SOL    HW228209   1.886   3.248   7.810  1.1807 -2.0480 -2.0548
 5583SOL     OW28210   1.663   1.835   5.369  0.1114 -0.2218  0.3491
 5583SOL    HW128211   1.598   1.771   5.340 -0.9756  0.9377  0.1874
 5583SOL    HW228212   1.747   1.798   5.345  1.1646  1.2841  1.7188
 5584SOL     OW28213   4.533   2.402   2.400 -0.1533  0.2262  0.5595
 5584SOL    HW128214   4.484   2.379   2.479  0.6019  2.2084  1.6117
 5584SOL    HW228215   4.462   2.443   2.350 -1.3009 -1.1900  1.0212
 5585SOL     OW28216   2.732   1.429   5.027 -0.4551 -0.4379  0.1213
 5585SOL    HW128217   2.692   1.371   5.092  1.3378 -1.0193  0.7180
 5585SOL    HW228218   2.825   1.417   5.046 -0.7948 -0.3050  1.8811
 5586SOL     OW28219   1.688   3.053   9.843  0.1978  0.2357 -0.8103
 5586SOL    HW128220   1.666   3.048   9.750  0.3780  1.6116 -0.9323
 5586SOL    HW228221   1.600   3.083   9.867  1.2396  0.8691  2.2024
 5587SOL     OW28222   2.514   1.965  15.573  0.5046  0.2317 -0.7449
 5587SOL    HW128223   2.519   1.870  15.567  0.1080  0.0384  1.9442
 5587SOL    HW228224   2.519   1.966  15.669  0.8308  3.7389 -0.7990
 5588SOL     OW28225   2.434   0.562   8.894  0.7680 -0.4842 -0.3036
 5588SOL    HW128226   2.500   0.559   8.964  0.2227  2.1586  0.3357
 5588SOL    HW228227   2.396   0.475   8.891 -0.2405 -0.0184 -0.9920
 5589SOL     OW28228   1.296   1.401   2.832 -0.2051  0.1613 -0.6002
 5589SOL    HW128229   1.346   1.483   2.831 -0.1482  0.1499  0.9133
 5589SOL    HW228230   1.287   1.388   2.738 -0.0620 -0.6622 -0.5031
 5590SOL     OW28231   4.217   2.770  16.050  0.2043  0.1079  0.6493
 5590SOL    HW128232   4.300   2.755  16.096 -0.9301 -0.8310  2.3795
 5590SOL    HW228233   4.236   2.855  16.010 -0.2024  0.0218  0.2846
 5591SOL     OW28234   3.839   1.449   4.732 -0.4124  0.4862  0.0775
 5591SOL    HW128235   3.821   1.371   4.784 -0.1029  0.8518  0.7395
 5591SOL    HW228236   3.770   1.502   4.771  1.0324  4.5075 -2.8193
 5592SOL     OW28237   1.242   0.436   6.208 -0.0948  0.2301 -0.3140
 5592SOL    HW128238   1.293   0.369   6.253  1.7260  0.3719 -2.1608
 5592SOL    HW228239   1.255   0.420   6.114 -1.6712 -1.3682 -0.2395
 5593SOL     OW28240   3.787   2.773   3.554  0.1686  0.2484 -0.2396
 5593SOL    HW128241   3.866   2.750   3.603 -0.0170  2.4271  1.1008
 5593SOL    HW228242   3.740   2.690   3.555  2.4936 -1.0864  0.1647
 5594SOL     OW28243   0.287   2.425   4.671  0.1555 -0.8656 -0.3075
 5594SOL    HW128244   0.320   2.345   4.712 -1.1531 -0.2870  1.8677
 5594SOL    HW228245   0.368   2.454   4.627 -0.1068  2.7475  1.5814
 5595SOL     OW28246   1.181   2.858  15.023 -0.4214 -0.1919  0.4176
 5595SOL    HW128247   1.270   2.877  14.995 -0.2353  0.4856  1.4513
 5595SOL    HW228248   1.161   2.795  14.954  0.9490  1.2576 -1.2825
 5596SOL     OW28249   0.731   4.120   7.176 -0.0670  0.4982  0.5052
 5596SOL    HW128250   0.649   4.106   7.223  0.9274 -1.1154  1.7790
 5596SOL    HW228251   0.770   4.032   7.185  2.6244  1.5022 -1.3404
 5597SOL     OW28252   0.156   2.727  17.198 -0.2772 -0.4608 -0.2514
 5597SOL    HW128253   0.085   2.787  17.220 -1.0021  0.3368 -4.7462
 5597SOL    HW228254   0.197   2.767  17.121 -1.4379  0.2738 -0.4846
 5598SOL     OW28255   1.084   1.914   5.616 -0.0591 -0.4018 -0.0721
 5598SOL    HW128256   1.149   1.852   5.583 -0.0779  0.1766 -1.2261
 5598SOL    HW228257   1.139   1.993   5.620  1.3921 -1.4245  0.2080
 5599SOL     OW28258   2.484   1.215   5.539 -0.3684  0.0111 -0.4408
 5599SOL    HW128259   2.430   1.183   5.468 -2.2747 -1.8501  1.8374
 5599SOL    HW228260   2.509   1.302   5.507 -0.4541  0.3858  0.4984
 5600SOL     OW28261   3.645   3.343   3.425  0.3962  0.2495  0.1114
 5600SOL    HW128262   3.712   3.345   3.493  0.5122  1.0208 -0.0301
 5600SOL    HW228263   3.677   3.273   3.368  0.3920  0.0544  0.3495
 5601SOL     OW28264   0.400   1.569   5.664  0.1192  0.0214 -0.1457
 5601SOL    HW128265   0.389   1.636   5.596  0.3308 -1.1260 -1.3061
 5601SOL    HW228266   0.349   1.496   5.627  0.0623  0.3357 -0.6974
 5602SOL     OW28267   3.884   2.251   5.632 -0.0064  0.2738 -0.5182
 5602SOL    HW128268   3.952   2.191   5.603  2.0270  1.8435  0.9897
 5602SOL    HW228269   3.888   2.232   5.726 -0.3945 -1.1190 -0.7793
 5603SOL     OW28270   4.272   3.726   2.428 -0.0639  0.2925  0.2148
 5603SOL    HW128271   4.202   3.767   2.479  0.9865  1.8533  0.4216
 5603SOL    HW228272   4.342   3.788   2.449  0.7571  0.0776 -1.8790
 5604SOL     OW28273   0.613   4.275  12.856  0.0331  0.0616 -0.5745
 5604SOL    HW128274   0.606   4.199  12.915 -0.5968  1.2066  0.8377
 5604SOL    HW228275   0.548   4.253  12.789 -0.2015  1.7892 -0.8988
 5605SOL     OW28276   1.397   0.915   6.470 -0.6334  0.2239 -0.3975
 5605SOL    HW128277   1.416   1.001   6.507 -1.4097 -0.8769  2.5240
 5605SOL    HW228278   1.309   0.932   6.438 -1.6246 -0.0267  2.2551
 5606SOL     OW28279   4.339   0.565   0.239 -0.1221 -0.3908 -0.2856
 5606SOL    HW128280   4.245   0.565   0.260 -0.0710 -0.5311 -0.0620
 5606SOL    HW228281   4.375   0.646   0.274 -1.0119  0.4207 -1.2459
 5607SOL     OW28282   1.351   3.531   3.071 -0.0430  0.6764  0.2996
 5607SOL    HW128283   1.435   3.557   3.110 -0.4115  0.0527  1.5149
 5607SOL    HW228284   1.376   3.528   2.979  1.8742 -2.4917  0.9417
 5608SOL     OW28285   3.582   2.144   1.112  0.0599  0.2965 -0.0538
 5608SOL    HW128286   3.625   2.228   1.130  2.9215 -1.4693  1.3773
 5608SOL    HW228287   3.634   2.088   1.169  1.5494  0.8661 -0.8504
 5609SOL     OW28288   2.466   4.589   5.653  0.2061  0.0016 -0.3009
 5609SOL    HW128289   2.456   4.642   5.574  0.7027  0.5370 -0.0028
 5609SOL    HW228290   2.386   4.615   5.700 -1.9087 -3.8645 -1.7890
 5610SOL     OW28291   2.990   4.378  15.681 -0.6143 -0.0345  0.0862
 5610SOL    HW128292   2.990   4.473  15.666 -0.9132 -0.4809 -2.8815
 5610SOL    HW228293   3.034   4.345  15.602 -2.4168 -1.5525 -0.2850
 5611SOL     OW28294   3.638   2.880   8.229 -0.0231  0.9082 -0.4440
 5611SOL    HW128295   3.659   2.945   8.163  1.2417  1.8854  0.9384
 5611SOL    HW228296   3.633   2.922   8.315  1.0874 -0.9857  0.5487
 5612SOL     OW28297   0.121   2.773  16.709  0.4333 -0.2132  0.2174
 5612SOL    HW128298   0.037   2.782  16.664  0.4495 -1.5776 -0.0827
 5612SOL    HW228299   0.183   2.778  16.636  0.1810 -1.7550 -0.1005
 5613SOL     OW28300   1.893   1.806   2.361  0.0222  0.3132 -0.3334
 5613SOL    HW128301   1.985   1.792   2.339 -0.9795 -0.0110 -4.2571
 5613SOL    HW228302   1.871   1.735   2.421  0.0408  1.0068  0.5013
 5614SOL     OW28303   3.010   0.624   8.233 -0.5612 -0.0698 -0.3593
 5614SOL    HW128304   3.019   0.566   8.157 -0.9061 -1.0326  0.3332
 5614SOL    HW228305   2.996   0.714   8.202  0.2171  0.8392  1.9409
 5615SOL     OW28306   1.153   2.977   2.840 -0.2191  0.3927  0.0608
 5615SOL    HW128307   1.203   2.935   2.771  1.0684  0.4315  0.9755
 5615SOL    HW228308   1.219   2.999   2.906  1.2941  1.3454 -1.7785
 5616SOL     OW28309   4.098   2.346   6.900  0.7290 -0.0188  0.8134
 5616SOL    HW128310   4.058   2.426   6.935 -0.9573 -1.2125  1.5996
 5616SOL    HW228311   4.027   2.325   6.840  3.1175 -5.0412 -0.2488
 5617SOL     OW28312   3.039   2.256   0.452 -0.2507 -0.0774 -0.3229
 5617SOL    HW128313   2.946   2.274   0.439 -0.0920  1.9429  1.1656
 5617SOL    HW228314   3.028   2.182   0.511 -2.1199  0.4499  0.0037
 5618SOL     OW28315   0.794   0.313  15.432 -0.3656 -0.2003  0.0739
 5618SOL    HW128316   0.818   0.379  15.367  0.8278 -2.0162 -1.3256
 5618SOL    HW228317   0.841   0.357  15.502  2.4798 -0.2761 -1.8026
 5619SOL     OW28318   3.402   0.782   6.226  0.2330  0.0318 -0.3114
 5619SOL    HW128319   3.445   0.704   6.191  1.9725  0.8256  0.0335
 5619SOL    HW228320   3.383   0.829   6.145 -1.0582  0.0828  0.0234
 5620SOL     OW28321   0.783   0.085  11.170 -0.0830 -0.1954 -0.4959
 5620SOL    HW128322   0.799   0.179  11.163 -0.1935  0.0685  2.8642
 5620SOL    HW228323   0.829   0.056  11.091  0.1411 -2.5834  0.4994
 5621SOL     OW28324   2.392   2.428   2.925 -0.2677  0.6834 -0.1302
 5621SOL    HW128325   2.337   2.361   2.884  0.2295  0.5581 -0.5948
 5621SOL    HW228326   2.341   2.507   2.906 -1.1324  0.2381  0.3153
 5622SOL     OW28327   1.002   0.823   3.444 -0.1862 -0.2072  0.4139
 5622SOL    HW128328   0.954   0.787   3.370  0.4612 -0.4647  0.1175
 5622SOL    HW228329   1.058   0.882   3.393  1.2628  0.8931  3.2596
 5623SOL     OW28330   1.227   4.346   4.331  0.2563  0.1662  0.1756
 5623SOL    HW128331   1.174   4.342   4.411  0.9388 -0.6262  0.5787
 5623SOL    HW228332   1.207   4.434   4.299  0.6670  0.7866  1.6318
 5624SOL     OW28333   1.794   1.211   0.485  0.3930  0.4474 -0.1918
 5624SOL    HW128334   1.837   1.131   0.453  0.8727 -1.1166  4.3645
 5624SOL    HW228335   1.820   1.205   0.577 -0.7193  2.3533  0.2380
 5625SOL     OW28336   1.804   3.209   6.947 -0.6905 -0.1916 -0.5166
 5625SOL    HW128337   1.797   3.115   6.933  1.7237 -0.3383 -0.7719
 5625SOL    HW228338   1.897   3.226   6.961 -0.9866  0.6082  0.5536
 5626SOL     OW28339   3.678   1.767  17.334 -0.0448 -0.5006 -0.0418
 5626SOL    HW128340   3.687   1.842  17.276  1.5000  0.9500  2.0411
 5626SOL    HW228341   3.614   1.715  17.287 -2.0851  1.0318  1.0279
 5627SOL     OW28342   3.593   1.891   2.340 -0.0126 -0.5743 -0.4900
 5627SOL    HW128343   3.640   1.808   2.349 -0.0197 -0.2435  2.3492
 5627SOL    HW228344   3.503   1.868   2.359  0.6318 -2.0390  0.7722
 5628SOL     OW28345   1.669   1.895   9.095 -0.3778  0.1073 -0.7504
 5628SOL    HW128346   1.746   1.889   9.152 -1.5976 -4.4833  0.3717
 5628SOL    HW228347   1.654   1.805   9.066  1.2749 -0.2330 -0.5806
 5629SOL     OW28348   4.704   4.414   6.368 -0.0185  0.1748  0.1723
 5629SOL    HW128349   0.025   4.442   6.289 -2.3526  1.4636 -0.7318
 5629SOL    HW228350   0.054   4.381   6.418  1.2752  1.3840 -0.9634
 5630SOL     OW28351   1.626   0.789   7.076  0.1382  0.2166  0.4885
 5630SOL    HW128352   1.645   0.849   7.148 -0.8336 -1.2800  2.0153
 5630SOL    HW228353   1.547   0.833   7.044 -0.2182 -0.1783  0.8143
 5631SOL     OW28354   3.291   0.368   5.454  0.2898  0.3508  0.2831
 5631SOL    HW128355   3.333   0.291   5.416 -0.8846 -0.5160  0.7472
 5631SOL    HW228356   3.284   0.424   5.377 -0.7902  1.1341  0.9348
 5632SOL     OW28357   0.933   0.401   7.429 -0.0791  0.1036 -0.3684
 5632SOL    HW128358   0.958   0.436   7.343 -0.7404  1.1983 -0.1156
 5632SOL    HW228359   0.850   0.448   7.438 -0.5758 -0.5297 -1.6740
 5633SOL     OW28360   2.994   4.335   5.408  0.7555  0.1614 -0.2395
 5633SOL    HW128361   2.935   4.378   5.345  2.6064  0.1744 -1.9723
 5633SOL    HW228362   3.025   4.412   5.454 -0.0223 -0.2853  1.0310
 5634SOL     OW28363   2.219   0.560  10.657 -0.4731  0.0922  0.3869
 5634SOL    HW128364   2.142   0.504  10.670  1.0227 -1.9126  0.6781
 5634SOL    HW228365   2.263   0.509  10.589 -2.8340  0.3060 -1.2881
 5635SOL     OW28366   0.435   0.105   5.333 -0.0205  0.2129 -0.3285
 5635SOL    HW128367   0.342   0.128   5.324 -0.3233 -0.3525  1.2528
 5635SOL    HW228368   0.433   0.023   5.285 -0.6631  0.6676 -1.0709
 5636SOL     OW28369   4.169   2.275   1.111  0.0261  0.2499 -0.0395
 5636SOL    HW128370   4.220   2.324   1.046 -0.3763  1.0886  0.2685
 5636SOL    HW228371   4.230   2.203   1.127 -0.8173 -0.3514  0.4562
 5637SOL     OW28372   2.620   2.597   0.775  0.3088  0.3573  0.3514
 5637SOL    HW128373   2.697   2.632   0.820  0.2235  0.5929  0.3110
 5637SOL    HW228374   2.567   2.675   0.758  1.8233  1.8258  2.3949
 5638SOL     OW28375   3.685   1.479  16.575 -0.1634  0.1287 -0.6080
 5638SOL    HW128376   3.639   1.463  16.493 -1.7183 -0.1172  0.3055
 5638SOL    HW228377   3.612   1.512  16.628  1.3519  0.6560  1.1535
 5639SOL     OW28378   4.053   2.163  14.634 -0.0279  0.3106 -0.1515
 5639SOL    HW128379   3.963   2.159  14.600 -0.6376 -3.4842  1.8976
 5639SOL    HW228380   4.044   2.118  14.718  0.5348  0.1014 -0.2040
 5640SOL     OW28381   4.134   0.950   3.025 -0.5407  0.3244 -0.1542
 5640SOL    HW128382   4.170   0.861   3.030 -1.1260  0.1013  0.2326
 5640SOL    HW228383   4.094   0.942   2.939  1.6816  1.7351 -1.3215
 5641SOL     OW28384   2.796   2.563  16.927 -0.4378 -0.4897 -0.6533
 5641SOL    HW128385   2.872   2.620  16.917 -2.0983  1.8592 -0.0073
 5641SOL    HW228386   2.740   2.621  16.978 -0.2329 -2.0761  1.3734
 5642SOL     OW28387   2.193   1.587   9.131 -0.0645 -0.2098  0.0876
 5642SOL    HW128388   2.259   1.601   9.198  0.9981  1.3633 -1.2685
 5642SOL    HW228389   2.226   1.650   9.066  0.3644 -1.1306 -0.5754
 5643SOL     OW28390   3.456   2.224   2.750  0.1435  0.0583  0.6857
 5643SOL    HW128391   3.413   2.245   2.667 -1.0677 -1.3976  0.9495
 5643SOL    HW228392   3.402   2.151   2.780  0.9748 -0.6278  0.4967
 5644SOL     OW28393   0.394   2.347  13.727  0.3467  0.0242  0.0240
 5644SOL    HW128394   0.361   2.338  13.817 -0.6871  1.0339 -0.2513
 5644SOL    HW228395   0.469   2.288  13.732 -0.0582 -0.4729  0.1996
 5645SOL     OW28396   1.339   0.432  17.215 -0.1053  0.4183  0.1728
 5645SOL    HW128397   1.304   0.508  17.168  2.3703  2.4116  1.5168
 5645SOL    HW228398   1.299   0.449  17.301 -0.4988  2.2982 -0.3859
 5646SOL     OW28399   1.694   1.419   9.162 -0.7112  0.0939  0.2669
 5646SOL    HW128400   1.699   1.401   9.256 -0.6462 -1.7085 -0.0886
 5646SOL    HW228401   1.763   1.485   9.162  1.7513 -2.4949  0.4574
 5647SOL     OW28402   4.338   2.895   8.637 -0.1618  0.0702  0.8152
 5647SOL    HW128403   4.374   2.866   8.721  1.7529 -1.0548 -0.3999
 5647SOL    HW228404   4.418   2.916   8.589 -2.1414  1.4403 -1.8613
 5648SOL     OW28405   3.653   2.008   2.650 -0.1092 -0.1286  0.5870
 5648SOL    HW128406   3.564   1.973   2.662 -0.1388 -0.7595 -1.4013
 5648SOL    HW228407   3.637   2.078   2.587  2.1546  0.5242  0.7345
 5649SOL     OW28408   3.534   0.324   4.759 -0.6942 -1.1562  0.0517
 5649SOL    HW128409   3.579   0.257   4.707 -0.7673  0.4945 -2.1899
 5649SOL    HW228410   3.610   0.342   4.815 -0.5491  0.7998 -0.7475
 5650SOL     OW28411   2.362   3.904   7.298 -0.0306 -0.2993 -0.1869
 5650SOL    HW128412   2.441   3.927   7.249 -0.3487  2.0706  0.3653
 5650SOL    HW228413   2.348   3.815   7.266 -0.6333 -0.3300  0.1663
 5651SOL     OW28414   0.045   1.294   6.467  0.6255 -0.6015 -0.2616
 5651SOL    HW128415   0.087   1.295   6.553  1.4695 -1.6921 -0.6459
 5651SOL    HW228416   4.709   1.223   6.488 -1.0344  1.1050  0.6616
 5652SOL     OW28417   1.680   4.517   6.522  1.0162 -0.4110  0.3281
 5652SOL    HW128418   1.770   4.541   6.503  0.5267 -0.3286 -1.8755
 5652SOL    HW228419   1.643   4.605   6.515  2.8489  0.2837 -0.5963
 5653SOL     OW28420   3.746   0.872   8.966 -0.6515  0.1512  0.2067
 5653SOL    HW128421   3.720   0.955   9.007  0.0431  1.4044 -1.9070
 5653SOL    HW228422   3.838   0.866   8.992 -0.4298  0.9853 -0.3528
 5654SOL     OW28423   1.166   1.277  13.667  0.9839 -0.0451  0.1127
 5654SOL    HW128424   1.189   1.346  13.605 -1.4173  0.4703 -0.1980
 5654SOL    HW228425   1.104   1.235  13.607  0.2463  1.5428 -0.2476
 5655SOL     OW28426   2.471   3.450   8.406  0.2470 -0.0034  0.0733
 5655SOL    HW128427   2.540   3.506   8.439 -0.4999 -0.2217  1.9795
 5655SOL    HW228428   2.480   3.370   8.458 -2.0506  0.5359  1.3168
 5656SOL     OW28429   3.901   4.250   5.099 -0.3624  0.1998 -0.1425
 5656SOL    HW128430   3.956   4.253   5.178  0.0418 -0.2873 -0.4061
 5656SOL    HW228431   3.966   4.227   5.033  0.8026 -1.1725  1.4837
 5657SOL     OW28432   3.471   3.099   2.569 -0.2298  0.2886  0.4225
 5657SOL    HW128433   3.532   3.166   2.601  1.6152 -0.8449 -0.7041
 5657SOL    HW228434   3.519   3.018   2.586 -1.6433 -0.3329  1.4620
 5658SOL     OW28435   2.907   2.537  16.527  0.0850  0.4240 -0.8308
 5658SOL    HW128436   2.900   2.454  16.479  2.8866 -0.7846  0.9201
 5658SOL    HW228437   2.825   2.575  16.493 -0.3514  0.7546  0.5698
 5659SOL     OW28438   2.100   2.494   0.490  0.3559 -0.1534 -0.8428
 5659SOL    HW128439   2.185   2.527   0.520  1.0749 -1.0240 -1.9050
 5659SOL    HW228440   2.116   2.400   0.502 -3.0743 -0.6920 -0.5460
 5660SOL     OW28441   4.003   3.609   6.405  0.2366 -0.1142 -0.5388
 5660SOL    HW128442   4.098   3.627   6.406  0.1039  0.6509 -1.7532
 5660SOL    HW228443   3.996   3.529   6.458  3.6780 -0.6116 -0.8209
 5661SOL     OW28444   3.357   3.215  14.353 -0.3044 -0.0183 -0.4830
 5661SOL    HW128445   3.383   3.262  14.433 -2.2363 -1.2833  0.8875
 5661SOL    HW228446   3.286   3.163  14.391 -1.2778  1.8885  0.2940
 5662SOL     OW28447   1.729   1.004   8.993 -0.1412 -0.5910 -0.1743
 5662SOL    HW128448   1.799   1.069   8.986 -0.9065  0.1611 -0.8552
 5662SOL    HW228449   1.764   0.948   8.924  2.2386 -1.2491  1.5649
 5663SOL     OW28450   1.978   2.792   7.223  0.2584 -0.3016 -0.8182
 5663SOL    HW128451   2.057   2.765   7.176  0.8567  1.0438 -0.6021
 5663SOL    HW228452   1.928   2.713   7.203 -1.9336  0.9676 -0.3797
 5664SOL     OW28453   1.278   0.057   3.791 -0.0634 -0.4866  0.5265
 5664SOL    HW128454   1.309   0.148   3.788 -1.4922  0.0538  2.3505
 5664SOL    HW228455   1.253   0.050   3.699 -1.8623 -0.7083  1.0402
 5665SOL     OW28456   0.971   4.469  10.892 -0.5257  0.1913 -0.4269
 5665SOL    HW128457   0.902   4.422  10.845 -1.0131  2.0814 -1.6353
 5665SOL    HW228458   1.025   4.395  10.919 -1.3578 -0.2612  0.0166
 5666SOL     OW28459   0.566   0.635   6.328  0.1296  0.0392  0.3260
 5666SOL    HW128460   0.490   0.675   6.284  0.1795 -0.3202 -0.0873
 5666SOL    HW228461   0.538   0.552   6.367 -2.0642  0.3025 -0.6553
 5667SOL     OW28462   2.788   3.894  12.894 -0.3128  0.3489  0.2857
 5667SOL    HW128463   2.818   3.816  12.941  0.9337 -0.4897 -1.9450
 5667SOL    HW228464   2.858   3.958  12.900  0.3363 -0.4510  1.3477
 5668SOL     OW28465   0.016   4.683   1.528 -0.0194  0.4292  0.3895
 5668SOL    HW128466   4.681   4.609   1.523  0.7965 -0.2703  0.7675
 5668SOL    HW228467   4.677   0.026   1.549  1.8286  2.2279  0.2001
 5669SOL     OW28468   3.745   1.657   3.597 -0.0098  0.7276 -0.8395
 5669SOL    HW128469   3.787   1.570   3.592 -2.5009 -0.2619 -4.2957
 5669SOL    HW228470   3.775   1.684   3.683 -0.2163  2.6035 -1.3648
 5670SOL     OW28471   0.771   3.489  16.020  0.5278  0.3565  0.4199
 5670SOL    HW128472   0.832   3.427  15.982  0.6097  0.5240  0.2785
 5670SOL    HW228473   0.780   3.572  15.972 -1.1563  0.8995  1.0337
 5671SOL     OW28474   0.750   3.840   8.132  0.5136 -0.1937  0.0339
 5671SOL    HW128475   0.791   3.824   8.217  0.0702 -0.1986  0.2456
 5671SOL    HW228476   0.822   3.836   8.068 -1.1585 -1.5346 -1.7480
 5672SOL     OW28477   3.566   3.334   6.592 -0.7606 -0.0381 -0.1051
 5672SOL    HW128478   3.599   3.423   6.604  1.1375 -0.6985 -0.4566
 5672SOL    HW228479   3.482   3.324   6.637 -0.3438 -0.0512  0.6558
 5673SOL     OW28480   0.939   1.333  14.747 -0.4735 -0.2176  0.1044
 5673SOL    HW128481   0.924   1.261  14.808  1.2912  1.5401  2.6201
 5673SOL    HW228482   0.851   1.357  14.720 -0.9619 -1.5387  0.5101
 5674SOL     OW28483   1.533   2.545   5.231 -0.4653  0.1296  0.9387
 5674SOL    HW128484   1.488   2.596   5.163 -1.5336  0.8132  2.1666
 5674SOL    HW228485   1.571   2.618   5.281  0.7079 -1.1281  1.8751
 5675SOL     OW28486   1.095   0.868  12.422 -0.0200  0.0810  0.2497
 5675SOL    HW128487   1.099   0.962  12.438 -2.3738  0.4322 -1.2955
 5675SOL    HW228488   1.046   0.838  12.499  1.8166 -1.0975  0.9687
 5676SOL     OW28489   1.458   3.996   2.386 -0.4678 -0.1813  0.0283
 5676SOL    HW128490   1.553   3.993   2.374 -0.6082 -0.0229 -1.0996
 5676SOL    HW228491   1.438   3.905   2.406  1.5064 -0.7907 -0.6727
 5677SOL     OW28492   2.007   4.591   7.495  0.4783 -0.3193 -0.2066
 5677SOL    HW128493   1.990   4.650   7.569  0.1609  0.5196 -0.9479
 5677SOL    HW228494   2.093   4.622   7.467  1.3463 -2.5137  0.0745
 5678SOL     OW28495   2.823   2.179   2.610  0.1561 -0.0546 -0.9009
 5678SOL    HW128496   2.753   2.115   2.595  0.0678  0.9278 -4.7606
 5678SOL    HW228497   2.900   2.126   2.630 -0.1276 -0.8124 -1.8257
 5679SOL     OW28498   4.153   2.336   1.762  0.4989  0.2323  0.2957
 5679SOL    HW128499   4.096   2.413   1.770  1.1553  0.7400  0.1011
 5679SOL    HW228500   4.159   2.335   1.666  0.8756  0.5082  0.3203
 5680SOL     OW28501   0.500   4.126  10.924  0.4568  0.4510  0.6435
 5680SOL    HW128502   0.555   4.048  10.911  0.9034  0.5608  1.8969
 5680SOL    HW228503   0.564   4.184  10.966  0.7809  0.6587 -0.1358
 5681SOL     OW28504   3.524   3.788   3.358 -0.6277 -0.3052 -0.4910
 5681SOL    HW128505   3.561   3.871   3.326  1.0888  0.4950  3.5261
 5681SOL    HW228506   3.602   3.762   3.407 -0.4137 -0.7119 -1.0475
 5682SOL     OW28507   0.455   1.864   6.479  0.0354 -0.0567 -1.2737
 5682SOL    HW128508   0.409   1.869   6.395 -1.9776 -0.2189 -0.2028
 5682SOL    HW228509   0.395   1.808   6.529 -1.0225  1.0837 -1.2383
 5683SOL     OW28510   2.899   2.226  10.691 -0.5201  0.0873 -0.0053
 5683SOL    HW128511   2.943   2.261  10.614 -1.4847 -0.8519 -0.9832
 5683SOL    HW228512   2.834   2.294  10.709 -1.0007 -0.3008 -0.2854
 5684SOL     OW28513   0.007   4.612   9.955 -0.6948 -0.2012  0.4601
 5684SOL    HW128514   4.646   4.585   9.988 -0.7495  0.3148  0.7357
 5684SOL    HW228515   0.047   4.530   9.924  2.2139  0.9244  1.2376
 5685SOL     OW28516   4.430   2.671   2.763 -0.1402  0.0617 -0.4475
 5685SOL    HW128517   4.448   2.737   2.830 -1.9280  1.3078 -1.1849
 5685SOL    HW228518   4.471   2.596   2.807 -1.5487 -0.6089 -0.2726
 5686SOL     OW28519   3.554   2.228   7.209 -0.3604  0.3982  0.3271
 5686SOL    HW128520   3.643   2.251   7.184  0.0927 -1.8048 -0.0767
 5686SOL    HW228521   3.493   2.240   7.137  0.6765  0.6275 -0.5145
 5687SOL     OW28522   4.042   4.004   9.729  0.3096  0.0499 -0.2080
 5687SOL    HW128523   4.009   4.047   9.651  3.0964  2.3975 -0.1004
 5687SOL    HW228524   4.133   3.988   9.705  0.1937  0.1790 -0.7171
 5688SOL     OW28525   1.436   1.043   5.180  0.3960  0.2598  0.0389
 5688SOL    HW128526   1.506   1.020   5.119  1.1684  0.6173  0.7865
 5688SOL    HW228527   1.424   1.134   5.155 -0.4469 -0.0086 -0.5170
 5689SOL     OW28528   3.045   4.359   4.488 -0.2036 -0.1485 -0.6698
 5689SOL    HW128529   3.046   4.282   4.544 -0.0359 -0.3253 -0.9202
 5689SOL    HW228530   2.954   4.376   4.461 -0.8570 -2.3134  0.2561
 5690SOL     OW28531   3.659   4.632   5.848  0.3791 -0.1566 -0.2117
 5690SOL    HW128532   3.742   4.677   5.834  0.6719 -0.9879 -1.1850
 5690SOL    HW228533   3.692   4.545   5.871 -2.1640 -1.4364 -1.3974
 5691SOL     OW28534   1.506   1.959   2.222 -0.3939  0.2213 -0.0223
 5691SOL    HW128535   1.581   1.970   2.163 -2.1711  0.0091 -2.3221
 5691SOL    HW228536   1.441   1.904   2.178 -2.4698  0.0756  3.1988
 5692SOL     OW28537   0.651   2.851  12.557  0.3640 -0.1346 -0.1297
 5692SOL    HW128538   0.602   2.785  12.606 -0.5236  0.7664  0.1976
 5692SOL    HW228539   0.615   2.934  12.589 -0.9922 -0.4301 -0.9165
 5693SOL     OW28540   0.203   0.521  12.171 -0.0648 -0.0004  0.3659
 5693SOL    HW128541   0.226   0.599  12.220  2.1653 -0.6913  0.4328
 5693SOL    HW228542   0.109   0.513  12.189 -0.0137  0.5555  0.8751
 5694SOL     OW28543   1.132   0.552   2.300 -0.0818 -0.3829  0.0668
 5694SOL    HW128544   1.088   0.576   2.381  2.1956 -1.9835  1.7685
 5694SOL    HW228545   1.212   0.605   2.307  0.0146 -0.4430 -0.5910
 5695SOL     OW28546   4.347   0.832   5.330 -0.0822 -0.0858  0.1294
 5695SOL    HW128547   4.257   0.806   5.310 -0.4754 -0.5252  2.5221
 5695SOL    HW228548   4.396   0.812   5.250 -0.7910 -0.1688 -0.2799
 5696SOL     OW28549   0.589   2.519  15.538 -0.0463  0.3848  0.2029
 5696SOL    HW128550   0.525   2.590  15.540 -0.5788 -0.1222  1.1480
 5696SOL    HW228551   0.580   2.474  15.455 -1.1536  0.3126  0.3682
 5697SOL     OW28552   1.148   4.567   8.963 -0.2282  0.7069  0.5692
 5697SOL    HW128553   1.137   4.612   8.879  1.3135  0.7803  0.4078
 5697SOL    HW228554   1.093   4.623   9.018 -1.0399 -0.0792  0.5538
 5698SOL     OW28555   2.375   3.833   4.499 -0.4173 -0.6512 -0.3335
 5698SOL    HW128556   2.316   3.792   4.562  1.9565 -0.9214  1.7273
 5698SOL    HW228557   2.441   3.864   4.561 -1.0180  0.7220 -0.3781
 5699SOL     OW28558   4.273   3.875   8.447 -0.0595 -0.2757  0.3659
 5699SOL    HW128559   4.314   3.929   8.380 -0.7036 -1.1663 -0.7256
 5699SOL    HW228560   4.328   3.797   8.447 -0.2140 -0.3610 -2.2123
 5700SOL     OW28561   2.711   0.052  13.853 -0.2651  0.0295  0.2137
 5700SOL    HW128562   2.775   0.074  13.921  1.3643 -1.2125 -0.9152
 5700SOL    HW228563   2.721   0.124  13.791 -1.3844 -0.2101 -0.2300
 5701SOL     OW28564   1.383   2.836  11.372 -0.4676 -0.0077 -0.4537
 5701SOL    HW128565   1.365   2.743  11.358  0.0305 -0.1491 -0.1628
 5701SOL    HW228566   1.307   2.855  11.427  0.6981  0.7205  0.9129
 5702SOL     OW28567   1.397   2.718   7.225  0.0421  0.2257  0.4868
 5702SOL    HW128568   1.367   2.758   7.307  0.8357  0.8535  0.4737
 5702SOL    HW228569   1.328   2.654   7.208 -0.4357  1.2587 -1.3924
 5703SOL     OW28570   0.130   1.621   1.871 -0.6107 -0.0280  0.5004
 5703SOL    HW128571   0.155   1.712   1.883  2.1536 -0.7132 -0.1279
 5703SOL    HW228572   0.167   1.582   1.950 -1.0533  0.2196  0.8271
 5704SOL     OW28573   1.843   1.910   5.688  0.2499  0.4363  0.2518
 5704SOL    HW128574   1.880   1.905   5.777  1.2182 -1.1146 -0.2523
 5704SOL    HW228575   1.758   1.949   5.711  1.0637  1.3092  1.8399
 5705SOL     OW28576   0.359   1.913   5.417  0.2926  0.1960  0.1346
 5705SOL    HW128577   0.264   1.921   5.414  0.6257  3.4767 -0.8424
 5705SOL    HW228578   0.396   1.957   5.494  2.0511 -0.1832 -0.4786
 5706SOL     OW28579   4.698   0.715  15.258 -0.3289  0.0817 -0.9358
 5706SOL    HW128580   4.616   0.710  15.308 -1.1564  2.3069 -2.0746
 5706SOL    HW228581   4.675   0.767  15.182 -2.1342 -0.2688 -0.6242
 5707SOL     OW28582   1.723   0.565   2.696  0.5160 -0.1623 -0.5263
 5707SOL    HW128583   1.658   0.630   2.724  0.9313 -0.2997  0.7428
 5707SOL    HW228584   1.803   0.618   2.696  0.7071 -0.4539 -0.3425
 5708SOL     OW28585   4.233   0.557   5.215  0.4725  0.5926 -0.4486
 5708SOL    HW128586   4.218   0.531   5.125  0.2856 -3.3570  0.7143
 5708SOL    HW228587   4.324   0.587   5.205  0.1723  1.1471 -1.4954
 5709SOL     OW28588   1.394   3.751   2.504  0.3031  0.0095  0.7722
 5709SOL    HW128589   1.306   3.733   2.471  0.1483  1.4986  0.3785
 5709SOL    HW228590   1.437   3.666   2.513 -0.0148 -0.1903  0.4008
 5710SOL     OW28591   3.461   3.353  14.577 -0.0585  0.6100  0.2483
 5710SOL    HW128592   3.510   3.307  14.645 -0.3596  0.6355  0.4790
 5710SOL    HW228593   3.408   3.401  14.640 -0.2978  0.5290  0.1091
 5711SOL     OW28594   1.106   2.501   2.577  0.3128 -0.2225 -0.2907
 5711SOL    HW128595   1.180   2.528   2.522  2.6033 -1.3792  2.1802
 5711SOL    HW228596   1.061   2.581   2.601  0.0009 -0.5220  0.1304
 5712SOL     OW28597   3.909   4.547   3.492 -0.0998  0.2540 -0.6120
 5712SOL    HW128598   3.826   4.547   3.443 -0.8730  1.8971  0.6890
 5712SOL    HW228599   3.936   4.639   3.498 -0.2508  0.2556  0.0037
 5713SOL     OW28600   3.335   1.153   4.232 -0.4202  0.1241  0.2249
 5713SOL    HW128601   3.346   1.117   4.144  0.0590  0.9934 -0.0638
 5713SOL    HW228602   3.359   1.081   4.290  1.9606 -1.6068 -2.9063
 5714SOL     OW28603   1.942   1.711   7.205 -0.2650 -0.3162 -0.0674
 5714SOL    HW128604   1.889   1.712   7.284  0.0651 -0.0905  0.1523
 5714SOL    HW228605   1.918   1.794   7.163  0.1316  0.5674  1.4409
 5715SOL     OW28606   3.310   2.837   9.635  0.1140  0.1175  0.1147
 5715SOL    HW128607   3.241   2.835   9.700 -0.9767  0.6675 -1.0166
 5715SOL    HW228608   3.264   2.892   9.571  0.7783 -1.0115 -1.3529
 5716SOL     OW28609   2.810   0.754   3.459  0.5183  0.1823  0.2911
 5716SOL    HW128610   2.801   0.805   3.540  1.3845  1.7934 -0.6325
 5716SOL    HW228611   2.883   0.693   3.458 -0.2759 -0.7523 -0.0406
 5717SOL     OW28612   1.014   2.609   6.208 -0.3411 -0.1211  0.2882
 5717SOL    HW128613   0.967   2.675   6.156 -0.4123 -0.9060 -0.6450
 5717SOL    HW228614   0.982   2.526   6.174  0.1971 -0.5983  0.9566
 5718SOL     OW28615   3.127   3.186  13.130  0.7500 -0.0534  0.1577
 5718SOL    HW128616   3.186   3.115  13.154 -0.0466 -0.8636 -0.2887
 5718SOL    HW228617   3.188   3.260  13.127  0.5777  0.1279  1.4621
 5719SOL     OW28618   0.837   0.550   6.354 -0.0015  0.0077 -0.1410
 5719SOL    HW128619   0.874   0.614   6.415 -0.6283  1.8790 -1.7252
 5719SOL    HW228620   0.743   0.557   6.366 -0.4038 -1.0563 -2.8134
 5720SOL     OW28621   1.339   4.394   6.799  0.2339 -0.3912 -0.1094
 5720SOL    HW128622   1.361   4.390   6.706 -0.1256  0.4248 -0.2305
 5720SOL    HW228623   1.245   4.373   6.796  0.0749  0.6395 -2.0174
 5721SOL     OW28624   3.166   2.542   7.069  0.0979  0.2825  0.2516
 5721SOL    HW128625   3.241   2.532   7.127 -0.7598  0.7541  1.4444
 5721SOL    HW228626   3.205   2.571   6.987 -0.8270  0.9592  0.0534
 5722SOL     OW28627   2.098   3.852   8.732  0.4044  0.0232  0.2361
 5722SOL    HW128628   2.191   3.866   8.752  0.4747  2.4389 -1.8463
 5722SOL    HW228629   2.083   3.912   8.660 -1.0658  1.2865  1.6128
 5723SOL     OW28630   1.638   3.287   2.724 -0.2763  0.0369 -0.5448
 5723SOL    HW128631   1.599   3.211   2.767 -1.5997  0.0403 -1.7442
 5723SOL    HW228632   1.669   3.329   2.804  1.5460 -0.5022 -0.9465
 5724SOL     OW28633   0.678   4.138   6.582  0.0446  0.1409  0.6160
 5724SOL    HW128634   0.665   4.217   6.634  0.3877 -0.7360  2.0404
 5724SOL    HW228635   0.589   4.104   6.580 -0.6427  2.0117 -0.4324
 5725SOL     OW28636   3.181   2.875   9.879  0.2026 -0.2256  0.1115
 5725SOL    HW128637   3.183   2.968   9.859  2.5284 -0.4290 -0.6490
 5725SOL    HW228638   3.175   2.868   9.974  0.7309  1.9112  0.2901
 5726SOL     OW28639   3.614   1.955   6.518 -0.0148  0.8434 -0.6820
 5726SOL    HW128640   3.551   1.911   6.461 -1.7337  2.9172 -0.3880
 5726SOL    HW228641   3.581   1.963   6.607  0.7709  0.5646 -0.3592
 5727SOL     OW28642   1.132   0.684  13.403  0.0877 -0.1994 -0.0758
 5727SOL    HW128643   1.043   0.651  13.392 -0.1955  0.4249  0.3316
 5727SOL    HW228644   1.122   0.723  13.490 -2.0006 -0.4285 -0.2285
 5728SOL     OW28645   1.115   0.898  13.741 -0.5309  0.0372  0.0724
 5728SOL    HW128646   1.055   0.921  13.812  1.0515  1.5593  0.9090
 5728SOL    HW228647   1.089   0.957  13.670  0.7058  1.7842  1.0555
 5729SOL     OW28648   3.425   0.379   0.561 -1.1101 -0.4660 -0.4786
 5729SOL    HW128649   3.452   0.290   0.584  1.4160 -0.0145 -1.7625
 5729SOL    HW228650   3.486   0.400   0.491 -0.3615  1.0626  0.6306
 5730SOL     OW28651   4.393   0.279  16.331  0.1821 -0.4129 -0.3903
 5730SOL    HW128652   4.376   0.364  16.371  2.6284 -0.5899  1.0713
 5730SOL    HW228653   4.330   0.272  16.260  1.2757 -4.1796 -0.9680
 5731SOL     OW28654   0.570   0.322   2.102  0.3103 -0.2327 -0.0839
 5731SOL    HW128655   0.581   0.410   2.136  0.9321 -0.5382  0.5107
 5731SOL    HW228656   0.568   0.336   2.007 -0.8467 -0.9411 -0.1694
 5732SOL     OW28657   2.398   2.203  16.101  0.3632 -0.3748 -0.0331
 5732SOL    HW128658   2.402   2.168  16.190 -0.8850 -2.1978 -0.6922
 5732SOL    HW228659   2.486   2.236  16.082  0.2401 -0.8907 -1.4829
 5733SOL     OW28660   2.523   1.913   3.179  0.6426 -0.2237 -0.3328
 5733SOL    HW128661   2.597   1.974   3.174  0.1192  0.2637 -2.2884
 5733SOL    HW228662   2.446   1.962   3.150  1.4104  0.1150 -1.7956
 5734SOL     OW28663   0.799   4.646  15.274 -0.2983  0.1951 -0.2105
 5734SOL    HW128664   0.726   4.701  15.303  1.2401  2.1485 -0.1388
 5734SOL    HW228665   0.828   4.608  15.358  1.0978 -0.3116 -0.9248
 5735SOL     OW28666   0.277   3.418   2.544 -0.1661 -0.2241 -0.5682
 5735SOL    HW128667   0.190   3.457   2.543 -0.5835 -1.1568 -0.7752
 5735SOL    HW228668   0.257   3.324   2.547  0.5057 -0.3769 -0.9002
 5736SOL     OW28669   3.496   0.863   7.492  0.0341 -0.4160 -0.4861
 5736SOL    HW128670   3.455   0.919   7.558 -1.5724 -2.2787  0.1150
 5736SOL    HW228671   3.450   0.893   7.414 -0.6188 -1.1297 -0.3854
 5737SOL     OW28672   2.328   1.642  13.453  0.1687 -0.3931  0.2477
 5737SOL    HW128673   2.392   1.638  13.524  0.5967  0.6362 -0.0772
 5737SOL    HW228674   2.274   1.565  13.470  0.4979 -0.5405  0.6167
 5738SOL     OW28675   1.789   0.832   8.335 -0.4506  0.0829 -0.5700
 5738SOL    HW128676   1.717   0.871   8.384 -0.0606 -0.5041  0.4630
 5738SOL    HW228677   1.851   0.901   8.310  3.5949 -2.7692  1.4887
 5739SOL     OW28678   3.014   3.883   7.917 -0.7843  0.1569 -0.0140
 5739SOL    HW128679   2.984   3.843   7.998 -0.4547  1.5419  0.7913
 5739SOL    HW228680   3.082   3.819   7.897 -3.5579 -1.8785 -3.0076
 5740SOL     OW28681   2.818   0.334  11.217  0.0265  0.5573  0.1166
 5740SOL    HW128682   2.854   0.380  11.293 -0.6227  0.9951  0.1563
 5740SOL    HW228683   2.876   0.375  11.154  0.3571  1.3771  0.9678
 5741SOL     OW28684   3.875   4.524   4.459  0.0885  0.0162 -0.4336
 5741SOL    HW128685   3.858   4.468   4.535 -0.5619  1.0900  0.2171
 5741SOL    HW228686   3.877   4.460   4.388  1.8949 -0.3038 -0.0820
 5742SOL     OW28687   0.069   1.538  12.486 -0.6026  0.3044 -0.2745
 5742SOL    HW128688   0.040   1.596  12.414 -0.5808 -0.4045 -0.8578
 5742SOL    HW228689   0.108   1.460  12.446 -0.6085 -0.0369  0.3934
 5743SOL     OW28690   3.138   4.266   3.739  0.6012  0.2958 -0.3306
 5743SOL    HW128691   3.085   4.272   3.819  1.6757  1.3971  0.3036
 5743SOL    HW228692   3.074   4.293   3.673  3.2023  0.2581 -2.8264
 5744SOL     OW28693   4.023   2.802   2.335 -0.7206 -0.3241 -0.4028
 5744SOL    HW128694   4.007   2.710   2.354 -0.7692 -0.7057 -2.2363
 5744SOL    HW228695   3.995   2.808   2.244  2.0214  1.3538 -1.1470
 5745SOL     OW28696   4.396   1.746  16.424  0.4036 -0.3978 -0.1905
 5745SOL    HW128697   4.356   1.708  16.346  0.0704 -0.7448  0.1480
 5745SOL    HW228698   4.328   1.810  16.445  1.0748 -0.2913  1.6453
 5746SOL     OW28699   3.961   0.337  11.209 -0.1283 -0.0796  0.0022
 5746SOL    HW128700   3.918   0.380  11.283  0.8731 -2.9437  2.2920
 5746SOL    HW228701   3.892   0.350  11.144 -0.0297 -0.2963 -0.1445
 5747SOL     OW28702   0.311   1.990  10.481 -0.5800 -0.3279 -0.1759
 5747SOL    HW128703   0.232   1.940  10.502 -2.1471  3.0707  2.1139
 5747SOL    HW228704   0.272   2.067  10.439 -0.8851  0.2389  1.1634
 5748SOL     OW28705   3.614   0.612  10.397  0.0460  0.0697 -0.1004
 5748SOL    HW128706   3.667   0.679  10.354 -0.7956  0.0690 -1.1491
 5748SOL    HW228707   3.564   0.664  10.460  0.8095  0.7932 -0.0930
 5749SOL     OW28708   1.520   3.245   2.033  0.1519 -0.7755  0.0416
 5749SOL    HW128709   1.436   3.238   1.988  0.8604 -0.1606 -1.3757
 5749SOL    HW228710   1.567   3.178   1.983 -0.6167 -0.6691 -0.8351
 5750SOL     OW28711   4.713   1.499   4.537 -0.3669  0.4669 -0.1741
 5750SOL    HW128712   0.043   1.535   4.468  1.0698  1.0229  1.2703
 5750SOL    HW228713   0.042   1.513   4.615 -1.3797 -2.2178  1.0188
 5751SOL     OW28714   1.562   4.370   7.074  0.4510 -0.0305  0.2796
 5751SOL    HW128715   1.480   4.399   7.114  0.9314  0.0994  1.1881
 5751SOL    HW228716   1.586   4.283   7.106  1.7917 -0.0814 -0.8590
 5752SOL     OW28717   0.628   1.434   8.696 -0.3039 -0.4657  0.5667
 5752SOL    HW128718   0.668   1.470   8.618 -0.5504 -0.8876  0.2470
 5752SOL    HW228719   0.702   1.385   8.731 -0.7744 -0.5034  1.5157
 5753SOL     OW28720   3.024   4.146   6.663  0.0151  0.0270 -0.1116
 5753SOL    HW128721   3.041   4.053   6.676  2.1614  0.5444  0.6100
 5753SOL    HW228722   3.101   4.173   6.614 -1.6670  1.0837 -2.1706
 5754SOL     OW28723   2.812   3.922  17.692 -0.5004 -0.0370  0.4007
 5754SOL    HW128724   2.847   3.986   0.051  1.4694  0.8567 -1.6598
 5754SOL    HW228725   2.728   3.968  17.686  0.4953  1.7460  0.1207
 5755SOL     OW28726   1.949   3.092   4.054 -0.3786 -0.5096 -0.2149
 5755SOL    HW128727   2.007   3.019   4.033  1.3637  0.7029  0.3169
 5755SOL    HW228728   1.894   3.093   3.976  1.4515 -1.3209 -1.5388
 5756SOL     OW28729   4.528   4.328   6.942 -0.0188  0.7481 -0.2694
 5756SOL    HW128730   4.440   4.343   6.976  0.4777  2.1020  0.4155
 5756SOL    HW228731   4.523   4.388   6.867 -0.0525  0.2266 -0.6829
 5757SOL     OW28732   2.559   2.889   6.060  0.3537 -0.0519  0.1458
 5757SOL    HW128733   2.629   2.946   6.030 -0.8236  0.9743 -0.6761
 5757SOL    HW228734   2.599   2.802   6.055 -1.5928 -0.8798 -1.2692
 5758SOL     OW28735   3.354   0.047   3.071  0.5725 -0.0685  0.2647
 5758SOL    HW128736   3.385   4.714   3.002  0.1921 -2.3802  2.0636
 5758SOL    HW228737   3.312   0.122   3.029  1.4717  1.3409  1.8717
 5759SOL     OW28738   3.442   4.399  11.598 -0.2436 -0.2796  0.0097
 5759SOL    HW128739   3.363   4.390  11.651 -0.2707  0.8263  0.1534
 5759SOL    HW228740   3.410   4.368  11.514  0.6047  0.1492 -0.4647
 5760SOL     OW28741   0.445   0.081   1.091 -0.4425  0.1182  0.1589
 5760SOL    HW128742   0.505   0.009   1.107 -0.4611  0.9615  3.9953
 5760SOL    HW228743   0.496   0.158   1.116 -0.0103  0.1183 -0.7177
 5761SOL     OW28744   1.481   0.643   1.490  0.2256  0.1677 -0.3411
 5761SOL    HW128745   1.474   0.550   1.468 -1.8249 -0.4848  3.1090
 5761SOL    HW228746   1.442   0.634   1.576  1.7772  1.7062  0.5248
 5762SOL     OW28747   3.870   1.093   2.304  0.1830 -0.3385  0.3561
 5762SOL    HW128748   3.957   1.079   2.341  0.5060 -0.5164 -0.4762
 5762SOL    HW228749   3.882   1.179   2.264  1.6636 -0.1570  1.1878
 5763SOL     OW28750   1.514   1.967   6.906 -0.5553  0.0981  0.2428
 5763SOL    HW128751   1.513   2.039   6.843 -1.1992  1.2910  1.6043
 5763SOL    HW228752   1.422   1.940   6.908 -0.7435  0.7349  0.2245
 5764SOL     OW28753   3.948   1.504   7.352 -0.1356  0.0115 -0.4243
 5764SOL    HW128754   3.944   1.532   7.443 -0.0237 -0.9369 -0.1196
 5764SOL    HW228755   3.863   1.461   7.339 -0.4186  0.0730  1.1865
 5765SOL     OW28756   4.677   0.935  16.810 -0.7231 -0.6817 -0.6511
 5765SOL    HW128757   4.606   0.878  16.781 -1.5879  0.6767 -1.1825
 5765SOL    HW228758   4.653   1.016  16.767  0.0148 -1.0703 -1.8059
 5766SOL     OW28759   1.195   0.847   4.427  0.2920 -0.0575 -0.2033
 5766SOL    HW128760   1.158   0.916   4.373 -0.1995 -0.0620  0.1248
 5766SOL    HW228761   1.149   0.769   4.397  0.4447  1.0623 -3.2797
 5767SOL     OW28762   3.532   0.163   7.007 -0.1960  0.1329  0.3024
 5767SOL    HW128763   3.573   0.078   6.988 -0.3533  0.1141  0.0580
 5767SOL    HW228764   3.571   0.185   7.092  1.3124  0.3187 -0.4285
 5768SOL     OW28765   3.410   2.531   7.170  0.1508  0.4061 -0.2550
 5768SOL    HW128766   3.479   2.589   7.204  0.2745  0.6991 -1.0168
 5768SOL    HW228767   3.462   2.509   7.092 -1.6244  0.5009 -1.4533
 5769SOL     OW28768   3.262   4.572  11.141  0.5859  0.2667 -0.5069
 5769SOL    HW128769   3.297   4.579  11.230  0.6367  1.0218 -0.5909
 5769SOL    HW228770   3.168   4.573  11.159  0.0043 -0.1610 -3.6048
 5770SOL     OW28771   1.095   4.295   3.573 -0.2304  0.4253 -0.3248
 5770SOL    HW128772   1.166   4.238   3.603 -1.7715 -1.2659  0.1435
 5770SOL    HW228773   1.031   4.228   3.547 -2.3072  1.8672  1.1667
 5771SOL     OW28774   3.704   0.754   7.315 -0.0557  0.0806  0.2054
 5771SOL    HW128775   3.640   0.783   7.380 -0.5049 -0.1650 -0.1298
 5771SOL    HW228776   3.762   0.697   7.365 -1.0793 -0.1137  1.1676
 5772SOL     OW28777   0.919   2.543   6.860  0.2600  0.2700 -0.3456
 5772SOL    HW128778   0.919   2.627   6.905  1.8424 -0.0228  0.1717
 5772SOL    HW228779   1.010   2.516   6.855 -0.1540 -0.8534 -1.8563
 5773SOL     OW28780   0.976   3.460   8.823 -0.0729  0.2376 -0.2454
 5773SOL    HW128781   1.016   3.521   8.761 -0.2812 -2.6256 -3.2292
 5773SOL    HW228782   1.054   3.416   8.856 -0.3429 -0.2721 -0.2837
 5774SOL     OW28783   1.463   2.645  14.163  0.2687 -0.1100  0.6697
 5774SOL    HW128784   1.459   2.565  14.111  1.9224  0.1515  0.1300
 5774SOL    HW228785   1.536   2.624  14.222  1.1581  0.8080 -0.1073
 5775SOL     OW28786   0.060   1.541   7.769  0.4404  0.5078  0.4060
 5775SOL    HW128787   4.691   1.538   7.753  0.3965 -1.4485  1.0509
 5775SOL    HW228788   0.086   1.604   7.701  1.2386 -0.7018 -0.4057
 5776SOL     OW28789   3.708   0.703   4.637 -0.0923 -0.2981 -0.0183
 5776SOL    HW128790   3.633   0.657   4.601 -0.1889 -1.1569  1.2653
 5776SOL    HW228791   3.680   0.794   4.626  2.4037  0.6260  1.2612
 5777SOL     OW28792   2.955   3.735  13.073  0.2956  0.1638 -0.3162
 5777SOL    HW128793   2.996   3.795  13.135 -0.1694  0.4692 -0.3001
 5777SOL    HW228794   2.987   3.651  13.106  0.4771  0.8627  1.2910
 5778SOL     OW28795   1.388   2.185  14.800 -0.1330  0.2523 -0.5479
 5778SOL    HW128796   1.308   2.225  14.765  0.1379  1.2637 -0.0273
 5778SOL    HW228797   1.439   2.172  14.720  0.6482  0.5273 -0.0945
 5779SOL     OW28798   0.233   2.397   3.186  0.0157 -0.5375 -0.5870
 5779SOL    HW128799   0.187   2.374   3.266 -2.0660  0.2490 -1.5763
 5779SOL    HW228800   0.279   2.476   3.216 -0.6694 -0.3466 -0.0443
 5780SOL     OW28801   3.514   1.774  10.440 -0.7705 -0.3934 -0.2197
 5780SOL    HW128802   3.494   1.688  10.477 -0.2748 -1.1693 -1.7781
 5780SOL    HW228803   3.433   1.817  10.413 -0.8756 -1.2122 -1.2204
 5781SOL     OW28804   3.487   2.941  11.997 -0.2340 -0.1930  0.3491
 5781SOL    HW128805   3.545   2.958  12.071 -0.1729 -1.4533  0.5913
 5781SOL    HW228806   3.416   3.002  12.019  0.0339  0.1516  0.2472
 5782SOL     OW28807   4.426   2.201   7.904  0.2628 -0.2951 -0.1095
 5782SOL    HW128808   4.445   2.111   7.878  1.5738 -0.4743  1.4565
 5782SOL    HW228809   4.500   2.255   7.875  0.4855 -0.8498 -0.5743
 5783SOL     OW28810   2.764   2.286  16.617  0.0432  0.2632 -0.5659
 5783SOL    HW128811   2.670   2.290  16.599  0.4006  3.5553 -1.8240
 5783SOL    HW228812   2.766   2.337  16.698 -2.3005  1.4605 -1.2457
 5784SOL     OW28813   0.219   1.718   6.935  0.5588 -0.3421 -0.4582
 5784SOL    HW128814   0.245   1.626   6.937  0.3624 -0.4411 -2.3474
 5784SOL    HW228815   0.156   1.711   6.863 -1.0146  0.8437  0.7897
 5785SOL     OW28816   3.500   2.826  10.873  0.1352 -0.1249 -0.7483
 5785SOL    HW128817   3.496   2.874  10.790  1.0944 -0.8727 -1.2291
 5785SOL    HW228818   3.495   2.741  10.830  0.0084 -0.8420  0.7152
 5786SOL     OW28819   0.340   2.355  12.649  0.3421 -0.1551  0.4164
 5786SOL    HW128820   0.427   2.318  12.660  0.1499 -0.5468  0.6024
 5786SOL    HW228821   0.288   2.275  12.657 -1.6973  1.3376  1.9220
 5787SOL     OW28822   3.988   2.010   1.391  0.1449  0.5960 -0.9448
 5787SOL    HW128823   3.931   2.071   1.439 -1.4188  0.0094 -2.0704
 5787SOL    HW228824   3.932   2.011   1.313 -2.7129  2.6870  1.0984
 5788SOL     OW28825   4.575   1.238   2.032  0.4997 -0.7249  0.2096
 5788SOL    HW128826   4.543   1.164   1.980 -0.7810  1.3350 -1.9134
 5788SOL    HW228827   4.559   1.199   2.118  0.1588 -2.4367 -0.6270
 5789SOL     OW28828   2.125   3.020  14.694  0.5391  0.5541  0.7292
 5789SOL    HW128829   2.071   3.025  14.616  0.0455 -0.6526  0.9932
 5789SOL    HW228830   2.073   3.072  14.755 -0.9233  0.6243 -0.5792
 5790SOL     OW28831   0.204   2.207   3.703  0.1183  0.2905  0.6963
 5790SOL    HW128832   0.169   2.296   3.712 -0.8532 -0.0126 -0.0295
 5790SOL    HW228833   0.160   2.157   3.771 -1.1717 -0.2500 -0.5267
 5791SOL     OW28834   1.177   1.148   4.056  0.2824  0.3510  0.0933
 5791SOL    HW128835   1.169   1.149   4.152  1.1047  0.4681  0.1566
 5791SOL    HW228836   1.238   1.076   4.041  1.0719  1.1152 -0.3798
 5792SOL     OW28837   0.046   3.078   5.928  0.2313 -0.4046 -0.1353
 5792SOL    HW128838   4.707   3.054   5.861  0.9387 -1.0284 -0.5934
 5792SOL    HW228839   0.033   3.015   5.999 -2.6708 -1.7513 -1.8498
 5793SOL     OW28840   3.728   2.426  16.171  0.0542 -0.7141 -0.3979
 5793SOL    HW128841   3.713   2.516  16.201  3.3425 -1.2962  3.0366
 5793SOL    HW228842   3.701   2.424  16.079  0.6148 -0.0902 -0.5664
 5794SOL     OW28843   2.826   0.312   3.162  0.4156 -0.2789  0.0004
 5794SOL    HW128844   2.848   0.229   3.120 -0.1558 -0.5461  0.2364
 5794SOL    HW228845   2.802   0.276   3.247  1.7906 -1.5636 -0.1621
 5795SOL     OW28846   3.422   3.668  17.369  0.3184 -0.4146  0.2564
 5795SOL    HW128847   3.464   3.735  17.315  0.2585  1.0201  2.0278
 5795SOL    HW228848   3.356   3.639  17.306 -2.0262  0.4441  2.3312
 5796SOL     OW28849   4.136   2.397  10.653  0.0974 -0.0625  0.3782
 5796SOL    HW128850   4.216   2.408  10.704 -0.1252 -0.6363  0.8509
 5796SOL    HW228851   4.084   2.329  10.696 -0.7391  0.4990  0.2739
 5797SOL     OW28852   1.444   1.609   3.524  0.2871 -0.2027  0.1095
 5797SOL    HW128853   1.491   1.689   3.501  0.1296 -0.6567 -1.8124
 5797SOL    HW228854   1.357   1.620   3.487  0.4045  0.5586  0.0747
 5798SOL     OW28855   1.166   1.206   5.200  0.9518  0.2341  0.2731
 5798SOL    HW128856   1.220   1.132   5.228 -1.7626 -0.9069  2.5382
 5798SOL    HW228857   1.139   1.168   5.116  1.3654 -0.9763  0.6898
 5799SOL     OW28858   1.161   2.445   6.868 -0.3896  0.0228  0.5653
 5799SOL    HW128859   1.205   2.476   6.789  1.4961 -0.8221  1.3023
 5799SOL    HW228860   1.167   2.351   6.853 -0.9333  0.4037 -2.0719
 5800SOL     OW28861   1.308   2.375  13.245  0.1814  0.0534  0.0250
 5800SOL    HW128862   1.394   2.412  13.266  0.3263 -0.4408  0.3069
 5800SOL    HW228863   1.247   2.441  13.278 -3.1643 -3.0608  0.1833
 5801SOL     OW28864   1.922   2.432   4.501 -0.1228  0.1692  0.5805
 5801SOL    HW128865   1.994   2.495   4.498  0.7238 -0.8723 -1.0304
 5801SOL    HW228866   1.842   2.482   4.486 -0.5175 -0.4373  0.6462
 5802SOL     OW28867   1.761   1.826   6.897  0.8427 -0.1739 -0.0300
 5802SOL    HW128868   1.741   1.807   6.805 -0.2803  2.2905 -0.2916
 5802SOL    HW228869   1.677   1.866   6.918  0.3763 -0.5599 -1.1706
 5803SOL     OW28870   2.693   2.823   8.200  0.1749  0.6328  0.2240
 5803SOL    HW128871   2.689   2.731   8.174 -1.7496  1.2324 -1.6114
 5803SOL    HW228872   2.640   2.817   8.280  0.7662  0.4031  0.5932
 5804SOL     OW28873   3.485   4.662   7.283 -0.2201 -0.3953  0.4932
 5804SOL    HW128874   3.570   4.620   7.294  0.8448  1.6977  0.2507
 5804SOL    HW228875   3.506   0.030   7.297 -2.0326  0.2657 -1.2882
 5805SOL     OW28876   2.977   1.993   9.159  0.5074 -0.1682  0.1561
 5805SOL    HW128877   3.030   1.981   9.238 -0.5546  0.9969  1.0496
 5805SOL    HW228878   3.011   2.073   9.120  2.2557 -1.1488 -0.3011
 5806SOL     OW28879   4.493   4.165   1.815 -0.3134 -0.8812  0.5220
 5806SOL    HW128880   4.520   4.074   1.799 -0.7910 -0.4686 -2.6279
 5806SOL    HW228881   4.506   4.190   1.723  0.6197  0.8319  1.1191
 5807SOL     OW28882   0.135   1.529   4.218 -0.5134 -0.5916  0.1432
 5807SOL    HW128883   0.101   1.586   4.148  0.9513  0.2955  0.1611
 5807SOL    HW228884   0.228   1.528   4.199 -0.7704  0.8120 -1.2093
 5808SOL     OW28885   4.428   3.606  17.434 -0.1000 -0.2784 -0.1229
 5808SOL    HW128886   4.400   3.697  17.436 -0.6219 -0.4393 -0.0899
 5808SOL    HW228887   4.478   3.608  17.516  1.0725 -0.6502 -0.8213
 5809SOL     OW28888   1.824   3.339   9.798 -0.0450  0.4787  0.5940
 5809SOL    HW128889   1.787   3.418   9.759  0.7367  0.0199 -1.0792
 5809SOL    HW228890   1.745   3.293   9.826  0.7949 -1.7329 -0.6288
 5810SOL     OW28891   3.453   1.547   0.371  0.3991  0.4898 -0.2313
 5810SOL    HW128892   3.385   1.493   0.411  2.3013  0.1464  2.4918
 5810SOL    HW228893   3.520   1.484   0.347  1.0276  1.5198 -1.1988
 5811SOL     OW28894   1.495   2.556   7.886 -0.1102 -0.0456 -0.4291
 5811SOL    HW128895   1.536   2.641   7.900 -0.0481 -0.2780  0.8149
 5811SOL    HW228896   1.517   2.541   7.794 -0.8109  2.8295 -1.0644
 5812SOL     OW28897   4.377   1.811   6.326 -0.6891 -0.1856 -0.2054
 5812SOL    HW128898   4.316   1.775   6.390  1.7041 -1.2239  1.4662
 5812SOL    HW228899   4.373   1.741   6.261 -0.9357 -0.0942 -0.2900
 5813SOL     OW28900   3.705   1.271   6.279 -0.0017  0.0945 -0.2823
 5813SOL    HW128901   3.754   1.345   6.244  1.2815 -0.2428  0.8165
 5813SOL    HW228902   3.665   1.316   6.353  0.0124  0.0007 -0.2171
 5814SOL     OW28903   3.352   1.334  15.686  0.3671  0.1508 -0.0981
 5814SOL    HW128904   3.289   1.390  15.730 -0.3562  1.6002 -2.9571
 5814SOL    HW228905   3.429   1.356  15.738  0.5895  0.6823 -0.6564
 5815SOL     OW28906   4.181   1.503   5.204  0.3244  0.4276  0.8519
 5815SOL    HW128907   4.262   1.478   5.248 -0.3304 -0.8620  1.2871
 5815SOL    HW228908   4.218   1.541   5.124 -1.4117  1.3798  0.5088
 5816SOL     OW28909   4.097   0.889   0.851  0.1540 -0.2942  0.3461
 5816SOL    HW128910   4.190   0.907   0.865 -0.2333  3.3335 -1.7637
 5816SOL    HW228911   4.059   0.976   0.863 -0.1774 -0.2421 -1.0823
 5817SOL     OW28912   0.322   2.609   2.215  0.0105 -0.1244  0.1870
 5817SOL    HW128913   0.305   2.702   2.200  1.2605  0.0866  0.0763
 5817SOL    HW228914   0.399   2.621   2.271 -0.5121 -0.4112  0.9652
 5818SOL     OW28915   0.151   4.580   0.861 -0.1131 -0.3418 -0.9193
 5818SOL    HW128916   0.111   4.496   0.883 -2.3170  0.4896 -1.6448
 5818SOL    HW228917   0.145   4.623   0.947 -0.4906  2.9394 -2.5711
 5819SOL     OW28918   1.669   4.506   5.677 -0.4389 -0.1843  0.9202
 5819SOL    HW128919   1.692   4.593   5.644 -0.2810 -1.2152 -1.7035
 5819SOL    HW228920   1.712   4.512   5.763 -0.2224 -1.1027  0.8707
 5820SOL     OW28921   0.672   2.498   1.742  0.0830  0.9104  0.0135
 5820SOL    HW128922   0.752   2.451   1.765  0.0244  0.5138 -0.5968
 5820SOL    HW228923   0.632   2.445   1.673  0.7847 -0.6364  0.7987
 5821SOL     OW28924   2.946   2.090   4.057 -0.4264 -0.5131 -0.4702
 5821SOL    HW128925   3.001   2.124   4.127 -2.5425 -0.1814  1.0245
 5821SOL    HW228926   2.935   2.001   4.087  1.6186 -0.8404 -0.6663
 5822SOL     OW28927   0.937   0.723   0.141  0.0239  0.2702 -0.1042
 5822SOL    HW128928   0.879   0.790   0.177  0.0172  1.4708 -2.3337
 5822SOL    HW228929   0.958   0.678   0.223 -0.0301  2.1766  0.9555
 5823SOL     OW28930   1.993   3.976  13.795  0.2696  1.1842 -0.2242
 5823SOL    HW128931   1.979   3.890  13.755  0.3284  1.1398 -0.1476
 5823SOL    HW228932   2.070   3.961  13.850  1.0439 -0.5455 -1.7735
 5824SOL     OW28933   3.461   0.574   8.605  0.1404  0.5064 -0.3708
 5824SOL    HW128934   3.485   0.608   8.519 -0.7732  3.5300  0.6015
 5824SOL    HW228935   3.528   0.607   8.664 -0.9653  1.8819  0.0972
 5825SOL     OW28936   3.056   3.144   8.588 -0.1460  0.5274  0.3299
 5825SOL    HW128937   3.052   3.227   8.541  0.7596  0.1870 -0.3512
 5825SOL    HW228938   3.095   3.169   8.672  1.0344  0.6194 -0.2412
 5826SOL     OW28939   3.377   0.222   6.658 -0.1821 -0.2732 -0.1537
 5826SOL    HW128940   3.371   0.315   6.683  0.6268  0.0418 -1.1446
 5826SOL    HW228941   3.358   0.174   6.738 -0.3483  0.9696  0.5448
 5827SOL     OW28942   1.849   3.954   5.279 -0.0133 -0.8421 -0.7731
 5827SOL    HW128943   1.846   4.044   5.247  2.7751 -0.5548 -0.1728
 5827SOL    HW228944   1.849   3.963   5.374 -1.3610 -0.4320 -0.8046
 5828SOL     OW28945   3.846   1.148   3.345  0.8028  0.1381  0.0913
 5828SOL    HW128946   3.876   1.102   3.424  1.1629 -0.7877 -0.5883
 5828SOL    HW228947   3.880   1.084   3.282 -0.3884  0.8028 -1.2299
 5829SOL     OW28948   2.163   3.092  17.087 -0.5295  0.3312  0.1381
 5829SOL    HW128949   2.092   3.152  17.066  0.1687  0.8113 -0.8878
 5829SOL    HW228950   2.231   3.126  17.029  0.1079 -0.8899  0.1665
 5830SOL     OW28951   0.672   0.457   4.790  0.1585  0.4953 -0.6070
 5830SOL    HW128952   0.626   0.434   4.709  1.3184 -3.4728 -0.1211
 5830SOL    HW228953   0.596   0.504   4.824  0.6172 -0.2399  1.4130
 5831SOL     OW28954   1.580   3.995  12.198  0.7377 -0.7486 -0.2519
 5831SOL    HW128955   1.590   4.004  12.293 -0.1650  1.1141 -0.3314
 5831SOL    HW228956   1.637   4.066  12.167  1.1467  0.1700  2.5560
 5832SOL     OW28957   4.501   3.768   1.308 -0.1426  0.0909 -0.0304
 5832SOL    HW128958   4.583   3.726   1.284 -1.2106 -1.9230 -0.1014
 5832SOL    HW228959   4.445   3.737   1.238  0.4554 -1.8950  0.3854
 5833SOL     OW28960   2.085   3.942   5.540  0.0280 -0.3565 -0.2518
 5833SOL    HW128961   2.100   3.848   5.528 -0.1323 -0.3146 -0.7980
 5833SOL    HW228962   1.991   3.947   5.556  0.3203 -1.2569  1.7352
 5834SOL     OW28963   3.876   0.607   6.201  0.4136 -0.3945  0.3674
 5834SOL    HW128964   3.824   0.647   6.131 -0.6676 -1.9333  0.2921
 5834SOL    HW228965   3.964   0.636   6.176 -0.0814 -1.0596 -2.2054
 5835SOL     OW28966   1.916   1.871   5.968  0.0078 -0.2195 -0.2115
 5835SOL    HW128967   1.979   1.800   5.953  0.5406 -0.2725  2.3140
 5835SOL    HW228968   1.907   1.860   6.062  0.6917  2.1701  0.1106
 5836SOL     OW28969   3.293   2.010   0.587 -0.1067  0.3102 -0.3401
 5836SOL    HW128970   3.308   1.940   0.524 -0.2499 -0.7735  0.8223
 5836SOL    HW228971   3.366   2.002   0.649 -0.8970  1.1952  0.6957
 5837SOL     OW28972   2.543   2.056  15.330  0.5660  0.1658 -0.3511
 5837SOL    HW128973   2.537   2.150  15.349 -3.1584  0.1537 -1.2756
 5837SOL    HW228974   2.510   2.020  15.412 -0.3491  0.1707 -0.7096
 5838SOL     OW28975   4.170   4.297  10.416  0.2639  0.3857  0.2689
 5838SOL    HW128976   4.258   4.303  10.454  0.1060 -0.7632  0.7958
 5838SOL    HW228977   4.185   4.210  10.380 -1.5157 -0.0888  0.6831
 5839SOL     OW28978   3.965   4.544   3.959  0.1445  0.1689 -1.2587
 5839SOL    HW128979   3.927   4.502   4.036  0.6608  1.3245 -0.3852
 5839SOL    HW228980   3.912   4.507   3.887  1.4143  0.5847 -2.4066
 5840SOL     OW28981   1.572   3.725   4.523  0.5860 -0.0221 -0.4927
 5840SOL    HW128982   1.571   3.726   4.427  2.9375  0.7297 -0.5003
 5840SOL    HW228983   1.562   3.631   4.536 -0.1321  0.2194  0.7245
 5841SOL     OW28984   3.445   0.582   4.665  0.0414  0.3086 -0.5423
 5841SOL    HW128985   3.462   0.653   4.727  1.5472 -0.3230 -0.2401
 5841SOL    HW228986   3.481   0.504   4.708 -1.6921 -0.4371 -0.4068
 5842SOL     OW28987   2.213   1.742   3.554 -0.1132  0.2429  0.1414
 5842SOL    HW128988   2.142   1.805   3.569  1.2984  2.0621 -0.8083
 5842SOL    HW228989   2.175   1.671   3.607 -0.4698  1.5335  1.6186
 5843SOL     OW28990   3.887   3.770   8.697  0.1697  0.4602 -0.2193
 5843SOL    HW128991   3.826   3.842   8.712  0.3842  0.0888  2.4324
 5843SOL    HW228992   3.825   3.706   8.661  0.8757  2.0509 -4.1789
 5844SOL     OW28993   0.081   3.561   7.212 -0.0251  0.2380  0.2518
 5844SOL    HW128994   0.008   3.499   7.211  0.6998 -0.6489  2.4553
 5844SOL    HW228995   0.150   3.502   7.181 -1.8690 -0.6880 -2.0399
 5845SOL     OW28996   1.716   0.813   1.474 -0.2823 -0.5733 -0.6767
 5845SOL    HW128997   1.761   0.784   1.394  2.5374  2.8913 -0.3315
 5845SOL    HW228998   1.646   0.748   1.468 -2.1014  1.5535 -2.5212
 5846SOL     OW28999   0.568   4.607   5.570 -0.2795 -0.1265  0.6011
 5846SOL    HW129000   0.499   4.600   5.637  1.0442 -0.6594  1.9024
 5846SOL    HW229001   0.613   4.685   5.603 -0.2192  0.6702 -1.4109
 5847SOL     OW29002   1.356   4.682   1.192  0.2263  0.0466 -0.3749
 5847SOL    HW129003   1.360   0.020   1.263  1.5702  0.2765 -0.6415
 5847SOL    HW229004   1.439   4.715   1.155 -0.4791 -0.3737 -2.3387
 5848SOL     OW29005   0.576   3.095  11.493 -0.1806  0.5036 -0.2820
 5848SOL    HW129006   0.491   3.099  11.449  0.4270  1.3805 -1.3695
 5848SOL    HW229007   0.633   3.161  11.455  0.6892 -0.1276 -0.0855
 5849SOL     OW29008   1.029   3.505   5.129 -0.0331 -0.2569 -0.2914
 5849SOL    HW129009   1.103   3.492   5.188 -0.4229 -1.1253  0.0000
 5849SOL    HW229010   0.968   3.550   5.188  0.0618 -2.3520  1.3783
 5850SOL     OW29011   3.275   2.918   7.129  0.5012 -0.5120 -0.6078
 5850SOL    HW129012   3.237   2.843   7.174  0.0863 -0.9302 -1.6537
 5850SOL    HW229013   3.242   2.905   7.040  0.4667  0.4257 -0.7398
 5851SOL     OW29014   4.717   0.005   3.880 -0.1125 -0.0477 -0.1499
 5851SOL    HW129015   4.669   4.713   3.799 -0.8009 -0.4365  0.3495
 5851SOL    HW229016   4.642   0.032   3.933  0.6114 -0.9559  1.3370
 5852SOL     OW29017   3.805   2.051   4.613 -0.2975  0.5192  0.5321
 5852SOL    HW129018   3.768   2.038   4.700 -0.0701 -0.5933  0.4586
 5852SOL    HW229019   3.827   1.959   4.598 -3.2184  0.2561 -2.0900
 5853SOL     OW29020   1.098   0.036   3.567  0.1597  0.2448 -0.2560
 5853SOL    HW129021   1.017   0.073   3.532 -0.1640 -0.9497 -0.7767
 5853SOL    HW229022   1.069   4.682   3.612  2.2863  0.5961  1.6973
 5854SOL     OW29023   2.079   3.624  14.782  0.1919  0.2918  0.1333
 5854SOL    HW129024   2.067   3.532  14.758  1.3726  0.9247 -2.7713
 5854SOL    HW229025   2.106   3.660  14.698  3.1744 -1.8632  0.1618
 5855SOL     OW29026   3.642   2.788   7.154 -0.0629 -0.1135  0.3357
 5855SOL    HW129027   3.639   2.771   7.060  1.3549  1.2461  0.0392
 5855SOL    HW229028   3.699   2.715   7.178  0.1383 -0.8094 -2.2953
 5856SOL     OW29029   0.438   0.420   3.594  0.4665 -0.3727 -0.2931
 5856SOL    HW129030   0.400   0.356   3.534 -1.7877 -1.5953  2.4582
 5856SOL    HW229031   0.458   0.484   3.525 -1.2698  1.3044  0.7666
 5857SOL     OW29032   0.698   2.800   2.685 -0.2189 -0.2867 -0.1080
 5857SOL    HW129033   0.639   2.801   2.760 -1.9284  1.8785 -1.4388
 5857SOL    HW229034   0.750   2.880   2.694  1.8306 -1.6300 -0.1550
 5858SOL     OW29035   1.914   0.306   1.504  0.0477 -0.6359 -0.5084
 5858SOL    HW129036   1.832   0.330   1.462  0.5218  0.9067 -0.5616
 5858SOL    HW229037   1.943   0.393   1.533  0.9326 -0.9687 -0.3660
 5859SOL     OW29038   4.255   4.646   9.366 -0.4054 -0.2595 -0.2671
 5859SOL    HW129039   4.282   4.590   9.439 -0.2541 -0.0723 -0.1786
 5859SOL    HW229040   4.167   4.672   9.393  0.1146  0.2172  0.9927
 5860SOL     OW29041   0.041   3.310   2.889 -0.1755  0.2959  0.3811
 5860SOL    HW129042   0.136   3.302   2.886 -0.3038 -0.7876 -0.7022
 5860SOL    HW229043   0.009   3.270   2.970  1.2151 -0.4571  0.5630
 5861SOL     OW29044   2.975   0.036   9.182  0.5114  0.4463 -0.2019
 5861SOL    HW129045   3.070   0.038   9.176  0.3873 -1.0906 -2.6924
 5861SOL    HW229046   2.961   0.094   9.257  2.5248  2.7857 -1.6596
 5862SOL     OW29047   2.473   0.518   7.737 -0.7711 -0.1784  0.3096
 5862SOL    HW129048   2.501   0.467   7.813  3.0666 -0.4134 -1.2426
 5862SOL    HW229049   2.459   0.449   7.672 -3.8728 -0.1451  0.9816
 5863SOL     OW29050   3.627   3.337  15.472  0.3092 -0.7295  0.1597
 5863SOL    HW129051   3.652   3.398  15.403  0.1822  0.0307  0.7936
 5863SOL    HW229052   3.582   3.396  15.533  2.8957  0.3404  1.0450
 5864SOL     OW29053   3.884   2.181   3.412 -0.3913 -0.2680 -0.4327
 5864SOL    HW129054   3.953   2.118   3.391  0.9819  0.9971  0.2782
 5864SOL    HW229055   3.864   2.217   3.326  0.1017 -1.2386 -0.9526
 5865SOL     OW29056   2.774   0.884  11.659 -0.0359 -0.0095  0.0708
 5865SOL    HW129057   2.802   0.919  11.743 -0.3343  0.6890 -0.1181
 5865SOL    HW229058   2.865   0.872  11.631  0.4208  1.5178  0.9169
 5866SOL     OW29059   1.420   0.952  12.018  0.7172 -0.0520 -0.0767
 5866SOL    HW129060   1.348   0.993  12.067  2.4198 -0.2498  2.6044
 5866SOL    HW229061   1.461   0.919  12.098  1.1981  2.3527  0.6692
 5867SOL     OW29062   0.311   0.232  17.267 -0.1920  0.3438 -0.1883
 5867SOL    HW129063   0.366   0.166  17.309 -2.0534 -0.7391  0.5463
 5867SOL    HW229064   0.347   0.314  17.301 -2.8617  0.9878  1.0810
 5868SOL     OW29065   0.625   1.227   0.653 -0.2228 -0.6358 -0.2335
 5868SOL    HW129066   0.665   1.140   0.647 -0.5538 -0.6857 -1.6880
 5868SOL    HW229067   0.688   1.274   0.598 -1.2911  0.8154 -0.2155
 5869SOL     OW29068   1.118   4.281   9.071 -0.2673  0.1545 -0.0562
 5869SOL    HW129069   1.095   4.211   9.010 -0.7088  1.9594 -1.9556
 5869SOL    HW229070   1.137   4.351   9.008  2.0372 -1.0950 -0.7288
 5870SOL     OW29071   1.488   4.095   1.673 -0.0770  0.2905 -0.4577
 5870SOL    HW129072   1.432   4.017   1.669 -0.7692  0.7844 -0.3113
 5870SOL    HW229073   1.431   4.149   1.618  0.8186  2.2458  0.5391
 5871SOL     OW29074   2.846   2.360   6.541  0.5093  0.3690 -0.4119
 5871SOL    HW129075   2.810   2.327   6.623  1.1003 -1.7415 -0.9818
 5871SOL    HW229076   2.787   2.434   6.532 -1.1179 -0.9802 -0.9375
 5872SOL     OW29077   3.807   0.838   1.801 -0.0393 -0.5073  0.0639
 5872SOL    HW129078   3.870   0.780   1.844 -1.5845 -0.3951  2.4555
 5872SOL    HW229079   3.734   0.847   1.863 -0.4245  1.0148 -0.6007
 5873SOL     OW29080   2.103   1.386  14.845  0.3835 -0.2789 -0.2968
 5873SOL    HW129081   2.085   1.448  14.915  0.0054 -1.8615  1.0200
 5873SOL    HW229082   2.017   1.345  14.838  0.4039 -0.2207 -0.8350
 5874SOL     OW29083   3.172   0.618   3.566  0.1191  0.3852  0.1427
 5874SOL    HW129084   3.116   0.602   3.491 -0.2122 -0.3422  0.5467
 5874SOL    HW229085   3.215   0.533   3.578 -0.5408 -0.2797 -2.1786
 5875SOL     OW29086   2.781   0.803  11.224 -0.9117  0.1379  0.1266
 5875SOL    HW129087   2.793   0.741  11.152 -1.4037  0.4442 -0.2137
 5875SOL    HW229088   2.832   0.872  11.182 -1.0009  0.6508  0.8661
 5876SOL     OW29089   4.410   2.465   1.720 -0.3722  0.0048  0.0520
 5876SOL    HW129090   4.371   2.542   1.679  2.0958  0.0798 -2.1277
 5876SOL    HW229091   4.395   2.394   1.658  0.7141  0.1382 -0.3686
 5877SOL     OW29092   4.437   3.939   1.519  0.6100  0.0174  0.3895
 5877SOL    HW129093   4.513   3.935   1.578  1.0114 -1.1641 -0.2120
 5877SOL    HW229094   4.474   3.885   1.449  0.6593  1.0392 -0.3784
 5878SOL     OW29095   1.449   4.083   7.864  0.8107  0.3268  0.3162
 5878SOL    HW129096   1.383   4.150   7.848  0.5725  0.1034  0.3552
 5878SOL    HW229097   1.466   4.108   7.954 -2.5040  0.1542  0.9759
 5879SOL     OW29098   2.205   0.970  12.866 -0.0981  0.9130 -0.2373
 5879SOL    HW129099   2.261   0.958  12.943  1.6458 -0.9266 -1.7977
 5879SOL    HW229100   2.268   1.025  12.819  0.1825  1.4998  0.8151
 5880SOL     OW29101   0.620   3.270   6.800  0.0380 -0.8248 -0.4752
 5880SOL    HW129102   0.531   3.262   6.764 -0.4181 -0.4497  0.5780
 5880SOL    HW229103   0.664   3.220   6.731  0.6784  1.4924 -1.7187
 5881SOL     OW29104   4.320   1.698   6.060  0.0142  0.0207 -0.3693
 5881SOL    HW129105   4.306   1.768   5.997 -0.5007  0.6898  0.5040
 5881SOL    HW229106   4.244   1.644   6.041 -1.0211  1.4802 -0.3283
 5882SOL     OW29107   0.639   4.463  11.700 -0.2727  0.5160  0.7100
 5882SOL    HW129108   0.608   4.403  11.633 -1.5097  1.7807  0.1345
 5882SOL    HW229109   0.637   4.545  11.651 -2.7459  1.8799  3.0753
 5883SOL     OW29110   3.404   4.505   7.690  0.1932 -0.0168 -0.2729
 5883SOL    HW129111   3.423   4.587   7.734  0.6041  0.4824 -1.3696
 5883SOL    HW229112   3.357   4.456   7.758 -0.4679  0.8170 -0.1339
 5884SOL     OW29113   2.270   4.219   8.810 -0.5375  0.6215 -0.1082
 5884SOL    HW129114   2.211   4.162   8.760  0.3223  1.6577 -2.2762
 5884SOL    HW229115   2.220   4.299   8.827  0.5650  1.0954  0.8445
 5885SOL     OW29116   0.441   0.386   2.566 -0.5002 -0.4578  0.1003
 5885SOL    HW129117   0.407   0.340   2.489  0.8145 -0.2455 -0.6156
 5885SOL    HW229118   0.404   0.322   2.626 -1.3821 -1.4161 -1.4521
 5886SOL     OW29119   4.295   0.798   8.898 -0.1444 -0.0903 -0.3861
 5886SOL    HW129120   4.201   0.814   8.892 -0.4204 -1.6241 -0.2825
 5886SOL    HW229121   4.303   0.706   8.874  0.1260 -0.4734  1.1584
 5887SOL     OW29122   3.605   0.348  14.361  0.4319 -0.0463  0.0617
 5887SOL    HW129123   3.582   0.425  14.310  2.4493  0.5502  0.0342
 5887SOL    HW229124   3.671   0.389  14.417  1.8631 -0.9384 -0.9405
 5888SOL     OW29125   3.909   1.467   1.180  0.7931  0.0780  0.0073
 5888SOL    HW129126   3.876   1.443   1.093  2.5759 -0.0187 -0.6430
 5888SOL    HW229127   3.826   1.490   1.223  0.7703 -0.5147  0.2826
 5889SOL     OW29128   2.534   1.382   9.067  0.4502 -0.5303 -0.3478
 5889SOL    HW129129   2.468   1.346   9.126  2.3436 -2.6297  0.4729
 5889SOL    HW229130   2.524   1.472   9.097  1.0151 -0.4964 -0.2609
 5890SOL     OW29131   0.300   2.855  10.737  0.2450  0.1846 -0.1718
 5890SOL    HW129132   0.333   2.828  10.651  2.3295 -0.2592  0.7716
 5890SOL    HW229133   0.321   2.783  10.797 -1.2940  0.8520  1.1543
 5891SOL     OW29134   1.444   3.121   9.969 -0.5078 -0.2143  0.0865
 5891SOL    HW129135   1.486   3.062  10.031  0.6566  0.1057 -0.4127
 5891SOL    HW229136   1.417   3.192  10.027  2.7740  0.4109  0.8251
 5892SOL     OW29137   0.116   4.036   1.539  0.2979 -0.0021  0.1051
 5892SOL    HW129138   0.121   4.109   1.601  1.6610 -0.5243  0.6122
 5892SOL    HW229139   0.203   4.058   1.506  0.2948 -0.4389 -0.1929
 5893SOL     OW29140   1.951   1.300   6.711 -0.0264 -0.4462  0.5196
 5893SOL    HW129141   1.946   1.305   6.806 -1.1587 -4.4284  0.6944
 5893SOL    HW229142   1.972   1.388   6.682  0.4605 -0.9116 -0.5558
 5894SOL     OW29143   0.534   2.409   5.019  0.0697 -0.0052 -0.0026
 5894SOL    HW129144   0.473   2.334   5.022  1.1665 -0.8831  0.3538
 5894SOL    HW229145   0.615   2.360   5.006  0.7926  1.0537  0.5711
 5895SOL     OW29146   2.212   2.827  13.356  0.3741  0.0200  0.2237
 5895SOL    HW129147   2.243   2.787  13.274 -0.1575 -0.6416  0.3452
 5895SOL    HW229148   2.195   2.917  13.327 -2.5558 -1.0744 -1.4010
 5896SOL     OW29149   3.063   3.616   8.602 -0.2260  0.4709  0.1011
 5896SOL    HW129150   3.121   3.629   8.678  0.4758 -3.6231  0.2813
 5896SOL    HW229151   3.122   3.568   8.543 -1.1513 -0.6119  0.0624
 5897SOL     OW29152   3.409   4.397   0.072 -0.1711  0.2199 -0.2651
 5897SOL    HW129153   3.449   4.460   0.011  0.2757  0.0921 -0.1059
 5897SOL    HW229154   3.332   4.444   0.104 -0.4491  0.2330 -0.9584
 5898SOL     OW29155   2.861   4.545   6.237  0.7249  0.3919  0.1654
 5898SOL    HW129156   2.772   4.542   6.204  0.7271 -2.5495  0.3933
 5898SOL    HW229157   2.870   4.639   6.253  0.7985 -0.2843  3.9520
 5899SOL     OW29158   1.181   0.636  15.957  0.4262  0.3057  0.1234
 5899SOL    HW129159   1.169   0.728  15.937  1.8462  0.0899 -1.7040
 5899SOL    HW229160   1.255   0.626  15.897  1.6097  3.5349  1.0593
 5900SOL     OW29161   2.001   3.387   7.875 -0.1302  0.5953  0.0152
 5900SOL    HW129162   2.021   3.480   7.868 -0.4980  0.6118 -0.8177
 5900SOL    HW229163   2.075   3.347   7.829 -0.3642  0.4106 -0.2011
 5901SOL     OW29164   2.376   0.778   5.888  0.0477  0.2038  0.4361
 5901SOL    HW129165   2.283   0.801   5.878 -0.1607 -0.5080  0.6893
 5901SOL    HW229166   2.381   0.724   5.810  0.8677  0.5128  0.2778
 5902SOL     OW29167   3.303   2.002   9.649  0.6480  0.2579 -0.3687
 5902SOL    HW129168   3.302   1.916   9.690  0.7501  0.7894  0.7241
 5902SOL    HW229169   3.213   2.033   9.638  0.7905 -0.1174 -2.5833
 5903SOL     OW29170   1.721   4.502   0.831  0.3426 -0.5745  0.3408
 5903SOL    HW129171   1.711   4.456   0.914  0.9759 -0.0923  0.6752
 5903SOL    HW229172   1.631   4.533   0.822  0.8368  0.8527  0.3237
 5904SOL     OW29173   3.775   2.788   1.435  0.0441 -0.4404 -0.0486
 5904SOL    HW129174   3.725   2.828   1.363  0.5662 -0.4182 -0.3960
 5904SOL    HW229175   3.857   2.835   1.422 -0.8717  0.9507 -0.8540
 5905SOL     OW29176   1.773   2.196  10.139 -0.0877 -0.5932  0.0460
 5905SOL    HW129177   1.792   2.163  10.227  0.1798 -2.9284 -0.8889
 5905SOL    HW229178   1.866   2.204  10.117  0.6648  1.3864  3.8669
 5906SOL     OW29179   4.550   1.140   3.894  1.2527 -0.1738 -0.1024
 5906SOL    HW129180   4.586   1.059   3.858  0.6926  0.0608 -1.1949
 5906SOL    HW229181   4.461   1.132   3.861  1.4890 -0.9043 -0.5559
 5907SOL     OW29182   0.509   0.452   7.753 -0.2417 -0.1520 -0.1872
 5907SOL    HW129183   0.471   0.540   7.757 -1.9695 -0.9284  0.3052
 5907SOL    HW229184   0.495   0.427   7.661  0.5617 -1.0948 -0.0478
 5908SOL     OW29185   2.872   0.953  12.934 -0.3951  0.5268 -0.4749
 5908SOL    HW129186   2.933   0.883  12.913 -0.3984  0.5266 -0.4837
 5908SOL    HW229187   2.885   0.964  13.028 -1.4990  0.7752 -0.3412
 5909SOL     OW29188   3.752   2.106  10.326 -0.1175 -0.2417  0.0065
 5909SOL    HW129189   3.717   2.149  10.404  0.2917 -0.3662  0.2668
 5909SOL    HW229190   3.802   2.033  10.365 -2.1862 -1.9310 -0.5161
 5910SOL     OW29191   0.382   3.006   3.531  0.0274 -0.2750  0.2586
 5910SOL    HW129192   0.365   3.025   3.623 -1.1351  0.8381 -0.1747
 5910SOL    HW229193   0.389   3.092   3.489  3.2594 -0.5762  0.1933
 5911SOL     OW29194   3.377   2.371   2.964 -0.8017 -0.0772  0.0820
 5911SOL    HW129195   3.386   2.337   2.875 -4.5075  0.4128 -0.4718
 5911SOL    HW229196   3.394   2.464   2.947 -0.6300  0.0292  0.8230
 5912SOL     OW29197   0.686   1.637  14.085  0.3440  0.6337  0.4625
 5912SOL    HW129198   0.751   1.680  14.029  2.1134 -0.8561  1.3933
 5912SOL    HW229199   0.745   1.621  14.159  0.4055  0.0065  0.2746
 5913SOL     OW29200   1.319   3.812   4.635  0.4124  0.8625 -0.0287
 5913SOL    HW129201   1.403   3.784   4.599  0.7582  1.5084  0.2740
 5913SOL    HW229202   1.294   3.720   4.644 -1.2537  1.4397  1.2708
 5914SOL     OW29203   1.844   2.264   3.823  0.0823 -0.4410  0.3347
 5914SOL    HW129204   1.820   2.290   3.734 -0.2801  1.5849  1.0194
 5914SOL    HW229205   1.936   2.237   3.820  0.4729  0.8134  0.6108
 5915SOL     OW29206   3.188   0.356   7.650  0.0253  0.1100 -0.1277
 5915SOL    HW129207   3.179   0.443   7.611  0.1520 -0.3110 -1.1021
 5915SOL    HW229208   3.105   0.311   7.632  0.9346 -2.0511  1.1169
 5916SOL     OW29209   1.663   2.179   6.441  0.6695  0.3550  0.2209
 5916SOL    HW129210   1.634   2.089   6.450 -1.9080  1.0536 -1.1320
 5916SOL    HW229211   1.579   2.218   6.463  0.7710  1.0382 -0.5794
 5917SOL     OW29212   4.212   1.179  13.178  0.6256 -0.4657  0.9366
 5917SOL    HW129213   4.250   1.109  13.125  2.0548  0.4518  0.7658
 5917SOL    HW229214   4.286   1.200  13.235  0.0114  0.4433  1.4030
 5918SOL     OW29215   0.529   0.547   1.245  0.6918  0.1973  0.3854
 5918SOL    HW129216   0.483   0.466   1.265  0.3086  0.5215  0.8103
 5918SOL    HW229217   0.589   0.541   1.319  1.1126  1.0340  0.1081
 5919SOL     OW29218   3.608   0.261   2.475  0.2380 -0.1365 -0.3963
 5919SOL    HW129219   3.599   0.177   2.519 -0.6055  0.1599  0.0087
 5919SOL    HW229220   3.545   0.256   2.402  1.6593 -0.7784 -1.5736
 5920SOL     OW29221   2.437   4.169   9.002  0.1223  0.0330  0.3828
 5920SOL    HW129222   2.362   4.170   8.943  1.6652  1.9699 -1.5650
 5920SOL    HW229223   2.490   4.237   8.958 -0.0782  0.1315  0.2947
 5921SOL     OW29224   1.581   2.246   3.314 -0.0205 -0.4689  0.3460
 5921SOL    HW129225   1.608   2.337   3.298 -0.5152  0.1335  3.0134
 5921SOL    HW229226   1.578   2.212   3.224 -2.0535 -0.9924  0.6023
 5922SOL     OW29227   1.802   0.527   8.748  0.0283 -0.5389  0.1504
 5922SOL    HW129228   1.881   0.477   8.727  0.8788  1.8158 -2.2724
 5922SOL    HW229229   1.823   0.601   8.690  2.3252 -0.5753  0.9193
 5923SOL     OW29230   1.462   3.230   2.299 -0.0447 -0.9438  0.2326
 5923SOL    HW129231   1.519   3.227   2.221  0.5588 -2.1607  0.7168
 5923SOL    HW229232   1.435   3.322   2.303 -0.4109 -0.9991 -0.8951
 5924SOL     OW29233   4.059   0.107   6.710  0.0329  0.0002 -0.2008
 5924SOL    HW129234   4.049   0.121   6.616  0.0996 -0.6057 -0.3007
 5924SOL    HW229235   4.029   0.194   6.734 -1.2924 -0.7071  0.7119
 5925SOL     OW29236   2.294   2.193   6.372  0.1915 -0.0459 -0.5412
 5925SOL    HW129237   2.349   2.114   6.370  1.1128  0.5957 -0.3798
 5925SOL    HW229238   2.307   2.210   6.465  0.1405  2.5254 -1.0275
 5926SOL     OW29239   3.431   2.811   2.252  0.2268  0.3381  0.0224
 5926SOL    HW129240   3.386   2.796   2.335  0.4863 -2.0924 -0.2766
 5926SOL    HW229241   3.518   2.779   2.276 -0.1727 -1.1783 -0.5040
 5927SOL     OW29242   2.575   3.591   5.395  0.1585 -0.2194 -0.0077
 5927SOL    HW129243   2.636   3.582   5.468  2.5486 -0.6236 -2.0431
 5927SOL    HW229244   2.537   3.503   5.394  0.5318 -0.3711 -1.2026
 5928SOL     OW29245   3.767   4.213  16.568  0.2167 -0.1811  0.0105
 5928SOL    HW129246   3.759   4.307  16.552  1.3823 -0.6304 -3.3448
 5928SOL    HW229247   3.745   4.180  16.481 -0.8772  2.5147 -0.7161
 5929SOL     OW29248   0.940   2.969   5.975 -0.0796 -0.4434 -0.1527
 5929SOL    HW129249   1.020   3.019   5.989 -1.7424  1.6649  1.8799
 5929SOL    HW229250   0.917   3.006   5.890  0.8076  0.8225  0.1733
 5930SOL     OW29251   2.238   0.806   4.865  0.3628  0.3529 -0.2581
 5930SOL    HW129252   2.167   0.744   4.876  0.7950 -0.2109 -0.6430
 5930SOL    HW229253   2.245   0.839   4.954 -0.4820  2.9884 -1.1718
 5931SOL     OW29254   0.776   1.308   3.664 -0.5233 -0.1065 -0.3243
 5931SOL    HW129255   0.869   1.324   3.677 -0.2803 -0.7893 -1.2635
 5931SOL    HW229256   0.767   1.277   3.574 -1.5844 -0.5075 -0.0788
 5932SOL     OW29257   4.683   0.308   1.012  0.1063 -0.2963 -0.6671
 5932SOL    HW129258   4.685   0.361   0.932  0.3644  0.3477 -0.2309
 5932SOL    HW229259   0.045   0.268   1.008  0.7125  0.9852 -0.2165
 5933SOL     OW29260   2.389   2.830   3.724 -0.8323 -0.2023  0.2982
 5933SOL    HW129261   2.465   2.771   3.719 -1.9440 -1.6703  0.5764
 5933SOL    HW229262   2.311   2.780   3.748 -0.8791 -0.1333  0.2885
 5934SOL     OW29263   3.582   4.606   3.648 -0.1473 -0.6765 -0.0783
 5934SOL    HW129264   3.623   4.633   3.731  0.6495 -1.2611 -0.2982
 5934SOL    HW229265   3.627   4.524   3.629 -0.1323 -0.7443  0.2396
 5935SOL     OW29266   3.453   0.561   7.039  0.2345 -0.1868 -0.3500
 5935SOL    HW129267   3.537   0.602   7.062  1.3818 -1.0099 -3.1427
 5935SOL    HW229268   3.408   0.641   7.013  1.8249  0.6761 -0.4243
 5936SOL     OW29269   0.119   4.398   4.906  0.0344 -0.5079  0.6587
 5936SOL    HW129270   0.162   4.342   4.842 -1.1423 -2.6779  1.7815
 5936SOL    HW229271   0.162   4.375   4.988 -1.4244 -2.3317  0.9120
 5937SOL     OW29272   0.483   0.786   0.712 -0.5900 -0.7901  0.7263
 5937SOL    HW129273   0.543   0.782   0.786  0.0694 -0.3038  0.2149
 5937SOL    HW229274   0.530   0.740   0.642  1.8932  3.2475 -0.2421
 5938SOL     OW29275   1.056   1.231   2.891 -0.0156 -0.5548  0.3249
 5938SOL    HW129276   0.996   1.291   2.847 -0.2474  0.5134  2.1279
 5938SOL    HW229277   1.140   1.274   2.875  0.5911 -1.1215  2.0396
 5939SOL     OW29278   4.677   3.018   2.838  0.5048 -0.3829  0.4118
 5939SOL    HW129279   0.029   3.073   2.825  0.1872  0.1751  0.8596
 5939SOL    HW229280   4.607   3.074   2.803  0.4239 -1.3035 -0.9061
 5940SOL     OW29281   3.300   1.615   7.079 -0.1103  0.5804 -0.2848
 5940SOL    HW129282   3.308   1.574   6.993 -0.0188  1.7427 -0.8381
 5940SOL    HW229283   3.310   1.543   7.141  2.1296 -1.0225 -2.4803
 5941SOL     OW29284   0.559   2.805   7.431 -0.8513 -0.3694  0.6070
 5941SOL    HW129285   0.615   2.869   7.387 -0.0183 -1.0206  0.7263
 5941SOL    HW229286   0.591   2.716   7.415  0.5476  0.9313 -3.7587
 5942SOL     OW29287   3.251   0.497   7.215  0.5573  0.2057 -0.3316
 5942SOL    HW129288   3.322   0.516   7.154 -0.8210 -2.7054 -2.8383
 5942SOL    HW229289   3.205   0.580   7.228 -1.4449 -0.6426 -2.0678
 5943SOL     OW29290   3.664   4.571   8.004  0.2533  0.3588  0.1260
 5943SOL    HW129291   3.706   4.566   7.918 -2.0655  0.6393 -1.0204
 5943SOL    HW229292   3.731   4.543   8.066 -2.4750 -2.2493  1.8967
 5944SOL     OW29293   2.811   2.361   2.229 -0.8355 -0.6137 -0.5331
 5944SOL    HW129294   2.866   2.369   2.151  0.4373  0.5308  0.4695
 5944SOL    HW229295   2.723   2.379   2.197 -0.5580  0.7420 -0.5443
 5945SOL     OW29296   4.281   0.655   3.937 -0.2472  0.1085 -0.1838
 5945SOL    HW129297   4.201   0.708   3.944 -0.4041 -0.3027  1.0342
 5945SOL    HW229298   4.276   0.637   3.843  2.1100 -0.9872 -0.1069
 5946SOL     OW29299   2.527   3.615   9.200  0.4796 -0.4442  0.1981
 5946SOL    HW129300   2.488   3.667   9.271 -0.6981 -2.8753  1.3088
 5946SOL    HW229301   2.620   3.638   9.210  0.7629 -2.0947  1.4601
 5947SOL     OW29302   2.854   2.240   8.479 -0.1173  0.7683  0.5601
 5947SOL    HW129303   2.843   2.160   8.530 -0.9159 -0.1058 -0.9829
 5947SOL    HW229304   2.926   2.218   8.420  0.1029  0.6732  0.8637
 5948SOL     OW29305   1.669   2.549   8.886 -0.3611 -0.3396  0.4019
 5948SOL    HW129306   1.671   2.588   8.799  0.4298  1.6282  1.2996
 5948SOL    HW229307   1.575   2.560   8.901 -0.4173 -0.8201  0.4104
 5949SOL     OW29308   4.603   4.195   4.814  0.1964 -0.3139  0.0522
 5949SOL    HW129309   4.615   4.118   4.871  0.4947 -0.4666 -0.2195
 5949SOL    HW229310   4.698   4.201   4.805  0.1506  2.0251  1.2731
 5950SOL     OW29311   0.664   2.850  15.863 -0.2064 -0.1678  0.0419
 5950SOL    HW129312   0.617   2.887  15.938  0.7554  0.2116  0.4543
 5950SOL    HW229313   0.589   2.837  15.805 -1.8153 -0.4943  2.1858
 5951SOL     OW29314   3.812   1.981   6.169  0.2192 -0.1292  0.1028
 5951SOL    HW129315   3.794   1.906   6.225 -3.4239 -0.4485 -1.5013
 5951SOL    HW229316   3.794   1.947   6.082 -0.1379 -1.6914  0.7993
 5952SOL     OW29317   2.510   2.763   8.440 -1.0830  0.1140  0.1595
 5952SOL    HW129318   2.429   2.743   8.486 -0.1455 -2.0964  0.8739
 5952SOL    HW229319   2.516   2.683   8.388  0.9382  0.6245 -0.4175
 5953SOL     OW29320   1.185   2.610  17.326  0.0898  0.5678  0.6943
 5953SOL    HW129321   1.104   2.608  17.275  0.4526 -0.4251  0.1517
 5953SOL    HW229322   1.226   2.683  17.280 -0.3721  0.0402 -0.5661
 5954SOL     OW29323   2.863   0.615   9.882 -0.1516  0.2641  0.3013
 5954SOL    HW129324   2.854   0.527   9.919  0.6899  0.9702  2.1945
 5954SOL    HW229325   2.806   0.657   9.947  0.3215  0.2748  0.7066
 5955SOL     OW29326   2.941   2.517  16.182 -0.5202 -0.0723 -0.9339
 5955SOL    HW129327   2.951   2.515  16.087  0.1572  0.7065 -0.8789
 5955SOL    HW229328   2.894   2.436  16.202 -0.9082  0.0544 -1.3404
 5956SOL     OW29329   2.289   1.886   1.939 -0.1868 -0.4373  0.1450
 5956SOL    HW129330   2.226   1.909   2.007 -0.6370 -0.0342 -0.4018
 5956SOL    HW229331   2.343   1.820   1.983 -1.2468 -1.2437  0.2300
 5957SOL     OW29332   4.681   2.230   4.782 -0.0435  0.4094  0.6185
 5957SOL    HW129333   0.006   2.155   4.750 -2.4761 -0.6944 -0.5799
 5957SOL    HW229334   4.692   2.301   4.719 -0.1051 -0.0601  0.0818
 5958SOL     OW29335   0.713   2.487   3.116 -0.1664  0.1030  0.5965
 5958SOL    HW129336   0.737   2.422   3.050  0.4005 -0.3961  1.2818
 5958SOL    HW229337   0.787   2.547   3.110  0.0728 -0.2536  0.0017
 5959SOL     OW29338   4.350   1.111   0.700 -0.0123 -0.2727 -0.2212
 5959SOL    HW129339   4.389   1.061   0.771  1.2970  2.4969  1.0304
 5959SOL    HW229340   4.268   1.144   0.736 -0.3073 -1.0139 -0.2187
 5960SOL     OW29341   3.930   2.449   7.780 -0.0841 -1.0155  0.8404
 5960SOL    HW129342   3.993   2.378   7.788 -0.6876 -1.8561 -2.0526
 5960SOL    HW229343   3.917   2.478   7.871  3.0164  0.9399  0.6484
 5961SOL     OW29344   0.110   3.759   5.671  0.6292  0.5540 -0.0242
 5961SOL    HW129345   0.022   3.751   5.633  0.7963 -1.7345  0.1013
 5961SOL    HW229346   0.089   3.805   5.752  1.1989 -1.3093  1.1730
 5962SOL     OW29347   1.904   2.754   2.570  0.8452  0.1439 -0.0203
 5962SOL    HW129348   1.898   2.754   2.474 -1.9905  1.9808  0.1663
 5962SOL    HW229349   1.904   2.850   2.575  0.6670 -0.0510  3.3267
 5963SOL     OW29350   3.010   3.313   3.139  0.0860 -0.6000  0.3419
 5963SOL    HW129351   3.081   3.265   3.181 -1.5588 -2.5852  0.8209
 5963SOL    HW229352   3.051   3.376   3.079  1.1940 -0.4107  1.3090
 5964SOL     OW29353   3.720   0.814  12.762 -1.0247 -0.4742 -0.3882
 5964SOL    HW129354   3.730   0.879  12.832  3.5064 -1.3530 -0.2506
 5964SOL    HW229355   3.676   0.867  12.696 -1.1413 -0.6613 -0.4583
 5965SOL     OW29356   1.400   4.161   3.916  0.3402  0.3014  0.0092
 5965SOL    HW129357   1.367   4.189   3.831 -0.2808 -0.4811 -0.0046
 5965SOL    HW229358   1.367   4.224   3.979  2.6169  1.8534 -0.3292
 5966SOL     OW29359   0.889   1.716   7.983 -0.0112 -0.5309 -0.5809
 5966SOL    HW129360   0.934   1.681   7.906  0.6582 -1.2795  0.1493
 5966SOL    HW229361   0.797   1.699   7.962 -0.0423 -0.5998 -0.3903
 5967SOL     OW29362   1.593   4.528   8.727  0.5086  0.0990  0.0371
 5967SOL    HW129363   1.605   4.447   8.678 -0.8832  0.6474 -1.2045
 5967SOL    HW229364   1.528   4.500   8.792 -1.6026  0.5869 -1.8767
 5968SOL     OW29365   3.194   1.972   1.812  0.8175 -0.3628  0.7900
 5968SOL    HW129366   3.220   1.956   1.721  0.6292  2.4712  0.2357
 5968SOL    HW229367   3.172   1.883   1.840 -2.8915  0.5662  0.8586
 5969SOL     OW29368   3.634   0.317   4.296  0.5064  0.3615 -0.1015
 5969SOL    HW129369   3.602   0.400   4.330 -0.1546 -0.4146  1.1530
 5969SOL    HW229370   3.697   0.298   4.366  1.3240  1.4727 -0.5274
 5970SOL     OW29371   2.249   1.830   0.889  0.3061  0.2116 -0.2649
 5970SOL    HW129372   2.248   1.765   0.819  0.7299 -0.7699  0.6366
 5970SOL    HW229373   2.339   1.818   0.919  0.5895  0.1296 -1.1663
 5971SOL     OW29374   2.509   2.269   8.521  0.7899  0.7102 -0.3320
 5971SOL    HW129375   2.509   2.343   8.581  0.5941 -0.9764  1.7787
 5971SOL    HW229376   2.590   2.229   8.553 -0.2128 -0.7262  0.4389
 5972SOL     OW29377   3.522   3.337   6.283  0.5754 -0.2823 -0.1464
 5972SOL    HW129378   3.511   3.364   6.374  0.6243  1.0680 -0.5416
 5972SOL    HW229379   3.431   3.323   6.256 -0.0843  1.6392  1.1083
 5973SOL     OW29380   1.974   3.851  15.969  0.3603  0.2462 -0.0367
 5973SOL    HW129381   1.998   3.799  15.892  0.8812 -0.4823  0.6182
 5973SOL    HW229382   2.008   3.937  15.944  0.2071  0.0548 -0.9128
 5974SOL     OW29383   0.347   0.290   3.350  0.2872 -0.1383  0.5619
 5974SOL    HW129384   0.303   0.206   3.336  0.2897 -0.3086  1.5789
 5974SOL    HW229385   0.435   0.265   3.321  1.0177  0.3411  2.3791
 5975SOL     OW29386   2.735   4.501   5.670 -0.3451 -0.5110  0.5089
 5975SOL    HW129387   2.658   4.552   5.645  0.7192  0.5305 -0.6811
 5975SOL    HW229388   2.796   4.575   5.669 -0.9293 -0.0735 -1.7279
 5976SOL     OW29389   4.208   2.869   9.142  0.8775 -0.3415  0.1553
 5976SOL    HW129390   4.274   2.802   9.126 -0.2055 -0.8589 -2.0240
 5976SOL    HW229391   4.253   2.948   9.113  0.2977  0.3822  1.2010
 5977SOL     OW29392   1.608   3.205   9.508 -0.1244 -0.5153 -0.3664
 5977SOL    HW129393   1.603   3.113   9.535 -0.8342  0.7266  3.7538
 5977SOL    HW229394   1.570   3.244   9.587 -0.6880  0.4825 -1.1418
 5978SOL     OW29395   0.189   2.561   1.919  0.5431  0.0056  0.5570
 5978SOL    HW129396   0.199   2.574   2.013  0.5837  2.0382  0.2613
 5978SOL    HW229397   0.108   2.510   1.907  0.9602 -0.2565 -1.2561
 5979SOL     OW29398   3.036   2.070   0.623  0.0911 -0.1907  0.5240
 5979SOL    HW129399   3.131   2.066   0.608  0.3614  3.6325  1.0686
 5979SOL    HW229400   3.035   2.066   0.719 -2.7037  1.6539  0.5750
 5980SOL     OW29401   2.921   4.674   5.851  0.0479  0.2444 -0.3448
 5980SOL    HW129402   3.011   4.686   5.819 -0.2662 -1.1024 -1.7088
 5980SOL    HW229403   2.912   0.023   5.911 -0.9656 -0.8809  0.8972
 5981SOL     OW29404   3.323   1.224   6.342  0.4180 -0.2790 -0.0124
 5981SOL    HW129405   3.416   1.211   6.364  0.1419  0.9975  1.8385
 5981SOL    HW229406   3.288   1.150   6.392  0.1191 -0.0191  0.1570
 5982SOL     OW29407   3.259   0.858   2.739 -0.6672  0.0383 -0.5662
 5982SOL    HW129408   3.205   0.785   2.768  0.4760 -0.0712  1.2679
 5982SOL    HW229409   3.349   0.826   2.745 -1.4116 -1.9264  0.0605
 5983SOL     OW29410   4.263   4.324  13.039  0.0409  0.1116  0.4960
 5983SOL    HW129411   4.351   4.359  13.025  0.2115 -0.6093 -0.2537
 5983SOL    HW229412   4.237   4.371  13.118  2.0847 -0.2595  1.3908
 5984SOL     OW29413   4.029   2.639   3.685  0.0549  0.0347  0.0846
 5984SOL    HW129414   4.015   2.549   3.715  0.0321  0.7131  2.0584
 5984SOL    HW229415   4.095   2.615   3.619  0.6835  0.3355  0.6124
 5985SOL     OW29416   4.666   3.401   9.635  0.5491  0.2416  0.1805
 5985SOL    HW129417   4.648   3.492   9.654 -1.0613 -0.3670  1.5287
 5985SOL    HW229418   4.613   3.376   9.711  0.3427  2.1604  0.6483
 5986SOL     OW29419   4.096   1.590   3.785  0.0854 -0.2471 -0.4656
 5986SOL    HW129420   4.012   1.628   3.811 -1.2311 -2.5982 -1.2309
 5986SOL    HW229421   4.083   1.551   3.698 -1.8504  2.0334 -1.2062
 5987SOL     OW29422   2.053   2.710   9.399 -0.4127  0.2659 -0.3640
 5987SOL    HW129423   2.026   2.799   9.421 -0.3651  0.1635  0.1234
 5987SOL    HW229424   2.122   2.702   9.465 -1.4302  0.7807  0.7614
 5988SOL     OW29425   1.502   1.847   3.433  0.4893  0.2525 -0.1202
 5988SOL    HW129426   1.469   1.921   3.485  2.0481  0.9644 -0.1368
 5988SOL    HW229427   1.443   1.847   3.358 -0.6204 -0.0606  0.7445
 5989SOL     OW29428   4.298   2.846   2.011  0.6571  0.6172  0.0985
 5989SOL    HW129429   4.317   2.851   2.105 -1.8450  1.2529  0.5913
 5989SOL    HW229430   4.290   2.937   1.983  1.4363  0.8409  0.6130
 5990SOL     OW29431   2.522   2.422   7.465 -0.2106  0.0020 -0.0105
 5990SOL    HW129432   2.521   2.327   7.469  0.6750 -0.0014  0.0825
 5990SOL    HW229433   2.570   2.445   7.545 -2.4054 -1.3037  1.6954
 5991SOL     OW29434   3.504   1.036   2.711 -0.0294 -0.5819 -0.1568
 5991SOL    HW129435   3.514   0.977   2.785 -1.8167 -0.5479  0.1216
 5991SOL    HW229436   3.598   1.043   2.699 -0.4011  1.1830 -1.9703
 5992SOL     OW29437   1.105   4.533   5.917 -0.0361 -0.0191  0.3132
 5992SOL    HW129438   1.187   4.516   5.869 -0.0408  0.7273  0.0322
 5992SOL    HW229439   1.066   4.446   5.908 -0.4394  0.1859  0.0736
 5993SOL     OW29440   4.351   1.726  12.554  0.1085 -0.2814  0.7658
 5993SOL    HW129441   4.350   1.653  12.616  1.3987  0.0766  1.2018
 5993SOL    HW229442   4.326   1.796  12.614  3.3601  0.4708  1.2513
 5994SOL     OW29443   1.167   3.757   2.925 -0.0550  0.2395 -1.1203
 5994SOL    HW129444   1.188   3.802   2.843 -1.3102  0.8218 -1.1243
 5994SOL    HW229445   1.152   3.668   2.892 -0.2920  0.2905 -1.1533
 5995SOL     OW29446   4.466   3.634  13.626 -0.6024 -0.0393  0.0774
 5995SOL    HW129447   4.425   3.578  13.560  0.6913 -1.1248  0.2040
 5995SOL    HW229448   4.525   3.682  13.568 -3.4568 -0.0063 -2.7721
 5996SOL     OW29449   1.304   0.126   8.980 -0.3208  0.2524  0.0857
 5996SOL    HW129450   1.232   0.153   8.922  0.0676  1.7180  0.2770
 5996SOL    HW229451   1.372   0.134   8.913 -1.6754  0.3156 -1.2798
 5997SOL     OW29452   2.764   4.103   8.029 -0.4060  0.1776  0.5960
 5997SOL    HW129453   2.834   4.163   8.006 -0.2925 -0.0205  0.4278
 5997SOL    HW229454   2.701   4.149   7.973 -0.2002 -0.6466 -0.3128
 5998SOL     OW29455   3.503   3.031   3.808 -0.5175 -0.4784 -0.1643
 5998SOL    HW129456   3.452   3.036   3.728 -2.1380 -0.4253  0.8651
 5998SOL    HW229457   3.487   3.118   3.846  3.1914 -0.1914  0.7190
 5999SOL     OW29458   1.309   4.298   2.846  0.0398 -0.3257 -0.1758
 5999SOL    HW129459   1.248   4.371   2.841 -0.0929 -0.5688 -2.2065
 5999SOL    HW229460   1.377   4.309   2.779 -0.3481  0.5917 -0.4052
 6000SOL     OW29461   0.604   1.198   7.533 -0.4229 -0.4459  0.6030
 6000SOL    HW129462   0.563   1.116   7.558  3.1047 -2.0521  1.0594
 6000SOL    HW229463   0.629   1.238   7.616  0.4098  0.7213 -0.1952
 6001SOL     OW29464   4.656   2.665   1.630  0.3177 -0.5083  0.1290
 6001SOL    HW129465   4.564   2.671   1.603  0.0376 -1.4135  0.8621
 6001SOL    HW229466   4.660   2.572   1.654 -1.6501  0.0132  2.5472
 6002SOL     OW29467   1.342   4.131   2.591  0.5672  0.4235 -0.1714
 6002SOL    HW129468   1.376   4.093   2.510 -0.8584 -2.0456  0.3833
 6002SOL    HW229469   1.405   4.201   2.607  0.8274 -0.1753  1.4252
 6003SOL     OW29470   2.236   0.290   3.642 -0.2243  0.1488 -0.1912
 6003SOL    HW129471   2.222   0.373   3.597  4.3174  0.8282 -0.2971
 6003SOL    HW229472   2.215   0.230   3.571 -0.6727 -2.0690  1.8292
 6004SOL     OW29473   0.173   3.801  15.735  0.1925 -0.6651  0.0283
 6004SOL    HW129474   0.180   3.810  15.640 -4.1369 -0.1122 -0.2432
 6004SOL    HW229475   0.157   3.707  15.744 -0.5868 -0.5495 -0.1448
 6005SOL     OW29476   3.292   2.458   4.475  0.3183 -0.3191 -0.1650
 6005SOL    HW129477   3.304   2.552   4.462 -0.6264 -0.4143 -1.6504
 6005SOL    HW229478   3.362   2.435   4.536  0.9008  2.0698  0.0566
 6006SOL     OW29479   1.062   3.806  15.795 -0.1513 -0.0529  0.0018
 6006SOL    HW129480   0.976   3.800  15.835  0.6600  1.6139  2.0115
 6006SOL    HW229481   1.079   3.712  15.783 -0.2457 -0.0686 -0.0092
 6007SOL     OW29482   0.563   3.878   2.124 -0.1399 -0.3385  0.6399
 6007SOL    HW129483   0.631   3.820   2.159  1.0260  0.5295 -0.1745
 6007SOL    HW229484   0.620   3.935   2.073 -1.4928 -0.1390 -0.6383
 6008SOL     OW29485   2.282   4.138   8.383 -0.3338 -0.2931 -0.4503
 6008SOL    HW129486   2.374   4.113   8.374 -0.1231  0.3334 -0.0091
 6008SOL    HW229487   2.270   4.182   8.299 -1.1708  1.0211  0.3679
 6009SOL     OW29488   2.045   4.026  10.222 -0.2023  0.2447  0.2633
 6009SOL    HW129489   2.098   4.097  10.184  2.7954 -2.3063 -0.2908
 6009SOL    HW229490   2.083   3.953  10.174 -0.6966  0.5798 -0.6550
 6010SOL     OW29491   0.461   2.590   8.156  0.1874 -0.7442 -0.1270
 6010SOL    HW129492   0.514   2.562   8.230  0.4234 -1.1204 -0.4364
 6010SOL    HW229493   0.497   2.534   8.088 -0.0516  0.7120 -1.4670
 6011SOL     OW29494   3.210   1.035   8.421  0.8565  0.0866 -0.3292
 6011SOL    HW129495   3.219   1.088   8.501  2.1972 -0.1532 -0.3204
 6011SOL    HW229496   3.248   0.951   8.447  0.1224 -0.3236 -0.5832
 6012SOL     OW29497   2.364   2.162  10.072 -0.0231 -0.1679  0.3887
 6012SOL    HW129498   2.322   2.207   9.998  0.1218 -2.1083 -0.8745
 6012SOL    HW229499   2.325   2.206  10.148 -0.7151  3.1379 -1.8717
 6013SOL     OW29500   0.393   0.472  17.350 -0.1221  0.2862  0.3009
 6013SOL    HW129501   0.407   0.509  17.437 -1.3575  0.6256  0.3479
 6013SOL    HW229502   0.386   0.550  17.296  1.5625 -1.9831 -3.1802
 6014SOL     OW29503   4.503   4.488   8.126 -0.1934 -0.2010  0.0662
 6014SOL    HW129504   4.410   4.469   8.114 -0.0353 -1.4806  0.8672
 6014SOL    HW229505   4.535   4.409   8.169 -1.2748 -0.8912 -0.4048
 6015SOL     OW29506   4.095   2.579   3.366 -0.3847  0.7129  0.1551
 6015SOL    HW129507   4.020   2.580   3.307 -1.1889  1.6355  1.1886
 6015SOL    HW229508   4.148   2.513   3.321  0.7439  1.5604  0.2272
 6016SOL     OW29509   0.630   1.025   5.808  0.2520 -0.1284 -0.1209
 6016SOL    HW129510   0.640   0.936   5.843 -0.5251 -0.4486 -0.7166
 6016SOL    HW229511   0.650   1.003   5.716  1.9169 -0.9481  0.4344
 6017SOL     OW29512   3.404   1.238  15.434  0.1878 -0.1183 -0.0367
 6017SOL    HW129513   3.499   1.231  15.425 -0.0038 -1.5054 -0.9566
 6017SOL    HW229514   3.393   1.292  15.512  1.3746 -0.7815  0.5816
 6018SOL     OW29515   2.274   3.181   5.523 -0.7195 -0.1950 -0.2044
 6018SOL    HW129516   2.246   3.244   5.590 -2.8437 -0.7828 -0.5559
 6018SOL    HW229517   2.217   3.204   5.450 -0.7130  0.6135  0.0389
 6019SOL     OW29518   1.156   1.800  16.163 -0.4187 -0.0938  0.0526
 6019SOL    HW129519   1.064   1.777  16.179 -0.4659  1.1258  1.5043
 6019SOL    HW229520   1.134   1.853  16.086 -0.3871  1.2144  0.9549
 6020SOL     OW29521   4.637   0.060   5.752  0.2098  0.2486 -0.2363
 6020SOL    HW129522   4.576   0.133   5.750 -0.3510 -0.2332 -1.0157
 6020SOL    HW229523   4.581   4.711   5.729 -2.0147  1.6429  0.6753
 6021SOL     OW29524   2.435   3.809   5.633 -0.3789  0.0067 -0.6046
 6021SOL    HW129525   2.428   3.810   5.538 -1.6736  0.2585 -0.5033
 6021SOL    HW229526   2.399   3.894   5.658 -0.5273  0.5324 -2.6098
 6022SOL     OW29527   1.691   2.546   0.801  0.8427  0.1898  0.2215
 6022SOL    HW129528   1.726   2.458   0.788  1.7112  0.8918 -2.3064
 6022SOL    HW229529   1.597   2.537   0.785  1.1856 -0.1008 -1.6491
 6023SOL     OW29530   2.520   3.477   3.013  0.5196 -0.0825  0.5733
 6023SOL    HW129531   2.593   3.512   3.065  0.5477  0.8311 -0.0795
 6023SOL    HW229532   2.510   3.388   3.046  0.4690 -0.3365 -0.1500
 6024SOL     OW29533   1.909   2.152   5.950 -0.0226  0.4052 -0.2768
 6024SOL    HW129534   1.895   2.059   5.932 -0.7877  0.3755  0.4637
 6024SOL    HW229535   1.947   2.147   6.037  1.4223  0.5096 -0.9026
 6025SOL     OW29536   2.916   4.264   3.513  0.7957 -0.0737 -0.1692
 6025SOL    HW129537   2.869   4.181   3.502 -1.0816  1.1915 -1.5335
 6025SOL    HW229538   2.849   4.326   3.541  2.2894  1.6186 -0.3306
 6026SOL     OW29539   1.621   0.993   8.511  0.1187  0.3444 -0.1985
 6026SOL    HW129540   1.596   0.997   8.603  0.6057  0.1671 -0.0550
 6026SOL    HW229541   1.637   1.085   8.493 -0.6268 -0.4021 -4.5185
 6027SOL     OW29542   3.517   4.409   6.508 -0.2399  0.3128  0.1758
 6027SOL    HW129543   3.569   4.489   6.517  0.2033  0.0483  0.0019
 6027SOL    HW229544   3.488   4.407   6.417 -1.8106 -1.1861  0.7009
 6028SOL     OW29545   1.194   0.954  17.556  0.0207  0.7247  0.7413
 6028SOL    HW129546   1.125   1.007  17.514 -0.9840 -0.5565  0.7696
 6028SOL    HW229547   1.267   1.015  17.564  1.1518 -0.3740 -1.4489
 6029SOL     OW29548   2.625   4.673   5.112 -0.2724  0.6652 -0.4085
 6029SOL    HW129549   2.699   4.643   5.059 -1.0995 -0.4426 -0.9410
 6029SOL    HW229550   2.608   4.600   5.173  1.0318 -0.4279 -1.3515
 6030SOL     OW29551   4.088   0.669   5.571 -0.2309 -0.1050 -0.1602
 6030SOL    HW129552   4.131   0.746   5.532 -1.2371  0.2259 -0.6177
 6030SOL    HW229553   3.997   0.685   5.546 -0.2157  0.1166 -0.0821
 6031SOL     OW29554   4.171   3.624   7.243 -0.0833 -0.6598  0.4754
 6031SOL    HW129555   4.189   3.542   7.289 -1.1509 -0.5649  1.0318
 6031SOL    HW229556   4.183   3.583   7.157  1.3644 -0.9195  0.7908
 6032SOL     OW29557   2.555   0.196   8.723  0.4243  0.0293 -0.8613
 6032SOL    HW129558   2.619   0.125   8.729  0.4954  0.3506  2.1329
 6032SOL    HW229559   2.601   0.257   8.780  1.3395 -1.9171  0.4721
 6033SOL     OW29560   4.339   2.083   6.644  0.4321 -0.0144 -0.2245
 6033SOL    HW129561   4.432   2.096   6.626  0.4010  1.6887  0.9155
 6033SOL    HW229562   4.346   1.994   6.679  0.1504 -0.5540 -1.5547
 6034SOL     OW29563   4.178   1.475   2.828  0.3983  0.1062  0.0147
 6034SOL    HW129564   4.171   1.523   2.745  0.7891  1.8577  0.9839
 6034SOL    HW229565   4.133   1.535   2.887  1.5046 -1.4341  2.4448
 6035SOL     OW29566   1.070   2.412  12.644  0.4358  0.2298  0.6884
 6035SOL    HW129567   1.122   2.450  12.715  0.2061  1.5840  0.1345
 6035SOL    HW229568   1.018   2.485  12.610 -1.8542 -1.3185  0.8305
 6036SOL     OW29569   0.913   3.695   3.337 -0.0235  0.4634  0.1769
 6036SOL    HW129570   0.965   3.630   3.290  0.2570 -1.1538  2.7094
 6036SOL    HW229571   0.979   3.744   3.385  0.3733 -0.4664  0.5821
 6037SOL     OW29572   0.495   3.472   5.143 -0.1517  0.7015  0.3651
 6037SOL    HW129573   0.498   3.548   5.201  1.2566 -0.2589  1.5683
 6037SOL    HW229574   0.564   3.495   5.082  1.0769 -2.0865  0.6996
 6038SOL     OW29575   1.842   2.195  10.425 -0.2359 -0.0111  0.6883
 6038SOL    HW129576   1.931   2.218  10.452  0.1332  0.2071 -0.6633
 6038SOL    HW229577   1.787   2.190  10.502 -0.2148 -1.4404  0.6108
 6039SOL     OW29578   1.452   0.349   0.242 -0.8556  0.0553 -0.0693
 6039SOL    HW129579   1.490   0.274   0.196 -0.7715  1.2543 -1.9807
 6039SOL    HW229580   1.481   0.324   0.329  0.8520  0.0296 -0.6488
 6040SOL     OW29581   4.642   2.468   0.672  1.7783 -0.0309 -0.2316
 6040SOL    HW129582   4.625   2.550   0.719  1.9857  0.3013 -0.7307
 6040SOL    HW229583   4.602   2.404   0.730  0.7444  2.7014  2.0223
 6041SOL     OW29584   3.125   0.919   2.265 -0.3539 -0.3978 -0.4712
 6041SOL    HW129585   3.128   1.012   2.288 -0.9808 -1.0107  2.0372
 6041SOL    HW229586   3.035   0.912   2.232 -0.0085 -1.2407 -1.2326
 6042SOL     OW29587   2.138   0.986   4.654 -0.3870 -0.1540 -1.0045
 6042SOL    HW129588   2.087   1.003   4.733  1.6896  0.9898  0.0867
 6042SOL    HW229589   2.210   0.933   4.689  0.5866  1.2416 -0.8977
 6043SOL     OW29590   1.944   4.375  15.664  0.0132 -0.0164  0.1955
 6043SOL    HW129591   1.869   4.371  15.723 -2.1010  0.5032 -2.4174
 6043SOL    HW229592   1.997   4.296  15.667  1.2293  0.8339  0.8129
 6044SOL     OW29593   2.932   3.192   6.448  0.1318  0.1277 -0.3236
 6044SOL    HW129594   2.908   3.100   6.435  0.1655  0.2193 -1.0420
 6044SOL    HW229595   2.943   3.217   6.356  0.0113 -0.3652 -0.4703
 6045SOL     OW29596   2.373   1.036   8.479  0.2130 -0.6580 -0.4043
 6045SOL    HW129597   2.460   1.000   8.495 -0.2499 -0.9891  1.4638
 6045SOL    HW229598   2.365   1.025   8.384  2.6687 -1.0934 -0.5660
 6046SOL     OW29599   1.173   2.344  17.428  0.6692  0.1118 -0.1276
 6046SOL    HW129600   1.093   2.315  17.385 -0.5925  1.3950  1.3223
 6046SOL    HW229601   1.182   2.432  17.391 -0.2940  0.3824  0.2768
 6047SOL     OW29602   1.462   0.824  14.367 -0.0679 -0.3647 -0.7133
 6047SOL    HW129603   1.475   0.732  14.392  0.3449 -0.6702 -2.0461
 6047SOL    HW229604   1.550   0.854  14.347  0.6518 -2.8308 -1.2844
 6048SOL     OW29605   0.512   3.715   4.366  0.1104 -0.2197 -0.5044
 6048SOL    HW129606   0.416   3.709   4.370 -0.1014  1.6296 -2.5557
 6048SOL    HW229607   0.533   3.807   4.384  2.3014 -1.0387  1.0463
 6049SOL     OW29608   3.363   3.824   0.604  0.1041 -0.0386 -0.2329
 6049SOL    HW129609   3.281   3.831   0.654  0.4766  1.9827  0.1123
 6049SOL    HW229610   3.375   3.731   0.622 -1.5938 -0.3215 -0.5529
 6050SOL     OW29611   2.163   2.800   0.281 -0.4829 -0.4221  0.2155
 6050SOL    HW129612   2.226   2.863   0.244 -1.7472 -1.0250 -2.9559
 6050SOL    HW229613   2.149   2.738   0.210 -0.5654  0.6651 -0.7203
 6051SOL     OW29614   2.687   4.088   5.145 -0.1041 -0.4303 -0.5619
 6051SOL    HW129615   2.624   4.157   5.125 -1.1940 -1.3878 -0.4102
 6051SOL    HW229616   2.665   4.076   5.237  0.4209 -0.2022 -0.4036
 6052SOL     OW29617   2.518   3.344   9.248  0.3649 -0.3800  0.4647
 6052SOL    HW129618   2.474   3.346   9.333  1.3719  1.2421  0.9361
 6052SOL    HW229619   2.531   3.438   9.240  0.6470 -0.5348 -1.0113
 6053SOL     OW29620   0.049   1.054   4.151  0.6757  0.6378 -0.4816
 6053SOL    HW129621   0.136   1.021   4.170 -0.2359 -0.8602  1.0745
 6053SOL    HW229622   0.042   1.121   4.218 -0.8147  0.1606 -0.1598
 6054SOL     OW29623   1.410   2.938   7.804  0.0106  0.0267 -0.3689
 6054SOL    HW129624   1.334   2.907   7.852 -1.1542  2.3441 -0.7384
 6054SOL    HW229625   1.408   2.874   7.732 -0.8636 -1.0448  0.6251
 6055SOL     OW29626   4.481   0.323   6.943  0.2179 -0.3593 -0.1000
 6055SOL    HW129627   4.543   0.261   6.981  0.7590  0.3825  0.2381
 6055SOL    HW229628   4.420   0.259   6.906 -0.7804 -0.1659  1.2366
 6056SOL     OW29629   4.342   0.156  14.386  0.0192  0.4114 -0.6927
 6056SOL    HW129630   4.290   0.077  14.374 -0.7147  0.7321  0.3321
 6056SOL    HW229631   4.282   0.200  14.446  3.0230  2.7931  0.5774
 6057SOL     OW29632   1.188   1.831  16.486 -0.1403  0.4154 -0.2686
 6057SOL    HW129633   1.147   1.917  16.472  3.6092  2.2276 -0.1155
 6057SOL    HW229634   1.116   1.774  16.460  2.2909 -3.4932  1.7128
 6058SOL     OW29635   2.374   1.947   4.152 -0.5151 -0.0615 -0.2323
 6058SOL    HW129636   2.364   1.899   4.234 -2.5633  0.4905 -0.1620
 6058SOL    HW229637   2.335   1.887   4.088  0.9148  1.2717 -2.3397
 6059SOL     OW29638   4.234   1.756   5.710 -0.2944 -0.1766 -0.0097
 6059SOL    HW129639   4.158   1.785   5.761  1.0537 -0.4633  2.1468
 6059SOL    HW229640   4.240   1.675   5.760 -1.4238 -0.6949 -0.7006
 6060SOL     OW29641   1.170   2.640   9.150  0.2617 -0.1132 -0.3490
 6060SOL    HW129642   1.114   2.709   9.113 -0.7570 -0.8857 -0.2397
 6060SOL    HW229643   1.132   2.562   9.110 -1.6879  0.6444  0.0026
 6061SOL     OW29644   1.908   2.248   4.291 -0.2844  0.3480 -0.1612
 6061SOL    HW129645   1.915   2.295   4.374 -2.7074  1.4842 -0.5785
 6061SOL    HW229646   1.915   2.317   4.225  1.8568 -0.2112 -0.5093
 6062SOL     OW29647   1.447   0.345  13.929 -0.2078 -0.0472  0.3825
 6062SOL    HW129648   1.477   0.409  13.994  1.6203 -0.4624 -0.0489
 6062SOL    HW229649   1.524   0.289  13.921 -1.6757 -1.7099 -1.8927
 6063SOL     OW29650   1.149   4.066   8.733 -0.4620 -0.0893 -0.3046
 6063SOL    HW129651   1.104   4.060   8.817 -0.4077 -1.0446 -0.3469
 6063SOL    HW229652   1.171   4.160   8.735  1.9263 -0.6996  2.6966
 6064SOL     OW29653   4.474   2.962  10.270 -0.5653  0.0135  0.0831
 6064SOL    HW129654   4.541   2.966  10.202  0.2238 -0.4474  0.8334
 6064SOL    HW229655   4.422   3.042  10.272 -1.0406 -0.2782 -0.5742
 6065SOL     OW29656   3.702   0.881   0.407  0.0240  0.2240 -0.3027
 6065SOL    HW129657   3.782   0.838   0.437  0.3132 -0.0228 -1.4271
 6065SOL    HW229658   3.731   0.972   0.418 -1.2003  0.5483  0.2944
 6066SOL     OW29659   1.503   2.968  13.482  0.1236 -0.0216 -0.0911
 6066SOL    HW129660   1.568   3.014  13.535 -0.2696  2.0835 -1.4442
 6066SOL    HW229661   1.542   2.880  13.487  0.9640  0.3789  0.3209
 6067SOL     OW29662   3.493   4.489   5.033 -0.0453 -0.2034 -0.1652
 6067SOL    HW129663   3.562   4.527   5.087  1.5937  1.0237 -3.1529
 6067SOL    HW229664   3.515   4.395   5.036 -0.6974 -0.3093  1.1105
 6068SOL     OW29665   1.774   2.339   2.801  0.0162  0.1457 -0.4767
 6068SOL    HW129666   1.833   2.266   2.819  0.0100 -0.3616 -2.5930
 6068SOL    HW229667   1.821   2.383   2.730 -0.8178  1.2512 -0.3370
 6069SOL     OW29668   1.507   0.222   5.766  0.0379 -0.4740 -0.1678
 6069SOL    HW129669   1.598   0.252   5.765 -0.8378  2.2039 -2.6652
 6069SOL    HW229670   1.520   0.135   5.804 -1.4648 -0.2568  0.8575
 6070SOL     OW29671   4.719   0.430  12.311 -0.2725  0.2362  0.2582
 6070SOL    HW129672   4.718   0.456  12.404 -1.0412  1.4781 -0.0931
 6070SOL    HW229673   4.626   0.420  12.293 -0.0062 -0.2310 -0.8294
 6071SOL     OW29674   1.671   0.171  13.235 -0.3115 -0.2056  0.1855
 6071SOL    HW129675   1.640   0.121  13.310 -1.2213 -0.3599 -0.2945
 6071SOL    HW229676   1.759   0.197  13.265 -0.6535 -0.6885  1.5877
 6072SOL     OW29677   3.228   1.903   4.338  0.1669  0.6250 -0.4130
 6072SOL    HW129678   3.149   1.865   4.301  1.1893 -1.8410 -0.0587
 6072SOL    HW229679   3.269   1.825   4.376  2.8402  1.1618 -2.2401
 6073SOL     OW29680   0.114   0.797   2.592  0.7243 -0.0324  0.3101
 6073SOL    HW129681   0.061   0.730   2.549  1.7316 -0.3514 -0.4385
 6073SOL    HW229682   0.201   0.757   2.593  0.2437 -1.0821  0.3382
 6074SOL     OW29683   2.298   2.398  12.881  0.1522 -0.2135  0.2596
 6074SOL    HW129684   2.392   2.381  12.888 -0.1727 -2.7340 -1.6998
 6074SOL    HW229685   2.293   2.454  12.959  0.0980  1.6543 -1.0734
 6075SOL     OW29686   3.890   2.664   6.322 -0.4487 -0.1876 -0.1312
 6075SOL    HW129687   3.953   2.698   6.259 -2.5276  0.5153 -1.8118
 6075SOL    HW229688   3.886   2.569   6.309 -5.0153  0.2011 -1.6847
 6076SOL     OW29689   2.916   3.747   0.690  0.1066 -0.1251 -0.1528
 6076SOL    HW129690   2.898   3.825   0.637 -0.2984 -0.4174 -0.4542
 6076SOL    HW229691   2.998   3.774   0.730  1.5717 -3.2935 -1.0081
 6077SOL     OW29692   0.093   0.246  10.190  0.2276 -0.0524  0.1797
 6077SOL    HW129693   0.058   0.158  10.196 -0.3736  0.2037  0.4155
 6077SOL    HW229694   0.037   0.262  10.114 -0.4113  2.0646  1.0780
 6078SOL     OW29695   2.003   4.587  17.601  0.0902  0.3218 -0.2516
 6078SOL    HW129696   2.095   4.594  17.575  0.0870  0.9180 -0.0817
 6078SOL    HW229697   1.961   4.662  17.560 -0.8492 -0.2326 -0.3153
 6079SOL     OW29698   1.817   1.498   1.676  0.0857 -0.0150 -0.0689
 6079SOL    HW129699   1.864   1.435   1.621 -1.1005  0.5888 -1.7671
 6079SOL    HW229700   1.868   1.575   1.652 -0.7346 -0.1782 -2.3362
 6080SOL     OW29701   3.255   3.766   7.939 -0.4144 -0.3546 -0.7475
 6080SOL    HW129702   3.234   3.769   8.033 -3.6293 -0.6706 -1.4617
 6080SOL    HW229703   3.314   3.841   7.935 -2.9953  1.7599  0.1611
 6081SOL     OW29704   3.801   2.184   0.182  0.2661 -0.0844  0.0192
 6081SOL    HW129705   3.867   2.120   0.211  2.9266  2.3384 -0.6154
 6081SOL    HW229706   3.721   2.133   0.178  0.4019 -0.4546  2.1153
 6082SOL     OW29707   2.832   4.096   2.168  0.3479  0.1500  0.2229
 6082SOL    HW129708   2.794   4.137   2.090  1.2962  0.9005  0.1672
 6082SOL    HW229709   2.748   4.071   2.208 -0.0761 -0.7099 -1.1737
 6083SOL     OW29710   0.780   2.206   5.504 -0.6154 -0.2954 -0.4853
 6083SOL    HW129711   0.771   2.117   5.539  2.8808  0.1565  1.5350
 6083SOL    HW229712   0.863   2.235   5.541 -0.4436 -1.0731 -0.2770
 6084SOL     OW29713   4.302   4.006   5.039  0.2602  0.4111  0.2125
 6084SOL    HW129714   4.382   3.955   5.052 -0.7096 -0.6803  1.8272
 6084SOL    HW229715   4.237   3.946   5.004 -0.3883  1.3789 -0.2566
 6085SOL     OW29716   1.298   1.654  16.915  0.4174 -0.3104 -0.2634
 6085SOL    HW129717   1.323   1.728  16.860  1.9181 -1.8071 -1.6029
 6085SOL    HW229718   1.344   1.671  16.997 -0.4561 -2.1403  0.5987
 6086SOL     OW29719   3.889   2.873   4.338  0.7962 -0.6605  0.2299
 6086SOL    HW129720   3.823   2.824   4.387 -1.6180  0.2054 -2.1191
 6086SOL    HW229721   3.959   2.808   4.345 -0.1717 -1.5817  1.4812
 6087SOL     OW29722   3.565   3.414  15.195 -0.3809 -0.0406 -0.1932
 6087SOL    HW129723   3.633   3.481  15.188 -0.2108 -0.2440 -0.5054
 6087SOL    HW229724   3.581   3.363  15.115 -1.1655 -0.1220 -0.2945
 6088SOL     OW29725   0.503   3.743   6.564  0.4686  0.0976 -0.2003
 6088SOL    HW129726   0.516   3.742   6.469 -0.1262  1.0199 -0.2911
 6088SOL    HW229727   0.559   3.675   6.601 -0.2752 -0.4107 -0.0080
 6089SOL     OW29728   0.901   1.325   0.805 -0.0514  0.0761  0.3548
 6089SOL    HW129729   0.890   1.406   0.853 -2.1662 -0.0284  0.0656
 6089SOL    HW229730   0.810   1.324   0.774  0.4525  0.2385 -1.1424
 6090SOL     OW29731   4.330   3.194   7.049  0.3685  0.2892 -0.3912
 6090SOL    HW129732   4.415   3.203   7.092  0.6109  2.0619 -1.2337
 6090SOL    HW229733   4.265   3.198   7.119  1.2527  1.5822  0.3585
 6091SOL     OW29734   1.957   0.698   2.760 -0.0515 -0.1323  0.5749
 6091SOL    HW129735   1.986   0.698   2.851  1.6866 -1.4745  0.0269
 6091SOL    HW229736   1.920   0.786   2.768 -2.1856 -1.0475  0.7325
 6092SOL     OW29737   0.311   0.596   6.748 -0.1887  0.8566 -0.3053
 6092SOL    HW129738   0.339   0.676   6.702 -0.5899 -0.2097 -2.4143
 6092SOL    HW229739   0.325   0.521   6.690 -0.1996  0.0025  0.8074
 6093SOL     OW29740   1.950   3.402   7.366  0.3541  0.1508 -0.4398
 6093SOL    HW129741   1.873   3.368   7.319 -0.0002  0.7414 -0.2885
 6093SOL    HW229742   1.979   3.334   7.427 -1.5452 -1.0280 -0.8223
 6094SOL     OW29743   4.498   3.427   0.643 -0.6482  0.2660  0.6895
 6094SOL    HW129744   4.590   3.410   0.665 -0.7816 -1.8268 -0.3591
 6094SOL    HW229745   4.454   3.359   0.695 -0.6319  0.3103  0.7618
 6095SOL     OW29746   2.125   1.980   1.279  0.1028 -0.4347 -0.0468
 6095SOL    HW129747   2.172   1.912   1.231 -1.7034 -1.5589 -0.1954
 6095SOL    HW229748   2.118   2.046   1.210  0.0587  0.6259  0.9670
 6096SOL     OW29749   2.060   2.807  12.789  0.2631  0.2394  0.2719
 6096SOL    HW129750   2.087   2.875  12.850  2.4189  0.1248 -0.5616
 6096SOL    HW229751   2.037   2.746  12.859 -0.3832  0.6041  0.3806
 6097SOL     OW29752   3.572   0.944   1.870 -0.3034 -0.3706  0.7307
 6097SOL    HW129753   3.539   0.987   1.949  0.1003 -0.1482  0.7793
 6097SOL    HW229754   3.538   0.856   1.879 -1.6410 -0.0917 -1.7058
 6098SOL     OW29755   1.702   0.707   4.780  0.3113  0.3884  0.6289
 6098SOL    HW129756   1.620   0.738   4.819 -0.7793 -0.3146 -1.0954
 6098SOL    HW229757   1.730   0.793   4.747  0.1686  0.6461  1.1793
 6099SOL     OW29758   4.277   1.131   8.728  0.2813 -0.4060 -0.1645
 6099SOL    HW129759   4.225   1.077   8.787  0.4902  0.4744  0.8065
 6099SOL    HW229760   4.355   1.075   8.727  0.1814 -0.5745  2.4872
 6100SOL     OW29761   3.603   3.322   2.646 -1.0108 -0.9628 -0.0337
 6100SOL    HW129762   3.555   3.404   2.638  2.8713  1.4098  0.8994
 6100SOL    HW229763   3.686   3.352   2.610 -1.5794 -0.7252 -1.1458
 6101SOL     OW29764   0.936   3.641   2.753  0.1117 -0.3244  0.1990
 6101SOL    HW129765   1.002   3.577   2.780  1.5392  0.9035 -0.3963
 6101SOL    HW229766   0.870   3.582   2.718 -0.7724  0.0002  1.3243
 6102SOL     OW29767   3.544   4.642  13.463 -0.1419 -0.0063  0.2942
 6102SOL    HW129768   3.582   4.722  13.428  0.5385 -0.6981 -0.5212
 6102SOL    HW229769   3.581   4.579  13.402 -1.6660  0.1875 -0.8172
 6103SOL     OW29770   1.575   3.013   6.034  0.2190  0.5243 -0.0735
 6103SOL    HW129771   1.659   2.969   6.022 -0.1055 -0.2398  0.4470
 6103SOL    HW229772   1.607   3.103   6.027 -0.4989  0.8492  0.7180
 6104SOL     OW29773   4.243   1.088  17.312  0.7303 -1.3655  0.2152
 6104SOL    HW129774   4.168   1.038  17.345  0.5324  1.3078  3.7808
 6104SOL    HW229775   4.273   1.029  17.243  0.2378  0.4139 -1.5105
 6105SOL     OW29776   0.978   1.574   8.209 -0.0475 -0.1177  0.4169
 6105SOL    HW129777   0.934   1.644   8.161  0.2548 -0.5207 -0.4556
 6105SOL    HW229778   1.005   1.604   8.296 -0.6848  0.8273  0.2849
 6106SOL     OW29779   3.739   1.964   1.272  0.0288  0.2674 -0.2718
 6106SOL    HW129780   3.802   1.959   1.200 -1.0946 -0.2951 -1.2086
 6106SOL    HW229781   3.687   1.885   1.258  3.3493 -1.8684 -0.3597
 6107SOL     OW29782   0.518   1.237   6.355 -0.3534 -0.0004  0.0822
 6107SOL    HW129783   0.467   1.159   6.377 -0.1714 -0.1719 -0.0947
 6107SOL    HW229784   0.448   1.302   6.361  1.0019  1.2641  1.8278
 6108SOL     OW29785   3.298   3.694   6.877  0.0307 -0.1829 -0.4719
 6108SOL    HW129786   3.290   3.756   6.803  1.1513  0.5228  0.0032
 6108SOL    HW229787   3.393   3.689   6.888 -0.0656  0.8312  0.8462
 6109SOL     OW29788   0.484   0.503  11.386 -0.5368  0.1244  0.4650
 6109SOL    HW129789   0.390   0.516  11.402 -0.2423  1.2586  1.2956
 6109SOL    HW229790   0.525   0.563  11.449 -0.8686 -1.0772  1.8332
 6110SOL     OW29791   0.857   2.937   8.305  0.3193  0.1977 -0.4682
 6110SOL    HW129792   0.922   2.994   8.346 -0.1165  1.5509 -1.6524
 6110SOL    HW229793   0.904   2.854   8.303 -0.8942 -0.4249 -2.8536
 6111SOL     OW29794   3.245   1.141   5.675  0.2177 -0.5941  0.1538
 6111SOL    HW129795   3.254   1.226   5.631  1.3007 -0.5880  0.3890
 6111SOL    HW229796   3.163   1.162   5.720 -1.1952 -0.4413 -2.5248
 6112SOL     OW29797   4.572   1.295   0.508  0.3904 -0.0314 -0.7356
 6112SOL    HW129798   4.653   1.279   0.459  0.9537 -1.1229  0.5404
 6112SOL    HW229799   4.599   1.336   0.590 -1.7455  0.7996 -0.4640
 6113SOL     OW29800   3.655   4.600   8.828 -0.4164 -0.3241  0.3436
 6113SOL    HW129801   3.619   4.530   8.773 -2.3355  2.5079 -1.9674
 6113SOL    HW229802   3.733   4.617   8.774  0.1321 -0.1703  1.1906
 6114SOL     OW29803   0.486   1.346   8.926 -0.7026 -0.6505  0.8190
 6114SOL    HW129804   0.395   1.366   8.905 -0.7184 -1.4046  0.1590
 6114SOL    HW229805   0.516   1.389   8.846 -1.2268  0.9535  1.4855
 6115SOL     OW29806   4.033   4.285   5.984  0.0837  0.2002  0.4673
 6115SOL    HW129807   4.032   4.263   5.891  2.2491  2.5452 -0.0849
 6115SOL    HW229808   4.087   4.216   6.023 -1.1761 -1.1101 -0.0676
 6116SOL     OW29809   3.293   0.109  11.140 -0.5870 -0.4075 -0.9999
 6116SOL    HW129810   3.298   0.019  11.106  1.5650 -0.2838 -0.9890
 6116SOL    HW229811   3.222   0.143  11.086 -2.1771 -1.9323  0.1384
 6117SOL     OW29812   1.709   0.199  10.695  0.1300 -0.2058 -0.7047
 6117SOL    HW129813   1.619   0.200  10.664 -0.4041 -0.1061  0.8214
 6117SOL    HW229814   1.737   0.251  10.620 -1.2237  1.6153  0.0573
 6118SOL     OW29815   2.342   0.250  14.625 -0.0893 -0.3654 -0.2686
 6118SOL    HW129816   2.310   0.163  14.604  1.7617 -0.2841 -3.4948
 6118SOL    HW229817   2.381   0.266  14.539 -2.1486 -1.0373 -1.3320
 6119SOL     OW29818   3.622   1.322  16.883  0.5355 -0.0314  0.0573
 6119SOL    HW129819   3.646   1.414  16.887  2.6266 -0.5386 -0.4311
 6119SOL    HW229820   3.527   1.325  16.879  0.6170 -1.3552 -3.0218
 6120SOL     OW29821   3.779   4.370   2.681 -0.0964 -0.6053  0.1674
 6120SOL    HW129822   3.793   4.450   2.731  1.2465 -1.1614  0.6824
 6120SOL    HW229823   3.866   4.329   2.678  1.2255  2.3289 -1.2949
 6121SOL     OW29824   2.895   3.941   3.968 -0.0516 -0.2453  0.1358
 6121SOL    HW129825   2.880   3.852   3.935  0.2962  0.3070 -1.5007
 6121SOL    HW229826   2.878   3.992   3.889 -1.0726 -0.2963  0.3269
 6122SOL     OW29827   3.002   0.184   4.377 -0.1474  0.3089 -0.4267
 6122SOL    HW129828   3.038   0.204   4.290 -3.2486 -0.2526 -1.8398
 6122SOL    HW229829   3.058   0.225   4.443 -1.2499 -1.0796  1.3727
 6123SOL     OW29830   4.668   2.369   7.364 -0.0614 -0.4571  0.1863
 6123SOL    HW129831   4.646   2.406   7.450 -0.1586  1.5053 -0.7007
 6123SOL    HW229832   4.656   2.449   7.314 -1.0554 -0.5089  0.3337
 6124SOL     OW29833   4.202   0.119  17.234 -0.0734 -0.3585 -0.0322
 6124SOL    HW129834   4.153   0.133  17.153  0.3029  1.0733 -0.0027
 6124SOL    HW229835   4.284   0.091  17.193 -0.0397 -1.0864  0.5150
 6125SOL     OW29836   2.336   3.323   7.139  0.3059 -0.1114 -0.5585
 6125SOL    HW129837   2.405   3.301   7.078 -0.1707 -0.0942 -1.1041
 6125SOL    HW229838   2.376   3.373   7.210 -2.3355  0.5161  0.4902
 6126SOL     OW29839   1.845   1.343  13.532  0.5818  0.0951  0.3579
 6126SOL    HW129840   1.779   1.275  13.514  0.2070 -0.1015  2.4653
 6126SOL    HW229841   1.864   1.365  13.441  0.8963 -2.4024 -0.1857
 6127SOL     OW29842   0.702   0.571   1.480  0.2138 -0.4521 -0.3690
 6127SOL    HW129843   0.732   0.482   1.502 -0.1556  0.0648  2.1853
 6127SOL    HW229844   0.770   0.607   1.423  1.2828 -1.2756  0.3802
 6128SOL     OW29845   4.229   4.719   6.370  0.1139 -0.2426  0.1010
 6128SOL    HW129846   4.321   0.019   6.370 -0.1156  0.5712 -0.8481
 6128SOL    HW229847   4.229   4.637   6.419 -0.9765 -1.1561 -1.3925
 6129SOL     OW29848   0.966   1.983   6.144  0.0772 -0.2457  0.4404
 6129SOL    HW129849   0.887   1.978   6.090  1.0265  0.5376 -0.9994
 6129SOL    HW229850   1.033   2.008   6.080  0.3886  0.2840  0.9746
 6130SOL     OW29851   3.453   3.305   3.863 -0.4847  0.0989 -0.1227
 6130SOL    HW129852   3.451   3.392   3.822  3.3868 -0.8629 -2.3473
 6130SOL    HW229853   3.428   3.331   3.952 -1.2332 -0.3164 -0.2159
 6131SOL     OW29854   0.340   4.113   2.303 -0.0012 -0.2990  0.4589
 6131SOL    HW129855   0.310   4.033   2.261 -1.3807 -1.3255  3.4131
 6131SOL    HW229856   0.378   4.163   2.231 -1.2934  1.9537  1.3503
 6132SOL     OW29857   4.508   2.507   6.860  0.0981  0.0117 -0.2886
 6132SOL    HW129858   4.430   2.522   6.913  0.5241  0.9906  0.0526
 6132SOL    HW229859   4.468   2.443   6.800  1.1467 -0.1357 -0.8339
 6133SOL     OW29860   4.019   3.547   1.561  0.4314  0.0613 -0.2104
 6133SOL    HW129861   4.083   3.524   1.629 -2.3683 -1.1208  1.9872
 6133SOL    HW229862   4.041   3.492   1.486  0.0578 -1.0536  0.4948
 6134SOL     OW29863   0.814   3.095   9.747 -0.0362 -0.4153 -0.4193
 6134SOL    HW129864   0.729   3.097   9.791 -0.8737  1.1214 -2.0707
 6134SOL    HW229865   0.786   3.077   9.657 -0.4762 -0.2728 -0.3123
 6135SOL     OW29866   2.050   1.354   9.065  0.1652  0.1054  0.1712
 6135SOL    HW129867   2.121   1.418   9.064 -0.4614  0.7838 -0.6959
 6135SOL    HW229868   2.031   1.339   9.158  1.5607  0.2318  0.4780
 6136SOL     OW29869   4.104   2.668   1.906 -0.2876  0.1912 -0.2669
 6136SOL    HW129870   4.083   2.599   1.969  0.1517 -0.4026 -0.7725
 6136SOL    HW229871   4.176   2.712   1.951  1.6421 -0.1286 -3.1012
 6137SOL     OW29872   4.103   3.586   4.628 -0.7757 -0.0732  0.0721
 6137SOL    HW129873   4.178   3.596   4.686 -1.7206 -1.2391  1.4831
 6137SOL    HW229874   4.151   3.586   4.545 -1.0023 -1.0157 -0.0567
 6138SOL     OW29875   0.093   0.926   1.191  0.2364  0.1907 -0.3348
 6138SOL    HW129876   0.091   0.831   1.176 -0.8008  0.1219  0.1948
 6138SOL    HW229877   0.160   0.941   1.257 -0.8656 -2.4628  1.4153
 6139SOL     OW29878   3.196   3.463   4.409 -0.3402 -0.2229 -0.4628
 6139SOL    HW129879   3.142   3.401   4.458  1.1062 -1.4834 -0.4420
 6139SOL    HW229880   3.171   3.533   4.468  0.8416 -1.3543  1.3606
 6140SOL     OW29881   2.041   1.787   7.738  0.0538 -0.0424 -0.3298
 6140SOL    HW129882   1.954   1.757   7.711 -0.3019  1.4725 -0.8879
 6140SOL    HW229883   2.016   1.855   7.801  2.4184  1.7519 -1.3433
 6141SOL     OW29884   4.585   3.262   3.526 -0.0955  0.3882  0.2275
 6141SOL    HW129885   4.496   3.231   3.544  0.4230 -0.2315  1.7727
 6141SOL    HW229886   4.579   3.358   3.531 -2.2454  0.2694  0.3015
 6142SOL     OW29887   3.043   4.713   5.109  0.5244 -0.5283  0.2297
 6142SOL    HW129888   2.965   0.038   5.134 -0.0906 -2.8398  2.9303
 6142SOL    HW229889   3.052   0.012   5.017 -1.2462  0.7992  0.3979
 6143SOL     OW29890   1.508   2.214   0.175  0.2031  0.0589  0.6209
 6143SOL    HW129891   1.519   2.309   0.188 -0.4964  0.5817 -2.5751
 6143SOL    HW229892   1.456   2.211   0.095  2.3510 -0.8495 -0.7305
 6144SOL     OW29893   2.828   2.700   4.159  0.4679  0.2279  0.4481
 6144SOL    HW129894   2.894   2.680   4.225 -0.8771  1.4378  2.1746
 6144SOL    HW229895   2.840   2.793   4.139 -1.5258  0.2204 -0.7977
 6145SOL     OW29896   3.281   2.231   3.689 -0.1623  0.7262  0.0586
 6145SOL    HW129897   3.246   2.320   3.682 -0.7699  0.4685 -0.1285
 6145SOL    HW229898   3.207   2.193   3.736 -1.0998 -0.1759 -2.1918
 6146SOL     OW29899   0.993   3.329  15.127  0.1944  0.1271 -0.4635
 6146SOL    HW129900   0.911   3.350  15.083 -0.6296 -2.3149 -0.1209
 6146SOL    HW229901   0.982   3.383  15.205  1.7845 -1.5535  0.9421
 6147SOL     OW29902   0.624   4.695  10.840 -0.0027  0.1796  0.7178
 6147SOL    HW129903   0.716   4.714  10.860 -0.1082  0.5456  0.8492
 6147SOL    HW229904   0.613   0.000  10.750  1.3152 -1.1855  0.0868
 6148SOL     OW29905   3.390   1.967   7.513  0.5940 -0.1921  0.0418
 6148SOL    HW129906   3.428   2.051   7.539  0.5190  0.2767 -1.4001
 6148SOL    HW229907   3.328   1.998   7.447 -0.1910 -1.8388  0.0024
 6149SOL     OW29908   2.768   2.061   7.736 -0.5441 -0.2138 -0.1802
 6149SOL    HW129909   2.692   2.007   7.715  0.3983 -0.9491 -1.6833
 6149SOL    HW229910   2.841   1.999   7.741  0.7088  1.2717 -0.1202
 6150SOL     OW29911   3.759   1.946  14.395 -0.0810 -0.0882  0.7347
 6150SOL    HW129912   3.684   1.967  14.450 -0.8870  0.2948 -0.5121
 6150SOL    HW229913   3.752   2.006  14.320 -0.4288  0.0443  0.8733
 6151SOL     OW29914   2.848   4.458   0.725 -0.7330  0.1083  0.4116
 6151SOL    HW129915   2.843   4.536   0.779 -0.9062  0.4956 -0.1557
 6151SOL    HW229916   2.943   4.446   0.723 -0.5794  0.9992  2.5720
 6152SOL     OW29917   3.886   4.521   2.295 -0.0154  0.8393 -0.1527
 6152SOL    HW129918   3.877   4.428   2.275  0.2009  0.3268  2.1388
 6152SOL    HW229919   3.969   4.546   2.255  1.4758 -2.2255  1.0409
 6153SOL     OW29920   0.644   1.276  12.988 -0.0791 -0.2292 -0.0421
 6153SOL    HW129921   0.638   1.369  12.969 -1.5221  0.0063  1.6447
 6153SOL    HW229922   0.704   1.283  13.062  0.9368 -0.9703 -0.7924
 6154SOL     OW29923   0.565   2.437   2.741 -0.4160  0.0811  0.4472
 6154SOL    HW129924   0.550   2.356   2.789  0.4474 -0.6965 -0.6051
 6154SOL    HW229925   0.538   2.503   2.805 -0.4514  2.2902 -1.8630
 6155SOL     OW29926   2.999   0.018   1.083  0.2145 -0.4976 -0.5566
 6155SOL    HW129927   2.955   0.023   0.998 -0.0944  2.7735 -0.2029
 6155SOL    HW229928   3.043   4.658   1.083  2.0477  0.4553  0.8673
 6156SOL     OW29929   4.450   0.397   4.126  0.1910 -0.0729 -0.2612
 6156SOL    HW129930   4.488   0.479   4.157  0.9470 -0.0196 -1.3380
 6156SOL    HW229931   4.531   0.359   4.094  0.6143 -0.9825  1.9377
 6157SOL     OW29932   1.521   2.048  15.001 -0.2116  0.0321  0.1563
 6157SOL    HW129933   1.477   2.106  14.938  0.6252 -0.1051 -0.5500
 6157SOL    HW229934   1.506   1.959  14.969  1.8446  0.7499 -2.8316
 6158SOL     OW29935   4.043   0.591   6.639  0.2868 -0.4312 -0.0771
 6158SOL    HW129936   4.044   0.564   6.547 -0.4268  1.7502 -0.7380
 6158SOL    HW229937   3.995   0.513   6.668 -0.3741  0.4409  1.1682
 6159SOL     OW29938   3.816   1.707   3.879 -0.0152  0.0005  0.6566
 6159SOL    HW129939   3.729   1.705   3.919 -1.7009  2.0286 -2.8342
 6159SOL    HW229940   3.849   1.796   3.892 -1.2855  0.5522  0.1035
 6160SOL     OW29941   4.623   2.437   6.065  0.3345  0.5026 -0.0146
 6160SOL    HW129942   4.685   2.406   6.000  0.7246  1.4782 -0.1082
 6160SOL    HW229943   4.537   2.425   6.025 -0.7348  1.2784  2.0322
 6161SOL     OW29944   3.857   2.721   9.340  0.1930 -0.1103 -0.2855
 6161SOL    HW129945   3.881   2.713   9.432 -1.8207 -2.3405  0.0501
 6161SOL    HW229946   3.771   2.680   9.336 -0.6343  1.8287 -2.4982
 6162SOL     OW29947   0.816   4.477  13.001  0.9054 -0.5995 -0.1098
 6162SOL    HW129948   0.900   4.488  13.046  0.0936  2.4820  0.6908
 6162SOL    HW229949   0.758   4.529  13.057  1.8159 -1.2711  1.4725
 6163SOL     OW29950   2.029   1.071  13.727 -0.1188  0.2236  0.0746
 6163SOL    HW129951   2.094   1.002  13.742  0.7045  1.7386  3.4296
 6163SOL    HW229952   2.063   1.113  13.648  1.7515  1.5021  1.5447
 6164SOL     OW29953   2.424   3.829   3.862 -0.2038 -0.7252 -0.2492
 6164SOL    HW129954   2.501   3.851   3.915 -0.0509 -1.0329 -0.3409
 6164SOL    HW229955   2.432   3.883   3.784  0.4375  1.8902  1.6151
 6165SOL     OW29956   1.476   4.348   4.425  0.7367  0.4399 -0.0046
 6165SOL    HW129957   1.460   4.343   4.520  0.3788  0.8943 -0.0404
 6165SOL    HW229958   1.388   4.331   4.390  1.6635 -2.2431 -1.0485
 6166SOL     OW29959   0.668   2.513  14.173  0.0081 -0.2183  0.3861
 6166SOL    HW129960   0.648   2.529  14.081  0.0220 -0.7189  0.2952
 6166SOL    HW229961   0.590   2.466  14.201 -0.9691  1.0873 -0.1857
 6167SOL     OW29962   4.521   2.342   5.343  0.5823 -0.1953  0.0073
 6167SOL    HW129963   4.562   2.288   5.275 -2.0324 -1.0083 -0.8875
 6167SOL    HW229964   4.588   2.405   5.370  0.5306  0.7016 -1.9432
 6168SOL     OW29965   3.017   3.011   3.447 -0.3945 -0.4538  0.5054
 6168SOL    HW129966   3.053   2.963   3.373 -1.5213 -0.7521  0.1643
 6168SOL    HW229967   3.094   3.013   3.505  1.4581 -0.2354 -1.9754
 6169SOL     OW29968   0.080   1.153   2.759  0.4637 -0.2424  0.6497
 6169SOL    HW129969   0.106   1.080   2.815  1.9543 -0.9317 -0.9326
 6169SOL    HW229970   0.002   1.122   2.714 -1.0953  1.3955  2.2331
 6170SOL     OW29971   4.393   1.142   4.191  0.5789  0.1343 -0.2403
 6170SOL    HW129972   4.481   1.107   4.174  0.7062  1.1178 -1.5709
 6170SOL    HW229973   4.355   1.055   4.200  0.6986  0.3653  2.4713
 6171SOL     OW29974   1.592   1.576  13.038  0.1720 -0.2599  0.5606
 6171SOL    HW129975   1.669   1.634  13.044 -1.1874  1.5762  0.1965
 6171SOL    HW229976   1.515   1.632  13.049 -0.2912 -0.6712 -0.5828
 6172SOL     OW29977   4.005   4.356   6.690 -0.2448 -0.0593  0.3841
 6172SOL    HW129978   4.080   4.304   6.721  0.3841  0.7079  0.1267
 6172SOL    HW229979   4.006   4.440   6.736 -0.9974  1.4461 -2.3789
 6173SOL     OW29980   0.868   1.611   4.629  0.1864  0.7721  0.4810
 6173SOL    HW129981   0.877   1.647   4.541  0.1879  1.5217  0.7853
 6173SOL    HW229982   0.911   1.679   4.680  1.3923  0.0671  0.3932
 6174SOL     OW29983   1.235   2.072   3.201  0.0477  0.2029  0.5903
 6174SOL    HW129984   1.313   2.047   3.151  0.6477  0.6342  1.2971
 6174SOL    HW229985   1.184   2.111   3.130 -0.8646 -0.1688  1.0399
 6175SOL     OW29986   1.856   3.971   8.338 -0.1941  0.1437 -0.1733
 6175SOL    HW129987   1.873   4.065   8.325 -1.4144  0.6556  1.9843
 6175SOL    HW229988   1.786   3.974   8.403 -0.0476  2.2416 -0.1147
 6176SOL     OW29989   4.608   3.555   7.636  0.7347  0.2357 -0.0928
 6176SOL    HW129990   4.537   3.589   7.581  1.2587 -0.3653 -1.1482
 6176SOL    HW229991   4.596   3.460   7.625  1.9286  0.0854 -0.0699
 6177SOL     OW29992   4.425   2.081  12.740 -0.4881  0.1378 -0.2192
 6177SOL    HW129993   4.401   2.155  12.684 -2.1701 -0.6736 -0.5580
 6177SOL    HW229994   4.352   2.020  12.736  1.0274 -1.6475 -0.8966
 6178SOL     OW29995   3.533   0.224   1.251 -0.5152  0.1252 -0.0887
 6178SOL    HW129996   3.467   0.234   1.182 -0.1468  0.8416 -0.3443
 6178SOL    HW229997   3.614   0.234   1.200  0.3194 -1.6710  0.8809
 6179SOL     OW29998   4.112   3.209   3.156  0.1107 -0.3355  0.1045
 6179SOL    HW129999   4.181   3.272   3.134  1.6536 -2.2193 -0.4557
 6179SOL    HW230000   4.119   3.130   3.102  0.2920 -1.0355  1.1618
 6180SOL     OW30001   1.037   4.530   9.389  0.1305  0.2384 -0.3915
 6180SOL    HW130002   0.949   4.549   9.423 -1.3401 -3.1044 -2.3622
 6180SOL    HW230003   1.031   4.437   9.408 -3.7084  0.7594  1.0362
 6181SOL     OW30004   0.272   2.098  14.226 -0.1049 -0.1431 -0.5513
 6181SOL    HW130005   0.219   2.156  14.280  1.6603 -0.0413  1.0744
 6181SOL    HW230006   0.288   2.026  14.287 -0.3372  1.2463  1.1225
 6182SOL     OW30007   3.046   0.743   3.795  0.2012  0.1067 -0.4559
 6182SOL    HW130008   3.077   0.673   3.737  0.2847 -0.2233 -0.0105
 6182SOL    HW230009   3.088   0.817   3.752  0.1444 -1.3730 -3.0726
 6183SOL     OW30010   1.678   2.654   4.053 -0.8634  0.3291 -0.0233
 6183SOL    HW130011   1.594   2.608   4.059 -0.1122 -0.9013  1.0769
 6183SOL    HW230012   1.644   2.729   4.004  0.0137  1.6684  1.4238
 6184SOL     OW30013   3.570   1.890   4.000  0.5775  0.6878  0.0614
 6184SOL    HW130014   3.556   1.973   3.954  1.6858  0.6708 -0.2960
 6184SOL    HW230015   3.488   1.840   3.994  0.4300  0.7111  1.6815
 6185SOL     OW30016   4.313   4.526   2.906 -0.5790  0.8444  0.1337
 6185SOL    HW130017   4.339   4.588   2.838  0.6755 -2.2694 -2.2270
 6185SOL    HW230018   4.353   4.449   2.864 -1.6244  0.1156  0.4853
 6186SOL     OW30019   0.997   0.786  11.065  0.4100  0.7199  0.3942
 6186SOL    HW130020   0.982   0.819  11.154 -2.5433 -2.3149  1.0492
 6186SOL    HW230021   1.018   0.695  11.087 -0.7542  0.3659  0.0424
 6187SOL     OW30022   4.572   1.598   1.741 -0.1638 -1.1007  0.0128
 6187SOL    HW130023   4.631   1.597   1.816  2.0345  1.1746 -1.6679
 6187SOL    HW230024   4.499   1.541   1.762 -1.1733 -0.2297 -1.1602
 6188SOL     OW30025   1.201   3.060   6.295 -0.3644  0.3395  0.3076
 6188SOL    HW130026   1.246   3.127   6.243 -0.3760 -1.3163 -1.8431
 6188SOL    HW230027   1.217   2.984   6.239  1.2727  0.4470  0.6372
 6189SOL     OW30028   1.626   4.179   9.881 -0.2617  0.4362  0.0776
 6189SOL    HW130029   1.673   4.120   9.939  0.5252  1.2253  0.2464
 6189SOL    HW230030   1.544   4.129   9.880  1.8461 -3.0162  0.8959
 6190SOL     OW30031   4.644   4.525  10.331  0.2219  0.2506  0.3693
 6190SOL    HW130032   4.629   4.485  10.416 -1.4133  0.3734  0.1474
 6190SOL    HW230033   4.554   4.549  10.305  0.1954 -0.6376 -0.3670
 6191SOL     OW30034   4.388   1.445   1.918  0.4725 -0.4986 -0.2538
 6191SOL    HW130035   4.428   1.360   1.936  1.4031 -0.6286 -2.9177
 6191SOL    HW230036   4.319   1.424   1.855 -1.7743  0.6705  1.7986
 6192SOL     OW30037   3.040   1.972   2.621  0.6514  0.7431 -0.7591
 6192SOL    HW130038   3.014   1.956   2.531 -1.8974 -1.2962  0.3474
 6192SOL    HW230039   3.005   1.890   2.654  1.9335 -0.0072 -1.2480
 6193SOL     OW30040   3.300   3.170   8.257 -0.0222 -0.3047 -0.1876
 6193SOL    HW130041   3.332   3.108   8.191  2.3821  0.4478  0.2569
 6193SOL    HW230042   3.300   3.112   8.332 -0.6377  0.4020  0.3629
 6194SOL     OW30043   4.694   0.192   3.527  0.5206  0.0999 -0.7442
 6194SOL    HW130044   0.007   0.251   3.592  2.4224 -2.4965  0.4830
 6194SOL    HW230045   4.603   0.216   3.544  0.2362 -1.0871 -0.5896
 6195SOL     OW30046   4.569   4.278   4.547 -0.0176 -0.3027  0.0392
 6195SOL    HW130047   4.542   4.249   4.634 -0.5253  1.6925  0.5609
 6195SOL    HW230048   4.555   4.204   4.489 -0.6000 -1.7064  1.9995
 6196SOL     OW30049   2.798   3.582   5.175 -0.0860  0.1367 -0.3517
 6196SOL    HW130050   2.819   3.652   5.112  0.3310 -0.2039 -0.5918
 6196SOL    HW230051   2.711   3.603   5.208 -0.4653 -0.4889 -0.9471
 6197SOL     OW30052   4.642   4.175   5.249 -0.6050 -0.3382 -0.3499
 6197SOL    HW130053   4.621   4.257   5.205 -2.3723 -0.8015 -0.3860
 6197SOL    HW230054   4.622   4.121   5.173 -1.9778  1.1373 -1.0347
 6198SOL     OW30055   4.321   1.370   4.665  0.3942  0.3223 -0.5213
 6198SOL    HW130056   4.315   1.312   4.589  0.1235  0.1200 -0.3432
 6198SOL    HW230057   4.369   1.435   4.613  1.3087  1.1123  1.3018
 6199SOL     OW30058   2.318   4.700   4.421  0.0603 -0.3819  0.4308
 6199SOL    HW130059   2.346   0.063   4.444  2.1846 -1.2659  1.2566
 6199SOL    HW230060   2.357   4.640   4.484 -0.4032 -0.8911  0.2392
 6200SOL     OW30061   3.126   2.162  10.248 -0.7741  0.3292 -0.5936
 6200SOL    HW130062   3.105   2.203  10.332 -2.0658  0.2367 -0.8793
 6200SOL    HW230063   3.045   2.176  10.199 -1.7954  1.7242  1.5021
 6201SOL     OW30064   1.055   0.506  16.591  0.0428 -0.1310 -0.1988
 6201SOL    HW130065   1.080   0.554  16.670  1.2503 -0.2811 -0.4919
 6201SOL    HW230066   1.138   0.474  16.555 -0.4174 -0.3237 -1.1031
 6202SOL     OW30067   2.894   3.320   4.327 -0.1779 -0.0603 -0.0275
 6202SOL    HW130068   2.839   3.358   4.258  0.7619  0.3919 -0.5423
 6202SOL    HW230069   2.963   3.282   4.272  0.1942  1.0125 -0.3130
 6203SOL     OW30070   2.208   0.431  16.061 -0.0047 -0.1043 -0.2665
 6203SOL    HW130071   2.125   0.446  16.106  1.0677 -0.3773  1.8047
 6203SOL    HW230072   2.263   0.390  16.128 -1.8826  1.0295  1.9622
 6204SOL     OW30073   3.744   2.406  10.028 -0.2072  0.2295 -0.4126
 6204SOL    HW130074   3.810   2.383  10.094 -2.0105 -0.6270  1.1013
 6204SOL    HW230075   3.661   2.416  10.074 -0.3746 -0.1164 -0.6420
 6205SOL     OW30076   2.057   3.118   0.536 -0.0046 -0.4072 -0.5291
 6205SOL    HW130077   2.000   3.075   0.473 -1.0654  1.3693 -0.7796
 6205SOL    HW230078   2.031   3.210   0.544  2.0191  0.4354 -3.5156
 6206SOL     OW30079   2.489   4.278   6.860  0.0529  0.0031 -0.0809
 6206SOL    HW130080   2.563   4.243   6.910  1.7827 -0.0580 -2.6882
 6206SOL    HW230081   2.480   4.366   6.897 -1.5201 -1.2607  2.5631
 6207SOL     OW30082   2.344   1.776   9.632  0.0125  0.3375 -0.3493
 6207SOL    HW130083   2.372   1.844   9.694 -0.3126  0.8878 -0.8047
 6207SOL    HW230084   2.381   1.693   9.663 -1.5526  0.0824  0.8380
 6208SOL     OW30085   2.391   4.421  10.239  0.9843 -0.4603  0.2454
 6208SOL    HW130086   2.453   4.494  10.229 -1.1036  1.5550  2.1009
 6208SOL    HW230087   2.349   4.445  10.321 -1.1078 -1.3623 -0.5735
 6209SOL     OW30088   3.040   1.218  16.094 -0.1768 -1.0644  0.4039
 6209SOL    HW130089   3.012   1.261  16.175 -0.1679 -0.6103  0.1625
 6209SOL    HW230090   3.044   1.127  16.125  1.6301 -1.8139 -2.0155
 6210SOL     OW30091   3.233   0.312   3.053  0.2395 -0.0302  0.0585
 6210SOL    HW130092   3.161   0.267   3.009  2.5732 -3.2307 -0.4739
 6210SOL    HW230093   3.189   0.395   3.071 -0.8196 -0.8330  1.1169
 6211SOL     OW30094   3.410   2.646   8.152 -0.8922 -0.0037  0.0727
 6211SOL    HW130095   3.457   2.723   8.184  2.8641 -2.5910  0.8415
 6211SOL    HW230096   3.439   2.657   8.062 -0.8609  0.5464  0.1497
 6212SOL     OW30097   2.668   3.831   6.328 -1.0030  0.0423 -0.3791
 6212SOL    HW130098   2.749   3.875   6.353 -1.4837  1.0784 -0.6754
 6212SOL    HW230099   2.698   3.772   6.259 -0.9677 -0.8978  0.4353
 6213SOL     OW30100   0.963   4.524   4.181 -0.4115 -0.0869 -0.0945
 6213SOL    HW130101   1.015   4.557   4.108 -0.8924  0.3953 -0.2145
 6213SOL    HW230102   1.006   4.570   4.253  1.1454 -2.1836  0.3079
 6214SOL     OW30103   3.095   3.620   2.096 -0.0398 -0.3569  0.3533
 6214SOL    HW130104   3.088   3.537   2.143 -0.3342 -0.8387 -0.5495
 6214SOL    HW230105   3.188   3.636   2.114  0.5195 -1.3566 -1.6505
 6215SOL     OW30106   4.458   0.867   5.089  0.0139 -0.0591 -0.5383
 6215SOL    HW130107   4.450   0.957   5.121  0.6889  0.6694 -2.3660
 6215SOL    HW230108   4.487   0.874   4.998  0.1519  2.2391 -0.3266
 6216SOL     OW30109   4.008   2.130   9.933  0.0918 -0.2440  0.0104
 6216SOL    HW130110   3.925   2.091   9.905  0.9078 -1.1856 -1.1146
 6216SOL    HW230111   3.991   2.167  10.019 -1.3082  0.7748 -0.7031
 6217SOL     OW30112   3.475   4.648   3.262 -0.0187 -0.2523  0.5271
 6217SOL    HW130113   3.448   4.712   3.195 -0.8521 -1.8596 -0.6823
 6217SOL    HW230114   3.400   4.589   3.261 -1.9639  2.1886  0.3435
 6218SOL     OW30115   0.960   0.960   5.059 -0.7946 -0.4878  0.5500
 6218SOL    HW130116   1.006   1.025   5.005  0.2370 -0.7175  1.1662
 6218SOL    HW230117   0.873   0.940   5.024 -1.2574 -0.5959  1.7785
 6219SOL     OW30118   2.695   3.735  17.397 -0.2693 -0.4447  0.0938
 6219SOL    HW130119   2.688   3.806  17.333  0.0065  0.5833  1.2018
 6219SOL    HW230120   2.664   3.658  17.349 -1.5235 -0.5470  1.0732
 6220SOL     OW30121   3.648   0.165   7.784 -0.3453 -0.0573 -0.2708
 6220SOL    HW130122   3.582   0.213   7.734  1.8649  0.7369 -2.4331
 6220SOL    HW230123   3.591   0.107   7.833 -0.3426  0.1669  0.0001
 6221SOL     OW30124   2.279   3.277   9.127  0.0851  0.4408  0.3088
 6221SOL    HW130125   2.367   3.286   9.164  0.8227  0.6164 -1.4589
 6221SOL    HW230126   2.239   3.356   9.163 -0.6350 -0.2161  0.9379
 6222SOL     OW30127   4.011   3.097  17.674 -0.0405 -0.2245  0.2478
 6222SOL    HW130128   4.011   3.004  17.696  0.7381 -0.6227 -1.4078
 6222SOL    HW230129   4.097   3.098  17.633 -0.2029  0.1121 -0.0825
 6223SOL     OW30130   2.742   0.718  10.178 -0.0065 -0.0119 -0.0028
 6223SOL    HW130131   2.819   0.664  10.198 -0.2204 -0.6448 -0.8733
 6223SOL    HW230132   2.679   0.693  10.245 -1.6732 -0.4542 -1.7418
 6224SOL     OW30133   1.607   3.565  15.310  0.3528 -0.4147  0.5148
 6224SOL    HW130134   1.638   3.618  15.383  0.5604  0.9358 -0.5393
 6224SOL    HW230135   1.654   3.605  15.237 -1.0039  1.0582  0.4344
 6225SOL     OW30136   2.117   4.589   5.938 -0.4613  0.6260 -0.5896
 6225SOL    HW130137   2.195   4.573   5.991  0.4226 -0.2818 -2.1840
 6225SOL    HW230138   2.161   4.615   5.857 -0.0556  0.7009 -0.3467
 6226SOL     OW30139   2.726   1.948   1.736  0.1651 -0.2195 -0.8613
 6226SOL    HW130140   2.635   1.971   1.719  0.0816 -0.9302 -1.3454
 6226SOL    HW230141   2.760   1.915   1.653 -1.1866  1.4341 -2.0873
 6227SOL     OW30142   2.046   1.371  16.265  0.0416 -0.2693  0.3272
 6227SOL    HW130143   2.074   1.461  16.250  0.5606 -0.5324 -0.3069
 6227SOL    HW230144   2.041   1.363  16.360 -0.0338  1.6940  0.4839
 6228SOL     OW30145   0.110   2.066   2.401  0.4412  0.2961 -0.3904
 6228SOL    HW130146   0.202   2.092   2.411  0.7837 -1.1525  0.2704
 6228SOL    HW230147   0.066   2.138   2.355  0.6547  2.2983  2.5302
 6229SOL     OW30148   2.323   1.642   2.839  0.0148  0.1603  0.0905
 6229SOL    HW130149   2.287   1.592   2.912  0.6365  0.6614  0.7388
 6229SOL    HW230150   2.407   1.665   2.878 -0.1830  2.9299 -1.1491
 6230SOL     OW30151   2.066   1.605   5.985 -0.2290 -0.0008 -0.2672
 6230SOL    HW130152   2.153   1.614   6.024 -0.4770 -0.1013  0.3123
 6230SOL    HW230153   2.083   1.568   5.899 -0.6436 -0.9353  0.0537
 6231SOL     OW30154   3.112   4.004  16.873  0.4987 -0.2950  0.6759
 6231SOL    HW130155   3.124   4.097  16.851  1.4412 -0.9750 -1.6333
 6231SOL    HW230156   3.058   3.969  16.802  0.3001 -1.3316  1.3396
 6232SOL     OW30157   1.021   2.951   7.925 -0.1385 -0.7011 -0.2105
 6232SOL    HW130158   0.969   3.031   7.916  1.2957  0.3582  0.7827
 6232SOL    HW230159   1.095   2.972   7.983 -2.9555  1.8287  2.4631
 6233SOL     OW30160   1.304   1.177  15.422 -0.0132 -0.1321 -0.4285
 6233SOL    HW130161   1.369   1.110  15.400 -0.2225 -1.1983  2.1009
 6233SOL    HW230162   1.316   1.187  15.517 -2.1207 -1.5572  0.0074
 6234SOL     OW30163   0.178   3.937   2.656  0.2672 -0.2082 -0.6677
 6234SOL    HW130164   0.229   4.016   2.639 -2.0280  1.6139  0.8818
 6234SOL    HW230165   0.235   3.880   2.707 -1.3910 -1.8961 -0.6903
 6235SOL     OW30166   1.583   3.739   2.241  0.3531  0.7571 -0.4693
 6235SOL    HW130167   1.522   3.790   2.188 -0.5282  1.3194  1.1022
 6235SOL    HW230168   1.644   3.715   2.171  0.2536  1.1540 -0.6885
 6236SOL     OW30169   0.580   1.411   5.831 -0.8746  0.2054 -0.1542
 6236SOL    HW130170   0.489   1.425   5.804 -0.9711 -1.2999 -0.6025
 6236SOL    HW230171   0.585   1.468   5.908  0.7402  0.1886 -0.2525
 6237SOL     OW30172   1.225   4.293   7.290 -0.1571  0.3567 -0.0209
 6237SOL    HW130173   1.300   4.239   7.264  0.4407  0.8205  0.7507
 6237SOL    HW230174   1.157   4.227   7.308 -0.6044  0.3045 -1.8789
 6238SOL     OW30175   2.633   1.868  12.915  0.3347 -0.0889  0.7991
 6238SOL    HW130176   2.659   1.778  12.895 -2.2724 -0.6477 -0.0516
 6238SOL    HW230177   2.590   1.861  13.000 -0.3900  0.4933  0.4761
 6239SOL     OW30178   0.396   3.507   1.807 -0.0726 -0.5087  0.0627
 6239SOL    HW130179   0.479   3.466   1.784 -0.7080 -2.6904  1.6929
 6239SOL    HW230180   0.430   3.593   1.833  0.2683 -0.3117 -1.0313
 6240SOL     OW30181   3.967   1.625   7.593 -0.0212  0.3190 -0.8073
 6240SOL    HW130182   4.011   1.708   7.606  0.3886  0.0058 -0.2324
 6240SOL    HW230183   3.973   1.577   7.675  1.1935 -0.5007 -1.3646
 6241SOL     OW30184   0.254   3.327  17.527 -0.0879 -0.9647  0.7387
 6241SOL    HW130185   0.261   3.291  17.615 -1.2649 -2.0227  0.3920
 6241SOL    HW230186   0.235   3.418  17.551  0.2389 -0.4939 -0.7851
 6242SOL     OW30187   2.318   2.015  13.124  0.0277  0.3609 -0.3955
 6242SOL    HW130188   2.312   2.034  13.031  3.2412  1.1782 -0.4160
 6242SOL    HW230189   2.224   2.010  13.140  0.7132  0.0725  3.5903
 6243SOL     OW30190   3.616   1.363   0.212 -1.0886 -0.1649  0.3505
 6243SOL    HW130191   3.621   1.268   0.198  0.6338 -0.0962  0.5248
 6243SOL    HW230192   3.689   1.393   0.158 -0.4818 -2.8605 -0.3316
 6244SOL     OW30193   3.613   3.808   3.695 -0.0126 -0.1153  0.2929
 6244SOL    HW130194   3.703   3.824   3.722 -1.1923  0.4525  3.8260
 6244SOL    HW230195   3.619   3.715   3.671  0.2490 -0.2034  0.7067
 6245SOL     OW30196   4.612   0.693   4.629  0.5332 -0.0640  0.2686
 6245SOL    HW130197   4.603   0.758   4.560  0.7919 -2.7155 -2.2201
 6245SOL    HW230198   4.604   0.613   4.577 -1.1164  0.8634 -0.8850
 6246SOL     OW30199   3.129   3.697   2.703  0.2954 -0.4643 -0.4700
 6246SOL    HW130200   3.069   3.768   2.722 -1.0354 -1.6151 -0.4018
 6246SOL    HW230201   3.199   3.746   2.661  0.0084  1.0342  0.7979
 6247SOL     OW30202   1.299   2.346   4.554  0.0599 -0.1044  0.0375
 6247SOL    HW130203   1.393   2.359   4.543 -0.6648  4.4191 -0.8520
 6247SOL    HW230204   1.255   2.422   4.517  0.8076  1.0894  1.5613
 6248SOL     OW30205   2.499   2.975   7.620  0.4743  0.0609 -0.8155
 6248SOL    HW130206   2.564   2.945   7.683 -1.0766  1.8220  1.6274
 6248SOL    HW230207   2.500   3.069   7.636  0.8814 -0.0337 -0.3080
 6249SOL     OW30208   0.693   1.014   3.468 -0.5937 -0.2838 -0.3932
 6249SOL    HW130209   0.788   1.003   3.470 -0.6959 -1.2832 -0.7238
 6249SOL    HW230210   0.691   1.088   3.409 -0.7584  0.2335  0.2628
 6250SOL     OW30211   0.895   3.974   1.388 -0.4997  0.0871 -0.2936
 6250SOL    HW130212   0.927   3.924   1.463  0.2477 -0.9452 -1.3105
 6250SOL    HW230213   0.961   3.947   1.324 -0.8894 -0.1521 -0.5944
 6251SOL     OW30214   0.893   0.962   7.451  0.2493 -0.7718 -0.2961
 6251SOL    HW130215   0.858   1.051   7.445  0.3462 -0.6704  0.7437
 6251SOL    HW230216   0.833   0.929   7.517  0.9569 -0.8579  0.3025
 6252SOL     OW30217   2.257   4.706  14.627  0.3693  0.8640 -0.1078
 6252SOL    HW130218   2.225   4.650  14.698 -0.6233 -0.8271 -1.8944
 6252SOL    HW230219   2.212   4.662  14.555 -1.9527  0.7312  1.4107
 6253SOL     OW30220   2.838   3.687  11.839  0.7194 -0.2968 -0.5789
 6253SOL    HW130221   2.788   3.682  11.758 -0.3433 -1.3873  0.1418
 6253SOL    HW230222   2.926   3.662  11.809  1.6528 -0.6703  2.5207
 6254SOL     OW30223   0.615   1.725   9.207 -0.3865  0.3020 -0.1970
 6254SOL    HW130224   0.566   1.759   9.132  0.3568  2.1103  0.1374
 6254SOL    HW230225   0.548   1.679   9.256  0.2612 -0.0088  0.3924
 6255SOL     OW30226   2.861   2.555  12.485  0.4407 -0.1013 -0.3136
 6255SOL    HW130227   2.880   2.509  12.566  0.3439  1.4060  0.5614
 6255SOL    HW230228   2.766   2.545  12.486  0.1332  2.6542 -1.1732
 6256SOL     OW30229   2.599   0.977  10.417 -0.4018 -1.4908  0.1487
 6256SOL    HW130230   2.521   1.021  10.448  0.9194  0.2788  0.9302
 6256SOL    HW230231   2.632   1.035  10.348 -1.1015 -1.5153 -0.2098
 6257SOL     OW30232   3.739   0.175   3.673 -0.0302 -0.1342 -0.4145
 6257SOL    HW130233   3.726   0.109   3.740 -1.3798  0.0406 -0.4975
 6257SOL    HW230234   3.814   0.219   3.713  0.2444  0.3062 -1.3969
 6258SOL     OW30235   1.650   3.470   3.996 -0.3177  0.1657 -0.4479
 6258SOL    HW130236   1.654   3.500   3.905 -0.1288  1.6146  0.0326
 6258SOL    HW230237   1.581   3.534   4.017 -2.4130 -1.6495 -1.6995
 6259SOL     OW30238   2.068   2.503   3.716  0.0530 -0.3591 -0.9512
 6259SOL    HW130239   1.990   2.556   3.704 -0.0725 -0.5551 -0.9962
 6259SOL    HW230240   2.120   2.558   3.775 -1.3020  0.2724 -0.3541
 6260SOL     OW30241   4.216   0.180   5.589  0.2089  0.1828  0.4090
 6260SOL    HW130242   4.191   0.226   5.509 -0.1383 -1.0655 -0.1941
 6260SOL    HW230243   4.197   0.244   5.658  1.7157 -1.1490  2.0564
 6261SOL     OW30244   2.279   2.996   0.738  0.0112  0.9024  0.2701
 6261SOL    HW130245   2.198   3.042   0.756 -1.9130 -2.7846  1.1600
 6261SOL    HW230246   2.332   3.042   0.803 -0.7248 -0.9996  2.2506
 6262SOL     OW30247   3.760   0.069   8.976  0.0671  0.1198  0.2497
 6262SOL    HW130248   3.748   0.136   8.908 -0.1973 -0.4981 -0.3167
 6262SOL    HW230249   3.714   4.724   8.931  2.0493  0.0326 -1.6452
 6263SOL     OW30250   4.340   4.245  11.545  0.0656  0.3605 -0.3902
 6263SOL    HW130251   4.413   4.296  11.510  1.0691 -0.6569  0.2348
 6263SOL    HW230252   4.386   4.161  11.546 -2.4367 -0.9951  0.4081
 6264SOL     OW30253   1.138   0.227  17.315  0.6979 -0.2230  0.2181
 6264SOL    HW130254   1.212   0.251  17.260 -0.6567  1.2931 -0.9375
 6264SOL    HW230255   1.133   0.307  17.367 -0.7714  0.3142 -0.7568
 6265SOL     OW30256   2.377   0.969   0.284  1.0347 -0.0047  0.0523
 6265SOL    HW130257   2.456   0.935   0.326  1.3627  0.1172 -0.4654
 6265SOL    HW230258   2.392   1.060   0.310 -1.2187 -0.0816  1.5894
 6266SOL     OW30259   3.687   3.481   9.831  0.8117 -0.7635 -0.0026
 6266SOL    HW130260   3.614   3.474   9.892  0.1224  0.4364 -0.7048
 6266SOL    HW230261   3.640   3.464   9.750  3.1837  0.1887 -1.5704
 6267SOL     OW30262   4.537   3.896  11.890 -0.2504  0.3499  0.3052
 6267SOL    HW130263   4.485   3.821  11.862 -2.6296  1.9010  0.5959
 6267SOL    HW230264   4.623   3.858  11.871 -0.7082 -0.4731 -0.0843
 6268SOL     OW30265   1.249   3.563   4.587 -0.3781 -0.2763  0.1176
 6268SOL    HW130266   1.307   3.527   4.520  2.5156  0.6717  2.0683
 6268SOL    HW230267   1.157   3.550   4.564 -0.7671  0.5454  1.1882
 6269SOL     OW30268   0.350   1.842   6.215 -0.4942 -0.7630 -0.1522
 6269SOL    HW130269   0.387   1.907   6.156 -1.2084 -0.0919  0.1425
 6269SOL    HW230270   0.309   1.774   6.161 -0.5067  0.2093 -1.3710
 6270SOL     OW30271   2.783   0.645   8.770 -0.2030  0.0323  0.5809
 6270SOL    HW130272   2.879   0.644   8.770 -0.2330 -1.5646 -1.0432
 6270SOL    HW230273   2.770   0.596   8.689 -0.6759  0.1382  0.5924
 6271SOL     OW30274   3.960   2.018  11.659  0.8552 -0.2676  0.2486
 6271SOL    HW130275   3.925   2.065  11.584  1.0528 -0.6563 -0.0852
 6271SOL    HW230276   4.021   2.087  11.687  1.6792 -1.8422  2.3920
 6272SOL     OW30277   3.512   3.175   7.929  0.1768  0.3870 -0.0772
 6272SOL    HW130278   3.464   3.233   7.870 -0.8693 -0.2581  0.1382
 6272SOL    HW230279   3.438   3.116   7.943  0.4375  0.0453 -0.1427
 6273SOL     OW30280   0.525   1.351   8.001 -0.1179 -0.4202  0.4557
 6273SOL    HW130281   0.611   1.389   8.018 -0.0145  0.2134 -1.5024
 6273SOL    HW230282   0.472   1.386   8.073  2.4814  0.6983  1.8363
 6274SOL     OW30283   1.765   3.879  16.903 -0.5102 -0.0340  0.5867
 6274SOL    HW130284   1.830   3.831  16.852 -1.8388 -0.8412 -0.3270
 6274SOL    HW230285   1.725   3.930  16.832  1.1949 -0.3313 -0.5757
 6275SOL     OW30286   2.589   4.154  15.216  0.3860 -0.0729 -0.1834
 6275SOL    HW130287   2.558   4.155  15.307  0.0715 -4.2100 -0.2840
 6275SOL    HW230288   2.681   4.175  15.235  0.4851 -0.3514 -0.3614
 6276SOL     OW30289   2.170   4.609  14.866 -0.0499  0.0675  0.2947
 6276SOL    HW130290   2.247   4.659  14.894  0.6161 -1.3793  1.0266
 6276SOL    HW230291   2.175   4.529  14.918  0.3954 -0.3043 -0.3112
 6277SOL     OW30292   0.343   2.677   5.789 -0.5550 -0.3227  0.6892
 6277SOL    HW130293   0.256   2.636   5.787 -1.6563  2.0524 -1.6081
 6277SOL    HW230294   0.347   2.709   5.879 -0.1395 -0.0859  0.5841
 6278SOL     OW30295   4.006   3.916   5.312 -0.6953  0.1391 -0.2774
 6278SOL    HW130296   4.093   3.954   5.318 -0.6685 -0.3164  2.2299
 6278SOL    HW230297   4.018   3.834   5.361 -0.8518  0.2580 -0.0389
 6279SOL     OW30298   3.357   2.107  10.583 -0.1912  0.2926  0.0616
 6279SOL    HW130299   3.314   2.059  10.513  1.2331 -2.2586  0.9446
 6279SOL    HW230300   3.325   2.071  10.666 -1.0746  0.7944 -0.0532
 6280SOL     OW30301   3.484   3.714  11.442  0.1610  0.1671  0.3594
 6280SOL    HW130302   3.437   3.669  11.373  0.9706  0.6924 -0.5333
 6280SOL    HW230303   3.430   3.707  11.521 -0.1661  0.0827  0.1286
 6281SOL     OW30304   4.658   1.524   5.338  0.3807  0.1231 -0.5770
 6281SOL    HW130305   4.649   1.594   5.403 -0.1928 -0.7392  0.2833
 6281SOL    HW230306   4.569   1.501   5.310 -0.2264  1.1919  0.4792
 6282SOL     OW30307   4.270   1.048   3.599  0.3781 -0.4625  0.1228
 6282SOL    HW130308   4.343   0.995   3.568  1.4556 -0.1393  2.1300
 6282SOL    HW230309   4.270   1.027   3.692  0.0877  0.1655  0.2616
 6283SOL     OW30310   3.721   1.748   2.604  0.4622 -0.0575 -0.4257
 6283SOL    HW130311   3.752   1.750   2.695  0.1323 -4.2128 -0.1990
 6283SOL    HW230312   3.709   1.840   2.584 -3.0879 -0.2893  0.5258
 6284SOL     OW30313   2.739   1.973   2.970  0.2793  0.1845  0.0626
 6284SOL    HW130314   2.785   2.028   3.034 -1.1219 -0.9725  2.0660
 6284SOL    HW230315   2.729   2.035   2.898  2.1378  2.0677  1.4247
 6285SOL     OW30316   1.698   3.576   5.679  0.3894  0.0830  0.1318
 6285SOL    HW130317   1.643   3.525   5.620 -0.2341  1.0008 -0.0766
 6285SOL    HW230318   1.633   3.627   5.728 -0.4776 -1.5075  0.6555
 6286SOL     OW30319   0.352   4.177   5.949 -0.0458  0.8721  0.6332
 6286SOL    HW130320   0.269   4.149   5.911 -0.5085  2.3012  0.5760
 6286SOL    HW230321   0.321   4.247   6.007 -0.1245  0.5254  1.0100
 6287SOL     OW30322   3.002   4.436   2.290 -0.3351  0.0549 -0.2058
 6287SOL    HW130323   3.016   4.404   2.379  0.3135 -0.0626 -0.3480
 6287SOL    HW230324   3.094   4.457   2.271 -0.4670 -0.3599 -1.3241
 6288SOL     OW30325   4.474   0.929   8.753  0.0280  0.1292 -0.4296
 6288SOL    HW130326   4.452   0.886   8.670  0.2605 -1.5558  0.3697
 6288SOL    HW230327   4.413   0.884   8.811  1.8013 -1.2706  0.3537
 6289SOL     OW30328   3.060   4.228   5.967  0.3838  0.0293 -0.7455
 6289SOL    HW130329   3.081   4.245   5.875 -1.5360  0.4428 -1.1047
 6289SOL    HW230330   3.020   4.314   5.982 -2.6190 -1.8096  1.5834
 6290SOL     OW30331   0.308   2.678   3.163 -0.3254 -0.2191 -0.3607
 6290SOL    HW130332   0.271   2.727   3.236 -0.9481  0.3642 -1.0663
 6290SOL    HW230333   0.387   2.731   3.147  0.6534 -2.0765 -1.7515
 6291SOL     OW30334   0.873   3.191   7.883  0.2491  0.3421  0.1029
 6291SOL    HW130335   0.931   3.254   7.925 -0.5993  0.5123  1.0130
 6291SOL    HW230336   0.821   3.245   7.824  1.5281  0.1832 -1.1733
 6292SOL     OW30337   1.475   0.031   3.550  0.5865 -0.7381 -0.2693
 6292SOL    HW130338   1.444   4.666   3.563 -1.5435  0.0441  0.0291
 6292SOL    HW230339   1.543   0.035   3.617  0.4114 -0.2924 -0.1245
 6293SOL     OW30340   1.526   1.294   6.284 -0.1502  0.0169  0.6944
 6293SOL    HW130341   1.616   1.291   6.319  0.2076 -0.2746 -0.2698
 6293SOL    HW230342   1.521   1.216   6.230  3.2866 -0.7653  1.4954
 6294SOL     OW30343   1.245   3.572   7.909  0.0928 -0.8818 -0.1580
 6294SOL    HW130344   1.330   3.566   7.952  0.1712 -0.3501 -0.2378
 6294SOL    HW230345   1.227   3.665   7.926  3.1221  0.0175 -1.6831
 6295SOL     OW30346   4.095   1.362   6.868  0.3796 -0.3321  0.0186
 6295SOL    HW130347   4.154   1.343   6.794  0.5708 -3.6820  1.0443
 6295SOL    HW230348   4.088   1.457   6.853  0.3209 -0.4772 -0.8989
 6296SOL     OW30349   0.896   2.825   5.518 -0.0721 -0.9229  0.2917
 6296SOL    HW130350   0.977   2.874   5.532 -1.5767  1.1625  1.9420
 6296SOL    HW230351   0.873   2.853   5.429 -0.6703  0.3469  0.8431
 6297SOL     OW30352   3.351   4.314   0.954  0.9499  0.1727  0.2710
 6297SOL    HW130353   3.411   4.311   0.879 -0.5979  1.3213 -0.9888
 6297SOL    HW230354   3.401   4.249   1.005  0.3247 -1.6567 -1.4314
 6298SOL     OW30355   4.221   1.378   7.580 -0.2597  0.1287 -0.3079
 6298SOL    HW130356   4.265   1.328   7.649 -2.8129 -1.8822 -0.1259
 6298SOL    HW230357   4.225   1.469   7.609  2.2953  0.6432 -2.2228
 6299SOL     OW30358   1.394   0.361   2.501  0.3510 -0.0796 -0.3146
 6299SOL    HW130359   1.309   0.397   2.527 -0.1671 -1.9776  0.6205
 6299SOL    HW230360   1.424   0.332   2.587 -1.3884  0.3965  0.4432
 6300SOL     OW30361   3.979   3.559   7.664 -0.9932  0.2242 -0.2793
 6300SOL    HW130362   4.016   3.600   7.585 -2.3131 -0.8570 -1.4664
 6300SOL    HW230363   4.031   3.478   7.666 -0.5330  0.5082 -0.8094
 6301SOL     OW30364   1.748   3.731   8.741  0.2953 -0.1756 -0.4765
 6301SOL    HW130365   1.825   3.674   8.736 -1.0691 -1.9961 -0.8750
 6301SOL    HW230366   1.682   3.675   8.783  0.7874 -1.5497 -1.5399
 6302SOL     OW30367   0.081   2.607   9.093 -0.1394  0.6471  0.5446
 6302SOL    HW130368   4.720   2.573   9.071  0.6365 -0.1135 -1.2470
 6302SOL    HW230369   0.142   2.557   9.039 -0.0773  1.9268 -0.5636
 6303SOL     OW30370   3.679   4.360  12.332 -0.4401  0.6198 -0.0365
 6303SOL    HW130371   3.725   4.408  12.401 -1.7368  0.0625  1.2164
 6303SOL    HW230372   3.597   4.409  12.335 -0.9186 -0.1171 -0.9687
 6304SOL     OW30373   4.627   2.437   4.067  0.2633  0.1571 -0.0758
 6304SOL    HW130374   4.716   2.473   4.067 -0.4374  1.8088 -3.7914
 6304SOL    HW230375   4.648   2.343   4.070 -0.4514  0.0542  2.2642
 6305SOL     OW30376   1.925   1.085   1.094 -0.4224  0.3200  0.3985
 6305SOL    HW130377   1.978   1.032   1.154  0.4547 -0.0601 -0.7049
 6305SOL    HW230378   1.839   1.046   1.108 -0.7117  0.6672 -0.4167
 6306SOL     OW30379   2.337   4.237  13.793  0.2520  0.0462 -0.0618
 6306SOL    HW130380   2.422   4.282  13.793  0.4002 -0.2228  0.4711
 6306SOL    HW230381   2.349   4.162  13.851  2.7334  0.3569 -0.1785
 6307SOL     OW30382   2.615   3.020   9.437  0.1312 -0.4340  0.5002
 6307SOL    HW130383   2.645   3.107   9.410  1.1947 -0.0880  2.8841
 6307SOL    HW230384   2.696   2.972   9.423 -1.0446 -1.8151 -1.6787
 6308SOL     OW30385   0.658   4.029   2.975  0.3047 -0.2817  0.4510
 6308SOL    HW130386   0.749   4.012   2.952  0.4537  2.5254 -1.0855
 6308SOL    HW230387   0.649   3.969   3.049 -1.8741 -1.2058 -0.5536
 6309SOL     OW30388   2.441   2.334   5.138 -0.2524  0.2068 -0.4412
 6309SOL    HW130389   2.436   2.399   5.067  0.3855 -0.1446 -0.8104
 6309SOL    HW230390   2.380   2.266   5.109  1.3083 -2.3885  2.3757
 6310SOL     OW30391   1.548   1.092  12.720  0.4876 -0.0294 -0.5594
 6310SOL    HW130392   1.538   1.021  12.784  1.1626  1.9168  1.7020
 6310SOL    HW230393   1.493   1.154  12.768  0.8711 -1.1331  1.3483
 6311SOL     OW30394   3.450   3.572   3.012  0.2946 -0.3871  0.3769
 6311SOL    HW130395   3.459   3.487   3.055  0.5071  0.1284  1.3221
 6311SOL    HW230396   3.395   3.534   2.943 -1.6734  1.3791  0.9969
 6312SOL     OW30397   4.091   1.217   8.515 -0.7901 -0.5409 -0.0863
 6312SOL    HW130398   4.170   1.226   8.569 -1.9793  4.4769  0.7837
 6312SOL    HW230399   4.120   1.278   8.448 -0.9321 -0.3427  0.0356
 6313SOL     OW30400   1.907   0.954   9.296  0.0580 -0.3084  0.4505
 6313SOL    HW130401   1.910   0.863   9.325 -0.7170 -0.2991  0.5641
 6313SOL    HW230402   1.959   0.949   9.216 -1.6567 -1.6680 -0.5726
 6314SOL     OW30403   1.415   2.700   1.314  0.1817  0.5374 -0.5697
 6314SOL    HW130404   1.458   2.710   1.398  0.2473  0.4218 -0.5902
 6314SOL    HW230405   1.460   2.623   1.280  0.2787  0.4020 -0.1241
 6315SOL     OW30406   2.244   3.422   0.837  0.1315  0.1323 -0.6233
 6315SOL    HW130407   2.175   3.429   0.904 -0.4706 -3.7218 -0.7999
 6315SOL    HW230408   2.193   3.422   0.755  0.0211  1.3447 -0.5479
 6316SOL     OW30409   4.199   3.817   3.986  0.3670  0.1619  0.4866
 6316SOL    HW130410   4.199   3.724   4.007 -2.6226  0.3601  1.3356
 6316SOL    HW230411   4.111   3.835   4.018 -1.2407 -3.0247 -2.1731
 6317SOL     OW30412   1.717   2.935   3.086  0.1382  0.3587 -0.0625
 6317SOL    HW130413   1.667   2.861   3.120  2.1473 -0.6525  0.6581
 6317SOL    HW230414   1.668   2.953   3.006  1.2389  0.0751 -0.7952
 6318SOL     OW30415   1.192   2.731   8.834  0.3652 -0.2020  0.3172
 6318SOL    HW130416   1.208   2.654   8.781  0.5431 -1.3070  1.9725
 6318SOL    HW230417   1.156   2.779   8.759 -0.2593 -1.3986 -0.1554
 6319SOL     OW30418   4.268   2.692   0.822 -0.6313  0.0475  0.5593
 6319SOL    HW130419   4.242   2.729   0.738 -0.5611  1.8025  1.3242
 6319SOL    HW230420   4.212   2.735   0.886 -0.0380 -2.1923  2.6330
 6320SOL     OW30421   2.076   4.032  17.275  0.1195  0.2185  0.1338
 6320SOL    HW130422   2.085   4.122  17.304  0.6348  0.0827  0.4003
 6320SOL    HW230423   2.158   4.001  17.314 -1.1663 -1.5206  1.4927
 6321SOL     OW30424   1.862   0.412   8.202 -0.0192 -0.1193 -0.8798
 6321SOL    HW130425   1.954   0.426   8.220 -0.0736 -2.3300  1.1624
 6321SOL    HW230426   1.869   0.325   8.163 -1.2224 -0.5204 -0.2081
 6322SOL     OW30427   2.838   3.473   6.521 -0.4894 -0.4148  0.1798
 6322SOL    HW130428   2.743   3.471   6.509  0.2592 -1.2822 -5.3290
 6322SOL    HW230429   2.861   3.380   6.523 -2.1401 -0.8341 -0.3641
 6323SOL     OW30430   0.971   1.186   6.801 -0.1358  0.1921  0.4118
 6323SOL    HW130431   0.980   1.162   6.709 -2.3144 -0.2086  0.3037
 6323SOL    HW230432   0.949   1.279   6.810  2.3641  0.6003  2.4701
 6324SOL     OW30433   1.388   2.478   2.443  0.3787  0.3858 -0.5018
 6324SOL    HW130434   1.434   2.402   2.480 -2.7392 -2.0258 -1.5991
 6324SOL    HW230435   1.350   2.426   2.372 -1.0085 -0.2311  0.7058
 6325SOL     OW30436   1.107   3.582  15.221 -0.1579 -0.4225 -0.3567
 6325SOL    HW130437   1.076   3.624  15.141 -0.3790 -0.8771 -0.5142
 6325SOL    HW230438   1.202   3.580  15.209 -0.2809 -1.2976 -1.1709
 6326SOL     OW30439   0.324   3.829   8.898 -0.2905 -0.3017  0.2899
 6326SOL    HW130440   0.320   3.888   8.823  0.6242 -1.7423 -0.8998
 6326SOL    HW230441   0.336   3.884   8.976  1.7268 -1.6211  0.9032
 6327SOL     OW30442   0.298   3.100   1.403 -0.4067  0.2518  0.5172
 6327SOL    HW130443   0.327   3.099   1.312  0.7646 -1.1559  0.9083
 6327SOL    HW230444   0.381   3.103   1.451  0.7050 -1.5450 -1.3126
 6328SOL     OW30445   4.496   2.864   8.856  0.4238  0.2355 -0.4399
 6328SOL    HW130446   4.549   2.932   8.897  0.5612 -0.6189  0.7983
 6328SOL    HW230447   4.452   2.815   8.926  1.6265 -0.8661 -0.4441
 6329SOL     OW30448   0.256   2.044   4.191 -0.5211 -0.1383  0.6349
 6329SOL    HW130449   0.323   1.976   4.199 -0.6963 -0.4691 -0.7626
 6329SOL    HW230450   0.293   2.117   4.241  0.5694 -0.7152  0.6712
 6330SOL     OW30451   1.017   0.168   5.569  0.1474  0.6106  0.0419
 6330SOL    HW130452   1.016   0.219   5.649  2.4335 -0.6038  0.8463
 6330SOL    HW230453   0.946   0.105   5.579  0.5200  0.4310  1.5598
 6331SOL     OW30454   4.402   1.160   1.122  0.1587  0.3760  0.2151
 6331SOL    HW130455   4.422   1.246   1.085  2.8759 -0.9669 -1.4533
 6331SOL    HW230456   4.364   1.193   1.203  1.6833  3.2286 -0.2324
 6332SOL     OW30457   2.710   2.302   4.703  0.2813 -0.1540  0.1382
 6332SOL    HW130458   2.768   2.333   4.633 -0.2851  0.6199  0.0134
 6332SOL    HW230459   2.735   2.211   4.690 -0.6752  0.0547 -3.0064
 6333SOL     OW30460   0.635   3.993   3.483 -0.5532 -0.0177 -0.3009
 6333SOL    HW130461   0.581   3.919   3.513 -0.4157 -0.4346 -1.0915
 6333SOL    HW230462   0.580   4.025   3.412  0.2606 -1.1915 -1.4684
 6334SOL     OW30463   2.352   2.563   0.554  0.2827 -0.3558 -0.0340
 6334SOL    HW130464   2.404   2.604   0.485 -0.1004 -0.7890 -0.5763
 6334SOL    HW230465   2.357   2.636   0.616 -1.7041  0.6305 -1.0643
 6335SOL     OW30466   4.388   3.467  12.107  0.0266  0.3472  0.5413
 6335SOL    HW130467   4.472   3.445  12.148 -1.1780 -1.3935  2.0731
 6335SOL    HW230468   4.406   3.538  12.046 -2.1370  0.1963 -0.2932
 6336SOL     OW30469   2.259   1.768   4.366 -0.2227  0.0423  0.1376
 6336SOL    HW130470   2.299   1.681   4.368  0.5767  0.3368 -3.9741
 6336SOL    HW230471   2.242   1.788   4.458 -1.3008 -1.2657  0.2356
 6337SOL     OW30472   2.873   2.500   8.509 -0.3013  0.1153  0.2674
 6337SOL    HW130473   2.925   2.520   8.432 -0.6107 -0.1428 -0.0105
 6337SOL    HW230474   2.858   2.406   8.500 -0.7792  0.0638  1.5411
 6338SOL     OW30475   0.370   2.579  15.316 -0.1336 -0.0078 -0.0489
 6338SOL    HW130476   0.291   2.529  15.335 -1.0441  1.7851  0.9351
 6338SOL    HW230477   0.369   2.626  15.399 -1.7965  1.3952 -0.8473
 6339SOL     OW30478   1.491   3.808  10.036  0.3259  0.4629  0.2290
 6339SOL    HW130479   1.459   3.896  10.016 -1.6164 -1.1118 -3.6334
 6339SOL    HW230480   1.449   3.778  10.116 -0.4981  2.2663  0.4812
 6340SOL     OW30481   1.075   0.127  14.233 -0.1002 -0.0685 -0.1519
 6340SOL    HW130482   1.073   0.218  14.262  0.8013 -0.3376  0.7967
 6340SOL    HW230483   0.997   0.128  14.178 -1.4589 -2.4735  1.6678
 6341SOL     OW30484   3.182   1.974   8.679  0.6416 -0.0271  0.8999
 6341SOL    HW130485   3.220   2.014   8.757 -0.0860 -1.8903  2.2175
 6341SOL    HW230486   3.230   1.891   8.679 -0.3487 -0.5928 -1.4157
 6342SOL     OW30487   2.631   2.050   4.482 -0.0756  0.2754  0.1116
 6342SOL    HW130488   2.663   2.049   4.572  0.4622 -2.3669 -0.0973
 6342SOL    HW230489   2.707   2.056   4.425  1.1822 -2.7975  1.4771
 6343SOL     OW30490   1.979   2.647   5.651 -0.2788  0.3846 -0.0228
 6343SOL    HW130491   1.973   2.742   5.650  0.3693  0.4274 -0.0596
 6343SOL    HW230492   1.935   2.620   5.570  1.2728 -0.2469 -0.6602
 6344SOL     OW30493   0.301   2.013   3.911 -0.6608 -0.0751 -0.4293
 6344SOL    HW130494   0.293   2.044   4.002  1.2801 -0.9505  0.0303
 6344SOL    HW230495   0.297   1.918   3.919 -0.9262  0.0044  0.4568
 6345SOL     OW30496   1.341   3.067   1.786  0.1222 -0.3649 -0.7822
 6345SOL    HW130497   1.414   3.012   1.813 -2.0886 -2.1509  1.6252
 6345SOL    HW230498   1.272   3.001   1.771 -2.3526  1.7997  1.1576
 6346SOL     OW30499   4.198   0.666   7.842  0.2338  0.1266 -0.2988
 6346SOL    HW130500   4.168   0.660   7.751 -2.9364 -1.1710  0.8436
 6346SOL    HW230501   4.221   0.759   7.841  0.8993 -0.0505 -3.4999
 6347SOL     OW30502   3.725   3.863  16.435  0.8418 -0.0875  0.1621
 6347SOL    HW130503   3.798   3.916  16.403 -0.3432  0.3733 -1.7268
 6347SOL    HW230504   3.773   3.799  16.489  0.4162 -0.4506  0.1152
 6348SOL     OW30505   0.334   3.185   7.310 -0.0978  0.5048  0.4787
 6348SOL    HW130506   0.389   3.219   7.380  0.3689  2.3896 -0.7928
 6348SOL    HW230507   0.354   3.091   7.311 -1.9804  0.1036  1.0896
 6349SOL     OW30508   3.484   4.168   9.806 -0.1962 -0.3573 -0.2001
 6349SOL    HW130509   3.448   4.247   9.847 -0.3028 -0.1731 -0.6527
 6349SOL    HW230510   3.574   4.180   9.835 -1.1283  1.3111  2.0231
 6350SOL     OW30511   1.881   1.085   5.868  0.0002  0.3010 -0.0879
 6350SOL    HW130512   1.845   1.171   5.845 -0.1589  0.6384  1.4100
 6350SOL    HW230513   1.926   1.094   5.953  0.9024 -2.0727 -0.3066
 6351SOL     OW30514   4.101   1.802  11.500 -0.1076 -0.0136  0.1492
 6351SOL    HW130515   4.051   1.781  11.579  0.9192 -1.6234  0.3840
 6351SOL    HW230516   4.048   1.865  11.452 -0.7447  0.4326  1.4511
 6352SOL     OW30517   3.025   2.358   9.689  0.2098  0.3774 -0.4136
 6352SOL    HW130518   3.080   2.420   9.641  1.1093 -0.2131 -0.1406
 6352SOL    HW230519   3.035   2.386   9.780  1.7723 -0.0720 -0.4521
 6353SOL     OW30520   2.182   4.158   5.878  0.1642 -0.3261 -0.1396
 6353SOL    HW130521   2.130   4.238   5.870 -0.0729 -0.6005 -1.2868
 6353SOL    HW230522   2.130   4.113   5.944 -1.1899  0.9316 -0.3508
 6354SOL     OW30523   1.342   2.533   6.292 -0.4425  0.6153  0.2257
 6354SOL    HW130524   1.348   2.618   6.250  0.1275 -0.3782 -1.7127
 6354SOL    HW230525   1.259   2.504   6.256  0.0068 -2.1066  1.3673
 6355SOL     OW30526   1.364   2.904   2.686  0.1881 -0.1078  0.5355
 6355SOL    HW130527   1.410   2.828   2.651  2.2969  0.9995  0.9323
 6355SOL    HW230528   1.343   2.951   2.606  0.0527 -1.5218 -0.2589
 6356SOL     OW30529   1.684   2.602   4.579  0.0112  0.0638  0.3405
 6356SOL    HW130530   1.638   2.534   4.629 -0.2022 -0.5557 -0.7136
 6356SOL    HW230531   1.632   2.613   4.499  0.1832  0.8305  0.3320
 6357SOL     OW30532   0.361   3.122  10.638 -0.0134 -0.2590 -0.2769
 6357SOL    HW130533   0.334   3.034  10.662 -0.5790 -0.6535 -2.3068
 6357SOL    HW230534   0.356   3.116  10.542 -0.0079 -0.2790 -0.2758
 6358SOL     OW30535   2.445   4.074   0.928 -0.0367  0.0022 -0.7625
 6358SOL    HW130536   2.377   4.141   0.927 -0.2146 -0.1661  0.0473
 6358SOL    HW230537   2.520   4.099   0.982 -0.7238  0.1608  0.1146
 6359SOL     OW30538   1.293   2.815   6.882  0.1688 -0.1860  1.1948
 6359SOL    HW130539   1.255   2.882   6.939 -0.4274 -1.4676  2.3060
 6359SOL    HW230540   1.225   2.815   6.814  0.6220 -1.4331  0.7433
 6360SOL     OW30541   3.315   2.658  17.232 -0.1347 -0.3807 -0.1289
 6360SOL    HW130542   3.315   2.740  17.184  1.0331  2.1941  4.2588
 6360SOL    HW230543   3.342   2.677  17.322 -1.0345 -1.1932  0.3072
 6361SOL     OW30544   4.190   2.848   6.702  0.2319  0.5705  0.6525
 6361SOL    HW130545   4.125   2.821   6.767 -1.4111  1.2649 -0.7066
 6361SOL    HW230546   4.209   2.938   6.730 -0.2477  1.3552 -1.6158
 6362SOL     OW30547   3.420   0.285   1.510  0.2682 -0.2308  0.5286
 6362SOL    HW130548   3.403   0.193   1.530 -0.4839 -0.2652 -0.2794
 6362SOL    HW230549   3.441   0.277   1.417  1.1281  1.3618  0.5918
 6363SOL     OW30550   4.046   1.870   7.671 -0.5805  0.2962 -0.6505
 6363SOL    HW130551   4.121   1.928   7.658  1.0028 -1.3024  1.2763
 6363SOL    HW230552   4.038   1.874   7.767  3.2301  0.4689 -0.3380
 6364SOL     OW30553   1.625   3.126   3.733  0.2420  0.4191  0.1739
 6364SOL    HW130554   1.532   3.135   3.754  0.7563  1.8205  1.8978
 6364SOL    HW230555   1.616   3.090   3.645 -2.6644  0.9206  0.2671
 6365SOL     OW30556   0.098   0.191   5.994 -0.0702 -0.1004  0.0544
 6365SOL    HW130557   0.005   0.168   5.988 -0.3760  0.9623  0.7934
 6365SOL    HW230558   0.149   0.134   5.936 -0.3553  0.6762 -0.9362
 6366SOL     OW30559   0.129   3.132   2.455 -0.3572 -0.1479 -0.0328
 6366SOL    HW130560   0.193   3.063   2.472 -0.9170 -1.1676 -1.9772
 6366SOL    HW230561   0.117   3.119   2.361 -1.0946 -1.6686  0.2698
 6367SOL     OW30562   3.360   0.930   0.634  0.1674 -0.1396 -0.5167
 6367SOL    HW130563   3.394   1.002   0.580  0.3782  0.4538  0.4153
 6367SOL    HW230564   3.284   0.972   0.673 -0.2353 -1.1450 -0.2339
 6368SOL     OW30565   1.478   1.463  16.666 -0.5897  0.4670 -0.1134
 6368SOL    HW130566   1.521   1.454  16.751 -1.2979  3.4572  0.5423
 6368SOL    HW230567   1.554   1.482  16.610  0.5904 -1.6456  0.7365
 6369SOL     OW30568   1.707   4.181   6.112 -1.2383 -0.5137  0.0761
 6369SOL    HW130569   1.713   4.254   6.172  1.7144  0.6341 -1.6119
 6369SOL    HW230570   1.785   4.201   6.061 -1.6312  1.9104  0.4262
 6370SOL     OW30571   1.868   4.266   0.388  0.6101 -0.4750  0.5363
 6370SOL    HW130572   1.921   4.186   0.384 -0.1916 -0.9818 -0.1394
 6370SOL    HW230573   1.841   4.256   0.297  0.2813 -0.1677  0.5966
 6371SOL     OW30574   0.872   0.694   1.705 -0.0662 -0.4917  0.4703
 6371SOL    HW130575   0.884   0.779   1.662  0.4494 -0.5753  0.4497
 6371SOL    HW230576   0.943   0.647   1.662 -1.3207 -0.2322 -1.9212
 6372SOL     OW30577   3.759   0.566   1.562 -0.4210  0.1095  0.1725
 6372SOL    HW130578   3.687   0.525   1.609 -1.3578 -0.7118 -1.9736
 6372SOL    HW230579   3.829   0.538   1.621 -0.0186  0.6405 -0.0492
 6373SOL     OW30580   3.833   1.961  15.699  0.4047 -0.0939  0.0510
 6373SOL    HW130581   3.875   1.876  15.684  2.8585  0.8222  1.7331
 6373SOL    HW230582   3.749   1.929  15.667  1.3553 -0.7348 -1.8318
 6374SOL     OW30583   4.564   1.683   8.470 -0.9178  0.5020  0.7464
 6374SOL    HW130584   4.473   1.653   8.463 -0.6086 -0.5653  1.3257
 6374SOL    HW230585   4.576   1.677   8.565 -0.0541  3.5262  0.8180
 6375SOL     OW30586   2.788   0.392   2.609 -0.0033 -0.9481  0.1907
 6375SOL    HW130587   2.791   0.346   2.525  1.2305  0.4304 -0.5110
 6375SOL    HW230588   2.816   0.323   2.669  1.5870 -1.3370 -1.0097
 6376SOL     OW30589   4.541   2.798   8.361 -0.0671  0.4168 -0.1265
 6376SOL    HW130590   4.569   2.888   8.379  0.6311  0.2716 -0.5022
 6376SOL    HW230591   4.616   2.745   8.387 -0.2495 -0.3401 -1.1251
 6377SOL     OW30592   2.805   3.008   5.931  0.7108  0.5639  0.5081
 6377SOL    HW130593   2.891   3.036   5.902  0.1345  1.7237 -0.0855
 6377SOL    HW230594   2.809   2.913   5.931  0.5553  0.5297 -3.3423
 6378SOL     OW30595   1.576   2.295   9.910  0.9406  0.3165 -0.5455
 6378SOL    HW130596   1.545   2.218   9.862  1.9875  1.1550 -2.5551
 6378SOL    HW230597   1.621   2.256   9.986  3.8673  2.3953 -1.2201
 6379SOL     OW30598   4.127   2.846   8.072 -0.4586 -0.8724 -0.1174
 6379SOL    HW130599   4.034   2.826   8.081 -0.2990 -0.1075  3.4239
 6379SOL    HW230600   4.162   2.827   8.159  0.3223  1.8152  0.1627
 6380SOL     OW30601   1.067   4.205   2.594  0.2577 -0.2432 -0.4155
 6380SOL    HW130602   1.136   4.141   2.611 -1.2167 -1.5506  0.6345
 6380SOL    HW230603   1.119   4.279   2.563  1.0675 -0.5062  0.3315
 6381SOL     OW30604   2.451   3.893   2.616 -0.6553 -0.1768  0.4461
 6381SOL    HW130605   2.532   3.944   2.615 -0.7038 -0.1362 -0.9539
 6381SOL    HW230606   2.458   3.861   2.526  2.0913 -0.2136  0.6866
 6382SOL     OW30607   2.611   4.459  17.291  0.3500 -0.0051  0.7662
 6382SOL    HW130608   2.568   4.508  17.361 -1.4997  0.4127 -0.6545
 6382SOL    HW230609   2.540   4.453  17.227  0.1078 -0.0623  1.0356
 6383SOL     OW30610   3.411   4.596   5.954  0.1320 -0.0790  1.2000
 6383SOL    HW130611   3.423   4.504   5.927  1.2434  0.2488  0.5994
 6383SOL    HW230612   3.495   4.632   5.926 -0.7079  1.5169  0.7622
 6384SOL     OW30613   1.274   0.906  16.232 -0.2963 -0.4150 -0.0881
 6384SOL    HW130614   1.243   0.995  16.245  0.8567 -0.1161  0.6222
 6384SOL    HW230615   1.315   0.895  16.318 -0.7689  1.4554  0.3796
 6385SOL     OW30616   0.057   0.845  15.750  0.0496  0.3012 -0.0308
 6385SOL    HW130617   4.703   0.846  15.697 -0.8137  0.6122  1.2784
 6385SOL    HW230618   0.122   0.837  15.680 -0.6767 -0.8457 -0.5707
 6386SOL     OW30619   0.032   3.639   2.810 -0.0388 -0.3858  0.0457
 6386SOL    HW130620   0.118   3.676   2.827  0.4770 -1.2060 -0.8073
 6386SOL    HW230621   0.031   3.552   2.851  1.7361 -1.8297 -2.9805
 6387SOL     OW30622   4.504   3.341   5.910 -0.3878  0.0088 -0.0331
 6387SOL    HW130623   4.477   3.373   5.824  1.2289  1.3781 -0.0232
 6387SOL    HW230624   4.418   3.329   5.949  0.0246 -0.9744  0.5897
 6388SOL     OW30625   4.039   4.371   6.379 -0.1671 -0.5551  0.2798
 6388SOL    HW130626   4.122   4.329   6.403 -0.1678  0.7798  2.6774
 6388SOL    HW230627   3.987   4.337   6.452  1.6751 -1.1889  1.3198
 6389SOL     OW30628   1.555   0.554   8.564 -0.1540 -0.6745  0.8282
 6389SOL    HW130629   1.586   0.509   8.485  0.3329 -1.3046  1.3769
 6389SOL    HW230630   1.638   0.583   8.603  0.1638  0.5977 -0.8492
 6390SOL     OW30631   1.701   0.248  14.522  0.6458  0.4241  0.3419
 6390SOL    HW130632   1.623   0.295  14.551 -1.9193 -1.9094 -2.6983
 6390SOL    HW230633   1.698   0.276  14.431  0.3515  0.1044  0.2509
 6391SOL     OW30634   4.262   0.397   7.931  1.0249 -0.1712 -0.2178
 6391SOL    HW130635   4.167   0.396   7.914  0.9582  1.2875  0.0570
 6391SOL    HW230636   4.286   0.480   7.890  0.4492 -0.1991 -0.6115
 6392SOL     OW30637   4.370   3.953   4.142 -0.6773 -0.0170  0.4627
 6392SOL    HW130638   4.433   3.881   4.146 -0.1705  0.4498  0.8230
 6392SOL    HW230639   4.299   3.916   4.089  0.1382  1.2796 -1.4884
 6393SOL     OW30640   3.662   3.741   4.345 -0.2132 -0.2757  0.4137
 6393SOL    HW130641   3.752   3.718   4.368  0.0968  0.4048 -0.1164
 6393SOL    HW230642   3.606   3.677   4.388 -1.2733 -1.2160 -2.3680
 6394SOL     OW30643   2.849   1.387  11.850  0.1161 -0.2982 -0.0586
 6394SOL    HW130644   2.821   1.297  11.833 -1.0505  0.3918 -1.7759
 6394SOL    HW230645   2.776   1.428  11.804 -2.3612 -1.6612  2.6595
 6395SOL     OW30646   3.650   2.248   9.018  0.3052  0.4667 -0.1248
 6395SOL    HW130647   3.681   2.244   9.108  0.1302 -0.7698 -0.1135
 6395SOL    HW230648   3.703   2.315   8.975  1.3234 -0.1859  0.1130
 6396SOL     OW30649   1.901   2.411   3.173 -0.4084  0.2677  0.1040
 6396SOL    HW130650   1.890   2.319   3.149 -0.5182  0.3454 -0.1431
 6396SOL    HW230651   1.994   2.426   3.153 -0.3883 -0.4023 -0.2828
 6397SOL     OW30652   0.105   2.614   7.788  0.4082  0.1185  0.2356
 6397SOL    HW130653   0.191   2.652   7.774  0.5047 -0.9697 -2.0351
 6397SOL    HW230654   0.114   2.519   7.796  1.3285  0.2771  1.0996
 6398SOL     OW30655   4.372   4.591   4.716 -0.1023 -0.6783  0.0584
 6398SOL    HW130656   4.298   4.582   4.655  0.1877 -1.0869 -0.2324
 6398SOL    HW230657   4.438   4.640   4.667 -1.5232  0.8385 -0.3204
 6399SOL     OW30658   4.213   3.215   4.033  0.1371 -0.4177  0.3440
 6399SOL    HW130659   4.203   3.121   4.043  0.4395 -0.4797  0.0924
 6399SOL    HW230660   4.121   3.240   4.028  0.3183  0.3480  0.7912
 6400SOL     OW30661   1.053   2.411   5.480  0.1307 -0.1867 -0.4056
 6400SOL    HW130662   0.979   2.445   5.531  0.6424  1.2419 -0.6162
 6400SOL    HW230663   1.126   2.434   5.537 -0.9048  3.1062 -0.3942
 6401SOL     OW30664   4.201   3.118   8.237  0.1187  0.5989  0.5085
 6401SOL    HW130665   4.198   3.024   8.254  2.0717  0.2279 -1.1999
 6401SOL    HW230666   4.295   3.129   8.222  0.4139 -1.5734  0.8175
 6402SOL     OW30667   0.286   2.223  13.975 -0.2383 -0.5513 -0.5928
 6402SOL    HW130668   0.272   2.184  14.061 -3.2322 -0.3999 -1.0104
 6402SOL    HW230669   0.212   2.191  13.923 -1.3165  1.5339 -0.3328
 6403SOL     OW30670   1.141   4.132   4.125 -0.1928 -0.5031 -0.1691
 6403SOL    HW130671   1.186   4.216   4.135 -2.4741  0.6737  0.1885
 6403SOL    HW230672   1.052   4.161   4.106 -0.4667 -0.4513  1.1884
 6404SOL     OW30673   2.435   0.699   8.657  0.1100  0.1550 -0.6549
 6404SOL    HW130674   2.499   0.755   8.701 -1.9869  2.5551 -0.6028
 6404SOL    HW230675   2.430   0.627   8.720  3.4859 -0.4233 -1.0496
 6405SOL     OW30676   3.307   2.988  16.864  0.3204 -0.5118 -0.5396
 6405SOL    HW130677   3.322   2.910  16.812  2.2149  0.0140 -0.8032
 6405SOL    HW230678   3.387   3.040  16.853  0.1060  0.7199  3.6829
 6406SOL     OW30679   2.529   0.933   7.501 -0.5132  0.1486 -0.1494
 6406SOL    HW130680   2.556   0.858   7.555  0.1135 -0.7029 -1.6600
 6406SOL    HW230681   2.568   1.008   7.545  0.8933 -1.3248  1.1543
 6407SOL     OW30682   1.236   1.423  15.831  0.4861 -0.1425 -0.3633
 6407SOL    HW130683   1.145   1.427  15.803 -0.1531  0.4338  1.8151
 6407SOL    HW230684   1.227   1.446  15.923  2.6056  0.1463 -0.2200
 6408SOL     OW30685   1.058   0.714   8.447  0.6501  0.0257 -0.2552
 6408SOL    HW130686   1.150   0.742   8.448  0.3621  1.0094 -1.1164
 6408SOL    HW230687   1.037   0.782   8.383  0.7518 -2.0598 -2.5272
 6409SOL     OW30688   0.859   0.815  10.842  0.4367 -0.1372  0.5000
 6409SOL    HW130689   0.911   0.830  10.921  0.3272 -1.8594  0.9012
 6409SOL    HW230690   0.795   0.751  10.874 -0.7008  0.9511  0.4042
 6410SOL     OW30691   4.232   0.967   7.883  0.0995 -0.6584  0.3284
 6410SOL    HW130692   4.169   0.953   7.953 -2.0628 -0.3571 -1.5577
 6410SOL    HW230693   4.309   0.981   7.937 -0.3907  1.5581  0.4335
 6411SOL     OW30694   3.651   4.487  13.894  0.2238  0.3149 -0.0305
 6411SOL    HW130695   3.646   4.486  13.989  2.1608  0.4522  0.0798
 6411SOL    HW230696   3.674   4.579  13.883 -1.9403  0.9529  0.8008
 6412SOL     OW30697   4.172   3.141   3.700  0.0515  0.2577  0.1789
 6412SOL    HW130698   4.106   3.128   3.632  0.5773  0.1269 -0.3018
 6412SOL    HW230699   4.169   3.060   3.750 -1.0637 -1.2583 -2.3701
 6413SOL     OW30700   2.347   4.222   9.432 -1.0248  0.6806  0.0379
 6413SOL    HW130701   2.371   4.166   9.358 -0.4524  2.3002 -1.0241
 6413SOL    HW230702   2.387   4.175   9.505 -2.3792 -1.8253 -0.8348
 6414SOL     OW30703   3.726   3.756   9.560  0.3698  0.2583 -0.1156
 6414SOL    HW130704   3.634   3.735   9.577  0.8970 -0.7796  1.4785
 6414SOL    HW230705   3.738   3.817   9.633  4.9001 -0.1498 -0.5440
 6415SOL     OW30706   2.156   3.217   2.610  0.3487  0.4196 -0.2966
 6415SOL    HW130707   2.218   3.180   2.548 -1.0591 -1.3229 -0.6590
 6415SOL    HW230708   2.144   3.297   2.559 -0.2890 -0.5366 -1.6379
 6416SOL     OW30709   4.530   0.349   0.128  0.5297  0.5558 -0.0389
 6416SOL    HW130710   4.625   0.361   0.117  0.8016 -1.3788  0.2201
 6416SOL    HW230711   4.527   0.337   0.223  1.6342 -0.6951 -0.1709
 6417SOL     OW30712   3.703   2.828   8.799  0.3589 -0.0032 -0.1663
 6417SOL    HW130713   3.682   2.767   8.871  0.9849  0.2078  0.1937
 6417SOL    HW230714   3.672   2.903   8.850  2.1545  1.1680 -0.8085
 6418SOL     OW30715   0.363   4.481   7.381 -0.3423  0.6070 -0.4175
 6418SOL    HW130716   0.323   4.395   7.383  3.0206 -0.9551  0.0468
 6418SOL    HW230717   0.377   4.494   7.475 -0.6621  0.0305 -0.2900
 6419SOL     OW30718   2.879   2.429  12.763 -0.2554  0.0360  0.5490
 6419SOL    HW130719   2.850   2.517  12.789 -0.8077  0.4650 -1.5303
 6419SOL    HW230720   2.960   2.419  12.814 -0.5897  0.7563  1.2220
 6420SOL     OW30721   2.965   2.369   2.017 -0.6527  0.0627 -0.0773
 6420SOL    HW130722   2.922   2.321   1.946 -0.4538  0.2095 -0.2954
 6420SOL    HW230723   2.984   2.446   1.964  2.6606  0.7747  2.1672
 6421SOL     OW30724   2.518   1.278  11.328 -0.1133 -1.1444  0.0015
 6421SOL    HW130725   2.572   1.222  11.384  1.3908 -1.0625 -1.3726
 6421SOL    HW230726   2.455   1.213  11.297 -0.0091 -0.8810 -0.7597
 6422SOL     OW30727   2.938   0.308   4.848  0.5199  1.0222  0.6251
 6422SOL    HW130728   2.889   0.229   4.867 -0.3460  1.0859 -1.3600
 6422SOL    HW230729   2.913   0.323   4.756 -1.9095  0.1979  1.1471
 6423SOL     OW30730   4.522   3.347   7.489  0.0067  0.1190  0.0939
 6423SOL    HW130731   4.593   3.292   7.522 -0.7644 -0.1647  1.2668
 6423SOL    HW230732   4.538   3.317   7.399  0.5200  0.9792 -0.1027
 6424SOL     OW30733   1.056   1.310  14.288  0.1591 -0.5622  0.0995
 6424SOL    HW130734   1.047   1.391  14.338 -1.5029  0.5530 -1.9766
 6424SOL    HW230735   0.996   1.254  14.337 -1.7374  1.6840  0.3086
 6425SOL     OW30736   4.575   3.918   7.790  0.1261  0.3057  0.1036
 6425SOL    HW130737   4.498   3.971   7.810  0.3232  0.8192 -0.5010
 6425SOL    HW230738   4.549   3.910   7.699 -0.3431 -0.2689  0.2820
 6426SOL     OW30739   0.620   4.328   5.733 -0.4645  0.6115 -0.0983
 6426SOL    HW130740   0.626   4.364   5.644  1.4706  0.6577  0.0458
 6426SOL    HW230741   0.591   4.401   5.788 -1.8421  0.2115 -0.3067
 6427SOL     OW30742   0.185   2.097  12.497  0.8776 -0.4071  0.1098
 6427SOL    HW130743   0.155   2.110  12.587 -2.2998 -2.7738 -0.6041
 6427SOL    HW230744   0.280   2.095  12.510  1.0566 -1.9154 -1.3799
 6428SOL     OW30745   2.155   1.542   6.349  0.4071  0.3558 -0.4848
 6428SOL    HW130746   2.061   1.534   6.332  0.4047 -2.0681  0.6931
 6428SOL    HW230747   2.152   1.626   6.394 -0.0914  0.6679 -1.1060
 6429SOL     OW30748   0.309   2.681   3.941  0.2885 -0.1892 -0.0364
 6429SOL    HW130749   0.221   2.700   3.911  0.6919  2.2521  0.3837
 6429SOL    HW230750   0.359   2.712   3.866  1.8200 -0.6831  0.7737
 6430SOL     OW30751   3.253   3.737   8.215  0.1471  0.5802 -0.1733
 6430SOL    HW130752   3.250   3.643   8.233  0.6145  0.8359  1.2679
 6430SOL    HW230753   3.307   3.762   8.290 -0.5277  1.1456  0.1261
 6431SOL     OW30754   3.331   4.689   5.236  0.1215 -0.4369  0.4172
 6431SOL    HW130755   3.375   4.635   5.171 -1.3517  0.7985 -1.6014
 6431SOL    HW230756   3.239   4.666   5.226 -0.2033  0.8962  0.3223
 6432SOL     OW30757   2.640   3.008   3.133  0.0945  0.8722  0.7868
 6432SOL    HW130758   2.723   3.052   3.151  1.0873 -0.9522  0.5924
 6432SOL    HW230759   2.591   3.066   3.074  1.2539  1.4666  0.4078
 6433SOL     OW30760   3.928   1.828   3.352 -0.2043 -0.1466  0.5847
 6433SOL    HW130761   4.011   1.873   3.370  0.3742  0.0941 -2.6724
 6433SOL    HW230762   3.876   1.844   3.430 -0.3361  3.4044 -0.2124
 6434SOL     OW30763   4.666   3.806   8.606 -0.0559  0.0195 -0.2043
 6434SOL    HW130764   4.708   3.809   8.692 -0.2571  1.3967 -0.1388
 6434SOL    HW230765   4.722   3.860   8.550 -0.4487  0.8608  0.2012
 6435SOL     OW30766   1.315   2.876  14.191  0.0502 -0.1404 -0.1628
 6435SOL    HW130767   1.388   2.816  14.176  0.3228  0.3577 -0.8023
 6435SOL    HW230768   1.348   2.964  14.173  2.2473 -1.2711 -1.7057
 6436SOL     OW30769   2.598   2.593   1.145 -0.6003  0.6563 -0.3407
 6436SOL    HW130770   2.551   2.566   1.224  1.4077  0.8661  0.9161
 6436SOL    HW230771   2.557   2.675   1.118 -0.1789  0.3488 -1.9095
 6437SOL     OW30772   1.590   1.355   6.926  0.0673  0.3089  0.1199
 6437SOL    HW130773   1.674   1.402   6.917  1.1680 -2.0107 -1.5935
 6437SOL    HW230774   1.533   1.427   6.953 -2.9283 -2.3149  0.7233
 6438SOL     OW30775   3.459   4.685  12.123  0.2568  0.4920  0.5603
 6438SOL    HW130776   3.467   0.042  12.172  0.4265  1.1498 -0.5738
 6438SOL    HW230777   3.389   4.700  12.059  1.3799  2.0730 -0.2797
 6439SOL     OW30778   1.876   2.367   8.850 -0.7906  0.0034 -0.2748
 6439SOL    HW130779   1.934   2.413   8.910 -0.3406  0.5087 -1.0931
 6439SOL    HW230780   1.792   2.402   8.882 -0.9616 -0.1240 -0.5820
 6440SOL     OW30781   4.618   0.182  10.962  0.1822 -0.2442 -0.4558
 6440SOL    HW130782   4.632   0.103  11.013  2.0468  0.0787 -0.4470
 6440SOL    HW230783   4.622   0.251  11.029  0.7495 -0.3815 -0.3488
 6441SOL     OW30784   0.473   1.095   0.423  0.6697  0.2143  0.2517
 6441SOL    HW130785   0.567   1.087   0.438  0.4014 -2.6547  0.4070
 6441SOL    HW230786   0.468   1.158   0.351  0.0220  0.1249  0.2126
 6442SOL     OW30787   4.618   2.202   3.844  0.1883 -0.1400 -0.3041
 6442SOL    HW130788   4.615   2.222   3.938 -0.7873 -1.6210 -0.0154
 6442SOL    HW230789   4.526   2.214   3.822  0.5558  2.2437 -0.5397
 6443SOL     OW30790   1.083   0.257  12.444  0.1076 -0.1638  0.3415
 6443SOL    HW130791   1.083   0.335  12.499 -1.3794  1.5444 -2.0877
 6443SOL    HW230792   1.160   0.277  12.391  0.1429  0.0532  0.4757
 6444SOL     OW30793   1.845   0.205  14.737 -0.0803 -0.2582 -0.0655
 6444SOL    HW130794   1.787   0.223  14.663  1.8738  0.4580 -1.3945
 6444SOL    HW230795   1.848   0.296  14.769 -0.5180  0.1335 -1.1478
 6445SOL     OW30796   1.974   0.418   5.873 -0.0910 -0.1470  0.0866
 6445SOL    HW130797   2.052   0.440   5.924  0.1078  0.4296 -0.4720
 6445SOL    HW230798   1.944   0.340   5.919 -0.5543 -0.5069 -0.8244
 6446SOL     OW30799   0.255   1.012   8.444 -0.2257  0.0870  0.4255
 6446SOL    HW130800   0.298   1.028   8.360  1.3809 -1.7021  0.8872
 6446SOL    HW230801   0.224   1.098   8.469  3.0647  1.9462 -1.8020
 6447SOL     OW30802   0.343   1.221  13.547  0.7125 -0.0734 -0.1049
 6447SOL    HW130803   0.389   1.304  13.556 -1.1767  0.6653  2.8864
 6447SOL    HW230804   0.382   1.192  13.465  1.1683  0.8644 -0.2168
 6448SOL     OW30805   2.286   1.747   8.944 -0.3062  0.1761  0.4027
 6448SOL    HW130806   2.204   1.788   8.916 -0.1729  0.7793  0.9217
 6448SOL    HW230807   2.321   1.824   8.988  1.0408 -1.6314  2.5026
 6449SOL     OW30808   3.921   2.156  15.889  0.5765  0.1216 -0.0324
 6449SOL    HW130809   3.908   2.087  15.824 -0.7541 -0.2777  0.6582
 6449SOL    HW230810   3.933   2.227  15.826 -2.9821  1.0284  0.3056
 6450SOL     OW30811   1.926   2.046   3.187  0.2607  0.3367 -0.0856
 6450SOL    HW130812   1.934   2.020   3.279  1.8321 -1.3466 -0.6955
 6450SOL    HW230813   2.008   2.094   3.192 -0.2364  1.0039  1.7837
 6451SOL     OW30814   0.983   3.274   8.560 -0.2906  0.6360 -0.1460
 6451SOL    HW130815   0.936   3.340   8.610  0.3043  1.9746 -1.3778
 6451SOL    HW230816   1.019   3.224   8.634 -1.9136  3.2472  2.4043
 6452SOL     OW30817   4.041   2.958   3.272 -0.0223 -0.6355  0.2004
 6452SOL    HW130818   4.026   2.901   3.197 -0.2654  0.7707 -0.8250
 6452SOL    HW230819   4.038   3.046   3.235  3.0147 -0.4257  0.4263
 6453SOL     OW30820   3.461   4.693   4.783 -0.1032  0.2791 -0.4589
 6453SOL    HW130821   3.500   4.644   4.711  1.1864  0.4997  0.0971
 6453SOL    HW230822   3.392   4.633   4.811 -1.1949  1.7146 -0.0611
 6454SOL     OW30823   0.982   4.248   0.304  0.1523 -0.4964  0.1146
 6454SOL    HW130824   0.944   4.160   0.302 -0.4912 -0.2550  1.6824
 6454SOL    HW230825   1.056   4.233   0.245  0.5438 -1.1693  0.7749
 6455SOL     OW30826   4.149   0.538   4.324  0.3895  0.0628 -0.5210
 6455SOL    HW130827   4.081   0.551   4.390 -0.5161  1.8850 -1.7912
 6455SOL    HW230828   4.139   0.445   4.303  0.4862 -0.0974  0.1671
 6456SOL     OW30829   2.706   3.278   5.731  0.2645 -0.4420 -0.4169
 6456SOL    HW130830   2.692   3.281   5.826 -0.2120 -0.0414 -0.5037
 6456SOL    HW230831   2.715   3.184   5.717  1.1359 -0.2798 -0.9552
 6457SOL     OW30832   3.936   2.508   2.130 -0.1087 -0.3822 -0.0850
 6457SOL    HW130833   3.900   2.419   2.129 -1.4272  0.1512 -0.2448
 6457SOL    HW230834   3.866   2.548   2.078 -0.0648  1.1141  1.0150
 6458SOL     OW30835   4.020   1.897   9.425  0.7330 -0.6338  0.0553
 6458SOL    HW130836   4.034   1.984   9.464  2.5002 -1.0697  0.3771
 6458SOL    HW230837   3.968   1.854   9.493  0.5877 -2.3399 -1.1503
 6459SOL     OW30838   0.944   3.789   8.332 -0.6791  0.4268  0.4717
 6459SOL    HW130839   0.990   3.798   8.415  1.7030  1.3044 -0.9415
 6459SOL    HW230840   0.940   3.694   8.326 -4.0518  0.5365  0.5781
 6460SOL     OW30841   3.880   4.616   7.833 -0.3797  0.3159 -0.8011
 6460SOL    HW130842   3.968   4.582   7.850 -0.5141  0.4425  0.1882
 6460SOL    HW230843   3.862   4.668   7.912  0.4764  1.0436 -1.0750
 6461SOL     OW30844   1.257   0.872  14.207  0.6039 -0.4232  0.5971
 6461SOL    HW130845   1.345   0.866  14.243  0.2244 -0.9003  1.4677
 6461SOL    HW230846   1.260   0.811  14.133 -0.7559 -0.2751  0.4063
 6462SOL     OW30847   1.022   3.795   0.726 -0.2636 -0.8637 -0.3019
 6462SOL    HW130848   0.936   3.812   0.764  0.6697 -0.6748  1.7381
 6462SOL    HW230849   1.021   3.700   0.714  1.1268 -0.7319 -1.4465
 6463SOL     OW30850   3.915   0.555   8.726  0.1227  0.7899 -0.6251
 6463SOL    HW130851   3.979   0.626   8.731  1.2898 -0.3275  0.3520
 6463SOL    HW230852   3.949   0.517   8.807 -0.6299 -1.2682 -1.3005
 6464SOL     OW30853   4.718   3.531   2.113  0.1571  0.0654 -0.9514
 6464SOL    HW130854   0.025   3.448   2.078  0.1333  0.1477 -1.1694
 6464SOL    HW230855   0.025   3.598   2.052  0.6852  0.2806 -0.4320
 6465SOL     OW30856   2.222   3.912  13.976  0.0208 -0.1961  0.4791
 6465SOL    HW130857   2.200   3.950  14.060  0.4956 -1.5603  1.2196
 6465SOL    HW230858   2.304   3.961  13.960 -0.4700  0.2002 -0.8675
 6466SOL     OW30859   1.490   0.021   6.193  0.0723 -0.1833 -0.4563
 6466SOL    HW130860   1.466   4.669   6.244 -0.6447  0.4770  0.2006
 6466SOL    HW230861   1.582   0.018   6.218  0.0330 -3.6607 -0.7129
 6467SOL     OW30862   1.950   0.246   7.989  0.1716  0.1548 -0.2712
 6467SOL    HW130863   2.045   0.252   7.987  0.1715  0.3327  0.1795
 6467SOL    HW230864   1.932   0.339   7.972  0.8526  0.6927  1.9717
 6468SOL     OW30865   2.098   0.444   2.005 -0.4796  0.3051 -0.4226
 6468SOL    HW130866   2.047   0.486   2.074  2.2419  0.7662  1.3175
 6468SOL    HW230867   2.033   0.387   1.965 -0.2445  0.3781 -0.9062
 6469SOL     OW30868   3.310   1.663   3.303  0.5893  0.1279 -0.1154
 6469SOL    HW130869   3.298   1.568   3.307  0.8811  0.0448 -1.2604
 6469SOL    HW230870   3.376   1.671   3.234 -1.5284 -0.6729 -2.2284
 6470SOL     OW30871   0.626   1.438   9.326 -0.6660  0.4850 -0.0629
 6470SOL    HW130872   0.582   1.353   9.329  0.1373  0.1168  1.6344
 6470SOL    HW230873   0.545   1.487   9.309 -0.9283 -0.5854 -1.8463
 6471SOL     OW30874   1.442   0.660   2.004  0.2719 -0.3275 -0.4072
 6471SOL    HW130875   1.443   0.666   2.099 -1.5813 -0.6013 -0.3661
 6471SOL    HW230876   1.449   0.564   1.998 -0.2759 -0.4017  0.2392
 6472SOL     OW30877   1.519   0.497  14.670  0.2031 -0.0306  0.1618
 6472SOL    HW130878   1.574   0.521  14.744 -1.7665  1.8057  1.0419
 6472SOL    HW230879   1.441   0.463  14.715 -0.3982  0.1176 -0.7609
 6473SOL     OW30880   0.265   4.691  15.021  0.1006 -0.6604 -0.1146
 6473SOL    HW130881   0.283   4.604  15.057  1.1068 -0.4054  0.0045
 6473SOL    HW230882   0.317   4.689  14.940  1.2054 -1.1912  0.6120
 6474SOL     OW30883   3.963   3.076   3.543  0.6780  0.7750  0.2291
 6474SOL    HW130884   3.902   3.022   3.594  0.0973  3.1602  2.0859
 6474SOL    HW230885   3.934   3.061   3.453  1.8074  1.5638 -0.2637
 6475SOL     OW30886   0.114   2.648   9.505 -0.4957 -0.5570  0.3406
 6475SOL    HW130887   0.097   2.570   9.451 -2.1191  0.2453 -0.3296
 6475SOL    HW230888   0.195   2.683   9.469 -1.7720  1.3428 -0.6976
 6476SOL     OW30889   2.473   1.782  13.135  0.0041  0.7133  0.1326
 6476SOL    HW130890   2.422   1.855  13.170 -0.4444  0.8090 -0.7374
 6476SOL    HW230891   2.400   1.723  13.117 -0.2348  1.3302 -0.8774
 6477SOL     OW30892   4.438   2.583   8.543  0.3285  0.0266 -0.0984
 6477SOL    HW130893   4.510   2.622   8.493  0.1064 -0.3755 -0.7390
 6477SOL    HW230894   4.465   2.493   8.559  1.3359  0.2586 -0.5206
 6478SOL     OW30895   1.044   1.589  14.481  0.3452  0.6154  0.6479
 6478SOL    HW130896   1.051   1.584  14.577  2.7755  0.9568  0.4948
 6478SOL    HW230897   1.129   1.630  14.462  0.3112  0.8487  0.9919
 6479SOL     OW30898   0.279   1.728   3.974  0.1210  0.0863  0.0408
 6479SOL    HW130899   0.336   1.679   4.034  2.3659  0.8353 -1.4934
 6479SOL    HW230900   0.229   1.650   3.947  1.2695 -1.3645  2.0821
 6480SOL     OW30901   0.926   3.519   8.336  0.4587  0.0394 -0.0270
 6480SOL    HW130902   0.875   3.514   8.416  0.1759 -0.0717 -0.2127
 6480SOL    HW230903   0.868   3.474   8.274  1.3931 -1.1762 -0.0484
 6481SOL     OW30904   1.640   2.841   5.259  0.1818 -0.1340  0.5239
 6481SOL    HW130905   1.638   2.835   5.164 -0.5301  0.0150  0.5289
 6481SOL    HW230906   1.569   2.904   5.273 -0.7721 -0.6479 -2.0834
 6482SOL     OW30907   0.675   0.353   2.791 -0.3405  0.8509 -0.0812
 6482SOL    HW130908   0.689   0.448   2.789 -2.8637  1.2745  2.5157
 6482SOL    HW230909   0.616   0.342   2.716  2.7914  0.0400 -2.4518
 6483SOL     OW30910   1.483   2.185  14.535 -0.0511 -0.1082 -0.0781
 6483SOL    HW130911   1.402   2.152  14.497 -0.5544  1.3468 -0.2673
 6483SOL    HW230912   1.544   2.113  14.517  1.2441  0.9601  0.0188
 6484SOL     OW30913   4.389   0.273  17.540  0.0340  0.4284 -0.1197
 6484SOL    HW130914   4.443   0.215  17.487 -0.5889  0.0313 -0.3224
 6484SOL    HW230915   4.380   0.213  17.614 -2.8099  1.1207  0.1114
 6485SOL     OW30916   2.140   3.344   3.838  0.0355 -0.4648  0.7812
 6485SOL    HW130917   2.208   3.283   3.808  1.2151  0.7809  0.9343
 6485SOL    HW230918   2.179   3.431   3.831 -1.6587  0.3977  2.3544
 6486SOL     OW30919   0.983   1.915   7.280 -0.4083 -0.0000  0.3194
 6486SOL    HW130920   0.900   1.944   7.240 -1.6925 -3.8341  0.2100
 6486SOL    HW230921   0.971   1.822   7.295  1.0666 -0.3911 -0.9834
 6487SOL     OW30922   0.740   1.270   5.012  0.0788  0.1341  0.1768
 6487SOL    HW130923   0.660   1.304   5.052 -0.5756 -0.6083 -0.4968
 6487SOL    HW230924   0.734   1.176   5.023 -0.7751  0.1382 -0.2488
 6488SOL     OW30925   1.718   3.191  13.108  0.0336 -0.3416  0.2879
 6488SOL    HW130926   1.651   3.147  13.161 -1.6245  0.2651 -1.2932
 6488SOL    HW230927   1.754   3.117  13.060 -0.9292 -1.3723  1.1696
 6489SOL     OW30928   1.492   1.919   6.086 -0.4423  0.0612  0.0051
 6489SOL    HW130929   1.446   1.897   6.005 -1.5008  0.8352  0.3844
 6489SOL    HW230930   1.509   2.013   6.086  1.9045 -0.3717  0.3712
 6490SOL     OW30931   2.049   1.448   2.343  0.2020 -0.0432  0.2072
 6490SOL    HW130932   2.115   1.492   2.396  0.3901  0.6352 -0.5858
 6490SOL    HW230933   2.098   1.379   2.298  2.1903  3.5527 -3.1251
 6491SOL     OW30934   1.237   1.863   6.910  0.0018  0.2470 -0.2140
 6491SOL    HW130935   1.161   1.849   6.854 -0.5139  0.1195  0.5215
 6491SOL    HW230936   1.201   1.892   6.993  1.7202 -0.1842  0.6889
 6492SOL     OW30937   1.827   0.032   2.264 -0.1931  0.1101  0.0494
 6492SOL    HW130938   1.802   4.685   2.322 -1.3175  0.3943 -0.0794
 6492SOL    HW230939   1.785   0.005   2.183  0.9262 -0.0440 -0.4773
 6493SOL     OW30940   4.360   2.203   3.778 -0.1399 -0.5363 -0.0724
 6493SOL    HW130941   4.342   2.223   3.686 -1.1927  0.7902  0.4215
 6493SOL    HW230942   4.314   2.121   3.795 -2.4079  0.9285  0.7308
 6494SOL     OW30943   2.799   1.326   2.521  0.3588 -0.1290  0.7361
 6494SOL    HW130944   2.722   1.302   2.470  0.7955 -0.5797  0.2878
 6494SOL    HW230945   2.855   1.249   2.508  0.0828 -0.2152  0.0396
 6495SOL     OW30946   1.588   0.382  17.094  0.1247 -0.8688 -0.0237
 6495SOL    HW130947   1.563   0.454  17.036  0.7078 -2.1978 -1.9175
 6495SOL    HW230948   1.505   0.362  17.138 -0.8230 -0.7891 -1.7798
 6496SOL     OW30949   2.638   3.949   2.310 -0.1866  0.0187 -0.1997
 6496SOL    HW130950   2.640   3.964   2.405  2.1377 -1.0402 -0.0682
 6496SOL    HW230951   2.617   3.856   2.304 -1.3089  0.3810 -1.8556
 6497SOL     OW30952   3.273   3.042   1.809  0.4519 -0.1251 -0.2195
 6497SOL    HW130953   3.232   2.956   1.821  1.2110 -0.3291  1.0249
 6497SOL    HW230954   3.360   3.033   1.848  0.3713  0.4367  0.0977
 6498SOL     OW30955   4.634   4.568  14.912 -0.5905 -0.2693  0.3284
 6498SOL    HW130956   4.714   4.601  14.954  0.8108 -2.9656 -0.1530
 6498SOL    HW230957   4.594   4.524  14.988 -0.5710 -0.9498 -0.0511
 6499SOL     OW30958   3.623   0.823   6.696 -0.3976  0.0172  0.1059
 6499SOL    HW130959   3.618   0.738   6.654  0.5533 -0.7097  1.4535
 6499SOL    HW230960   3.652   0.886   6.631  0.5553  1.4281  1.8763
 6500SOL     OW30961   4.527   2.035   9.847  0.1067 -0.2232 -0.4931
 6500SOL    HW130962   4.533   1.941   9.866 -0.0549 -0.2160 -0.4058
 6500SOL    HW230963   4.491   2.038   9.759 -1.0134 -0.5176 -0.0420
 6501SOL     OW30964   2.969   4.394   8.891 -0.6095 -0.3377 -0.5394
 6501SOL    HW130965   2.915   4.469   8.864 -2.2849 -0.9804  0.9891
 6501SOL    HW230966   2.937   4.368   8.978  2.5080 -4.9125 -0.7881
 6502SOL     OW30967   3.910   4.289  12.795  0.4868  0.0602 -0.2440
 6502SOL    HW130968   3.994   4.247  12.812 -0.9389 -1.1012  3.8988
 6502SOL    HW230969   3.868   4.209  12.764 -1.1284  1.0631 -0.6427
 6503SOL     OW30970   2.541   2.323  10.957  0.5013  0.5345 -0.5399
 6503SOL    HW130971   2.522   2.259  11.026  1.5631 -0.6312 -1.3210
 6503SOL    HW230972   2.454   2.362  10.947  0.0943  0.0691  1.0608
 6504SOL     OW30973   3.713   1.720   7.708 -0.2458 -0.8364 -0.1691
 6504SOL    HW130974   3.696   1.757   7.622  0.4731 -2.5298 -1.0493
 6504SOL    HW230975   3.790   1.664   7.696 -0.1531 -1.6305  4.0690
 6505SOL     OW30976   4.307   1.494  13.140  0.7755  0.3177 -0.3112
 6505SOL    HW130977   4.376   1.555  13.165 -0.3241  0.9739  1.1213
 6505SOL    HW230978   4.280   1.540  13.061  1.4765  2.5134  0.7425
 6506SOL     OW30979   2.814   1.205   6.760 -0.0521 -0.2352  0.5777
 6506SOL    HW130980   2.834   1.267   6.689 -0.1328 -1.0849 -0.1919
 6506SOL    HW230981   2.720   1.194   6.747 -0.2515  2.5996 -0.5387
 6507SOL     OW30982   0.081   0.691   5.020 -0.8392  0.5898 -0.1133
 6507SOL    HW130983   0.122   0.663   4.939 -1.0099 -0.9424  0.3439
 6507SOL    HW230984   0.109   0.783   5.016  0.8295  0.0446 -0.9336
 6508SOL     OW30985   0.050   3.437   8.207 -0.0471 -0.2155 -0.8054
 6508SOL    HW130986   0.002   3.449   8.289 -0.2959 -0.4789 -0.9119
 6508SOL    HW230987   0.013   3.512   8.162 -0.5171 -0.0467 -0.1421
 6509SOL     OW30988   1.990   0.052   5.157  0.1091 -0.2289 -0.0230
 6509SOL    HW130989   1.926   0.093   5.099  0.6274  0.5467 -0.0452
 6509SOL    HW230990   1.937   0.011   5.226  1.2428 -1.1883  0.2748
 6510SOL     OW30991   1.321   0.459   3.508 -0.2692 -0.3085 -0.4219
 6510SOL    HW130992   1.400   0.462   3.562  1.9112  1.7846 -3.7686
 6510SOL    HW230993   1.310   0.367   3.486 -0.9601 -0.6695  1.4478
 6511SOL     OW30994   0.102   3.854   1.962  0.1038 -0.5367  0.1203
 6511SOL    HW130995   0.169   3.849   2.031 -1.6026 -1.8327  1.6749
 6511SOL    HW230996   0.126   3.941   1.929 -1.1680  0.1091  0.8901
 6512SOL     OW30997   3.596   0.223   7.270 -0.1020  0.2248 -0.5339
 6512SOL    HW130998   3.663   0.169   7.313 -1.0684  0.3954  1.1656
 6512SOL    HW230999   3.645   0.299   7.235  0.9796 -0.0985  0.2709
 6513SOL     OW31000   4.159   1.601   2.595 -0.1806 -1.0573  0.7553
 6513SOL    HW131001   4.206   1.599   2.511  0.9768 -0.8590  1.3908
 6513SOL    HW231002   4.146   1.696   2.592  2.8640 -0.6109  1.3338
 6514SOL     OW31003   4.328   1.944   2.324 -0.1666 -0.4745  0.4676
 6514SOL    HW131004   4.245   1.916   2.287 -0.6513  0.1715  1.0737
 6514SOL    HW231005   4.298   2.004   2.392  1.4483 -0.4359  1.1665
 6515SOL     OW31006   3.850   2.419   1.774  0.4388 -0.5681 -0.1074
 6515SOL    HW131007   3.787   2.466   1.829  0.6499  0.2019 -0.5286
 6515SOL    HW231008   3.865   2.340   1.826 -1.6584  0.0782  1.4632
 6516SOL     OW31009   4.040   1.244   7.896  0.1171  0.0351 -0.0850
 6516SOL    HW131010   4.120   1.217   7.940 -0.9112 -0.0122  1.7597
 6516SOL    HW231011   3.979   1.183   7.938 -1.1238  0.2314 -1.5999
 6517SOL     OW31012   1.941   0.826   5.566  0.0197  0.3996 -0.2993
 6517SOL    HW131013   2.000   0.902   5.563  0.4143  0.0422 -1.4110
 6517SOL    HW231014   1.913   0.834   5.657 -0.7300 -0.6427 -0.4487
 6518SOL     OW31015   2.404   3.399  11.214  0.1685 -0.3993 -0.4371
 6518SOL    HW131016   2.423   3.486  11.250 -2.9364  0.2068 -0.2114
 6518SOL    HW231017   2.430   3.351  11.292 -2.7910  1.6029  1.7945
 6519SOL     OW31018   1.630   0.159   5.375 -0.5023  0.0576  0.3724
 6519SOL    HW131019   1.554   0.102   5.363  0.2223 -0.9906  0.8027
 6519SOL    HW231020   1.593   0.242   5.403 -1.8898  0.0156 -1.3006
 6520SOL     OW31021   1.566   2.721  10.014  0.2713  0.5321 -0.0633
 6520SOL    HW131022   1.628   2.737   9.943 -1.5306 -2.1642 -2.2463
 6520SOL    HW231023   1.492   2.694   9.959 -0.4417  1.1816  0.5631
 6521SOL     OW31024   2.375   1.635   9.924  0.2790  0.0714 -0.0845
 6521SOL    HW131025   2.316   1.563   9.945 -0.8921  0.7667 -1.0204
 6521SOL    HW231026   2.325   1.716   9.937 -0.0491 -0.5479  2.3787
 6522SOL     OW31027   0.395   4.200   5.015  0.5052 -0.0101 -0.7568
 6522SOL    HW131028   0.415   4.162   5.100  2.4350  1.1705 -0.6975
 6522SOL    HW231029   0.358   4.283   5.046  1.5269 -0.0661  0.5730
 6523SOL     OW31030   4.375   4.548  10.271  0.6467 -0.2948 -0.3016
 6523SOL    HW131031   4.289   4.516  10.243  0.5173 -0.3266  0.1324
 6523SOL    HW231032   4.358   4.634  10.311  0.5583 -0.2355 -0.4660
 6524SOL     OW31033   3.147   3.647   4.744 -0.1476 -0.3469  1.1622
 6524SOL    HW131034   3.148   3.559   4.783  3.0348 -0.0509  1.8056
 6524SOL    HW231035   3.065   3.644   4.695  1.5379  0.5903 -1.6914
 6525SOL     OW31036   3.964   1.368   1.717 -0.9520  0.9360  0.0393
 6525SOL    HW131037   4.056   1.350   1.700 -1.8995 -1.9034 -2.1890
 6525SOL    HW231038   3.948   1.370   1.623  2.7997  2.2330 -0.5443
 6526SOL     OW31039   3.557   2.664   6.421 -0.1394  0.4937 -0.0455
 6526SOL    HW131040   3.614   2.709   6.358 -1.5898  1.9167 -0.3248
 6526SOL    HW231041   3.528   2.590   6.367  0.3521 -0.2254  0.6593
 6527SOL     OW31042   0.240   2.154   5.952  0.3050  0.6067  0.1402
 6527SOL    HW131043   0.326   2.124   5.980 -0.5820 -1.7845  0.2356
 6527SOL    HW231044   0.255   2.234   5.901 -0.6572  1.1125  0.6337
 6528SOL     OW31045   3.549   2.488   6.949 -0.1933 -0.1861  0.0312
 6528SOL    HW131046   3.573   2.536   6.870 -0.6631  0.3372  0.2049
 6528SOL    HW231047   3.542   2.400   6.911 -0.8943 -0.4134  0.6746
 6529SOL     OW31048   3.376   1.822   0.408 -0.2697  0.5970 -0.0884
 6529SOL    HW131049   3.440   1.751   0.410 -1.4052 -0.4395 -0.5699
 6529SOL    HW231050   3.299   1.769   0.390  0.2849 -0.4121  0.5084
 6530SOL     OW31051   1.424   0.861   8.336  0.3225 -0.0265 -0.4233
 6530SOL    HW131052   1.486   0.920   8.379 -1.5961  1.0059  0.9600
 6530SOL    HW231053   1.388   0.809   8.407 -0.3166  1.8646  0.6382
 6531SOL     OW31054   3.112   1.309  15.847  0.2022 -0.3954  0.5896
 6531SOL    HW131055   3.077   1.278  15.930 -0.7571  0.2327  0.4245
 6531SOL    HW231056   3.157   1.231  15.816 -1.4842 -1.5492  1.0577
 6532SOL     OW31057   1.134   1.135   8.994 -0.2515 -0.0410  0.7681
 6532SOL    HW131058   1.201   1.099   8.936 -0.0587 -1.5705  1.9300
 6532SOL    HW231059   1.058   1.118   8.937  0.3998 -0.0274 -0.0965
 6533SOL     OW31060   3.762   2.173   4.030 -0.5572 -0.0077 -0.1010
 6533SOL    HW131061   3.733   2.249   3.981  0.1072  0.1123 -0.3038
 6533SOL    HW231062   3.841   2.205   4.074 -0.9001 -1.4066  1.5272
 6534SOL     OW31063   0.604   1.398  15.847 -0.5535  0.3196 -0.8756
 6534SOL    HW131064   0.589   1.354  15.763  1.1721 -0.7368 -0.6483
 6534SOL    HW231065   0.579   1.331  15.911  0.0449 -0.0795 -1.0528
 6535SOL     OW31066   3.924   2.028   3.835 -0.7171 -0.2608  0.2301
 6535SOL    HW131067   3.902   2.077   3.914  0.7894  0.5838  0.1194
 6535SOL    HW231068   4.019   2.032   3.840 -0.7291 -0.0219  0.2397
 6536SOL     OW31069   0.713   4.248  12.330  0.0512 -0.1941 -0.3676
 6536SOL    HW131070   0.652   4.240  12.256 -0.0230  0.4448 -0.3748
 6536SOL    HW231071   0.796   4.221  12.292 -0.5560 -0.5236 -1.4525
 6537SOL     OW31072   1.470   2.779  17.495  0.1786  0.5381 -0.1470
 6537SOL    HW131073   1.483   2.689  17.466  2.0125  0.9329 -0.5492
 6537SOL    HW231074   1.404   2.770  17.564  0.0124 -2.2795 -0.6429
 6538SOL     OW31075   3.196   0.112   8.799  0.4564  0.2511  0.0846
 6538SOL    HW131076   3.128   0.178   8.811 -0.6914 -0.6217 -1.7755
 6538SOL    HW231077   3.261   0.169   8.758 -1.4632 -0.2207 -3.5354
 6539SOL     OW31078   1.318   0.286   7.774  0.4118  0.7196 -0.5175
 6539SOL    HW131079   1.302   0.249   7.687 -4.8881 -0.8882  1.1377
 6539SOL    HW231080   1.270   0.225   7.830  0.3276  0.4412 -0.8916
 6540SOL     OW31081   3.348   2.732   1.766 -0.1547 -0.7689 -0.3680
 6540SOL    HW131082   3.308   2.747   1.852 -1.9605 -0.8367 -1.1864
 6540SOL    HW231083   3.277   2.703   1.708 -1.7592 -0.3410  1.3761
 6541SOL     OW31084   4.692   4.140   4.077  0.3697 -0.5423 -0.1061
 6541SOL    HW131085   0.061   4.126   4.079  0.3505 -0.5139  0.8621
 6541SOL    HW231086   4.667   4.056   4.038 -0.0195 -1.7778  2.8417
 6542SOL     OW31087   0.969   0.174   3.212 -0.4760  0.2073  0.0636
 6542SOL    HW131088   0.927   0.157   3.296 -1.4449  0.3152 -0.3901
 6542SOL    HW231089   0.895   0.226   3.180  0.2405  1.8493  1.0989
 6543SOL     OW31090   3.946   1.949  11.339 -0.7185  0.4516 -0.6183
 6543SOL    HW131091   3.947   2.043  11.357  0.6558  0.2611  0.2625
 6543SOL    HW231092   3.865   1.938  11.288 -2.3282  0.1171  1.9840
 6544SOL     OW31093   0.129   2.514   6.151 -1.0537 -0.0075 -0.2344
 6544SOL    HW131094   0.042   2.480   6.135 -1.0044  0.0431 -0.6102
 6544SOL    HW231095   0.111   2.599   6.111 -0.9421  0.3454  0.4564
 6545SOL     OW31096   1.190   3.534  17.021  0.6456  0.0889  0.0557
 6545SOL    HW131097   1.126   3.602  17.045 -1.0697 -1.6940  0.5558
 6545SOL    HW231098   1.145   3.450  17.016  3.6175 -1.6087  2.0564
 6546SOL     OW31099   0.589   0.456   5.770 -0.2359  0.0761 -0.3256
 6546SOL    HW131100   0.546   0.412   5.696  0.4313  1.0029 -1.2778
 6546SOL    HW231101   0.532   0.531   5.787 -1.3748 -0.9373  0.2864
 6547SOL     OW31102   2.567   4.598   7.620 -0.6155 -0.3528  0.4858
 6547SOL    HW131103   2.572   4.693   7.632  2.3009 -0.4952  0.3918
 6547SOL    HW231104   2.501   4.581   7.687  1.0686 -0.1025  2.1810
 6548SOL     OW31105   1.520   3.235   4.853 -0.5521  0.4948  0.1853
 6548SOL    HW131106   1.544   3.145   4.830 -3.4337 -0.9921  2.9597
 6548SOL    HW231107   1.451   3.254   4.789  1.9783  0.7687 -2.4562
 6549SOL     OW31108   1.732   0.143   7.503  0.4060  0.5073 -0.1269
 6549SOL    HW131109   1.700   0.211   7.444 -1.1019 -1.1245 -1.1957
 6549SOL    HW231110   1.644   0.128   7.539  1.1682  0.1105  1.5909
 6550SOL     OW31111   3.138   2.029   8.099 -0.4607  0.0317 -0.1384
 6550SOL    HW131112   3.092   2.024   8.183 -0.3290  2.6526  0.1070
 6550SOL    HW231113   3.079   2.079   8.043 -0.3416 -1.0695 -1.2610
 6551SOL     OW31114   3.297   3.200   9.135  0.2102  0.6814  0.2723
 6551SOL    HW131115   3.225   3.257   9.159  0.8938  0.9030  1.7740
 6551SOL    HW231116   3.247   3.155   9.066 -1.6045 -0.4555  2.3388
 6552SOL     OW31117   3.617   4.661   0.203 -0.0529  0.2719 -0.0997
 6552SOL    HW131118   3.666   0.010   0.169  1.5815 -0.5127  0.5629
 6552SOL    HW231119   3.590   4.617   0.123  0.8106 -2.2161  0.9737
 6553SOL     OW31120   4.708   2.283  11.272 -0.3256  0.6865 -0.4542
 6553SOL    HW131121   4.687   2.211  11.332  0.1546  1.5905  0.8012
 6553SOL    HW231122   0.022   2.238  11.197  1.0959  1.0070  0.1040
 6554SOL     OW31123   1.153   4.583   1.298  0.1379  0.3195 -0.3145
 6554SOL    HW131124   1.218   4.613   1.235  0.0818  0.5627 -0.2544
 6554SOL    HW231125   1.197   4.598   1.382  0.4356  1.4722 -0.6778
 6555SOL     OW31126   3.299   1.425   7.258  0.1794  0.1741  0.0220
 6555SOL    HW131127   3.250   1.425   7.340  1.5626  1.8808  0.8341
 6555SOL    HW231128   3.362   1.353   7.265  0.1870  0.1637 -0.1442
 6556SOL     OW31129   2.547   0.699   2.603 -0.1883  0.5906  0.6053
 6556SOL    HW131130   2.549   0.611   2.642  0.6517  1.1398  1.7926
 6556SOL    HW231131   2.619   0.742   2.650  0.9379  1.2861 -1.7844
 6557SOL     OW31132   4.574   2.096   7.318  0.1701 -0.2442 -0.2646
 6557SOL    HW131133   4.603   2.185   7.299  1.0342 -1.0438 -2.6923
 6557SOL    HW231134   4.658   2.058   7.346  1.2349  3.7685  2.0126
 6558SOL     OW31135   4.574   4.223   2.071  0.4598  0.0893 -0.1814
 6558SOL    HW131136   4.561   4.212   1.977 -0.6501 -0.5952  0.0452
 6558SOL    HW231137   4.554   4.134   2.101  1.5702  0.3621  1.3659
 6559SOL     OW31138   0.001   2.590   8.465  0.5868  0.3371 -0.5241
 6559SOL    HW131139   0.049   2.548   8.536  1.2104 -0.7738 -1.5981
 6559SOL    HW231140   0.020   2.527   8.396  1.7870  2.7153 -2.3835
 6560SOL     OW31141   1.499   0.084  13.010 -0.2813  0.5950  0.5246
 6560SOL    HW131142   1.461   0.170  12.991 -3.7614 -1.2984 -0.8542
 6560SOL    HW231143   1.568   0.108  13.073  0.9816 -2.5546  0.3320
 6561SOL     OW31144   0.871   0.151   4.191 -0.0751 -0.5771  0.5459
 6561SOL    HW131145   0.811   0.092   4.146 -0.7636  1.8624 -1.7572
 6561SOL    HW231146   0.808   0.223   4.187 -1.6683 -1.9414  1.2442
 6562SOL     OW31147   2.832   2.123  13.800 -0.5912 -0.1065 -0.0110
 6562SOL    HW131148   2.900   2.127  13.732 -2.0798  1.6264 -1.3940
 6562SOL    HW231149   2.771   2.193  13.776 -2.3445 -1.6523 -0.0508
 6563SOL     OW31150   4.190   2.627   6.267  0.5084 -0.3246 -0.1269
 6563SOL    HW131151   4.165   2.636   6.359  0.1731 -0.7426 -0.1760
 6563SOL    HW231152   4.164   2.538   6.244  2.9059 -1.1711  0.4241
 6564SOL     OW31153   4.405   4.250   9.301 -0.0506 -0.1509  0.2488
 6564SOL    HW131154   4.314   4.267   9.277 -0.1284 -0.6293  0.2134
 6564SOL    HW231155   4.412   4.164   9.260  1.9025 -1.3139  3.0319
 6565SOL     OW31156   1.214   1.736  10.221 -0.0778 -0.1830  0.1597
 6565SOL    HW131157   1.262   1.667  10.176 -0.8643  0.2263 -1.2909
 6565SOL    HW231158   1.276   1.809  10.220  1.4532 -1.4918 -0.8168
 6566SOL     OW31159   0.363   4.044   9.071 -0.6727 -0.3700 -0.4535
 6566SOL    HW131160   0.301   4.098   9.120  0.9073 -0.6212  1.7978
 6566SOL    HW231161   0.440   4.048   9.128  0.4743 -0.0988 -2.0349
 6567SOL     OW31162   2.857   1.001   2.276  0.5374  0.3809 -0.3213
 6567SOL    HW131163   2.825   1.025   2.189 -0.0427  2.3606  0.4298
 6567SOL    HW231164   2.805   0.924   2.298  0.5473  0.0309 -1.4772
 6568SOL     OW31165   0.234   3.186   1.724  0.0033 -0.8845 -0.2310
 6568SOL    HW131166   0.223   3.118   1.791 -1.1872  0.6935  1.1720
 6568SOL    HW231167   0.166   3.168   1.659 -0.1138  0.8084 -0.5674
 6569SOL     OW31168   3.880   0.355   4.419  0.1684 -0.1902  0.2102
 6569SOL    HW131169   3.961   0.309   4.398  0.4200  0.1817  0.3567
 6569SOL    HW231170   3.907   0.446   4.432  0.3800  0.1270 -2.5623
 6570SOL     OW31171   4.371   3.082   5.403  0.1762 -0.1631  0.1654
 6570SOL    HW131172   4.430   3.053   5.333 -0.3030  1.6144 -0.9711
 6570SOL    HW231173   4.313   3.139   5.352 -0.9036  0.0930  1.6740
 6571SOL     OW31174   3.728   1.282   3.849  0.0529 -0.1187  0.5565
 6571SOL    HW131175   3.769   1.348   3.905 -0.8058  1.0705 -0.2353
 6571SOL    HW231176   3.804   1.263   3.793 -1.6648 -0.1570 -1.7343
 6572SOL     OW31177   0.908   1.450   4.880  0.1525  0.4878 -0.1395
 6572SOL    HW131178   0.893   1.427   4.789 -1.6308 -0.7719  0.4894
 6572SOL    HW231179   0.833   1.417   4.929  1.6548 -3.2108 -0.3530
 6573SOL     OW31180   3.527   0.523  15.705 -0.5714  0.6071  0.1815
 6573SOL    HW131181   3.520   0.581  15.629  0.2118 -0.4599 -0.7035
 6573SOL    HW231182   3.507   0.439  15.664  0.4994  0.4066  0.0718
 6574SOL     OW31183   3.959   1.569   0.765 -0.5389 -0.0329 -0.2379
 6574SOL    HW131184   3.907   1.612   0.833 -0.1517 -1.2109  0.8146
 6574SOL    HW231185   3.994   1.642   0.714 -3.0230  0.9409 -0.5509
 6575SOL     OW31186   2.437   4.096   5.980  0.1681 -0.5985  0.0672
 6575SOL    HW131187   2.427   4.156   6.054  1.0278 -1.2051  0.6800
 6575SOL    HW231188   2.364   4.125   5.925 -0.2135  0.7422  1.2905
 6576SOL     OW31189   4.253   1.475  13.392  0.7404  0.4422  0.4013
 6576SOL    HW131190   4.252   1.466  13.297 -1.8774  1.7600  0.3225
 6576SOL    HW231191   4.209   1.393  13.415 -1.5241  1.2533 -0.9922
 6577SOL     OW31192   1.550   4.719   8.104 -0.0317 -0.2514 -0.2808
 6577SOL    HW131193   1.558   0.023   8.013  1.4565 -0.0303 -0.0787
 6577SOL    HW231194   1.474   0.048   8.124  0.0129 -1.1100  2.1980
 6578SOL     OW31195   2.317   1.487   4.025  0.0794  0.0734  0.0730
 6578SOL    HW131196   2.324   1.582   4.013  2.8575  0.0628  1.6440
 6578SOL    HW231197   2.392   1.483   4.084  0.1928  0.5166 -0.0372
 6579SOL     OW31198   3.507   0.541   6.119 -0.3931  0.1487  0.3377
 6579SOL    HW131199   3.558   0.462   6.135  1.4458  1.1606 -0.5436
 6579SOL    HW231200   3.530   0.567   6.030  0.6101  0.5618  0.7231
 6580SOL     OW31201   0.998   2.353   4.766 -0.8247 -0.1569  0.5386
 6580SOL    HW131202   1.054   2.353   4.844 -0.7047 -1.4807  0.4439
 6580SOL    HW231203   0.990   2.448   4.760  0.2015 -0.2250 -1.9772
 6581SOL     OW31204   4.420   0.941   6.567  0.3398  0.0039  0.0119
 6581SOL    HW131205   4.376   0.868   6.611  0.8062  1.1894  2.4779
 6581SOL    HW231206   4.364   0.961   6.492  0.8860 -1.1932 -0.7185
 6582SOL     OW31207   0.633   3.627   5.775 -0.1910 -0.3898 -0.4024
 6582SOL    HW131208   0.538   3.623   5.771 -0.2715 -0.6906  1.8550
 6582SOL    HW231209   0.662   3.544   5.737  0.8707  0.4871 -1.5250
 6583SOL     OW31210   1.016   3.830   4.582 -0.1835  0.3743 -0.7531
 6583SOL    HW131211   1.111   3.836   4.576 -0.2645  1.5508 -0.8156
 6583SOL    HW231212   0.992   3.794   4.496 -1.9351 -1.2506  0.4309
 6584SOL     OW31213   2.456   0.512   4.666 -0.1490 -0.2357 -0.0072
 6584SOL    HW131214   2.534   0.568   4.672  2.1823 -3.4262 -0.3818
 6584SOL    HW231215   2.450   0.507   4.571  1.7521 -0.9485 -0.0983
 6585SOL     OW31216   2.213   1.318   8.071 -0.0074  0.1015 -0.6181
 6585SOL    HW131217   2.207   1.311   8.166  0.7242  2.0854 -0.4206
 6585SOL    HW231218   2.267   1.241   8.053 -0.0952  0.2045 -1.3438
 6586SOL     OW31219   2.612   1.433   9.419 -0.3720 -0.6700  0.0166
 6586SOL    HW131220   2.569   1.467   9.340  0.8810  2.0366  0.4760
 6586SOL    HW231221   2.580   1.500   9.480  0.8883 -0.5300  0.5115
 6587SOL     OW31222   0.220   2.269   8.206  0.1380  0.6091  0.4615
 6587SOL    HW131223   0.273   2.230   8.275  0.7984  1.4866  0.4441
 6587SOL    HW231224   0.290   2.267   8.141  0.1978  1.3194  0.5042
 6588SOL     OW31225   1.962   4.437   0.579 -0.1672 -0.2184  0.2499
 6588SOL    HW131226   2.048   4.461   0.543  0.5739  0.9402  2.8101
 6588SOL    HW231227   1.933   4.375   0.512  0.5161  0.0297 -0.2887
 6589SOL     OW31228   0.205   0.921   7.881 -0.5654  0.0233  0.5344
 6589SOL    HW131229   0.153   0.996   7.854  0.0785  0.0675 -0.5961
 6589SOL    HW231230   0.296   0.950   7.892 -0.8122  1.2426 -0.5855
 6590SOL     OW31231   3.467   0.884   3.385  0.4896 -0.7122  0.1617
 6590SOL    HW131232   3.373   0.896   3.402  0.5490 -2.2575  1.5534
 6590SOL    HW231233   3.506   0.922   3.463 -0.0830  1.3628 -0.5528
 6591SOL     OW31234   2.189   4.550   1.707 -0.1451  0.1779  0.4556
 6591SOL    HW131235   2.103   4.586   1.730 -1.4080 -1.9584 -0.9281
 6591SOL    HW231236   2.157   4.485   1.645  1.1228 -0.8267  0.8353
 6592SOL     OW31237   3.857   2.838   7.998 -0.0360 -0.2661 -0.1193
 6592SOL    HW131238   3.781   2.877   7.953 -0.0219  1.5494  1.4487
 6592SOL    HW231239   3.846   2.744   7.983  0.3835 -0.5740  1.5021
 6593SOL     OW31240   4.647   1.407   3.322  1.2422 -0.4673 -0.4625
 6593SOL    HW131241   4.707   1.472   3.359  0.6384  1.1738 -2.3844
 6593SOL    HW231242   4.689   1.404   3.236  0.2696 -2.0405 -0.8871
 6594SOL     OW31243   3.507   0.494   1.629 -0.3679 -0.3169 -0.0906
 6594SOL    HW131244   3.471   0.427   1.572  1.9476  0.2052 -2.1528
 6594SOL    HW231245   3.470   0.466   1.713  0.9484 -2.1068 -0.1027
 6595SOL     OW31246   0.384   3.432   1.430  0.2365  0.2245  0.7576
 6595SOL    HW131247   0.465   3.381   1.442 -0.3013 -0.7915  0.0941
 6595SOL    HW231248   0.357   3.395   1.346 -0.8983  2.3335  0.2160
 6596SOL     OW31249   3.877   1.354   2.165 -0.7485  0.1165 -0.5773
 6596SOL    HW131250   3.846   1.394   2.083 -1.7376 -0.4315 -0.4727
 6596SOL    HW231251   3.845   1.424   2.223 -0.8958  0.8241 -1.5036
 6597SOL     OW31252   1.102   0.598   1.864 -0.3090 -0.0574  0.1462
 6597SOL    HW131253   1.054   0.564   1.940  0.1064 -1.2801 -0.1341
 6597SOL    HW231254   1.054   0.553   1.794  0.8845  0.1159 -0.7780
 6598SOL     OW31255   0.766   3.646   0.517 -0.1897 -0.1357 -0.0851
 6598SOL    HW131256   0.765   3.742   0.524 -0.3417 -0.3370  2.5431
 6598SOL    HW231257   0.716   3.627   0.596 -0.9744  1.4019 -0.2093
 6599SOL     OW31258   3.998   4.091  13.115 -0.5315 -0.0823  0.1587
 6599SOL    HW131259   4.021   4.094  13.022  0.0205 -0.0638  0.2971
 6599SOL    HW231260   4.016   4.177  13.153 -0.2286 -0.8624  1.7834
 6600SOL     OW31261   0.034   4.144   7.977  0.0715  0.6720 -0.1964
 6600SOL    HW131262   4.671   4.119   7.950  0.7036 -1.7476 -0.0590
 6600SOL    HW231263   0.047   4.082   8.049 -1.9891  2.4356  1.6828
 6601SOL     OW31264   4.061   3.861   6.714  0.0781 -0.1574 -0.4021
 6601SOL    HW131265   4.143   3.829   6.677  1.4765  0.9882  1.7168
 6601SOL    HW231266   4.061   3.821   6.800  1.5528  0.4843 -0.0998
 6602SOL     OW31267   2.950   0.306  15.951 -0.3564  0.4862  0.3590
 6602SOL    HW131268   3.004   0.384  15.940  0.3352  0.0541  0.6783
 6602SOL    HW231269   2.922   0.291  15.861  2.1835  0.2274 -0.3819
 6603SOL     OW31270   2.975   3.529  14.859  0.0865 -0.5011  0.8187
 6603SOL    HW131271   3.059   3.494  14.831  0.2482  0.1488  0.4861
 6603SOL    HW231272   3.000   3.607  14.908 -0.8245  0.3302 -0.0036
 6604SOL     OW31273   2.166   4.479   4.184  0.4391 -0.4527  0.3232
 6604SOL    HW131274   2.254   4.442   4.195  0.8084  0.0697 -0.8380
 6604SOL    HW231275   2.125   4.394   4.200  0.4224 -0.2549  1.2917
 6605SOL     OW31276   2.152   3.364   5.694  0.4434 -0.1178  0.2823
 6605SOL    HW131277   2.182   3.449   5.728  1.5529 -1.3192  2.2722
 6605SOL    HW231278   2.089   3.408   5.637  0.6703 -1.0298 -0.6573
 6606SOL     OW31279   3.841   3.752   1.753  0.0722  0.5328  0.2191
 6606SOL    HW131280   3.858   3.846   1.746  0.3818  0.4926  0.4085
 6606SOL    HW231281   3.872   3.723   1.839 -1.2915 -0.7681  0.2727
 6607SOL     OW31282   0.699   2.534  13.328 -0.3282  0.0282 -0.3683
 6607SOL    HW131283   0.628   2.595  13.348 -0.6658 -0.7272  0.7658
 6607SOL    HW231284   0.762   2.553  13.397 -0.5534  2.9087 -0.9579
 6608SOL     OW31285   3.800   1.502   5.930  0.4587 -0.2870 -0.5771
 6608SOL    HW131286   3.787   1.519   5.836 -0.6684  0.8079 -0.2180
 6608SOL    HW231287   3.865   1.432   5.924 -0.8863 -1.6719  1.2039
 6609SOL     OW31288   1.744   0.685   5.151  0.2867  0.2241 -0.2226
 6609SOL    HW131289   1.819   0.701   5.209  1.2729  0.5545 -1.5946
 6609SOL    HW231290   1.673   0.720   5.205  1.2025  2.3821 -0.4229
 6610SOL     OW31291   4.109   3.500   9.088 -0.0491 -0.4033 -0.1467
 6610SOL    HW131292   4.178   3.470   9.029  0.9329 -1.6476  1.6400
 6610SOL    HW231293   4.140   3.587   9.110  1.3772 -1.1098  0.6362
 6611SOL     OW31294   3.174   0.188  12.483  0.3535 -0.0576 -0.0678
 6611SOL    HW131295   3.120   0.111  12.498  0.1933  0.0749  0.0317
 6611SOL    HW231296   3.192   0.231  12.566 -1.1557 -0.5312  0.5044
 6612SOL     OW31297   3.344   2.873   6.076  0.7416  0.0827 -0.1754
 6612SOL    HW131298   3.337   2.958   6.118  2.1868  0.8005 -1.4186
 6612SOL    HW231299   3.423   2.890   6.026  1.8915 -1.6767  1.0017
 6613SOL     OW31300   2.098   0.128   0.008 -0.0387  0.0624 -0.0649
 6613SOL    HW131301   2.133   0.216   0.015  2.2847 -0.8210 -0.5089
 6613SOL    HW231302   2.036   0.127  17.637  0.7556  3.6460 -0.7620
 6614SOL     OW31303   3.457   4.134   6.788 -0.3507 -0.2028  0.1018
 6614SOL    HW131304   3.521   4.063   6.797  1.3556  0.9742 -2.8209
 6614SOL    HW231305   3.427   4.137   6.879 -0.5229 -1.6864  0.0990
 6615SOL     OW31306   3.690   0.188  11.847 -0.6565  0.1146  0.4107
 6615SOL    HW131307   3.602   0.165  11.817 -0.5286 -0.0022  0.1271
 6615SOL    HW231308   3.661   0.235  11.925  0.3619 -0.1169  0.9357
 6616SOL     OW31309   1.357   4.030   0.380 -0.6605  0.2900  0.1166
 6616SOL    HW131310   1.445   4.048   0.346 -2.0955  2.8065 -2.1451
 6616SOL    HW231311   1.382   3.948   0.423  0.3818  0.0319 -0.9732
 6617SOL     OW31312   3.507   1.642   6.598  0.0361  0.4150 -0.6178
 6617SOL    HW131313   3.457   1.717   6.630 -0.1483  1.0155 -2.2692
 6617SOL    HW231314   3.493   1.635   6.503  0.5929  1.9300 -0.8249
 6618SOL     OW31315   4.472   1.879   8.314 -0.1750 -0.1215  0.2913
 6618SOL    HW131316   4.520   1.832   8.381 -1.1450 -0.1149  0.9884
 6618SOL    HW231317   4.535   1.867   8.243  0.0007 -1.4101  0.6550
 6619SOL     OW31318   3.950   3.233   6.023  0.0458 -0.6731 -0.0254
 6619SOL    HW131319   3.889   3.234   5.949  0.3753  3.3004 -0.2478
 6619SOL    HW231320   3.903   3.176   6.083 -1.7220  0.3384 -0.4195
 6620SOL     OW31321   4.036   2.183  12.583  0.2030 -0.1853 -0.1632
 6620SOL    HW131322   4.090   2.145  12.652  1.8184  3.0052  0.3319
 6620SOL    HW231323   3.950   2.173  12.623  1.3208 -1.4886  1.9049
 6621SOL     OW31324   2.270   2.135  12.582  0.2097  0.2458  0.5487
 6621SOL    HW131325   2.231   2.061  12.535  0.8412 -0.0032  0.4297
 6621SOL    HW231326   2.191   2.149  12.635 -0.8430 -0.8108 -0.7123
 6622SOL     OW31327   2.160   0.278   2.221 -0.4203 -0.3920 -0.2575
 6622SOL    HW131328   2.170   0.302   2.313 -1.6835  0.6026 -0.3769
 6622SOL    HW231329   2.155   0.361   2.174 -1.6616  0.2923  1.0940
 6623SOL     OW31330   0.544   2.666   6.948  0.6995 -0.1879  0.0436
 6623SOL    HW131331   0.510   2.670   7.038  0.9509  1.8612  0.0590
 6623SOL    HW231332   0.558   2.759   6.930 -0.8884  0.3551  1.5895
 6624SOL     OW31333   2.813   3.848   9.092 -0.3768 -0.2868 -0.3393
 6624SOL    HW131334   2.843   3.934   9.063  0.4517 -0.1112  1.0675
 6624SOL    HW231335   2.719   3.855   9.077 -0.4021  2.4266  0.9830
 6625SOL     OW31336   2.495   0.381   6.089  0.4875 -0.2831 -0.6110
 6625SOL    HW131337   2.586   0.396   6.061  1.1618  1.1376  2.2580
 6625SOL    HW231338   2.499   0.411   6.180 -0.6284  1.0348 -1.0045
 6626SOL     OW31339   3.947   1.049   8.709  0.0701  0.2044 -0.0914
 6626SOL    HW131340   3.870   1.104   8.705  0.8860  1.3575  0.2113
 6626SOL    HW231341   4.000   1.093   8.642  0.4178 -1.0443 -0.6398
 6627SOL     OW31342   0.163   0.561  15.097 -0.4930  0.2200  0.2120
 6627SOL    HW131343   0.100   0.576  15.026 -0.4571  1.1511  0.3737
 6627SOL    HW231344   0.098   0.576  15.165 -1.6304 -2.4537 -0.2887
 6628SOL     OW31345   4.484   1.670  13.204 -0.1966 -0.2240 -0.5069
 6628SOL    HW131346   4.433   1.747  13.229 -0.0341  0.0860 -1.1444
 6628SOL    HW231347   4.565   1.699  13.245 -0.4467 -0.4221  0.1385
 6629SOL     OW31348   0.138   1.276   1.936 -0.7144  0.0952 -0.7483
 6629SOL    HW131349   0.149   1.200   1.992  0.1758  1.8994  1.5283
 6629SOL    HW231350   0.057   1.316   1.967  1.0149  1.9852  1.2747
 6630SOL     OW31351   2.251   3.801   2.764  0.0288 -0.1663 -0.4086
 6630SOL    HW131352   2.275   3.714   2.797 -1.3071  0.2416  1.6292
 6630SOL    HW231353   2.325   3.843   2.720  1.2814 -1.7922  0.1356
 6631SOL     OW31354   1.823   1.694   6.482  0.7913 -0.1170  0.3002
 6631SOL    HW131355   1.758   1.627   6.503 -1.2590  0.7514 -3.3725
 6631SOL    HW231356   1.876   1.690   6.562 -1.0187 -3.0378  1.3469
 6632SOL     OW31357   2.351   1.776   9.332 -0.5631 -0.1233  0.5131
 6632SOL    HW131358   2.381   1.798   9.420 -1.9544  0.9515  0.7216
 6632SOL    HW231359   2.258   1.770   9.356 -0.7950 -0.4696 -0.4952
 6633SOL     OW31360   0.093   0.159   2.260 -0.1755  0.0265  0.3816
 6633SOL    HW131361   0.169   0.206   2.295 -1.0355  0.8241  1.1744
 6633SOL    HW231362   0.137   0.074   2.251 -3.5190 -1.6125 -0.2794
 6634SOL     OW31363   0.492   3.983   4.262  0.3428  0.3376  0.3583
 6634SOL    HW131364   0.582   3.953   4.250  0.5983  1.4564 -0.5076
 6634SOL    HW231365   0.499   4.045   4.334 -0.1038  0.4561  0.2981
 6635SOL     OW31366   3.370   4.381   3.551  0.4663 -0.1830 -0.0277
 6635SOL    HW131367   3.419   4.392   3.470 -1.1173  3.5305 -0.4882
 6635SOL    HW231368   3.428   4.344   3.617  0.1530 -1.7140 -0.6192
 6636SOL     OW31369   1.256   1.387   3.416 -0.0384 -0.4402  0.7398
 6636SOL    HW131370   1.228   1.470   3.456 -1.3522 -0.2738 -0.5306
 6636SOL    HW231371   1.269   1.328   3.491 -1.5750  0.4578  1.7278
 6637SOL     OW31372   0.653   0.683  10.066  0.9670 -0.2698 -0.7745
 6637SOL    HW131373   0.584   0.741  10.099  1.6440  0.6532 -0.9624
 6637SOL    HW231374   0.672   0.736   9.988 -1.5631 -1.2348 -2.0364
 6638SOL     OW31375   2.948   3.251   4.875 -0.2744 -0.2877  0.6537
 6638SOL    HW131376   2.877   3.256   4.940  1.3182  0.3701  2.3643
 6638SOL    HW231377   2.959   3.157   4.860  5.1985  0.6448 -1.2381
 6639SOL     OW31378   0.228   3.490   7.488 -0.7041  0.1271  0.2219
 6639SOL    HW131379   0.190   3.405   7.464  1.3167 -0.6775 -0.0865
 6639SOL    HW231380   0.313   3.488   7.446 -0.6895  1.0614  0.1998
 6640SOL     OW31381   0.633   3.504  11.863 -0.1049 -0.2536  0.7559
 6640SOL    HW131382   0.584   3.536  11.939 -0.9663 -0.7130  0.4086
 6640SOL    HW231383   0.560   3.483  11.805  0.1940  1.4961 -0.2245
 6641SOL     OW31384   0.818   2.206   7.338  0.6141 -0.0327 -0.1142
 6641SOL    HW131385   0.872   2.279   7.367  0.5116 -0.8739  2.2284
 6641SOL    HW231386   0.831   2.138   7.405  0.7994 -0.5148 -0.6460
 6642SOL     OW31387   1.069   0.929   2.172 -0.1836 -0.0516  0.1221
 6642SOL    HW131388   1.049   0.870   2.099 -1.5211  0.9080 -0.2801
 6642SOL    HW231389   1.094   1.010   2.130 -0.3577  0.9592  1.9633
 6643SOL     OW31390   4.282   0.439   7.570  0.2271  0.0681  0.0510
 6643SOL    HW131391   4.279   0.344   7.575 -1.7374  0.1737  0.7528
 6643SOL    HW231392   4.366   0.443   7.616  0.4095 -0.5648 -0.2298
 6644SOL     OW31393   0.660   0.191   4.003 -0.4919  0.2788  0.4501
 6644SOL    HW131394   0.637   0.103   4.034  2.4620  0.0880  2.0619
 6644SOL    HW231395   0.585   0.228   3.957 -0.0087  0.6146 -0.0721
 6645SOL     OW31396   3.857   3.175  11.999 -0.1227  0.9785  0.3075
 6645SOL    HW131397   3.947   3.162  12.029 -1.0428 -0.9112  2.2498
 6645SOL    HW231398   3.807   3.096  12.020  0.2158  1.2421  2.0274
 6646SOL     OW31399   3.497   3.659   5.392 -0.6520  0.2151  0.3084
 6646SOL    HW131400   3.591   3.673   5.389 -0.6396  0.0051 -0.1443
 6646SOL    HW231401   3.462   3.713   5.321 -2.8369  0.1530  1.3129
 6647SOL     OW31402   4.690   4.603  16.655 -0.1633  0.1810 -0.1042
 6647SOL    HW131403   4.693   4.536  16.722  0.3249 -0.1544 -0.4594
 6647SOL    HW231404   4.694   4.679  16.713  0.8267 -0.1024  0.1883
 6648SOL     OW31405   2.261   1.788   8.591 -0.6207  0.1274 -0.4754
 6648SOL    HW131406   2.198   1.812   8.658 -1.3914 -0.9819 -0.8063
 6648SOL    HW231407   2.292   1.703   8.624 -0.1402  0.7717  0.7096
 6649SOL     OW31408   3.120   3.902  11.377 -0.0469  0.0569 -0.0279
 6649SOL    HW131409   3.109   3.992  11.409  1.1715 -0.3253  1.4819
 6649SOL    HW231410   3.153   3.917  11.289 -0.8387 -0.2168 -0.3714
 6650SOL     OW31411   2.479   2.558   4.455  0.2179  0.3620  0.2150
 6650SOL    HW131412   2.489   2.590   4.366 -1.2475  2.7103  0.8904
 6650SOL    HW231413   2.572   2.541   4.472  0.5665  0.0201 -2.1087
 6651SOL     OW31414   1.799   2.141   2.580  0.1628  0.6974 -0.1561
 6651SOL    HW131415   1.766   2.079   2.645 -0.7840  0.2342 -1.0854
 6651SOL    HW231416   1.733   2.146   2.511  1.0624 -0.2794 -1.1067
 6652SOL     OW31417   1.441   3.033   5.300  0.5959  0.2204  0.2600
 6652SOL    HW131418   1.373   3.014   5.235  2.5551  1.9770 -2.3496
 6652SOL    HW231419   1.447   3.128   5.290  0.0341 -0.0515 -2.6790
 6653SOL     OW31420   1.855   0.694   9.336  0.8478  0.4520 -0.6726
 6653SOL    HW131421   1.857   0.603   9.364  0.6886  0.9519  0.9576
 6653SOL    HW231422   1.831   0.680   9.244 -1.4133 -1.4491  0.2034
 6654SOL     OW31423   2.324   4.658  15.861 -0.1297 -0.2344  0.1355
 6654SOL    HW131424   2.409   4.615  15.848  0.7128  1.9913 -1.6365
 6654SOL    HW231425   2.293   4.648  15.771 -0.8994  1.1824  0.2506
 6655SOL     OW31426   3.937   2.248  15.408 -1.2360 -0.0643 -0.6329
 6655SOL    HW131427   3.994   2.174  15.390 -0.5662  0.1879  0.4628
 6655SOL    HW231428   3.993   2.318  15.442 -0.3055 -1.8984  1.5756
 6656SOL     OW31429   3.283   4.152   6.115  0.1727 -0.3030 -0.4212
 6656SOL    HW131430   3.216   4.195   6.061 -0.2703  0.1099  0.4464
 6656SOL    HW231431   3.352   4.125   6.055  1.4277  0.5568  0.6304
 6657SOL     OW31432   1.766   4.574  14.223 -0.3371  0.2679  0.4640
 6657SOL    HW131433   1.692   4.622  14.186 -0.1238 -1.1678 -1.8196
 6657SOL    HW231434   1.805   4.644  14.275  1.2259  0.8076 -1.4352
 6658SOL     OW31435   2.602   0.239  12.143  0.5133 -0.4196  0.2230
 6658SOL    HW131436   2.591   0.149  12.173 -0.2480 -0.5788 -0.5259
 6658SOL    HW231437   2.530   0.253  12.081  1.2795 -3.4483 -1.3652
 6659SOL     OW31438   0.367   0.430   1.872  0.1624  0.3989  0.2695
 6659SOL    HW131439   0.446   0.476   1.845  0.1368 -0.8537 -1.9057
 6659SOL    HW231440   0.305   0.461   1.805  1.1778  2.2575  0.1873
 6660SOL     OW31441   1.481   3.339   5.354  0.4746  0.2148  0.0382
 6660SOL    HW131442   1.561   3.380   5.321  0.1040 -0.3853 -1.6125
 6660SOL    HW231443   1.476   3.376   5.442 -1.9083  2.1388 -0.8848
 6661SOL     OW31444   2.752   2.498   8.759 -0.9971  0.4591  0.4537
 6661SOL    HW131445   2.817   2.460   8.818  0.1961  1.5675 -0.1347
 6661SOL    HW231446   2.789   2.495   8.671  1.5774  0.1066  1.5455
 6662SOL     OW31447   2.299   2.353   6.749  0.6927 -0.3312 -0.3841
 6662SOL    HW131448   2.220   2.301   6.761  0.7176 -0.0894  0.8553
 6662SOL    HW231449   2.277   2.433   6.796  2.0019 -0.1517 -0.0721
 6663SOL     OW31450   4.441   3.199  16.160 -0.1872  0.1114  0.0946
 6663SOL    HW131451   4.374   3.151  16.208  1.4255 -1.6242  0.6277
 6663SOL    HW231452   4.478   3.264  16.219 -1.6389 -0.4731  1.6460
 6664SOL     OW31453   4.162   1.641   3.123  0.1610 -0.3111 -0.2167
 6664SOL    HW131454   4.154   1.578   3.195  2.1206  1.6411  1.6788
 6664SOL    HW231455   4.255   1.661   3.119 -0.0143  0.8227  1.4728
 6665SOL     OW31456   1.526   3.113   9.165 -0.1680  0.2307  0.1357
 6665SOL    HW131457   1.578   3.133   9.087  1.0718 -0.8694  0.6717
 6665SOL    HW231458   1.587   3.139   9.234 -0.4754 -1.6435  1.1197
 6666SOL     OW31459   2.365   3.020  10.095  0.4146 -0.1331 -0.2122
 6666SOL    HW131460   2.355   3.004  10.189 -1.5825  1.5615 -0.1326
 6666SOL    HW231461   2.398   3.109  10.092  1.1298 -0.3227  1.9692
 6667SOL     OW31462   3.348   3.641   6.511 -0.3808 -0.5625 -0.6128
 6667SOL    HW131463   3.289   3.677   6.445 -0.4409 -0.0843 -0.2932
 6667SOL    HW231464   3.420   3.704   6.508  0.1830 -1.1959 -0.5016
 6668SOL     OW31465   4.050   2.053   4.925  0.1383 -0.3172  0.1889
 6668SOL    HW131466   4.105   1.998   4.870 -1.0631 -0.7787 -0.5398
 6668SOL    HW231467   4.015   1.980   4.976  0.2425 -0.1000  0.5777
 6669SOL     OW31468   0.053   4.432   3.708  0.0437  0.2152  1.0508
 6669SOL    HW131469   4.699   4.381   3.724 -0.3461  0.6847  0.5856
 6669SOL    HW231470   0.028   4.504   3.651  1.7308 -0.3055 -0.3720
 6670SOL     OW31471   0.589   3.798   6.305 -0.0421 -0.3239 -0.0899
 6670SOL    HW131472   0.650   3.870   6.288 -1.5222  0.9422  0.0150
 6670SOL    HW231473   0.526   3.816   6.235  1.1046  1.0939 -0.7514
 6671SOL     OW31474   2.824   3.602   8.476 -0.1316 -0.6566 -0.3744
 6671SOL    HW131475   2.912   3.593   8.513  0.7637 -2.8451 -3.0924
 6671SOL    HW231476   2.832   3.652   8.395 -2.2484  0.5802  0.1652
 6672SOL     OW31477   4.244   3.912  16.559  0.4811  0.5860 -0.2182
 6672SOL    HW131478   4.326   3.961  16.556  0.0754  1.2874  0.0621
 6672SOL    HW231479   4.174   3.978  16.561 -0.3854 -0.3711  1.2499
 6673SOL     OW31480   2.425   1.011   6.397  0.0538 -0.1446  0.6216
 6673SOL    HW131481   2.371   1.004   6.318  0.0866  0.1192  0.5760
 6673SOL    HW231482   2.373   1.065   6.456  0.0691  0.8811 -0.2970
 6674SOL     OW31483   2.993   1.378   6.071  0.2236 -0.1595  0.0009
 6674SOL    HW131484   2.988   1.415   5.983  0.5337 -1.5940 -0.6222
 6674SOL    HW231485   3.055   1.305   6.069  0.1051 -0.2259 -1.8506
 6675SOL     OW31486   0.250   4.664   1.388  0.1489  0.3250  0.3197
 6675SOL    HW131487   0.165   4.661   1.432 -0.0007 -0.5752 -0.0202
 6675SOL    HW231488   0.296   4.692   1.467 -1.5307  1.1996  0.9952
 6676SOL     OW31489   4.312   1.666   0.017  0.3919  0.6708 -0.5193
 6676SOL    HW131490   4.367   1.727  17.670  1.6543  1.0814  1.3654
 6676SOL    HW231491   4.264   1.625  17.647 -0.7736  3.8803 -1.5840
 6677SOL     OW31492   4.619   2.416   7.838 -0.3283  0.0319  0.3684
 6677SOL    HW131493   4.695   2.361   7.854  0.2990  0.4841 -1.1047
 6677SOL    HW231494   4.590   2.455   7.921 -1.8243 -0.7862  0.2293
 6678SOL     OW31495   4.360   2.455   7.433  0.0504 -0.1528 -0.0137
 6678SOL    HW131496   4.351   2.545   7.403 -0.5634 -0.8716 -1.9815
 6678SOL    HW231497   4.434   2.462   7.494  0.0869 -3.2579  0.2881
 6679SOL     OW31498   4.335   4.221   6.182 -0.2783  0.0265  0.1843
 6679SOL    HW131499   4.403   4.155   6.164 -0.5441 -0.1156 -0.2979
 6679SOL    HW231500   4.261   4.163   6.164 -1.0626  0.2442  2.7550
 6680SOL     OW31501   2.320   2.366   8.139  0.1590 -0.1852 -0.3717
 6680SOL    HW131502   2.408   2.383   8.107  0.4190 -0.5832  0.1316
 6680SOL    HW231503   2.347   2.290   8.190 -1.3305 -1.7877 -1.9542
 6681SOL     OW31504   4.235   4.079  15.394  0.5558  0.1046  0.4268
 6681SOL    HW131505   4.253   4.160  15.346  1.0892  1.0061  2.1428
 6681SOL    HW231506   4.149   4.109  15.424  1.5179  0.6808  2.6235
 6682SOL     OW31507   0.416   1.601   7.736  0.0137  0.5066  0.5462
 6682SOL    HW131508   0.417   1.512   7.701  1.8070  1.6679 -2.3709
 6682SOL    HW231509   0.402   1.649   7.655  1.1207  0.5408  0.3797
 6683SOL     OW31510   3.761   2.278   5.305 -0.2304 -0.4509 -0.5637
 6683SOL    HW131511   3.791   2.260   5.216  2.0663  2.1644 -0.3589
 6683SOL    HW231512   3.807   2.359   5.329 -1.2411 -0.0783  0.1017
 6684SOL     OW31513   4.627   0.456   2.665 -0.1309  0.1911  0.4960
 6684SOL    HW131514   4.547   0.413   2.695 -0.4119  0.7669  0.5816
 6684SOL    HW231515   4.683   0.415   2.731  1.1062 -1.6168 -1.7044
 6685SOL     OW31516   0.985   1.750   3.206  0.8255 -0.0896  0.3224
 6685SOL    HW131517   0.945   1.704   3.132 -0.2055  0.3835  0.5729
 6685SOL    HW231518   0.954   1.699   3.280 -0.9696 -0.7944 -0.8985
 6686SOL     OW31519   2.688   0.155   9.177 -0.4432  0.7050 -0.2920
 6686SOL    HW131520   2.719   0.074   9.138  1.8685  0.8742  1.1745
 6686SOL    HW231521   2.764   0.180   9.230  0.3849 -2.1405 -0.1582
 6687SOL     OW31522   0.892   1.997   3.611  0.1819 -0.6031 -0.8126
 6687SOL    HW131523   0.809   2.028   3.575  0.5344 -1.4773 -2.3815
 6687SOL    HW231524   0.953   2.006   3.538  0.1357  0.0272 -0.7798
 6688SOL     OW31525   0.691   3.309   8.722 -0.0615 -0.1642  0.6620
 6688SOL    HW131526   0.728   3.264   8.797  0.7618 -1.1895 -0.3458
 6688SOL    HW231527   0.614   3.354   8.756 -0.0160  0.2529  0.2100
 6689SOL     OW31528   4.228   4.553   3.873 -0.4153  0.5039 -0.0020
 6689SOL    HW131529   4.133   4.550   3.884 -0.4635  1.4483 -0.2373
 6689SOL    HW231530   4.253   4.487   3.938  1.3046  0.6116 -0.5694
 6690SOL     OW31531   0.048   0.949   0.129 -0.0837 -0.1847  0.5952
 6690SOL    HW131532   0.012   0.997   0.055  0.4671 -0.1156  0.3734
 6690SOL    HW231533   0.126   1.000   0.150 -0.5115  0.7309 -0.0373
 6691SOL     OW31534   1.836   1.230   9.504  0.3241 -0.4532 -0.3247
 6691SOL    HW131535   1.890   1.246   9.582  0.2362  1.9732 -0.7693
 6691SOL    HW231536   1.806   1.139   9.510  1.2357 -0.7183  0.3323
 6692SOL     OW31537   4.301   0.968   3.898  0.4139  0.2066  1.0335
 6692SOL    HW131538   4.245   1.001   3.968  1.2640  1.0818  1.3012
 6692SOL    HW231539   4.356   0.909   3.949 -0.9665  0.1018  2.4259
 6693SOL     OW31540   4.450   2.160  16.446  0.1028 -0.1423 -0.3174
 6693SOL    HW131541   4.494   2.088  16.401 -0.3023 -0.6433  0.0845
 6693SOL    HW231542   4.502   2.165  16.527 -0.0306 -1.0464 -0.1702
 6694SOL     OW31543   2.778   1.216  13.195 -0.3179  0.0670  0.7926
 6694SOL    HW131544   2.758   1.153  13.265 -1.5578  0.8439  1.1254
 6694SOL    HW231545   2.862   1.254  13.220  0.1456 -0.1184 -0.4957
 6695SOL     OW31546   2.068   1.856   0.312  0.0062 -0.1030 -0.0521
 6695SOL    HW131547   2.059   1.910   0.391 -1.2349 -0.0892 -0.1885
 6695SOL    HW231548   1.980   1.856   0.274  0.9354 -1.5126 -2.1770
 6696SOL     OW31549   3.577   2.861   2.639  0.4084 -0.0421  0.1173
 6696SOL    HW131550   3.603   2.813   2.561 -1.3227 -1.0392  0.1360
 6696SOL    HW231551   3.566   2.790   2.702 -0.9958  0.5363  0.5321
 6697SOL     OW31552   4.041   4.415   7.568  0.1991  0.1300  0.8249
 6697SOL    HW131553   4.081   4.361   7.500 -1.8079  3.5348 -3.1177
 6697SOL    HW231554   4.059   4.378   7.654  0.8144  0.2963  0.7695
 6698SOL     OW31555   2.024   1.272  13.023  0.7123  0.0869 -0.2921
 6698SOL    HW131556   2.072   1.208  13.076  1.1541  1.6295  1.2078
 6698SOL    HW231557   2.074   1.351  13.044 -1.5451  1.4617 -0.0146
 6699SOL     OW31558   0.718   1.488   8.452 -0.2808  0.3425 -0.5296
 6699SOL    HW131559   0.795   1.432   8.457 -1.2826 -0.9546  0.3836
 6699SOL    HW231560   0.754   1.575   8.433 -1.3250  0.6750 -1.0377
 6700SOL     OW31561   2.121   4.243   6.655 -0.1087  0.3114  0.2575
 6700SOL    HW131562   2.071   4.315   6.691 -0.8494  0.7936 -1.7263
 6700SOL    HW231563   2.210   4.277   6.641 -1.1941  2.9257 -0.2304
 6701SOL     OW31564   0.408   1.278  12.009  0.0085 -0.3632  0.1960
 6701SOL    HW131565   0.418   1.183  12.000 -1.8871 -0.1952 -3.5872
 6701SOL    HW231566   0.325   1.293  11.963 -1.2773 -3.0195  1.6136
 6702SOL     OW31567   0.815   2.447   6.653 -0.8803 -0.4740 -0.1240
 6702SOL    HW131568   0.848   2.464   6.741 -1.0454 -0.4507 -0.0675
 6702SOL    HW231569   0.898   2.436   6.607 -1.1607  1.0178 -1.0126
 6703SOL     OW31570   1.077   4.025   7.328 -0.0050  0.0190  0.1331
 6703SOL    HW131571   1.036   4.075   7.398  1.0269  2.3328 -0.9362
 6703SOL    HW231572   1.003   3.986   7.281  0.2923 -1.0759  0.5580
 6704SOL     OW31573   1.512   3.829   0.098 -0.2592  0.0153 -0.6267
 6704SOL    HW131574   1.453   3.902   0.080 -0.1542 -0.4912 -2.9556
 6704SOL    HW231575   1.597   3.869   0.077 -0.1938  0.6945  0.9017
 6705SOL     OW31576   0.604   2.377   3.588 -0.1721 -0.0864  0.2220
 6705SOL    HW131577   0.679   2.382   3.647  0.2353  1.2298 -0.4164
 6705SOL    HW231578   0.566   2.299   3.629  2.0230 -0.5243  1.4082
 6706SOL     OW31579   2.435   3.352  15.089 -0.6029  0.5318 -0.0321
 6706SOL    HW131580   2.408   3.313  15.172  0.2224  2.4303  1.1429
 6706SOL    HW231581   2.461   3.441  15.112 -0.0410  0.5810 -0.8553
 6707SOL     OW31582   1.911   2.853   6.454  0.0733 -0.3507 -0.0060
 6707SOL    HW131583   1.948   2.768   6.434  0.7369 -0.4271  1.5375
 6707SOL    HW231584   1.973   2.914   6.414  0.8377 -1.1133  0.0119
 6708SOL     OW31585   3.183   1.381   2.582  0.5093 -0.4108  0.4776
 6708SOL    HW131586   3.157   1.397   2.673  0.0452 -3.0428  0.8174
 6708SOL    HW231587   3.185   1.285   2.582 -0.7581 -0.4348  0.2274
 6709SOL     OW31588   1.432   0.411   8.027 -0.4605  0.4413 -0.0426
 6709SOL    HW131589   1.526   0.417   8.048 -0.1709  0.9470 -1.5339
 6709SOL    HW231590   1.434   0.356   7.949  0.2181 -0.5501  0.6739
 6710SOL     OW31591   4.703   4.396   6.067  0.0444  0.7994  0.2078
 6710SOL    HW131592   0.003   4.309   6.097  2.3014  0.5915 -2.2935
 6710SOL    HW231593   0.039   4.453   6.113  0.4544  0.2617  0.3243
 6711SOL     OW31594   1.937   4.102  10.456  0.0039  0.4696 -0.1488
 6711SOL    HW131595   1.981   4.187  10.469  0.8997  0.2614 -1.8070
 6711SOL    HW231596   1.994   4.067  10.388  0.8451 -0.0438  0.8181
 6712SOL     OW31597   3.655   2.396  16.993  0.3250 -0.2964  0.5922
 6712SOL    HW131598   3.581   2.415  17.051 -0.1955 -0.7812  0.0880
 6712SOL    HW231599   3.629   2.317  16.945  0.3440  0.8364 -1.2513
 6713SOL     OW31600   3.140   4.495   2.689  0.2777  0.2959 -0.8074
 6713SOL    HW131601   3.107   4.411   2.658  0.2638 -0.5807  1.5359
 6713SOL    HW231602   3.064   4.553   2.689  1.2274  1.5568  1.6364
 6714SOL     OW31603   4.122   3.860  10.044  0.1660  0.3958  0.0263
 6714SOL    HW131604   4.154   3.771  10.029  0.6417  0.4082  0.9334
 6714SOL    HW231605   4.180   3.910   9.986 -0.3764 -1.6281 -2.2706
 6715SOL     OW31606   1.485   1.614   2.806 -0.0402  0.6008  0.5313
 6715SOL    HW131607   1.547   1.607   2.734  1.0303  1.6447  1.3492
 6715SOL    HW231608   1.492   1.705   2.835  1.9652  0.6659 -0.1434
 6716SOL     OW31609   0.258   3.133   8.004 -0.7569  0.0688 -0.6715
 6716SOL    HW131610   0.203   3.175   8.070  0.6178  1.1047 -0.1921
 6716SOL    HW231611   0.342   3.128   8.049 -1.0964  1.8639  0.1745
 6717SOL     OW31612   0.057   3.093   3.440 -0.0692 -0.0410  0.3436
 6717SOL    HW131613   0.121   3.156   3.407  0.4250 -1.6936 -1.8082
 6717SOL    HW231614   4.701   3.139   3.459  1.3156  1.4946  2.5822
 6718SOL     OW31615   4.461   0.918   6.886  0.2213  0.1203  0.1094
 6718SOL    HW131616   4.384   0.870   6.917 -1.1981  1.2474 -1.7262
 6718SOL    HW231617   4.429   0.940   6.799  0.1811 -0.6010 -0.0646
 6719SOL     OW31618   3.113   3.546   8.998 -0.2762 -0.0382  0.0181
 6719SOL    HW131619   3.024   3.546   8.963 -0.7776  2.5556  1.3128
 6719SOL    HW231620   3.155   3.597   8.929 -1.9052  1.0596 -0.1804
 6720SOL     OW31621   1.352   0.334   8.481 -0.5981 -0.1481  0.0473
 6720SOL    HW131622   1.329   0.376   8.398 -0.5353  0.6836  0.4457
 6720SOL    HW231623   1.433   0.377   8.510  0.1301  0.7557 -3.2801
 6721SOL     OW31624   1.215   1.269  11.149  0.1088  0.2405  0.3324
 6721SOL    HW131625   1.241   1.313  11.230 -1.9324  2.1925 -0.0842
 6721SOL    HW231626   1.167   1.195  11.189  1.6593 -0.0295  1.7033
 6722SOL     OW31627   2.301   0.218   8.659 -0.4386 -0.2485 -0.0724
 6722SOL    HW131628   2.274   0.131   8.631  1.7691 -1.0736  0.3901
 6722SOL    HW231629   2.396   0.210   8.663 -0.3009  1.6814  0.7215
 6723SOL     OW31630   3.770   2.245   2.128 -0.4086  0.9536  0.0768
 6723SOL    HW131631   3.816   2.175   2.175  0.6490 -0.1004 -2.5125
 6723SOL    HW231632   3.737   2.192   2.055 -0.8641  1.9308 -0.4221
 6724SOL     OW31633   0.726   4.531   7.503  0.1542 -0.0159  0.2304
 6724SOL    HW131634   0.657   4.596   7.495  1.5512  1.2680 -1.1866
 6724SOL    HW231635   0.694   4.472   7.572 -0.6339 -0.8590 -0.8653
 6725SOL     OW31636   4.103   3.168   7.963 -0.1576 -0.0429  0.4527
 6725SOL    HW131637   4.112   3.134   8.052 -0.1291 -1.4913 -0.1043
 6725SOL    HW231638   4.161   3.112   7.912 -2.0863 -2.5956  1.1036
 6726SOL     OW31639   1.027   3.512   0.698  0.4507  0.0183  0.1561
 6726SOL    HW131640   0.959   3.516   0.765 -0.0408 -3.0271 -0.1854
 6726SOL    HW231641   1.021   3.421   0.669  1.4761  1.1421 -3.5693
 6727SOL     OW31642   3.708   3.330  11.866 -0.7903  0.1542  0.4723
 6727SOL    HW131643   3.759   3.291  11.937  2.2130  0.9068 -1.2562
 6727SOL    HW231644   3.773   3.371  11.810 -0.6691 -2.5457 -1.3661
 6728SOL     OW31645   4.109   3.583  14.641  0.0686 -0.1095 -0.8204
 6728SOL    HW131646   4.060   3.622  14.569 -0.9473 -0.4000 -0.2872
 6728SOL    HW231647   4.052   3.612  14.713  4.9078 -1.5402  3.6195
 6729SOL     OW31648   1.755   1.903   8.097  0.2583  0.2598 -0.4052
 6729SOL    HW131649   1.804   1.967   8.148 -0.0022 -1.0036  1.4353
 6729SOL    HW231650   1.772   1.926   8.006  2.1467  0.1780 -0.0643
 6730SOL     OW31651   3.356   1.192   2.966  0.5847  0.0461  0.4137
 6730SOL    HW131652   3.413   1.164   3.038  1.2625 -1.0887 -0.5633
 6730SOL    HW231653   3.403   1.132   2.907 -1.9124 -0.0155 -1.5061
 6731SOL     OW31654   3.661   0.347  10.389  0.0455 -0.2519  0.1612
 6731SOL    HW131655   3.738   0.345  10.332 -1.6807 -0.2959 -2.2034
 6731SOL    HW231656   3.638   0.440  10.384  0.5205 -0.1401  0.0412
 6732SOL     OW31657   3.942   1.661   6.293  1.0811  0.0963 -0.3709
 6732SOL    HW131658   3.918   1.724   6.361 -0.2072  1.0359 -1.6910
 6732SOL    HW231659   3.973   1.594   6.353  0.8945  0.0622 -0.3111
 6733SOL     OW31660   1.074   1.646   2.480  0.4315 -0.4730  0.5004
 6733SOL    HW131661   0.984   1.620   2.458  1.0700 -0.4933 -2.0971
 6733SOL    HW231662   1.075   1.646   2.576 -2.4201  0.9979  0.5465
 6734SOL     OW31663   2.180   0.801  17.133 -0.2900 -0.0456  0.3992
 6734SOL    HW131664   2.169   0.794  17.227 -0.6591 -2.8701  0.1500
 6734SOL    HW231665   2.273   0.778  17.135 -0.1832  0.3336 -0.2858
 6735SOL     OW31666   1.688   4.520   3.340  0.0059  0.1595 -0.2273
 6735SOL    HW131667   1.749   4.526   3.414 -0.5395 -3.1321  0.5001
 6735SOL    HW231668   1.606   4.558   3.371 -0.6481 -1.4658  0.0359
 6736SOL     OW31669   0.794   2.431  16.978 -0.0908  0.2258 -0.4054
 6736SOL    HW131670   0.811   2.414  16.886  2.2089  0.1176  0.0162
 6736SOL    HW231671   0.881   2.450  17.015 -0.7748  1.9891  0.3247
 6737SOL     OW31672   3.304   0.942   4.747  0.2040  0.3225  0.1663
 6737SOL    HW131673   3.234   0.944   4.811 -0.2698  0.0769 -0.3410
 6737SOL    HW231674   3.269   0.998   4.678 -0.2805 -2.0199 -1.5007
 6738SOL     OW31675   1.690   1.239   2.122  0.4960  0.4063  0.1106
 6738SOL    HW131676   1.717   1.308   2.062 -1.2263 -0.7583 -2.0035
 6738SOL    HW231677   1.598   1.262   2.136 -0.5590 -1.9646 -2.9397
 6739SOL     OW31678   2.640   0.406  14.153  0.0658 -0.0143  0.0907
 6739SOL    HW131679   2.652   0.381  14.061 -0.0886 -1.7200  0.5264
 6739SOL    HW231680   2.555   0.367  14.171 -1.0033  2.8986  1.3542
 6740SOL     OW31681   1.129   4.097   9.896 -0.2143  1.1278  0.5237
 6740SOL    HW131682   1.039   4.068   9.912  0.2780  0.7552  2.5254
 6740SOL    HW231683   1.114   4.178   9.847 -1.3742  1.5687  1.6089
 6741SOL     OW31684   2.139   3.477   2.163  0.3316  0.0063 -0.9365
 6741SOL    HW131685   2.161   3.384   2.161 -1.8372 -0.5521  0.7637
 6741SOL    HW231686   2.163   3.485   2.255  1.5629 -0.7699 -1.1950
 6742SOL     OW31687   1.562   1.801   1.056  0.7136 -0.2081 -0.3282
 6742SOL    HW131688   1.605   1.877   1.017  0.7043  0.4751  1.0239
 6742SOL    HW231689   1.515   1.839   1.130 -0.5582 -1.3362 -0.5400
 6743SOL     OW31690   0.997   3.999   9.510  0.1087 -0.4878  0.5650
 6743SOL    HW131691   1.068   3.994   9.574 -0.1360  0.7278  0.9315
 6743SOL    HW231692   0.981   3.908   9.484 -2.0177 -0.3665  1.4468
 6744SOL     OW31693   0.385   2.352   2.949 -0.5751 -0.0169 -0.1358
 6744SOL    HW131694   0.414   2.374   3.037  0.6416 -0.0125 -0.5360
 6744SOL    HW231695   0.292   2.342   2.964 -0.1732  0.1237  2.3800
 6745SOL     OW31696   3.889   2.724  15.718  0.8849 -0.4451 -0.2139
 6745SOL    HW131697   3.834   2.788  15.674  0.5888  1.4777  2.9851
 6745SOL    HW231698   3.879   2.652  15.656  1.4296 -2.4710  2.0745
 6746SOL     OW31699   3.224   3.026   4.343 -0.5321 -0.3006 -0.4856
 6746SOL    HW131700   3.228   3.007   4.249 -1.8865  0.3816 -0.6839
 6746SOL    HW231701   3.132   3.014   4.366 -1.1181  0.1107 -2.6346
 6747SOL     OW31702   1.577   0.340   7.387 -0.1881  0.0119  0.0320
 6747SOL    HW131703   1.610   0.365   7.300  1.0226  1.4421  0.9135
 6747SOL    HW231704   1.624   0.396   7.449 -2.0989  1.3070  0.3140
 6748SOL     OW31705   3.801   3.479   5.437  0.0264 -0.5397  0.3535
 6748SOL    HW131706   3.768   3.569   5.426  1.1892 -0.1197  0.2618
 6748SOL    HW231707   3.720   3.434   5.412 -1.9705  2.4753  1.3713
 6749SOL     OW31708   1.148   2.327   6.251 -0.0137  0.2692 -0.5413
 6749SOL    HW131709   1.170   2.323   6.158  2.8076  1.2150  0.0711
 6749SOL    HW231710   1.190   2.245   6.276  1.0903  0.7718 -0.7190
 6750SOL     OW31711   1.518   2.509   9.718  0.0794 -0.3566  0.1986
 6750SOL    HW131712   1.501   2.491   9.810 -1.1422  0.5502  0.1551
 6750SOL    HW231713   1.429   2.504   9.683  0.7249  0.8698 -1.6454
 6751SOL     OW31714   2.836   2.271   8.176 -0.2518 -0.5857 -0.0832
 6751SOL    HW131715   2.916   2.252   8.224  0.6701 -0.2847 -1.5180
 6751SOL    HW231716   2.865   2.251   8.088 -0.0163 -1.6199  0.2308
 6752SOL     OW31717   2.232   0.856   6.862  0.7158 -0.6436 -0.2857
 6752SOL    HW131718   2.157   0.863   6.920 -0.9553 -2.7895 -2.1874
 6752SOL    HW231719   2.192   0.848   6.775 -1.8176  0.8869  0.7520
 6753SOL     OW31720   2.077   3.385   3.178 -0.2333 -0.1360 -0.2088
 6753SOL    HW131721   2.172   3.386   3.165 -0.4093 -0.7418 -1.5408
 6753SOL    HW231722   2.070   3.322   3.250  0.5376  1.2318  1.0677
 6754SOL     OW31723   1.305   2.382   7.938  0.9833  0.2584 -0.0460
 6754SOL    HW131724   1.348   2.323   7.876 -0.4498 -1.6038  0.7512
 6754SOL    HW231725   1.358   2.461   7.930 -1.2199  1.9778  2.2749
 6755SOL     OW31726   1.581   4.454   9.795 -0.2614  0.1053 -0.1120
 6755SOL    HW131727   1.593   4.372   9.843 -2.2222  0.1974  0.5612
 6755SOL    HW231728   1.647   4.451   9.726  0.3563 -0.2445  0.5020
 6756SOL     OW31729   0.549   3.689   7.977 -0.2023  0.2520  0.2430
 6756SOL    HW131730   0.501   3.654   8.052 -2.5490  2.1867 -0.3803
 6756SOL    HW231731   0.609   3.752   8.017  2.2872 -1.4672 -0.7237
 6757SOL     OW31732   2.031   2.732  15.314  0.1896 -0.1433  0.1528
 6757SOL    HW131733   2.073   2.681  15.384 -1.2930 -0.1817  1.0206
 6757SOL    HW231734   2.078   2.708  15.235 -1.0698 -0.6071 -0.4617
 6758SOL     OW31735   0.662   1.040  15.696 -0.3275 -0.3956  0.2046
 6758SOL    HW131736   0.606   1.118  15.697 -0.8757 -0.7897  0.2128
 6758SOL    HW231737   0.589   0.990  15.659  1.3484 -0.8626 -2.4416
 6759SOL     OW31738   2.960   2.979   4.866 -0.2743 -0.3093 -0.1888
 6759SOL    HW131739   2.885   2.919   4.866 -0.3920 -0.1336  2.7880
 6759SOL    HW231740   3.006   2.946   4.943 -0.1052 -0.7409 -0.4688
 6760SOL     OW31741   3.017   1.069   7.840  0.2958 -0.0239  0.1651
 6760SOL    HW131742   2.989   1.135   7.904 -1.2921 -0.0046 -0.5521
 6760SOL    HW231743   3.106   1.052   7.869 -0.3407 -3.4147  0.1214
 6761SOL     OW31744   0.145   4.287   3.187 -0.0981 -0.3090  0.2725
 6761SOL    HW131745   0.237   4.269   3.169  0.0743  1.3517 -0.4907
 6761SOL    HW231746   0.111   4.286   3.097 -0.1979 -0.9985  0.3167
 6762SOL     OW31747   1.658   1.825   6.639 -0.0800  0.3249  0.5893
 6762SOL    HW131748   1.711   1.800   6.563  2.5540  3.2954  1.4191
 6762SOL    HW231749   1.580   1.861   6.596 -1.7322 -3.9074  0.0393
 6763SOL     OW31750   1.055   4.394   7.574 -0.2415  0.0705 -0.1807
 6763SOL    HW131751   1.055   4.447   7.495 -0.5537  0.4958  0.1019
 6763SOL    HW231752   1.029   4.471   7.625 -2.4065 -1.0135  0.3796
 6764SOL     OW31753   2.167   1.196   5.997  0.5597 -0.3710 -0.0498
 6764SOL    HW131754   2.203   1.278   6.030  0.7661  0.6949 -2.8658
 6764SOL    HW231755   2.232   1.178   5.929 -1.3053  0.9618 -2.2379
 6765SOL     OW31756   3.755   2.094   6.865 -0.0049  0.1412  0.3594
 6765SOL    HW131757   3.812   2.132   6.799 -0.9723  0.5114 -0.2678
 6765SOL    HW231758   3.807   2.014   6.865  1.4098  1.0550 -2.4033
 6766SOL     OW31759   0.343   3.702   1.457  0.2878 -0.8192 -0.1976
 6766SOL    HW131760   0.358   3.608   1.467  1.0037 -0.8144 -1.2696
 6766SOL    HW231761   0.339   3.717   1.362  3.5413 -2.5209 -0.6031
 6767SOL     OW31762   2.517   0.181   8.218 -0.9818  0.2128 -0.1312
 6767SOL    HW131763   2.438   0.183   8.272  0.2136  0.1819  1.6135
 6767SOL    HW231764   2.579   0.235   8.267  0.3257  0.0529 -1.5890
 6768SOL     OW31765   1.834   0.054  10.355 -0.3071 -0.3857 -0.1605
 6768SOL    HW131766   1.897   4.718  10.317  0.6803  0.2353  0.4777
 6768SOL    HW231767   1.861   0.070  10.446  2.3793 -0.2796 -0.9820
 6769SOL     OW31768   1.512   1.894   2.852 -0.3290 -0.3239 -0.2322
 6769SOL    HW131769   1.425   1.933   2.843 -0.2876 -0.9946 -3.5043
 6769SOL    HW231770   1.509   1.866   2.943 -1.4970  1.5989  0.3329
 6770SOL     OW31771   2.182   1.958   6.135 -0.4194  0.4308  0.0159
 6770SOL    HW131772   2.225   1.873   6.136  1.0742  1.1420 -3.0533
 6770SOL    HW231773   2.243   2.015   6.088 -0.8831  0.2210 -0.8400
 6771SOL     OW31774   2.726   2.394  14.625 -0.5890  0.0523 -0.0313
 6771SOL    HW131775   2.815   2.363  14.643  0.4211  1.1470 -3.2005
 6771SOL    HW231776   2.691   2.305  14.616  0.3359 -0.5076  1.8179
 6772SOL     OW31777   2.529   1.660  12.551  0.0743 -0.0695 -0.0390
 6772SOL    HW131778   2.480   1.721  12.497 -3.0716 -1.1838  1.5458
 6772SOL    HW231779   2.486   1.677  12.635  0.0673 -0.8177  0.1130
 6773SOL     OW31780   1.643   0.063   1.434  0.2546 -0.0378 -0.0197
 6773SOL    HW131781   1.694   0.131   1.391  1.3452 -0.6494  0.3093
 6773SOL    HW231782   1.555   0.100   1.422  0.5171  1.0131  1.3810
 6774SOL     OW31783   2.078   0.445  15.056 -0.1052 -1.5292  0.1708
 6774SOL    HW131784   2.059   0.388  15.131 -2.6981  0.8684  1.3549
 6774SOL    HW231785   2.166   0.419  15.028  0.9544  0.5413  1.5540
 6775SOL     OW31786   1.804   4.238   5.248  0.3489  0.0674  0.5720
 6775SOL    HW131787   1.893   4.247   5.213  0.7670  4.2932  2.7193
 6775SOL    HW231788   1.803   4.300   5.321  1.4132 -1.2667  1.7136
 6776SOL     OW31789   1.187   3.883  13.474 -0.7923  0.7124  0.1635
 6776SOL    HW131790   1.139   3.879  13.391 -2.4764  1.0854  1.1198
 6776SOL    HW231791   1.259   3.941  13.453 -0.6844  0.5885  0.1925
 6777SOL     OW31792   2.712   3.587   9.888 -0.2701  0.0705 -0.8581
 6777SOL    HW131793   2.669   3.638   9.956 -0.1723  1.5415 -1.9057
 6777SOL    HW231794   2.789   3.546   9.929 -0.2703  0.0529 -0.8753
 6778SOL     OW31795   0.862   0.874   2.336 -0.3291  0.3948 -0.3822
 6778SOL    HW131796   0.929   0.908   2.276 -0.5713  2.9186  0.7968
 6778SOL    HW231797   0.903   0.887   2.421 -0.3439 -0.6833 -0.2169
 6779SOL     OW31798   2.954   4.070  15.132  0.3323 -0.1437  0.1379
 6779SOL    HW131799   3.012   4.133  15.090  2.3761 -1.7675  0.5123
 6779SOL    HW231800   2.905   4.034  15.058  3.1679 -2.3926 -0.6229
 6780SOL     OW31801   4.646   2.824  10.002 -0.3663 -0.3147  0.2750
 6780SOL    HW131802   4.719   2.822   9.939 -1.8543  0.1998 -1.4765
 6780SOL    HW231803   4.609   2.909   9.978  0.6005  0.5369  1.8386
 6781SOL     OW31804   1.832   4.404   4.379  0.3250 -0.0372 -0.4134
 6781SOL    HW131805   1.910   4.369   4.335 -1.1229 -1.6748 -1.6777
 6781SOL    HW231806   1.873   4.485   4.410 -0.1766  0.2865 -0.5990
 6782SOL     OW31807   0.208   2.513   3.531  0.0541  0.5485 -0.4271
 6782SOL    HW131808   0.176   2.498   3.620 -0.4741  2.0432 -0.3666
 6782SOL    HW231809   0.140   2.459   3.491  0.9881 -0.9833  0.0475
 6783SOL     OW31810   2.129   2.312   2.425 -0.2342 -0.2700 -0.0447
 6783SOL    HW131811   2.106   2.234   2.475  0.4668 -1.1999 -1.1675
 6783SOL    HW231812   2.090   2.383   2.476 -0.2374 -1.0461  1.0211
 6784SOL     OW31813   4.261   0.529  14.774  0.3158  0.1293  0.1413
 6784SOL    HW131814   4.322   0.515  14.847 -0.8326 -2.0678  0.7007
 6784SOL    HW231815   4.219   0.606  14.813 -0.1011  0.2612 -0.5733
 6785SOL     OW31816   0.194   3.450   0.825 -0.0904 -0.1992 -0.6244
 6785SOL    HW131817   0.278   3.492   0.848 -0.6346  0.0584  0.8989
 6785SOL    HW231818   0.156   3.529   0.786 -0.6133 -0.6863 -1.0851
 6786SOL     OW31819   1.575   1.898   4.664 -0.3143 -0.1721  0.5011
 6786SOL    HW131820   1.611   1.979   4.701  0.4030 -0.1149 -0.3521
 6786SOL    HW231821   1.646   1.872   4.606 -0.0378  1.7045  0.0042
 6787SOL     OW31822   4.050   0.028   2.119  0.4166 -0.2972  0.0182
 6787SOL    HW131823   4.012   0.116   2.121  0.8507 -0.0849 -0.5752
 6787SOL    HW231824   4.036   0.003   2.027 -2.8404  0.3957  0.3492
 6788SOL     OW31825   0.387   2.415  13.412  0.3192  0.2591 -0.0253
 6788SOL    HW131826   0.412   2.506  13.422 -1.2599  0.7088 -0.1831
 6788SOL    HW231827   0.404   2.372  13.496 -0.6880  1.8228  0.9646
 6789SOL     OW31828   1.747   4.653   8.928 -0.2926 -0.5533  0.3236
 6789SOL    HW131829   1.695   4.580   8.960 -0.2452 -0.1033  1.4187
 6789SOL    HW231830   1.706   4.641   8.842  0.9880  0.0994 -0.3837
 6790SOL     OW31831   4.251   3.389   9.639 -1.2455 -0.1509  0.1575
 6790SOL    HW131832   4.286   3.301   9.625 -1.8318 -0.4419  0.5369
 6790SOL    HW231833   4.217   3.395   9.728 -0.6708 -1.8801  0.5044
 6791SOL     OW31834   1.777   0.609   5.925  0.3570 -0.1318  0.1019
 6791SOL    HW131835   1.863   0.572   5.905 -0.0076 -0.1286 -1.4540
 6791SOL    HW231836   1.754   0.540   5.988 -0.6719 -2.1580 -2.5227
 6792SOL     OW31837   4.598   2.778   4.265  0.0284  0.7556 -0.6432
 6792SOL    HW131838   4.558   2.849   4.316 -1.1331  1.3004 -2.3020
 6792SOL    HW231839   4.526   2.786   4.202 -2.7176 -0.0119  2.3911
 6793SOL     OW31840   3.465   3.496  11.688 -0.4217  0.5373  0.2278
 6793SOL    HW131841   3.420   3.466  11.609  0.3518  2.0239 -0.7803
 6793SOL    HW231842   3.448   3.422  11.746  0.6223 -0.2020 -0.4011
 6794SOL     OW31843   3.539   4.237  13.556 -0.1804  0.2714  0.6770
 6794SOL    HW131844   3.532   4.321  13.602 -0.7170 -0.1377  1.3507
 6794SOL    HW231845   3.506   4.196  13.637 -1.3024 -0.2072 -0.0241
 6795SOL     OW31846   0.880   0.162   2.654 -0.1753 -0.3831 -0.7648
 6795SOL    HW131847   0.918   0.144   2.739  1.2773  0.1549 -1.2942
 6795SOL    HW231848   0.851   0.253   2.661  2.1941  0.5987 -3.5691
 6796SOL     OW31849   1.764   3.444  13.064  0.2640  0.5135 -0.5756
 6796SOL    HW131850   1.715   3.462  12.984 -0.8060  0.8972  0.1642
 6796SOL    HW231851   1.737   3.353  13.074 -0.2105  0.7031 -0.1723
 6797SOL     OW31852   3.865   0.278   8.347 -0.4651  0.1748  0.0666
 6797SOL    HW131853   3.820   0.320   8.421 -0.0960  0.1259  0.3193
 6797SOL    HW231854   3.915   0.355   8.319  0.1709 -0.3897 -0.3384
 6798SOL     OW31855   1.197   2.159   5.617 -0.1215 -0.5245 -0.7427
 6798SOL    HW131856   1.273   2.196   5.662  0.0671 -0.9094 -0.7470
 6798SOL    HW231857   1.134   2.231   5.625 -3.0065 -3.0808 -0.9204
 6799SOL     OW31858   3.186   3.927   5.518 -0.0526 -0.0439 -0.3103
 6799SOL    HW131859   3.136   3.851   5.489  2.9483 -0.7126 -3.5928
 6799SOL    HW231860   3.169   3.973   5.436  1.2279  3.0950  1.1930
 6800SOL     OW31861   1.824   1.467   7.540 -0.1625 -0.2393 -0.2385
 6800SOL    HW131862   1.819   1.474   7.445 -0.9579 -1.9611 -0.3189
 6800SOL    HW231863   1.916   1.445   7.554  0.0570  0.7609 -0.0614
 6801SOL     OW31864   0.171   2.336  10.725 -0.2486  0.1329 -0.2841
 6801SOL    HW131865   0.124   2.266  10.771 -0.8273 -0.0817 -1.1998
 6801SOL    HW231866   0.248   2.287  10.696 -0.3842 -0.9247  1.1372
 6802SOL     OW31867   0.941   2.791   4.975 -0.0344 -0.0928 -0.2668
 6802SOL    HW131868   0.896   2.751   5.050 -1.1375  0.6281 -0.5482
 6802SOL    HW231869   1.025   2.746   4.982 -0.7075 -1.1855  0.8533
 6803SOL     OW31870   1.694   1.716   4.982 -0.8500  0.1249 -0.0036
 6803SOL    HW131871   1.673   1.809   4.984 -0.2986  0.2413  0.3440
 6803SOL    HW231872   1.782   1.720   4.944 -1.9134  1.4198 -2.3203
 6804SOL     OW31873   2.938   1.507   5.663 -0.0645  0.6023 -0.3780
 6804SOL    HW131874   2.997   1.538   5.593  1.2741  1.2903  1.0630
 6804SOL    HW231875   2.883   1.583   5.678 -0.8078  0.1770 -0.9110
 6805SOL     OW31876   2.677   3.791   4.450 -0.1022  0.1625  0.0667
 6805SOL    HW131877   2.715   3.753   4.371  0.7502 -1.0073  1.0376
 6805SOL    HW231878   2.583   3.793   4.429  0.1163  4.2701 -0.4162
 6806SOL     OW31879   0.611   2.482   2.268  0.2526 -0.8158  0.5734
 6806SOL    HW131880   0.605   2.496   2.173 -2.7250  1.7643  1.1353
 6806SOL    HW231881   0.705   2.476   2.282  0.1052 -0.7881  1.5814
 6807SOL     OW31882   0.221   0.903   6.333 -0.3168  0.4874  0.0923
 6807SOL    HW131883   0.177   0.819   6.345 -0.9220  0.8383  0.3083
 6807SOL    HW231884   0.177   0.935   6.254  0.2724 -0.5997 -0.6801
 6808SOL     OW31885   3.455   1.692   1.712  0.2103 -0.1423  0.2986
 6808SOL    HW131886   3.548   1.705   1.693 -0.3515  0.4920 -2.0724
 6808SOL    HW231887   3.455   1.652   1.799 -0.9502  0.6445  0.6695
 6809SOL     OW31888   4.144   4.466   2.008  0.4730  0.6175  0.3406
 6809SOL    HW131889   4.232   4.497   1.989 -1.1084  3.7596 -1.7906
 6809SOL    HW231890   4.083   4.538   1.991 -2.6911 -1.8430  1.1310
 6810SOL     OW31891   0.870   3.354   3.241  0.0321  0.3528  0.0577
 6810SOL    HW131892   0.941   3.412   3.213 -0.8569 -0.0410 -2.9654
 6810SOL    HW231893   0.915   3.340   3.325  0.9688  1.5857 -0.2439
 6811SOL     OW31894   2.098   3.118   8.445  0.4044 -0.1822 -0.5760
 6811SOL    HW131895   2.020   3.063   8.451 -1.1651  2.1788  0.6281
 6811SOL    HW231896   2.083   3.182   8.514 -1.2855  0.0900 -1.1884
 6812SOL     OW31897   1.699   4.243   4.950 -0.2013 -0.2048 -0.1167
 6812SOL    HW131898   1.695   4.299   5.027 -0.2469 -1.0528  0.4908
 6812SOL    HW231899   1.663   4.306   4.887  1.6641 -0.7578 -1.7388
 6813SOL     OW31900   1.344   0.335   3.847 -0.1887  1.0303  0.1991
 6813SOL    HW131901   1.416   0.299   3.898  1.5761  0.5117 -2.6281
 6813SOL    HW231902   1.374   0.397   3.780  0.7243 -0.5146 -0.8244
 6814SOL     OW31903   2.158   0.873   2.402  0.1776 -0.0294  0.0174
 6814SOL    HW131904   2.165   0.966   2.424 -0.7210 -0.4459  1.9890
 6814SOL    HW231905   2.090   0.882   2.335 -1.5626  0.5803  1.8758
 6815SOL     OW31906   1.230   3.914   2.701  0.0648 -0.5686 -0.4650
 6815SOL    HW131907   1.287   3.854   2.652  1.3796  0.0311  0.3277
 6815SOL    HW231908   1.288   3.990   2.697  0.1957 -0.8122 -2.8548
 6816SOL     OW31909   4.143   2.507   5.659 -0.3971  0.0837  0.2712
 6816SOL    HW131910   4.116   2.445   5.591  1.2029 -0.9801  0.6126
 6816SOL    HW231911   4.225   2.544   5.627  0.7051  0.2641  3.2957
 6817SOL     OW31912   0.060   3.559   2.371 -0.0970 -0.6938 -0.1825
 6817SOL    HW131913   0.049   3.555   2.276 -0.9236 -0.3508 -0.0985
 6817SOL    HW231914   4.719   3.502   2.407  0.6219  0.3079  2.7363
 6818SOL     OW31915   2.015   3.658   8.151  0.8256  0.2291  0.3396
 6818SOL    HW131916   2.092   3.603   8.164  0.3916 -0.1895  1.1109
 6818SOL    HW231917   2.002   3.682   8.242  0.4043  0.0753  0.3192
 6819SOL     OW31918   3.505   3.484   7.423 -0.3504 -0.1678 -0.1012
 6819SOL    HW131919   3.575   3.467   7.485  2.0118  2.7499 -2.0217
 6819SOL    HW231920   3.481   3.391   7.420  0.6748 -0.3422 -2.9557
 6820SOL     OW31921   3.611   1.013   9.159 -0.1119  0.1705  0.3809
 6820SOL    HW131922   3.584   1.105   9.150 -0.0683  0.0413 -1.1110
 6820SOL    HW231923   3.615   1.001   9.253  0.5248  1.6406  0.5465
 6821SOL     OW31924   0.697   2.710   4.420 -0.2593  0.2569  0.0925
 6821SOL    HW131925   0.681   2.719   4.514 -0.6421  0.9260 -0.0388
 6821SOL    HW231926   0.690   2.799   4.387  2.6101  0.1116 -0.9458
 6822SOL     OW31927   4.516   4.485  10.037 -0.3176  0.6323  0.0117
 6822SOL    HW131928   4.517   4.414  10.102  3.9508  0.2721 -0.4654
 6822SOL    HW231929   4.458   4.539  10.091  0.8910  0.3900  1.5493
 6823SOL     OW31930   3.731   0.014   3.126  0.1582 -0.0788 -0.3049
 6823SOL    HW131931   3.746   4.702   3.212 -0.5152 -0.5118 -0.3768
 6823SOL    HW231932   3.677   0.092   3.140  1.2772  1.2309 -3.2441
 6824SOL     OW31933   2.640   0.916   8.248  0.1170 -0.2559 -0.1945
 6824SOL    HW131934   2.677   0.947   8.331 -0.0311 -0.7338  0.0496
 6824SOL    HW231935   2.547   0.908   8.265  0.4281 -1.1301  1.1477
 6825SOL     OW31936   0.507   3.634   3.712  0.3548  0.1516 -0.1611
 6825SOL    HW131937   0.589   3.652   3.666  2.4774 -0.5378  3.3593
 6825SOL    HW231938   0.452   3.688   3.655 -2.9934  0.6767  3.5877
 6826SOL     OW31939   2.297   0.309   8.921  0.4774  0.2201  0.4544
 6826SOL    HW131940   2.298   0.226   8.970 -2.7062  0.7673  1.4813
 6826SOL    HW231941   2.317   0.286   8.831  1.0843  1.6690  0.2264
 6827SOL     OW31942   3.278   1.867   5.849  0.2027  0.2637 -0.3973
 6827SOL    HW131943   3.327   1.838   5.771  1.1923  0.1983  0.2512
 6827SOL    HW231944   3.328   1.831   5.922  1.2032 -0.9760 -1.6880
 6828SOL     OW31945   3.971   2.394   6.419 -0.3381  0.8005  0.5358
 6828SOL    HW131946   4.045   2.337   6.440 -0.1841  0.0773 -2.0171
 6828SOL    HW231947   3.890   2.344   6.431  1.1300 -2.1634 -1.8797
 6829SOL     OW31948   2.413   2.321  14.736  0.6540  0.3326  0.4961
 6829SOL    HW131949   2.374   2.379  14.671 -0.5372  0.2266  1.1109
 6829SOL    HW231950   2.447   2.246  14.686 -2.3864  1.4878 -3.2915
 6830SOL     OW31951   2.671   0.749   2.354 -0.3569  0.2493 -0.1559
 6830SOL    HW131952   2.588   0.759   2.308  0.2448  0.7954 -1.1243
 6830SOL    HW231953   2.638   0.731   2.442 -1.0983  0.2366 -0.4313
 6831SOL     OW31954   4.713   2.387   8.259 -0.6459 -1.0775 -0.0197
 6831SOL    HW131955   4.684   2.301   8.291  1.6178 -2.2914 -1.2427
 6831SOL    HW231956   0.066   2.367   8.208  0.1373 -1.2290  1.2473
 6832SOL     OW31957   2.097   1.768   9.409 -0.3374 -0.0340 -0.7137
 6832SOL    HW131958   2.114   1.709   9.483 -3.2689  1.4148  1.1125
 6832SOL    HW231959   2.016   1.729   9.374  0.5189  0.5260 -3.3241
 6833SOL     OW31960   4.534   2.610  15.639 -1.1155 -0.1702  0.6777
 6833SOL    HW131961   4.559   2.645  15.725  0.3249  0.8072 -0.1447
 6833SOL    HW231962   4.457   2.569  15.679 -0.9383  0.1198  1.3295
 6834SOL     OW31963   1.317   0.940   5.389 -0.3814 -0.1594 -0.0522
 6834SOL    HW131964   1.369   0.921   5.467  0.8797 -0.7240 -1.0252
 6834SOL    HW231965   1.376   0.977   5.324 -3.2233  1.9416 -1.4320
 6835SOL     OW31966   0.606   0.265   0.818  0.6381 -1.0287 -0.5157
 6835SOL    HW131967   0.599   0.233   0.908 -0.6955 -0.1627 -0.3040
 6835SOL    HW231968   0.544   0.338   0.816  1.6243 -0.2070 -1.4530
 6836SOL     OW31969   2.580   0.941  13.203  0.6128  0.0905  0.2286
 6836SOL    HW131970   2.614   1.003  13.138  3.0093 -0.5873  0.8121
 6836SOL    HW231971   2.664   0.899  13.221  0.0026 -1.7558 -1.2658
 6837SOL     OW31972   4.616   1.246   8.461 -0.3456  0.2405  0.6652
 6837SOL    HW131973   4.621   1.193   8.540 -1.5843  0.6077  0.9876
 6837SOL    HW231974   4.706   1.278   8.460  0.4425 -2.1400 -2.0391
 6838SOL     OW31975   3.896   3.996   1.199  0.2168 -0.0059  0.3008
 6838SOL    HW131976   3.932   3.980   1.112  0.6183 -0.2643  0.5149
 6838SOL    HW231977   3.955   4.058   1.242 -0.1491  0.3190  0.3315
 6839SOL     OW31978   0.107   2.839   5.283 -0.0117  0.0887 -0.1187
 6839SOL    HW131979   0.075   2.849   5.194 -0.9239  2.3947  0.4535
 6839SOL    HW231980   0.167   2.913   5.287  0.4957 -0.3582  0.5341
 6840SOL     OW31981   3.258   3.149   2.732 -0.3728  0.8192  0.3440
 6840SOL    HW131982   3.303   3.112   2.656 -1.6143  0.4069 -0.1935
 6840SOL    HW231983   3.182   3.173   2.679  0.6796  0.2864 -1.4183
 6841SOL     OW31984   2.123   3.143   0.914  0.5200 -0.5527  0.2283
 6841SOL    HW131985   2.099   3.167   1.003  0.4170  0.0064  0.0455
 6841SOL    HW231986   2.047   3.169   0.862  0.8292  0.1442  0.1240
 6842SOL     OW31987   0.121   2.466   3.783  0.0478  0.0985 -0.5092
 6842SOL    HW131988   0.164   2.438   3.863 -0.2090  1.1672  0.0004
 6842SOL    HW231989   0.077   2.548   3.804 -0.0521  0.1290 -0.8306
 6843SOL     OW31990   3.764   2.222   1.473 -0.6238 -0.1862 -0.0031
 6843SOL    HW131991   3.792   2.306   1.511  1.0871 -2.5123  3.8938
 6843SOL    HW231992   3.756   2.250   1.382  2.6581  0.7675 -0.0315
 6844SOL     OW31993   3.531   2.504  13.047 -0.5034 -0.2606  0.4875
 6844SOL    HW131994   3.571   2.541  12.968  0.0611 -2.2578 -0.1560
 6844SOL    HW231995   3.584   2.424  13.049 -0.2910 -0.0892  1.5533
 6845SOL     OW31996   1.315   2.765   4.558 -0.0190  0.1775  0.3629
 6845SOL    HW131997   1.286   2.688   4.508  0.1810  0.5227 -0.2863
 6845SOL    HW231998   1.311   2.831   4.489 -0.7604  1.3694  1.5388
 6846SOL     OW31999   0.261   2.830   2.730 -0.8429 -0.0344 -0.3823
 6846SOL    HW132000   0.337   2.880   2.759 -1.3816  1.4792 -1.5887
 6846SOL    HW232001   0.188   2.882   2.764 -0.2884  1.0631 -0.8799
 6847SOL     OW32002   0.314   4.523   3.900 -0.4224 -0.3085 -0.2182
 6847SOL    HW132003   0.260   4.512   3.978 -1.6154 -1.5550 -1.2319
 6847SOL    HW232004   0.274   4.449   3.854  1.6020 -0.0800 -2.3918
 6848SOL     OW32005   2.940   2.661   3.487 -0.2526  0.4814 -0.2813
 6848SOL    HW132006   2.977   2.617   3.410 -0.1907 -0.7938  0.4780
 6848SOL    HW232007   2.845   2.653   3.480 -0.1986 -1.1401  0.8962
 6849SOL     OW32008   0.098   3.768   1.603 -0.3385  0.2501  0.2390
 6849SOL    HW132009   0.087   3.862   1.586 -3.2106 -0.1786 -0.3451
 6849SOL    HW232010   0.163   3.736   1.541 -1.8237 -1.7151 -0.2889
 6850SOL     OW32011   1.955   1.144   8.942  0.2294  0.1326 -0.3392
 6850SOL    HW132012   2.001   1.218   8.981  1.3589 -0.3939 -0.6985
 6850SOL    HW232013   1.975   1.149   8.848 -3.4309  0.2847 -1.1447
 6851SOL     OW32014   4.705   0.887   5.858 -0.2038 -0.3969 -0.3165
 6851SOL    HW132015   0.005   0.928   5.775  2.8637 -3.4162 -0.9173
 6851SOL    HW232016   4.610   0.892   5.853 -0.1889 -0.4939 -0.7754
 6852SOL     OW32017   1.756   2.478  10.370  0.4388  0.1967 -0.3130
 6852SOL    HW132018   1.729   2.431  10.291 -2.5242  0.6831  0.3986
 6852SOL    HW232019   1.831   2.521  10.328  1.2838 -1.2537 -0.2496
 6853SOL     OW32020   2.596   2.507   6.935  0.1398 -0.8481 -0.3735
 6853SOL    HW132021   2.651   2.584   6.951  2.6244 -2.4584 -1.1635
 6853SOL    HW232022   2.560   2.497   7.023 -0.9011  0.2632 -0.6674
 6854SOL     OW32023   1.985   3.730   2.893  0.5166  0.0360  0.2461
 6854SOL    HW132024   1.959   3.677   2.818 -0.5242  0.6234  0.2041
 6854SOL    HW232025   2.058   3.777   2.853 -0.0145 -0.8439 -1.7324
 6855SOL     OW32026   0.547   1.774   2.760 -0.8014  0.2036  0.1705
 6855SOL    HW132027   0.485   1.840   2.793 -1.6321 -0.8058  0.6227
 6855SOL    HW232028   0.517   1.772   2.670 -3.4778 -1.9678  1.1136
 6856SOL     OW32029   0.084   3.443   1.129 -0.1295  0.0991 -0.2912
 6856SOL    HW132030   0.003   3.480   1.094  0.9985  1.7615 -1.1216
 6856SOL    HW232031   0.063   3.353   1.106  2.4278 -0.4159 -0.5985
 6857SOL     OW32032   0.017   1.786   5.775  0.2987 -0.1522 -0.2191
 6857SOL    HW132033   0.044   1.724   5.843  3.4672  0.4662 -0.9335
 6857SOL    HW232034   0.039   1.868   5.819 -3.1653 -0.4236  2.0341
 6858SOL     OW32035   4.629   1.420   0.754  0.5530  0.3230  0.6872
 6858SOL    HW132036   4.680   1.495   0.785 -0.4278  1.0573  0.5418
 6858SOL    HW232037   4.671   1.354   0.809  1.3359 -1.2221 -1.7878
 6859SOL     OW32038   2.789   3.165  17.133 -0.5708 -0.3190  0.2951
 6859SOL    HW132039   2.854   3.095  17.145 -0.6344 -0.7676 -2.0474
 6859SOL    HW232040   2.832   3.220  17.069  1.6028 -0.8810  1.2554
 6860SOL     OW32041   0.652   4.089   0.316 -0.1323  0.7408  0.3002
 6860SOL    HW132042   0.613   4.034   0.248  1.2598  0.4713 -0.2693
 6860SOL    HW232043   0.727   4.114   0.263  0.6844 -1.0323  0.6506
 6861SOL     OW32044   3.235   1.309   4.814 -0.3863 -0.0714  0.3959
 6861SOL    HW132045   3.291   1.262   4.876 -0.8413  0.2716  1.0627
 6861SOL    HW232046   3.207   1.244   4.750  1.4734  0.4129 -0.9205
 6862SOL     OW32047   3.928   1.813   8.915  0.3016  0.3513  0.2080
 6862SOL    HW132048   3.863   1.788   8.981 -2.6882  2.6014 -1.8672
 6862SOL    HW232049   4.003   1.846   8.965 -0.5835  0.8621  1.1996
 6863SOL     OW32050   1.450   3.442   5.611 -0.3666  0.2800  0.5665
 6863SOL    HW132051   1.395   3.488   5.674  0.3144 -0.9068  2.0195
 6863SOL    HW232052   1.506   3.393   5.671  1.8812  0.2377 -1.5504
 6864SOL     OW32053   3.112   3.245   9.543  0.7289  0.0655  0.3306
 6864SOL    HW132054   3.137   3.302   9.470 -0.0417  0.7012  0.5592
 6864SOL    HW232055   3.017   3.255   9.533  1.0038  0.9335 -1.4270
 6865SOL     OW32056   4.102   3.316   8.593  0.0592  0.2520  0.1891
 6865SOL    HW132057   4.089   3.292   8.685 -0.6686 -2.1510 -0.5327
 6865SOL    HW232058   4.083   3.409   8.604  2.2146  0.7336 -0.3112
 6866SOL     OW32059   2.686   3.816   3.024  0.3892 -0.2263 -0.1422
 6866SOL    HW132060   2.749   3.867   2.974 -0.7105  0.5094 -0.7671
 6866SOL    HW232061   2.657   3.759   2.953  1.1913 -2.8407  1.6281
 6867SOL     OW32062   3.303   3.608  13.058 -0.4579 -0.1670 -0.1826
 6867SOL    HW132063   3.228   3.554  13.082 -0.3052 -0.7477 -1.0098
 6867SOL    HW232064   3.353   3.534  13.023 -0.9395 -0.0505 -1.0930
 6868SOL     OW32065   4.253   1.233   8.078 -0.3963  0.2939 -0.6925
 6868SOL    HW132066   4.306   1.307   8.049 -0.3564  0.2050 -0.8463
 6868SOL    HW232067   4.291   1.217   8.165  0.0390  0.7782 -0.7968
 6869SOL     OW32068   1.641   1.632  14.688  0.3544  0.3209  0.3163
 6869SOL    HW132069   1.707   1.589  14.741  0.8523  0.0393 -0.5318
 6869SOL    HW232070   1.629   1.568  14.618  0.0350  0.9313 -0.1977
 6870SOL     OW32071   1.945   4.528   4.869 -0.2079 -0.3841  0.1847
 6870SOL    HW132072   1.867   4.579   4.845  0.4084  1.2566  1.6251
 6870SOL    HW232073   1.921   4.453   4.814  1.4309 -1.9817  1.6624
 6871SOL     OW32074   0.869   0.284   0.642 -0.6380 -0.3498  0.3280
 6871SOL    HW132075   0.929   0.353   0.614  1.1049 -1.5589  1.0659
 6871SOL    HW232076   0.882   0.205   0.589 -1.0889 -0.8838  1.0029
 6872SOL     OW32077   0.300   3.305   3.529  0.3916 -0.2835 -0.1677
 6872SOL    HW132078   0.380   3.338   3.487  1.0058 -0.8478  0.5551
 6872SOL    HW232079   0.249   3.386   3.537  1.3930  0.2403  0.9753
 6873SOL     OW32080   0.315   0.958  12.194  0.2497 -0.0916  0.1537
 6873SOL    HW132081   0.355   0.941  12.108  1.0058  1.2376  0.2370
 6873SOL    HW232082   0.349   0.876  12.230 -0.1291 -0.6147 -0.6918
 6874SOL     OW32083   3.979   2.998   2.607 -0.0480  0.0774 -0.1886
 6874SOL    HW132084   3.982   2.942   2.531 -1.4817 -3.8561  2.6713
 6874SOL    HW232085   3.914   3.061   2.576  0.0475 -0.2572 -1.0369
 6875SOL     OW32086   0.663   4.658   4.692 -0.3824 -0.2590  0.1452
 6875SOL    HW132087   0.644   4.724   4.624 -0.9982 -1.6069 -0.9929
 6875SOL    HW232088   0.746   4.622   4.663  0.4531  2.6226 -1.0738
 6876SOL     OW32089   0.939   1.385   4.449  0.0622 -0.1142 -0.3309
 6876SOL    HW132090   0.913   1.423   4.365 -0.8594 -2.6785 -1.1996
 6876SOL    HW232091   0.999   1.451   4.483  0.0965  0.3204 -1.2259
 6877SOL     OW32092   4.150   0.227   5.919  0.4097  0.2738 -0.1936
 6877SOL    HW132093   4.082   0.225   5.853 -0.8213 -2.7283  1.1656
 6877SOL    HW232094   4.189   0.141   5.900  1.4168  0.2008  2.2099
 6878SOL     OW32095   4.553   0.646   5.189 -0.2186  0.1896  0.1410
 6878SOL    HW132096   4.515   0.723   5.147  0.2729 -0.5346 -1.6059
 6878SOL    HW232097   4.626   0.622   5.132 -2.3009 -0.6711 -2.1566
 6879SOL     OW32098   2.195   0.614  17.442  0.5412  0.0221 -0.0387
 6879SOL    HW132099   2.138   0.558  17.390 -1.1009 -0.0456  1.8245
 6879SOL    HW232100   2.139   0.690  17.451 -1.0702 -1.1404 -0.3256
 6880SOL     OW32101   0.405   4.101   5.278 -0.1629 -0.3443  0.5952
 6880SOL    HW132102   0.484   4.120   5.327  0.4814  0.5465 -0.7973
 6880SOL    HW232103   0.348   4.087   5.354  2.0089 -0.2683  2.2237
 6881SOL     OW32104   3.495   4.153   9.159 -0.1621  0.1637  0.2067
 6881SOL    HW132105   3.542   4.165   9.242 -0.5577  0.2325  0.4189
 6881SOL    HW232106   3.406   4.178   9.183  0.5573  1.3916  1.6100
 6882SOL     OW32107   1.055   1.607   5.407  0.0666  0.5762 -0.2123
 6882SOL    HW132108   1.104   1.525   5.396 -0.3627  0.1004  1.3586
 6882SOL    HW232109   1.018   1.589   5.493 -0.2747 -1.2434 -0.7354
 6883SOL     OW32110   0.645   3.447   1.650 -0.0978 -0.1717  0.0139
 6883SOL    HW132111   0.621   3.443   1.557 -1.9519  0.4079  0.4688
 6883SOL    HW232112   0.662   3.354   1.661  0.8880 -0.0778 -0.7181
 6884SOL     OW32113   0.676   1.627   0.116 -0.2288  0.0136 -0.0901
 6884SOL    HW132114   0.745   1.627   0.182  1.6882  0.4085 -2.0995
 6884SOL    HW232115   0.713   1.682   0.047 -2.5154  0.2780 -1.1225
 6885SOL     OW32116   1.371   3.020  11.797 -0.1140  0.1683  0.2153
 6885SOL    HW132117   1.299   2.958  11.810 -2.4592  2.8597  0.0957
 6885SOL    HW232118   1.371   3.070  11.879  2.5532  2.3384 -1.1221
 6886SOL     OW32119   1.069   1.869   1.840  0.6120 -0.7049 -0.2284
 6886SOL    HW132120   0.994   1.849   1.784 -0.1191  0.6267  0.2652
 6886SOL    HW232121   1.137   1.830   1.785 -0.0584 -0.3803 -1.2829
 6887SOL     OW32122   1.806   3.683  13.472  0.1258 -0.4077 -0.1248
 6887SOL    HW132123   1.730   3.629  13.491 -0.1304 -0.7943 -2.2592
 6887SOL    HW232124   1.862   3.640  13.407  1.1687 -1.5174  1.4893
 6888SOL     OW32125   2.467   1.975   2.267  0.2410 -0.1933  0.1477
 6888SOL    HW132126   2.558   1.999   2.284  0.4318 -1.0287  0.2871
 6888SOL    HW232127   2.422   2.018   2.340 -1.0453 -0.6331 -0.3845
 6889SOL     OW32128   4.177   3.358   1.712  0.9651  0.5976 -0.4264
 6889SOL    HW132129   4.174   3.264   1.728 -0.4904  0.2048 -2.9160
 6889SOL    HW232130   4.237   3.348   1.639  1.4480  3.2713 -0.3956
 6890SOL     OW32131   3.935   0.113  10.683 -0.5337  0.8539  0.5324
 6890SOL    HW132132   3.846   0.077  10.681  0.9224 -2.8247  1.1070
 6890SOL    HW232133   3.962   0.106  10.592 -1.4079 -0.3956  0.3568
 6891SOL     OW32134   3.767   4.184  16.123  0.4108  0.4487  0.1469
 6891SOL    HW132135   3.731   4.263  16.083  3.0464  1.4480 -0.2763
 6891SOL    HW232136   3.798   4.136  16.045 -0.5572 -2.5174  1.5929
 6892SOL     OW32137   0.973   3.347   7.314  0.2266  0.2670  0.2469
 6892SOL    HW132138   1.054   3.399   7.310 -0.7072  1.5717 -1.6778
 6892SOL    HW232139   0.935   3.395   7.387  0.5035 -0.5699  0.9507
 6893SOL     OW32140   4.402   1.491   4.199  0.7664  0.0987 -0.2238
 6893SOL    HW132141   4.448   1.421   4.154 -2.1571 -1.3906 -0.9108
 6893SOL    HW232142   4.311   1.489   4.169  0.1229 -0.5956  1.7576
 6894SOL     OW32143   2.990   3.411   3.394  0.1649 -0.1650 -0.1263
 6894SOL    HW132144   2.983   3.398   3.300  0.3807  0.9505 -0.2905
 6894SOL    HW232145   3.084   3.415   3.410 -0.0873  0.9287  1.1039
 6895SOL     OW32146   4.681   2.108   3.277 -0.0622 -0.3591 -0.4136
 6895SOL    HW132147   4.631   2.027   3.277  0.5634 -0.7421 -0.3915
 6895SOL    HW232148   0.032   2.079   3.328 -2.2547 -1.7651  2.0662
 6896SOL     OW32149   3.497   0.029   8.453  0.3470 -0.1300  0.1709
 6896SOL    HW132150   3.583   4.724   8.424  0.5526  0.4852  0.1390
 6896SOL    HW232151   3.449   0.021   8.371 -0.1056  0.0659  0.4197
 6897SOL     OW32152   3.830   2.959   6.529  0.6373  0.6769 -0.1759
 6897SOL    HW132153   3.912   3.010   6.527  0.3697  1.0752 -1.4613
 6897SOL    HW232154   3.875   2.883   6.565  1.1500  1.1978  0.2927
 6898SOL     OW32155   2.167   4.106   6.238 -0.0547  0.3404  0.3322
 6898SOL    HW132156   2.259   4.125   6.258 -0.6444  0.8051  2.5406
 6898SOL    HW232157   2.136   4.071   6.321  0.3760 -2.2769 -0.6011
 6899SOL     OW32158   2.120   4.652   9.563 -0.1825 -0.3056 -0.5526
 6899SOL    HW132159   2.084   0.009   9.595  2.1476  1.1903 -1.7736
 6899SOL    HW232160   2.200   4.631   9.611  0.3279 -1.0409 -1.7267
 6900SOL     OW32161   2.793   4.562   9.080 -0.1964 -0.1972 -0.2225
 6900SOL    HW132162   2.844   4.565   9.161  0.2550  1.1577 -0.5660
 6900SOL    HW232163   2.706   4.560   9.119 -0.9359  2.5757 -1.7810
 6901SOL     OW32164   3.094   4.124   7.798 -0.1387  0.1762  0.0273
 6901SOL    HW132165   3.061   4.055   7.854 -2.6104 -0.2361 -1.9544
 6901SOL    HW232166   3.014   4.176   7.792  1.0265  1.9262 -0.4500
 6902SOL     OW32167   2.164   3.522   6.832  0.1615 -0.0387 -0.0382
 6902SOL    HW132168   2.074   3.554   6.841  0.3669  0.3377  0.7125
 6902SOL    HW232169   2.161   3.434   6.870 -1.5879  0.4074  0.8289
 6903SOL     OW32170   1.125   1.762  15.760  0.1825  0.1438 -0.7231
 6903SOL    HW132171   1.095   1.819  15.689 -0.4009 -1.5733 -1.8618
 6903SOL    HW232172   1.219   1.768  15.745  0.4729 -0.1286  0.9913
 6904SOL     OW32173   3.586   1.930   5.485 -0.3101  0.5957 -1.3333
 6904SOL    HW132174   3.570   2.020   5.515  1.7283  0.3147  0.5641
 6904SOL    HW232175   3.530   1.925   5.407  0.9189  0.3058 -2.2000
 6905SOL     OW32176   3.200   1.179   0.672 -0.2735 -0.8478  0.4255
 6905SOL    HW132177   3.137   1.144   0.608 -0.0913  2.2944 -1.4366
 6905SOL    HW232178   3.182   1.131   0.753 -0.4613  0.0614  0.9134
 6906SOL     OW32179   3.494   3.027   4.407  0.2504  0.8063 -0.1691
 6906SOL    HW132180   3.533   3.092   4.349 -2.2403  0.6230 -2.0692
 6906SOL    HW232181   3.401   3.026   4.384  0.8877 -1.1728 -2.6988
 6907SOL     OW32182   4.446   4.135   7.876 -0.0324  0.0563  0.0584
 6907SOL    HW132183   4.401   4.165   7.955 -0.4396 -2.0961  0.6380
 6907SOL    HW232184   4.423   4.211   7.823 -0.3331 -0.2996 -0.3205
 6908SOL     OW32185   0.267   0.707   4.492 -0.1463 -0.1417  0.4091
 6908SOL    HW132186   0.345   0.724   4.440 -1.6040 -1.1719 -2.0941
 6908SOL    HW232187   0.200   0.739   4.432 -0.8245 -3.9654 -0.8774
 6909SOL     OW32188   3.347   0.983   7.298 -0.5771 -0.0082  0.9065
 6909SOL    HW132189   3.405   1.054   7.325  0.2771 -0.8790  1.3692
 6909SOL    HW232190   3.305   1.019   7.220  0.3252 -0.9917 -0.0352
 6910SOL     OW32191   1.990   3.194  16.799  0.2748  0.8398  0.0351
 6910SOL    HW132192   2.015   3.130  16.733 -0.2471  2.5923 -1.8479
 6910SOL    HW232193   1.899   3.174  16.821  0.5875  0.3905  0.9303
 6911SOL     OW32194   3.059   0.537  12.341  0.4816 -0.3988 -0.6819
 6911SOL    HW132195   3.143   0.579  12.326 -0.1843  0.7304 -1.2221
 6911SOL    HW232196   3.080   0.455  12.296  0.9406 -2.4157  3.1518
 6912SOL     OW32197   2.582   3.873   0.470 -0.9277  0.5542  0.2684
 6912SOL    HW132198   2.662   3.837   0.508 -1.1526  2.4882  2.6030
 6912SOL    HW232199   2.548   3.925   0.542 -0.0268  0.3558  0.8409
 6913SOL     OW32200   4.617   2.543  12.105 -0.0187  0.0999  0.4856
 6913SOL    HW132201   4.630   2.621  12.159 -0.1680  0.8693 -0.5857
 6913SOL    HW232202   4.572   2.486  12.168  0.1325  0.1252  0.6157
 6914SOL     OW32203   3.939   1.754   2.385  0.0617  0.5414 -0.5714
 6914SOL    HW132204   3.866   1.720   2.333 -0.0167  0.3489 -0.3365
 6914SOL    HW232205   3.909   1.736   2.475 -2.4664  0.6977 -1.3900
 6915SOL     OW32206   2.914   4.398  12.551  0.1890  0.2293  0.4950
 6915SOL    HW132207   2.893   4.367  12.639  0.3230  2.5264  1.3192
 6915SOL    HW232208   2.862   4.338  12.497  0.4460  0.4300  0.0221
 6916SOL     OW32209   2.828   3.181  15.451  0.6544 -0.6968 -0.3439
 6916SOL    HW132210   2.860   3.147  15.534 -1.4304  1.4092  1.3299
 6916SOL    HW232211   2.911   3.207  15.411  0.3045  0.5894 -0.2262
 6917SOL     OW32212   1.234   4.155  14.805 -0.1238 -0.0989  0.5966
 6917SOL    HW132213   1.210   4.114  14.722  1.7941  1.5822 -0.8198
 6917SOL    HW232214   1.151   4.176  14.846 -0.5743  2.5364 -1.6519
 6918SOL     OW32215   1.425   0.903   6.041 -0.1550  0.2556  0.4669
 6918SOL    HW132216   1.393   0.813   6.043  0.4515  0.0777  2.4621
 6918SOL    HW232217   1.349   0.942   6.086 -0.5116  0.1256 -0.0263
 6919SOL     OW32218   1.394   0.501   7.615 -0.5665 -0.1064  0.5437
 6919SOL    HW132219   1.306   0.517   7.580 -0.5629  1.7738  1.4049
 6919SOL    HW232220   1.378   0.434   7.682 -0.5903 -0.4777  0.1721
 6920SOL     OW32221   1.826   1.493   3.510  0.1611  0.0359 -0.6344
 6920SOL    HW132222   1.790   1.579   3.488  1.3116  0.8195  0.5973
 6920SOL    HW232223   1.877   1.522   3.585  0.3885 -0.1028 -0.7364
 6921SOL     OW32224   2.038   3.431   1.004 -0.0178  0.5158 -0.0116
 6921SOL    HW132225   2.004   3.349   1.039 -1.5222  1.1893  0.0870
 6921SOL    HW232226   1.971   3.462   0.944  0.1329 -0.9843 -0.9684
 6922SOL     OW32227   1.916   2.910   9.550  0.4250 -0.0442  0.4513
 6922SOL    HW132228   1.836   2.921   9.497 -0.1748  0.6885  1.5011
 6922SOL    HW232229   1.922   2.994   9.596 -1.1016 -0.3154  1.1536
 6923SOL     OW32230   3.141   1.795  12.086 -0.2657 -0.5583 -0.4804
 6923SOL    HW132231   3.094   1.716  12.057 -0.0648 -1.5482  1.9521
 6923SOL    HW232232   3.070   1.858  12.098  1.8977  1.8316 -0.2738
 6924SOL     OW32233   2.561   3.440   9.671 -0.3465  0.1842 -0.4669
 6924SOL    HW132234   2.569   3.348   9.696  0.2776  0.0345 -1.2185
 6924SOL    HW232235   2.641   3.469   9.714  0.6427  0.3792 -2.4426
 6925SOL     OW32236   2.959   1.195   3.805  0.1436 -0.4072  0.2727
 6925SOL    HW132237   2.896   1.265   3.821  2.0988  1.6388 -1.0353
 6925SOL    HW232238   2.925   1.155   3.725  1.1660 -0.9902  0.1267
 6926SOL     OW32239   4.233   4.075   5.775  0.6325  0.0984 -0.2778
 6926SOL    HW132240   4.262   4.012   5.841  0.4502  1.2070  0.8585
 6926SOL    HW232241   4.319   4.097   5.742  0.1005  2.2913 -0.1735
 6927SOL     OW32242   3.325   3.067   6.753 -0.3340 -0.1137  0.3897
 6927SOL    HW132243   3.371   3.077   6.670  1.4307 -0.6436  1.3137
 6927SOL    HW232244   3.361   2.987   6.792  2.5241  0.7454 -0.4913
 6928SOL     OW32245   4.687   4.552   6.713  0.3694  0.3943  0.6443
 6928SOL    HW132246   0.052   4.574   6.735  0.7459 -0.4199 -0.0996
 6928SOL    HW232247   4.636   4.594   6.783  0.0214  0.5395  0.3048
 6929SOL     OW32248   3.904   3.597   4.400  0.1127  0.7208 -0.0706
 6929SOL    HW132249   3.904   3.508   4.366  1.8660  1.3756 -1.8549
 6929SOL    HW232250   3.908   3.581   4.494 -1.0738 -2.1376 -0.5207
 6930SOL     OW32251   3.803   1.351   5.105  0.5500 -0.1656  0.1194
 6930SOL    HW132252   3.835   1.433   5.144  2.5604 -0.6455 -0.5264
 6930SOL    HW232253   3.883   1.299   5.118  0.1430 -0.8221 -0.0326
 6931SOL     OW32254   0.409   0.960  11.924 -0.5701  0.1751 -0.0182
 6931SOL    HW132255   0.332   0.989  11.875 -0.1386  2.8973  0.8759
 6931SOL    HW232256   0.461   0.910  11.861 -1.8095  2.4567 -2.8703
 6932SOL     OW32257   3.895   1.175  15.868  0.3308  0.0510  0.2857
 6932SOL    HW132258   3.825   1.161  15.932 -0.7465  1.3395 -0.6040
 6932SOL    HW232259   3.848   1.194  15.786 -1.3763 -0.6987  1.0829
 6933SOL     OW32260   3.661   0.164   0.608  0.3171 -0.7853 -0.7384
 6933SOL    HW132261   3.687   0.243   0.655 -0.1446 -1.7887  1.2465
 6933SOL    HW232262   3.669   0.105   0.683  1.0128  1.7072  1.1470
 6934SOL     OW32263   2.382   1.424   7.243  0.2882 -0.3055 -0.6944
 6934SOL    HW132264   2.347   1.395   7.327 -1.1666 -0.1220 -1.2366
 6934SOL    HW232265   2.305   1.474   7.215 -1.0028 -1.9892 -0.1540
 6935SOL     OW32266   0.988   2.804   9.018 -0.0060  0.1606  0.0463
 6935SOL    HW132267   0.944   2.885   9.044 -0.4301  0.8106 -2.7213
 6935SOL    HW232268   1.029   2.837   8.938  1.5655 -1.0192  0.3534
 6936SOL     OW32269   4.146   3.741   2.167  0.0778  0.2445  0.5760
 6936SOL    HW132270   4.200   3.676   2.123 -0.1465  0.0919  0.5301
 6936SOL    HW232271   4.154   3.708   2.257 -1.5372 -0.4499  0.4585
 6937SOL     OW32272   3.517   1.494  10.550 -0.0594 -0.3584  0.1506
 6937SOL    HW132273   3.473   1.476  10.467 -0.5387 -0.3597  0.4082
 6937SOL    HW232274   3.447   1.480  10.613 -1.1174  0.5834 -0.8162
 6938SOL     OW32275   1.682   1.449   1.944  0.1741 -0.6725  0.2010
 6938SOL    HW132276   1.735   1.504   2.003 -2.5936 -0.7335  2.7727
 6938SOL    HW232277   1.709   1.483   1.859 -0.9161  1.0010  0.5191
 6939SOL     OW32278   2.244   0.932   3.961 -0.7570 -1.0361  0.6153
 6939SOL    HW132279   2.148   0.928   3.962 -0.8607  0.8359 -0.6651
 6939SOL    HW232280   2.268   0.875   3.888 -1.2939  1.8332 -1.8037
 6940SOL     OW32281   3.069   0.557   6.954 -0.5665 -0.0902 -0.0689
 6940SOL    HW132282   3.003   0.554   7.023 -0.5922  0.5101 -0.0622
 6940SOL    HW232283   3.039   0.641   6.918 -3.2573 -0.5800  1.0346
 6941SOL     OW32284   1.420   2.807   2.061  0.0892  0.0106  0.2069
 6941SOL    HW132285   1.390   2.898   2.060 -2.2173 -0.7539 -0.8622
 6941SOL    HW232286   1.461   2.797   1.975 -0.3746 -0.5795  0.0502
 6942SOL     OW32287   1.338   3.727   8.248 -0.2232  0.4444 -0.2937
 6942SOL    HW132288   1.394   3.791   8.293  2.2947 -1.2790 -0.9477
 6942SOL    HW232289   1.411   3.691   8.197 -1.6333 -2.3179 -0.3478
 6943SOL     OW32290   2.047   2.529   5.338 -0.0441 -0.0874 -0.3682
 6943SOL    HW132291   2.114   2.556   5.276 -0.2812 -0.8819 -0.9643
 6943SOL    HW232292   1.991   2.607   5.331 -2.3948 -1.6425  0.9910
 6944SOL     OW32293   0.038   4.692  10.188  0.3415  0.1957  0.4158
 6944SOL    HW132294   0.019   4.667  10.098 -0.3503 -1.1768  0.9266
 6944SOL    HW232295   0.006   4.613  10.232 -2.6891 -0.0806 -2.3020
 6945SOL     OW32296   0.833   3.045   5.331 -0.2937 -0.2992  0.3015
 6945SOL    HW132297   0.769   3.116   5.325 -0.6636 -0.6170  0.5272
 6945SOL    HW232298   0.911   3.094   5.305 -0.6594 -0.9954 -2.0868
 6946SOL     OW32299   3.375   4.406   2.855 -0.2210 -0.6545  0.1898
 6946SOL    HW132300   3.424   4.475   2.900 -0.0127 -1.2876  0.9371
 6946SOL    HW232301   3.323   4.441   2.782 -0.6169 -1.0327  0.2861
 6947SOL     OW32302   2.308   0.095  15.085 -0.0523  0.5293 -0.3222
 6947SOL    HW132303   2.346   0.176  15.052 -0.8237  0.2949 -1.8163
 6947SOL    HW232304   2.342   0.036  15.018 -1.3805 -0.6663  0.0544
 6948SOL     OW32305   3.452   3.916   4.456 -0.5268 -0.1673  0.3268
 6948SOL    HW132306   3.385   3.911   4.388 -2.1731 -0.1202  1.9258
 6948SOL    HW232307   3.520   3.857   4.425  0.8377  1.1871  0.7019
 6949SOL     OW32308   0.776   3.977   4.221 -0.5023  0.0416 -0.0816
 6949SOL    HW132309   0.854   3.927   4.247  0.2922  0.3586 -1.8963
 6949SOL    HW232310   0.808   4.037   4.154  1.2314  0.9929  1.5875
 6950SOL     OW32311   2.595   0.319   8.478  0.1350 -0.4170 -0.3246
 6950SOL    HW132312   2.686   0.340   8.497 -0.1293  0.6721 -0.2625
 6950SOL    HW232313   2.583   0.265   8.557  0.1838  0.2261  0.1230
 6951SOL     OW32314   1.850   4.228   2.011  0.3435  0.1549 -0.0749
 6951SOL    HW132315   1.774   4.238   1.953 -1.8729 -1.0862  2.5719
 6951SOL    HW232316   1.920   4.263   1.957  0.2653  0.3250 -0.0650
 6952SOL     OW32317   3.197   1.168   6.082 -0.0150 -0.1438  0.4486
 6952SOL    HW132318   3.257   1.154   6.009 -0.0290  1.7298  0.0809
 6952SOL    HW232319   3.199   1.086   6.130 -1.2195  0.0136  0.7832
 6953SOL     OW32320   2.672   2.227   1.662  0.1110 -0.3629  0.0290
 6953SOL    HW132321   2.609   2.219   1.591  0.4533 -1.7404 -0.1026
 6953SOL    HW232322   2.616   2.191   1.731  0.0232 -1.9603 -0.8742
 6954SOL     OW32323   2.961   3.275   8.859 -0.1973 -0.0200 -0.7262
 6954SOL    HW132324   2.926   3.242   8.942  2.8072 -1.5857 -0.0802
 6954SOL    HW232325   2.895   3.265   8.790  0.3685 -2.0693 -0.9748
 6955SOL     OW32326   3.177   2.669   4.071  0.1319  0.0576 -0.1942
 6955SOL    HW132327   3.123   2.729   4.019  1.4718 -0.0002 -1.6520
 6955SOL    HW232328   3.262   2.712   4.072  1.1657 -2.0183  0.1895
 6956SOL     OW32329   0.255   0.289   9.920  0.2782 -0.2046  0.1152
 6956SOL    HW132330   0.268   0.196   9.938 -0.1231 -0.4857 -1.0461
 6956SOL    HW232331   0.162   0.282   9.897  0.2177 -2.7285  1.0325
 6957SOL     OW32332   3.509   3.145   4.145 -0.1204 -0.3910 -0.5228
 6957SOL    HW132333   3.452   3.125   4.071  0.0178 -1.4557 -0.3462
 6957SOL    HW232334   3.508   3.240   4.134 -0.2023 -0.3712 -0.3423
 6958SOL     OW32335   2.248   0.108   2.744 -0.2687 -0.6967  0.0396
 6958SOL    HW132336   2.218   0.110   2.835  2.6267  4.0035  0.8889
 6958SOL    HW232337   2.281   0.194   2.721  0.3481 -1.1523 -0.7940
 6959SOL     OW32338   2.956   2.972   4.430  0.3757 -0.0797  0.2836
 6959SOL    HW132339   2.926   3.010   4.347 -0.0628 -0.1628  0.4038
 6959SOL    HW232340   2.912   3.026   4.496 -0.4475 -0.8320  0.3478
 6960SOL     OW32341   2.169   2.711  17.695  0.3091 -0.7425 -0.7530
 6960SOL    HW132342   2.244   2.693  17.637  0.5484 -1.1119 -0.3251
 6960SOL    HW232343   2.162   2.806  17.683  0.8342 -0.5561  0.4032
 6961SOL     OW32344   4.513   0.916   3.539 -0.1161 -0.4505  0.5743
 6961SOL    HW132345   4.561   0.982   3.489 -1.6144 -0.0655 -0.3632
 6961SOL    HW232346   4.479   0.861   3.468  2.2985 -1.5746  0.2737
 6962SOL     OW32347   1.335   0.669   5.687 -0.0334 -0.4706 -0.4481
 6962SOL    HW132348   1.281   0.638   5.615 -0.5011  0.6617 -0.5762
 6962SOL    HW232349   1.419   0.675   5.641 -0.9096 -2.3136 -2.2870
 6963SOL     OW32350   4.662   4.442   5.389  0.1856  0.1141  0.2552
 6963SOL    HW132351   4.599   4.508   5.361  0.2458  0.0995  0.0886
 6963SOL    HW232352   4.704   4.430   5.304 -2.3731  0.0524 -1.0039
 6964SOL     OW32353   2.441   1.269   4.873  0.3608  0.5682  0.0200
 6964SOL    HW132354   2.470   1.178   4.865  2.8378  1.3908 -0.1283
 6964SOL    HW232355   2.514   1.319   4.838 -0.0937  0.3616 -1.2450
 6965SOL     OW32356   4.450   3.644   4.202  0.4639  0.2840 -0.3736
 6965SOL    HW132357   4.545   3.629   4.204  0.1300 -1.3579  2.8048
 6965SOL    HW232358   4.432   3.562   4.157  0.7110 -0.1662  0.3467
 6966SOL     OW32359   4.309   0.771   2.623 -0.0178  0.1250 -0.1580
 6966SOL    HW132360   4.396   0.778   2.664  0.8413  0.4141 -2.0272
 6966SOL    HW232361   4.264   0.849   2.654  2.3973  1.2175  0.6179
 6967SOL     OW32362   3.145   4.164   6.349  0.0623  0.1236  0.2337
 6967SOL    HW132363   3.058   4.193   6.322 -1.0275 -2.0335  1.4537
 6967SOL    HW232364   3.173   4.108   6.277  0.6651  1.8892 -0.9219
 6968SOL     OW32365   4.722   0.900   8.396  0.4528  0.3279  0.2480
 6968SOL    HW132366   0.032   0.962   8.460  1.6751  2.2604 -2.3009
 6968SOL    HW232367   4.694   0.955   8.323 -0.7186 -0.7590 -0.1124
 6969SOL     OW32368   1.127   4.536   2.581 -0.0100 -0.1876  0.5475
 6969SOL    HW132369   1.064   4.601   2.548  2.2020  1.5527 -0.2742
 6969SOL    HW232370   1.157   4.507   2.495  0.0965 -2.3781  1.3382
 6970SOL     OW32371   3.863   2.444   0.538 -0.0050 -0.1580 -0.2183
 6970SOL    HW132372   3.815   2.513   0.584 -1.3575 -0.8100 -0.6705
 6970SOL    HW232373   3.799   2.383   0.502 -0.4131 -0.9574  1.8495
 6971SOL     OW32374   1.481   3.664   8.019 -0.1934  0.7125 -0.3690
 6971SOL    HW132375   1.547   3.603   8.053  0.0282  1.0198 -0.2447
 6971SOL    HW232376   1.534   3.743   8.013 -1.3395  1.5291  0.2523
 6972SOL     OW32377   1.537   3.896   9.497 -0.2464  0.0563 -0.0841
 6972SOL    HW132378   1.476   3.855   9.436  0.3262  0.6013 -1.0226
 6972SOL    HW232379   1.540   3.983   9.456 -0.3685 -0.7131 -1.7141
 6973SOL     OW32380   0.410   4.666  11.002  0.2305  0.7329 -0.1153
 6973SOL    HW132381   0.472   4.649  10.931  1.9511  2.4553  0.9759
 6973SOL    HW232382   0.425   4.582  11.045 -2.2590  0.2904 -0.0637
 6974SOL     OW32383   0.557   0.225   9.883  0.0188 -0.0575  0.1428
 6974SOL    HW132384   0.647   0.196   9.872  0.3200  1.3412 -1.1900
 6974SOL    HW232385   0.540   0.199   9.973 -0.8080 -0.2548 -0.0654
 6975SOL     OW32386   2.751   4.065  16.688  0.1048 -0.5906  0.5810
 6975SOL    HW132387   2.741   4.160  16.673 -0.8545 -0.7016  0.5193
 6975SOL    HW232388   2.660   4.050  16.715 -0.2872 -0.7090 -0.8083
 6976SOL     OW32389   4.531   0.357   8.931  0.2174  0.0164  0.9239
 6976SOL    HW132390   4.466   0.299   8.970  1.9015 -2.5999 -0.1946
 6976SOL    HW232391   4.600   0.342   8.996  1.0095 -2.6334 -0.5452
 6977SOL     OW32392   3.110   1.768  10.645 -0.1801  0.0258 -0.1279
 6977SOL    HW132393   3.199   1.762  10.681  0.0705  2.4030 -0.3654
 6977SOL    HW232394   3.120   1.705  10.574 -2.1198  0.0480 -0.4056
 6978SOL     OW32395   0.800   1.059  14.745 -0.1751 -0.1439  0.5483
 6978SOL    HW132396   0.724   1.004  14.764 -0.6479  0.4722  0.4383
 6978SOL    HW232397   0.871   0.999  14.722 -0.0883 -0.6229  2.0335
 6979SOL     OW32398   4.630   0.133   7.045 -0.1590  0.4036 -0.2036
 6979SOL    HW132399   4.636   0.081   7.125  1.7518 -0.9781 -1.2529
 6979SOL    HW232400   4.722   0.129   7.016 -0.3731  1.2678 -1.0145
 6980SOL     OW32401   4.229   2.379   5.376 -0.7786  0.5368  0.1811
 6980SOL    HW132402   4.229   2.388   5.281 -0.5612  0.4648  0.1743
 6980SOL    HW232403   4.323   2.377   5.389 -0.5171 -3.1889 -2.5993
 6981SOL     OW32404   4.401   1.313   2.344 -0.6510 -0.2260  0.1674
 6981SOL    HW132405   4.397   1.223   2.312  0.6388 -0.7205  1.3900
 6981SOL    HW232406   4.317   1.352   2.318 -0.5000 -0.6407 -0.9338
 6982SOL     OW32407   3.196   3.170   3.281  0.1779 -0.0909 -0.1262
 6982SOL    HW132408   3.205   3.077   3.259  0.8048 -0.1159  0.2519
 6982SOL    HW232409   3.277   3.198   3.324 -0.0911 -1.7744  1.4838
 6983SOL     OW32410   4.350   2.253   8.781  0.2059  0.1567 -0.5585
 6983SOL    HW132411   4.410   2.316   8.740  1.6418 -0.3064  0.8339
 6983SOL    HW232412   4.364   2.268   8.875  1.5971  0.6248 -0.8389
 6984SOL     OW32413   0.637   1.842   4.032  0.0400 -0.2918 -0.4284
 6984SOL    HW132414   0.595   1.815   3.950 -1.2584 -0.1268  0.1702
 6984SOL    HW232415   0.725   1.867   4.006  0.4956  0.0067  1.3937
 6985SOL     OW32416   4.021   2.121   6.092 -0.3525  0.5085 -0.8510
 6985SOL    HW132417   4.070   2.077   6.162 -0.7936  1.5186  0.0833
 6985SOL    HW232418   3.934   2.082   6.099  0.6183 -1.4922  0.2240
 6986SOL     OW32419   1.287   2.260  16.616  0.0145  0.6301 -0.4079
 6986SOL    HW132420   1.358   2.230  16.559  0.6409  0.6713  0.3513
 6986SOL    HW232421   1.290   2.354  16.596  0.0366  0.3497 -1.7013
 6987SOL     OW32422   1.684   3.614   0.342 -0.3127  0.6960 -0.1130
 6987SOL    HW132423   1.598   3.652   0.362 -1.1427 -0.7267 -1.0014
 6987SOL    HW232424   1.738   3.685   0.377 -0.6724 -0.0404  1.9234
 6988SOL     OW32425   0.725   2.165  11.509  0.0621 -0.3885  0.0544
 6988SOL    HW132426   0.639   2.127  11.524  0.3950 -0.4244  1.8007
 6988SOL    HW232427   0.726   2.221  11.587 -2.1177  1.4201 -1.2022
 6989SOL     OW32428   3.334   1.927   7.029  0.0008  0.3474  0.6398
 6989SOL    HW132429   3.415   1.903   7.075  0.2666  0.6760  0.3449
 6989SOL    HW232430   3.293   1.840   7.025  2.6563 -0.9254  1.1912
 6990SOL     OW32431   2.946   2.118   1.387 -0.2272  0.1457  0.2290
 6990SOL    HW132432   2.887   2.054   1.426  0.4026 -0.9578 -0.6455
 6990SOL    HW232433   2.884   2.166   1.332  1.8516  0.6193 -1.7377
 6991SOL     OW32434   0.104   0.105   1.839  0.5581 -0.3211  0.5582
 6991SOL    HW132435   0.047   0.111   1.915  2.5241  0.3192  1.9912
 6991SOL    HW232436   0.041   0.078   1.772  1.7160  0.0595 -0.6812
 6992SOL     OW32437   1.956   1.162   4.153 -0.0658  0.3366  0.1497
 6992SOL    HW132438   1.910   1.152   4.237 -1.6889  0.1200 -0.7747
 6992SOL    HW232439   2.037   1.208   4.177 -0.5980  1.9138 -1.0771
 6993SOL     OW32440   0.043   3.336   6.042 -0.3799 -0.1893 -0.1954
 6993SOL    HW132441   4.686   3.320   5.995 -1.0660  1.7644  0.3459
 6993SOL    HW232442   0.103   3.280   5.993  1.7975  1.6954  0.3075
 6994SOL     OW32443   1.171   3.926   3.927  0.3394  0.1918  0.1881
 6994SOL    HW132444   1.159   4.005   3.980 -0.1982 -0.6023  1.2557
 6994SOL    HW232445   1.265   3.911   3.933  0.1674 -1.0063 -0.0369
 6995SOL     OW32446   2.306   2.630   8.910 -0.2810  0.3266 -0.0618
 6995SOL    HW132447   2.333   2.721   8.901  0.0373  0.4082  1.7613
 6995SOL    HW232448   2.277   2.632   9.001  0.9153  1.4781  0.2755
 6996SOL     OW32449   3.641   1.778   4.928  0.4043  0.0870  0.3694
 6996SOL    HW132450   3.636   1.683   4.942 -2.9539  0.1584 -0.4556
 6996SOL    HW232451   3.607   1.802   5.014  0.8261  2.1235 -0.0373
 6997SOL     OW32452   0.911   2.942   1.801 -0.0407 -0.0206  0.3364
 6997SOL    HW132453   0.997   2.925   1.763 -0.3296 -0.6743 -0.0162
 6997SOL    HW232454   0.876   2.860   1.767 -0.0009  0.0619  0.0980
 6998SOL     OW32455   2.897   4.645  12.781 -0.6541  0.2484  0.2375
 6998SOL    HW132456   2.847   4.657  12.862  1.4069 -1.0361  1.7165
 6998SOL    HW232457   2.906   0.012  12.756  2.6173  0.1243  0.9717
 6999SOL     OW32458   0.149   1.208   8.040 -0.3241  0.1263  0.6039
 6999SOL    HW132459   0.237   1.191   8.006 -0.4407  1.9189 -0.5493
 6999SOL    HW232460   0.179   1.289   8.081 -2.8051  1.4215 -0.1755
 7000SOL     OW32461   3.837   4.428   8.152 -0.0807  0.2413 -0.7598
 7000SOL    HW132462   3.794   4.343   8.147  2.2903 -1.0639  0.8393
 7000SOL    HW232463   3.927   4.400   8.139 -0.2155 -0.9443  0.8583
 7001SOL     OW32464   0.340   2.466   9.202  0.0478  0.2314  0.1887
 7001SOL    HW132465   0.284   2.440   9.275 -0.2724  0.7116  0.1092
 7001SOL    HW232466   0.418   2.495   9.250 -0.2360  0.4501  0.5163
 7002SOL     OW32467   1.557   3.438   9.289 -0.6084  0.0891  0.5558
 7002SOL    HW132468   1.637   3.470   9.331 -1.1605  2.7767 -0.4024
 7002SOL    HW232469   1.549   3.354   9.333 -4.6820  0.3235  0.2197
 7003SOL     OW32470   2.055   1.439   7.044 -0.5254  0.4675 -0.5902
 7003SOL    HW132471   2.094   1.353   7.059 -2.3333  0.1575  2.4075
 7003SOL    HW232472   2.130   1.488   7.009  0.6350 -0.6269  0.3831
 7004SOL     OW32473   2.734   2.070   2.232 -0.0606 -0.0240  0.3711
 7004SOL    HW132474   2.795   2.047   2.162  0.5844 -1.7911  1.5323
 7004SOL    HW232475   2.744   2.165   2.226  0.1236 -0.1046 -0.6100
 7005SOL     OW32476   4.313   1.329   3.649 -0.1931 -0.0415 -0.3804
 7005SOL    HW132477   4.330   1.355   3.558  0.6797  1.0609  0.1019
 7005SOL    HW232478   4.317   1.234   3.638  1.9223  0.0202 -0.2071
 7006SOL     OW32479   3.400   3.325   7.750  0.2917 -0.1685 -0.0974
 7006SOL    HW132480   3.358   3.411   7.742  2.3441  0.9028  0.7098
 7006SOL    HW232481   3.331   3.267   7.716  0.9007  0.0345 -1.6917
 7007SOL     OW32482   1.547   1.886   7.389 -0.0701 -0.1433  0.0927
 7007SOL    HW132483   1.526   1.844   7.306 -2.3265  1.0197  0.0570
 7007SOL    HW232484   1.608   1.958   7.373  0.9223 -1.4632 -1.9242
 7008SOL     OW32485   3.796   3.127   2.002 -0.1907  0.1885 -0.9169
 7008SOL    HW132486   3.709   3.091   2.016  0.4408 -0.4561  1.3470
 7008SOL    HW232487   3.811   3.096   1.912  0.2691 -0.7564 -0.5160
 7009SOL     OW32488   3.887   3.302   7.315 -0.0342  0.1563  0.1381
 7009SOL    HW132489   3.847   3.237   7.373 -1.0623  1.4787  0.9018
 7009SOL    HW232490   3.907   3.380   7.367  0.5184 -0.9007  1.5421
 7010SOL     OW32491   4.617   2.342   1.278  0.4205 -0.4476  0.5632
 7010SOL    HW132492   4.664   2.391   1.210  0.9287  0.3484  1.4787
 7010SOL    HW232493   4.694   2.326   1.333 -0.7009  1.0595  2.5692
 7011SOL     OW32494   4.036   0.171   3.690  0.1964 -0.4060 -0.6731
 7011SOL    HW132495   4.117   0.121   3.701  0.9934  0.7988 -1.0783
 7011SOL    HW232496   3.998   0.171   3.778  1.2188 -0.5488 -0.2321
 7012SOL     OW32497   3.072   1.300   3.473  0.0005 -0.1476  0.1015
 7012SOL    HW132498   3.149   1.263   3.429 -0.5677 -0.5544 -0.5627
 7012SOL    HW232499   3.097   1.392   3.485 -2.1277  0.3015  0.9348
 7013SOL     OW32500   4.065   2.112   9.576  0.2383 -0.3169 -0.8695
 7013SOL    HW132501   4.126   2.111   9.649 -0.4135  0.8089 -0.3219
 7013SOL    HW232502   3.976   2.128   9.608  0.3581  1.3047 -1.3605
 7014SOL     OW32503   4.685   2.775  16.320  0.1228 -0.1879  0.3181
 7014SOL    HW132504   0.025   2.837  16.352 -0.3638 -0.3659  1.6572
 7014SOL    HW232505   4.672   2.717  16.395  0.2008  0.4937  0.8656
 7015SOL     OW32506   0.556   3.056   4.387  0.7639  0.5255  0.3555
 7015SOL    HW132507   0.611   3.079   4.312 -0.2562 -0.7364 -0.7868
 7015SOL    HW232508   0.493   3.000   4.341 -1.7933  2.1216  1.9141
 7016SOL     OW32509   3.837   3.389   2.549  0.4993 -0.1541  0.2904
 7016SOL    HW132510   3.912   3.330   2.555 -0.1224 -1.0881 -1.0849
 7016SOL    HW232511   3.865   3.458   2.489 -2.3995 -0.8680 -1.9231
 7017SOL     OW32512   2.112   0.400   8.592  0.0660  1.0453  0.0577
 7017SOL    HW132513   2.147   0.481   8.558  0.6794  0.0935 -1.5513
 7017SOL    HW232514   2.188   0.345   8.613 -0.4849 -0.4143 -1.8086
 7018SOL     OW32515   0.755   0.605   7.394 -0.3141  0.1054 -0.0185
 7018SOL    HW132516   0.670   0.595   7.351 -0.2102 -0.7075 -0.0292
 7018SOL    HW232517   0.800   0.612   7.310  1.6963  4.7118  1.4476
 7019SOL     OW32518   1.345   1.839   6.536  0.0484  0.4292  0.2432
 7019SOL    HW132519   1.297   1.916   6.567  0.0207  0.4353  0.1847
 7019SOL    HW232520   1.301   1.839   6.451 -1.0126  0.6030  0.8030
 7020SOL     OW32521   1.371   3.642  15.182  0.3238 -0.5325 -0.5470
 7020SOL    HW132522   1.408   3.664  15.096  1.3273 -0.4180 -0.0864
 7020SOL    HW232523   1.446   3.602  15.226 -0.4882 -2.2203 -0.6966
 7021SOL     OW32524   3.548   1.098   8.770 -0.0249  0.1823 -0.1664
 7021SOL    HW132525   3.526   1.043   8.845  0.2227 -0.8892 -0.8804
 7021SOL    HW232526   3.508   1.039   8.706 -1.7158 -0.3841  1.4031
 7022SOL     OW32527   2.330   2.357   9.157  0.0062 -0.1515  0.4012
 7022SOL    HW132528   2.272   2.285   9.184 -2.3170  0.5433 -2.7054
 7022SOL    HW232529   2.275   2.435   9.161 -1.9785 -1.3887 -2.4544
 7023SOL     OW32530   2.882   3.240  13.036  0.3775  0.0548  0.5032
 7023SOL    HW132531   2.972   3.218  13.063 -0.8999 -1.4824  3.5668
 7023SOL    HW232532   2.874   3.197  12.951 -0.6275  1.8501 -0.3042
 7024SOL     OW32533   2.360   2.137   8.788  0.0618 -0.2510  0.3566
 7024SOL    HW132534   2.388   2.225   8.764 -1.0995  0.5396  1.8405
 7024SOL    HW232535   2.447   2.098   8.786  1.0301  1.8410  1.5163
 7025SOL     OW32536   0.549   4.447   4.972  0.4076 -0.6662  0.0150
 7025SOL    HW132537   0.504   4.458   4.889 -0.2848 -0.6108  0.3985
 7025SOL    HW232538   0.641   4.430   4.949  0.2479 -0.1772 -0.9927
 7026SOL     OW32539   3.466   2.520   0.489 -0.2431  0.1403  0.5036
 7026SOL    HW132540   3.484   2.563   0.406 -1.5090  0.4284  0.3773
 7026SOL    HW232541   3.494   2.430   0.473 -0.2610  0.4686 -1.3908
 7027SOL     OW32542   0.216   3.275   6.842 -0.0326  0.2616  0.4443
 7027SOL    HW132543   0.246   3.298   6.930 -1.5911 -2.7964  1.7372
 7027SOL    HW232544   0.163   3.354   6.835  0.8415  0.7850 -0.3216
 7028SOL     OW32545   4.034   1.264   4.293  0.4646  0.0057  0.6557
 7028SOL    HW132546   4.102   1.315   4.337  1.8105 -0.3313 -1.0448
 7028SOL    HW232547   3.964   1.328   4.279  2.2684  1.1742 -3.1014
 7029SOL     OW32548   1.926   2.469   2.602  0.1712 -0.1909  0.6177
 7029SOL    HW132549   1.943   2.561   2.584  1.3963 -0.7885 -1.3310
 7029SOL    HW232550   1.862   2.450   2.534  0.2899 -0.0682  0.4715
 7030SOL     OW32551   2.425   0.886  16.412  0.5411  0.2091 -0.0552
 7030SOL    HW132552   2.332   0.898  16.429  0.2999 -1.3848 -0.2757
 7030SOL    HW232553   2.459   0.882  16.502 -1.1532 -1.5359  0.4896
 7031SOL     OW32554   2.141   4.532   6.619  0.0313 -0.0636 -0.8107
 7031SOL    HW132555   2.207   4.580   6.570  1.1498 -0.1055  0.6606
 7031SOL    HW232556   2.163   4.555   6.709 -2.3111 -1.8954  0.2250
 7032SOL     OW32557   0.426   0.751  15.200 -0.0637  0.2807  0.8794
 7032SOL    HW132558   0.340   0.725  15.168 -0.7108  3.3770  0.1229
 7032SOL    HW232559   0.457   0.681  15.258 -1.4168 -2.3613 -1.5985
 7033SOL     OW32560   3.144   4.279   3.343 -0.1315  0.1532 -0.2401
 7033SOL    HW132561   3.211   4.267   3.409 -1.1462  0.2612  0.8041
 7033SOL    HW232562   3.059   4.285   3.387  0.0014  0.0712  0.0246
 7034SOL     OW32563   4.596   1.849   2.716 -0.0711  0.4023 -0.2093
 7034SOL    HW132564   4.589   1.885   2.805 -1.8467  0.6239 -0.4513
 7034SOL    HW232565   4.530   1.909   2.681 -0.8976 -2.7408 -3.9948
 7035SOL     OW32566   3.845   4.687   5.348  0.1916 -0.2825  0.7172
 7035SOL    HW132567   3.808   4.607   5.386 -2.3104  0.2514 -0.6098
 7035SOL    HW232568   3.857   4.658   5.258  1.1063  0.6609  0.5508
 7036SOL     OW32569   3.489   2.435   6.230 -0.0686  0.2333 -0.5788
 7036SOL    HW132570   3.470   2.370   6.297 -0.2176  1.5659  0.6643
 7036SOL    HW232571   3.581   2.414   6.210  0.1993  1.0996 -0.2441
 7037SOL     OW32572   1.757   3.736   1.997 -0.0624  0.1614  0.5428
 7037SOL    HW132573   1.831   3.716   2.055 -0.2895  0.6166  0.9930
 7037SOL    HW232574   1.722   3.648   1.980 -2.1572  0.8067  1.5718
 7038SOL     OW32575   2.786   3.187   2.262 -0.0603  0.0917  0.5946
 7038SOL    HW132576   2.856   3.162   2.322  0.9075 -1.2186 -1.0987
 7038SOL    HW232577   2.769   3.104   2.216  0.6968 -0.6353  1.6443
 7039SOL     OW32578   4.031   2.252   8.485  0.2057  0.1521 -0.7232
 7039SOL    HW132579   4.101   2.309   8.452  0.2419  2.0332  2.5434
 7039SOL    HW232580   4.044   2.253   8.580  2.3247 -0.2747 -0.9921
 7040SOL     OW32581   1.862   3.600  16.907 -0.5323 -0.0766 -0.5043
 7040SOL    HW132582   1.927   3.533  16.926 -0.4961 -0.2906 -1.3971
 7040SOL    HW232583   1.843   3.588  16.814  0.2123 -1.4982 -0.4647
 7041SOL     OW32584   3.479   3.618  14.949 -0.0907 -0.2336  0.8531
 7041SOL    HW132585   3.550   3.574  14.997 -0.3407 -0.4492  1.0232
 7041SOL    HW232586   3.524   3.699  14.925 -2.1680  0.7810  0.4013
 7042SOL     OW32587   1.954   4.157   4.902  0.5477 -0.2876  0.0613
 7042SOL    HW132588   1.866   4.195   4.913 -0.7590 -2.8500 -1.4360
 7042SOL    HW232589   1.962   4.120   4.990  0.6602  0.2493  0.2758
 7043SOL     OW32590   3.119   4.469  11.472  0.0765  0.1991 -0.0145
 7043SOL    HW132591   3.200   4.515  11.449 -0.3797  0.6886 -0.6397
 7043SOL    HW232592   3.067   4.496  11.397  1.5217 -0.0611 -1.1037
 7044SOL     OW32593   2.681   3.628   0.704 -0.2254 -0.2828  0.3904
 7044SOL    HW132594   2.764   3.677   0.698  0.3060 -1.3038 -0.5569
 7044SOL    HW232595   2.692   3.564   0.634 -2.2235  0.9569 -1.0400
 7045SOL     OW32596   3.024   3.301   4.589 -0.0072  0.1726  0.1963
 7045SOL    HW132597   2.983   3.272   4.508 -2.1934  0.1195  1.3034
 7045SOL    HW232598   2.968   3.266   4.659  0.2996 -1.4863 -0.3790
 7046SOL     OW32599   3.828   4.243   4.378  0.0050 -0.5494 -0.1642
 7046SOL    HW132600   3.784   4.240   4.293 -2.0095  2.4957  0.7687
 7046SOL    HW232601   3.907   4.196   4.354 -0.1198 -0.8609  0.0316
 7047SOL     OW32602   2.339   3.894   9.623  1.3345 -0.0309  0.2896
 7047SOL    HW132603   2.292   3.856   9.697  1.8991 -2.4731 -0.6007
 7047SOL    HW232604   2.385   3.967   9.665 -0.5631  0.8914  0.7902
 7048SOL     OW32605   3.408   4.371   6.247 -0.3627 -0.1081  0.3693
 7048SOL    HW132606   3.352   4.443   6.218 -2.0594 -0.1965  3.5262
 7048SOL    HW232607   3.373   4.299   6.195  1.0398  0.2069 -1.0194
 7049SOL     OW32608   0.490   2.231   7.737 -0.2599  0.1682  0.1092
 7049SOL    HW132609   0.441   2.151   7.717  2.9813 -2.1298  1.2486
 7049SOL    HW232610   0.537   2.250   7.656  0.0862  1.8187  0.7049
 7050SOL     OW32611   0.587   4.679  14.406  0.7587  0.1509  0.4894
 7050SOL    HW132612   0.524   0.005  14.456  1.7260  2.4993 -0.7122
 7050SOL    HW232613   0.647   4.649  14.475 -1.5397 -0.1466  2.3386
 7051SOL     OW32614   3.922   4.326   3.042 -0.5555 -0.1747  0.0820
 7051SOL    HW132615   3.832   4.341   3.014 -0.5947  1.4392  1.0347
 7051SOL    HW232616   3.954   4.416   3.031 -3.1075  0.3458 -2.8990
 7052SOL     OW32617   4.679   2.142   8.395 -0.2880  0.1170 -0.2703
 7052SOL    HW132618   4.678   2.049   8.416 -1.0570  0.8719  3.0509
 7052SOL    HW232619   0.046   2.157   8.416 -0.5066 -1.3356  1.7119
 7053SOL     OW32620   3.696   2.360   0.857 -0.8657 -0.4516  0.0322
 7053SOL    HW132621   3.623   2.418   0.881  1.3000  1.9017  0.9048
 7053SOL    HW232622   3.774   2.392   0.902 -1.8066  3.7914 -1.3307
 7054SOL     OW32623   2.467   2.706   0.318 -0.1858 -0.1591  0.3119
 7054SOL    HW132624   2.460   2.802   0.320  1.4290  0.0238 -2.6542
 7054SOL    HW232625   2.557   2.680   0.300  0.1075  1.4891 -0.6006
 7055SOL     OW32626   3.072   0.198   1.299  0.2395 -0.0654  0.3866
 7055SOL    HW132627   3.073   0.114   1.253  1.0626 -1.0825  2.2275
 7055SOL    HW232628   2.997   0.243   1.261  2.0979  0.0177 -3.1666
 7056SOL     OW32629   0.498   3.226   1.828  0.0510 -0.0172 -0.1734
 7056SOL    HW132630   0.443   3.223   1.906 -1.5529  0.0851 -1.2858
 7056SOL    HW232631   0.425   3.221   1.765 -1.4721  0.4666  1.5496
 7057SOL     OW32632   3.451   1.468   3.017  0.0755 -0.4882 -0.6980
 7057SOL    HW132633   3.473   1.536   2.953 -0.4776  0.2686 -0.0770
 7057SOL    HW232634   3.415   1.399   2.960  0.6617 -1.0632 -0.3739
 7058SOL     OW32635   0.097   4.434   7.016  0.1739 -0.4501 -0.4948
 7058SOL    HW132636   0.004   4.418   7.005  0.1463  0.1992 -1.3153
 7058SOL    HW232637   0.108   4.360   7.075 -1.4943  1.0714  1.7011
 7059SOL     OW32638   3.878   3.343   7.978 -0.4024 -0.5736 -0.0182
 7059SOL    HW132639   3.918   3.429   7.988  0.7398 -0.7888 -2.6916
 7059SOL    HW232640   3.950   3.283   7.994 -1.4238 -2.0725 -1.0238
 7060SOL     OW32641   0.871   2.612   7.168  0.3081  0.0469 -0.0337
 7060SOL    HW132642   0.916   2.667   7.104 -0.1447  0.1328 -0.2806
 7060SOL    HW232643   0.889   2.656   7.250 -1.0093  0.5286 -0.0067
 7061SOL     OW32644   2.683   0.104   6.526  0.0123 -0.3969  0.3169
 7061SOL    HW132645   2.636   0.073   6.448  0.9533 -1.3760  0.1483
 7061SOL    HW232646   2.613   0.151   6.572 -0.4835  0.3124 -1.1356
 7062SOL     OW32647   0.936   0.094   5.075 -0.2339  0.2766  0.2784
 7062SOL    HW132648   0.891   0.096   4.991 -1.9562  0.9616  1.2048
 7062SOL    HW232649   1.020   0.136   5.055  1.0964 -2.3708  0.3535
 7063SOL     OW32650   3.035   2.068   9.618  0.0252 -0.0557 -0.2955
 7063SOL    HW132651   2.984   2.149   9.614 -1.3910 -1.0025 -1.2063
 7063SOL    HW232652   2.966   2.022   9.665  1.4615  0.5884  2.5028
 7064SOL     OW32653   4.064   3.798   7.423 -0.1862  0.3220 -0.0155
 7064SOL    HW132654   4.134   3.861   7.402 -2.3339  2.9182  0.6667
 7064SOL    HW232655   4.078   3.730   7.357  0.1328 -0.5178  0.9305
 7065SOL     OW32656   0.762   3.431   2.692  0.5831 -0.0311 -0.3655
 7065SOL    HW132657   0.678   3.396   2.724  1.2848  0.7143  2.3430
 7065SOL    HW232658   0.732   3.502   2.635  0.9659  0.8996  0.5752
 7066SOL     OW32659   1.574   1.759   4.293  0.4021 -0.2017 -0.7215
 7066SOL    HW132660   1.565   1.684   4.352  2.0311  0.1446 -0.0175
 7066SOL    HW232661   1.529   1.733   4.213  0.2948 -0.4926 -0.5659
 7067SOL     OW32662   0.530   4.480  17.173  0.0645 -0.0216  0.1884
 7067SOL    HW132663   0.623   4.480  17.149  0.1487  0.6137  0.5158
 7067SOL    HW232664   0.498   4.420  17.106 -0.3670  0.7081 -0.2591
 7068SOL     OW32665   3.034   3.672   6.945 -0.4327  0.0684  0.2492
 7068SOL    HW132666   3.069   3.713   7.024  0.8293  1.3886 -0.9931
 7068SOL    HW232667   3.115   3.635   6.912 -0.7186 -2.6346  2.5490
 7069SOL     OW32668   1.198   2.265   3.438 -0.1872  0.3999 -0.2364
 7069SOL    HW132669   1.160   2.334   3.382 -0.0433  0.6730  0.0030
 7069SOL    HW232670   1.211   2.196   3.374 -2.0115 -0.6065  0.4703
 7070SOL     OW32671   4.165   4.150   8.991  0.0122 -0.3314 -0.4817
 7070SOL    HW132672   4.218   4.070   8.996 -0.9402 -1.0182 -1.3013
 7070SOL    HW232673   4.103   4.121   8.924 -0.4086  0.6787 -0.5301
 7071SOL     OW32674   1.981   2.592  13.038  0.2532 -0.0799 -0.6675
 7071SOL    HW132675   1.962   2.552  13.122  1.5306  1.0202  0.1385
 7071SOL    HW232676   1.970   2.685  13.057  1.0943  0.1233 -1.1863
 7072SOL     OW32677   2.298   1.249   3.365  0.5922  0.1551 -0.0174
 7072SOL    HW132678   2.339   1.260   3.279  0.3915  2.4133  0.1766
 7072SOL    HW232679   2.225   1.310   3.371  0.3874 -0.2717  1.6226
 7073SOL     OW32680   1.146   0.172   6.081 -0.5115  0.0763  0.3758
 7073SOL    HW132681   1.153   0.077   6.072 -0.8437  0.0229  0.6398
 7073SOL    HW232682   1.166   0.189   6.173 -1.0720  0.3316  0.4513
 7074SOL     OW32683   1.219   3.413   5.304  0.5614 -0.1936 -0.1483
 7074SOL    HW132684   1.225   3.480   5.373  0.6620 -1.0181  0.6507
 7074SOL    HW232685   1.302   3.368   5.320  1.0707  0.7387 -0.1763
 7075SOL     OW32686   4.702   2.723   0.456  0.3093  0.4961  0.3364
 7075SOL    HW132687   0.014   2.635   0.447  1.1340  0.9152 -0.3388
 7075SOL    HW232688   0.056   2.775   0.469  1.0412  0.0548 -2.2221
 7076SOL     OW32689   4.543   3.595   7.138 -0.2920  0.3748 -0.3299
 7076SOL    HW132690   4.599   3.671   7.118  1.2179 -0.2227  1.6627
 7076SOL    HW232691   4.559   3.543   7.059  0.9960  0.7832 -0.3523
 7077SOL     OW32692   0.709   3.754   1.605  0.1003 -0.3189  0.4446
 7077SOL    HW132693   0.803   3.740   1.600 -0.4929 -3.5996 -1.6093
 7077SOL    HW232694   0.685   3.663   1.623 -0.5975 -0.1356  0.4452
 7078SOL     OW32695   3.304   2.458   9.856  0.4531  0.2336  0.4530
 7078SOL    HW132696   3.375   2.482   9.796 -0.1855  0.8323 -0.0576
 7078SOL    HW232697   3.336   2.375   9.892  1.0233  0.0027 -0.5728
 7079SOL     OW32698   4.628   2.977   6.863  0.4022 -0.6542  0.0275
 7079SOL    HW132699   4.641   3.061   6.907  1.3994 -0.6632 -0.2635
 7079SOL    HW232700   4.648   2.916   6.934  1.7770 -0.0094  0.1948
 7080SOL     OW32701   3.161   0.728  11.453  0.4119  0.3497 -0.2075
 7080SOL    HW132702   3.256   0.731  11.458  0.2974  0.5765  1.6316
 7080SOL    HW232703   3.149   0.750  11.360  0.6686  0.5870 -0.1834
 7081SOL     OW32704   2.062   2.109  13.210  0.6167  0.1766 -0.5230
 7081SOL    HW132705   1.986   2.165  13.194 -0.9771 -1.2049  2.3680
 7081SOL    HW232706   2.023   2.037  13.258 -0.0058 -0.4359 -1.9431
 7082SOL     OW32707   1.731   0.505   3.250 -0.3901  0.2557 -0.0321
 7082SOL    HW132708   1.673   0.563   3.201  0.2735 -0.4496 -1.6293
 7082SOL    HW232709   1.777   0.464   3.177  0.9125 -0.5792  1.2388
 7083SOL     OW32710   2.844   0.409   8.604  0.3260 -0.1973 -0.6122
 7083SOL    HW132711   2.895   0.424   8.525  0.8716 -1.8439 -0.5680
 7083SOL    HW232712   2.901   0.375   8.673 -1.7117 -0.5860  0.8880
 7084SOL     OW32713   3.431   2.547   3.747  0.4840  0.6226 -0.1563
 7084SOL    HW132714   3.396   2.606   3.813  1.5610 -0.7452  1.6551
 7084SOL    HW232715   3.355   2.508   3.706  0.2416  1.0446 -0.1067
 7085SOL     OW32716   0.419   1.149   4.746 -0.3478 -0.2457  0.2912
 7085SOL    HW132717   0.384   1.211   4.681 -1.5254 -1.6503 -0.4107
 7085SOL    HW232718   0.404   1.070   4.694  0.4428 -0.4437  0.3629
 7086SOL     OW32719   4.113   3.927   8.831 -0.3703 -0.1902 -0.1195
 7086SOL    HW132720   4.177   3.856   8.827  1.2352  1.1709  1.8453
 7086SOL    HW232721   4.050   3.893   8.767 -1.0504  0.0076  0.4454
 7087SOL     OW32722   4.269   1.583  11.788 -0.2235 -0.4498  0.4735
 7087SOL    HW132723   4.181   1.561  11.818 -1.5823  1.4238 -2.1040
 7087SOL    HW232724   4.291   1.672  11.814  4.3116 -1.5686  0.6104
 7088SOL     OW32725   2.807   3.661   9.288  0.0775 -0.2637  0.2959
 7088SOL    HW132726   2.790   3.717   9.363 -0.4896 -1.8865  1.3596
 7088SOL    HW232727   2.826   3.728   9.222 -1.9337  0.3620  0.3486
 7089SOL     OW32728   2.502   2.802   2.587  0.0819 -0.3479  0.1230
 7089SOL    HW132729   2.417   2.808   2.544 -0.2370 -2.8427  0.4099
 7089SOL    HW232730   2.488   2.730   2.649 -1.5165 -1.2461 -1.2856
 7090SOL     OW32731   2.822   1.489  16.286  0.6023  0.4973  0.4291
 7090SOL    HW132732   2.865   1.459  16.366 -0.6820 -1.3581  0.4340
 7090SOL    HW232733   2.778   1.409  16.256 -1.5580  1.8445  0.0384
 7091SOL     OW32734   3.496   3.209   7.469 -0.0395 -0.0345 -0.3670
 7091SOL    HW132735   3.424   3.199   7.531 -0.2641 -0.1177 -0.6348
 7091SOL    HW232736   3.466   3.173   7.385 -0.6594 -1.3872  0.4405
 7092SOL     OW32737   3.683   4.511   3.382  0.2547 -0.2026  0.5840
 7092SOL    HW132738   3.652   4.421   3.371 -0.1529  0.1180 -0.9290
 7092SOL    HW232739   3.604   4.554   3.348  2.3846  0.9482 -2.9280
 7093SOL     OW32740   3.783   3.043  14.069  0.4300 -0.3168 -0.9557
 7093SOL    HW132741   3.694   3.050  14.106  1.6353 -0.2370  1.9480
 7093SOL    HW232742   3.809   3.135  14.066 -1.3840  0.2163 -0.7336
 7094SOL     OW32743   3.705   3.059  15.831  0.1659  0.3075 -0.0305
 7094SOL    HW132744   3.688   2.967  15.849 -0.0910  0.2513 -0.5592
 7094SOL    HW232745   3.750   3.056  15.747  0.8222 -3.0866  0.4845
 7095SOL     OW32746   0.211   3.448   7.819  0.3896  0.0815  0.2169
 7095SOL    HW132747   0.231   3.365   7.776  2.3221  1.0442 -0.7036
 7095SOL    HW232748   0.270   3.499   7.765  1.3469 -0.2690  0.9365
 7096SOL     OW32749   4.337   0.865   0.330 -0.5573  0.4729  0.2420
 7096SOL    HW132750   4.380   0.928   0.387 -0.9414  2.4322 -1.6652
 7096SOL    HW232751   4.398   0.852   0.258 -2.7939  4.0249 -2.2841
 7097SOL     OW32752   1.496   0.279   1.690  0.9262 -0.8083 -0.3032
 7097SOL    HW132753   1.486   0.310   1.600  1.5447 -0.2895 -0.2021
 7097SOL    HW232754   1.408   0.284   1.727  1.0625 -0.1423 -0.0672
 7098SOL     OW32755   1.631   3.723  16.310 -0.5198  0.1852  0.1667
 7098SOL    HW132756   1.689   3.784  16.355 -0.4088  0.2155 -0.0164
 7098SOL    HW232757   1.682   3.711  16.230 -1.2200  0.3421 -0.3047
 7099SOL     OW32758   0.160   0.299   8.001 -0.2158  0.0175  0.4303
 7099SOL    HW132759   0.229   0.232   7.992 -0.8857 -0.0596 -4.2869
 7099SOL    HW232760   0.207   0.356   8.060  2.0203 -0.3377 -0.9966
 7100SOL     OW32761   3.155   0.674   5.364  0.0756  0.2408  0.5275
 7100SOL    HW132762   3.130   0.766   5.379  2.6399  1.4856 -2.9493
 7100SOL    HW232763   3.134   0.634   5.448 -0.1694 -0.4561  0.1336
 7101SOL     OW32764   1.821   1.445   7.266  0.4749  0.3935 -0.0494
 7101SOL    HW132765   1.873   1.517   7.233 -2.0243  1.9327 -0.6604
 7101SOL    HW232766   1.885   1.374   7.259  0.5905  0.3589  1.3518
 7102SOL     OW32767   1.960   2.649  13.463  0.4259  0.4144 -0.1636
 7102SOL    HW132768   1.994   2.563  13.436 -1.3269 -0.5165  0.5299
 7102SOL    HW232769   2.007   2.712  13.409 -0.2603  1.6031  0.6284
 7103SOL     OW32770   0.334   4.397   7.889  0.5006 -0.2696 -0.1289
 7103SOL    HW132771   0.265   4.439   7.941 -0.3641 -2.5028  0.5106
 7103SOL    HW232772   0.341   4.309   7.926 -0.2728 -0.6626 -0.9243
 7104SOL     OW32773   3.930   4.091   2.444  0.3909 -0.0196  0.8864
 7104SOL    HW132774   3.959   4.138   2.522 -0.3692 -0.2192  1.2879
 7104SOL    HW232775   4.017   4.088   2.405 -0.0912 -2.8047 -0.0040
 7105SOL     OW32776   0.130   0.477   5.772 -0.0936  0.5005  0.5019
 7105SOL    HW132777   0.153   0.485   5.680 -3.8351  1.5860 -0.3454
 7105SOL    HW232778   0.103   0.385   5.773  0.7673  0.2568  0.5025
 7106SOL     OW32779   4.533   3.762   5.588  0.1308 -0.4016  0.3050
 7106SOL    HW132780   4.465   3.743   5.523  0.5440 -0.0707 -0.2250
 7106SOL    HW232781   4.505   3.846   5.625 -2.8219 -1.7617  1.1956
 7107SOL     OW32782   1.483   2.286   5.858  0.3454 -0.0651  0.0739
 7107SOL    HW132783   1.472   2.376   5.890  1.1175 -0.3475  1.1084
 7107SOL    HW232784   1.523   2.307   5.773  1.7695  0.5496  0.9148
 7108SOL     OW32785   3.183   3.114  13.916 -0.6902 -0.0328 -0.2870
 7108SOL    HW132786   3.165   3.202  13.949  0.0578 -0.1960  0.5366
 7108SOL    HW232787   3.278   3.104  13.922 -0.8414 -1.5645 -0.6238
 7109SOL     OW32788   3.098   0.293   3.747  0.1455  0.0504  0.5480
 7109SOL    HW132789   3.039   0.339   3.806  1.4254  2.4060 -0.0460
 7109SOL    HW232790   3.179   0.326   3.784 -0.9983  1.6775  1.6251
 7110SOL     OW32791   3.255   0.093   6.869 -0.4810 -0.0892 -0.4554
 7110SOL    HW132792   3.174   0.145   6.878 -0.5313 -0.4765  1.4689
 7110SOL    HW232793   3.311   0.116   6.943 -1.2610 -1.0221  0.4290
 7111SOL     OW32794   3.895   4.074   4.619 -0.8927  0.5161 -0.6795
 7111SOL    HW132795   3.846   4.084   4.538  0.1566  1.7960 -1.1586
 7111SOL    HW232796   3.833   4.103   4.686  0.2503 -1.4187  1.2229
 7112SOL     OW32797   2.007   2.335   9.351  0.3207 -0.0082  0.0580
 7112SOL    HW132798   2.093   2.293   9.359 -1.3140 -3.4655 -0.5985
 7112SOL    HW232799   1.993   2.330   9.256 -1.7746 -1.7397  0.4717
 7113SOL     OW32800   1.446   0.966  15.863  0.2798  0.0767 -0.2322
 7113SOL    HW132801   1.469   1.044  15.812  1.6559 -0.0367  0.2119
 7113SOL    HW232802   1.358   0.966  15.900  0.7615 -2.3792  0.9000
 7114SOL     OW32803   1.451   3.614   5.131 -0.0161 -0.4281 -0.3859
 7114SOL    HW132804   1.399   3.600   5.052 -1.5051  1.5913  0.2445
 7114SOL    HW232805   1.444   3.526   5.167 -1.6789  0.3865  1.2748
 7115SOL     OW32806   3.988   3.379   4.268 -0.3906  0.2521  0.0414
 7115SOL    HW132807   4.005   3.292   4.306 -3.7661  0.5514  2.3254
 7115SOL    HW232808   3.910   3.346   4.222  0.7137 -2.4889  0.1224
 7116SOL     OW32809   1.501   3.304   9.757  0.6693  0.6946  0.2038
 7116SOL    HW132810   1.460   3.247   9.822  1.2462 -2.8016 -2.4783
 7116SOL    HW232811   1.518   3.389   9.797  0.2187  1.4128 -1.1339
 7117SOL     OW32812   2.094   2.783   4.300 -0.1689  0.4587 -0.1420
 7117SOL    HW132813   2.008   2.788   4.258 -1.3161 -0.9522  2.0121
 7117SOL    HW232814   2.148   2.836   4.242  1.7352 -0.3707  0.8937
 7118SOL     OW32815   2.009   3.671   6.109  0.0092 -0.1063 -1.0611
 7118SOL    HW132816   1.991   3.629   6.025  2.2125 -2.0257 -0.5564
 7118SOL    HW232817   1.958   3.610   6.163  1.8175  0.3515  1.1389
 7119SOL     OW32818   1.858   2.086   7.563 -0.2629  0.2789 -0.2005
 7119SOL    HW132819   1.837   1.996   7.536  2.1489 -0.1866 -0.5095
 7119SOL    HW232820   1.904   2.122   7.487  0.4170 -0.2575 -0.0480
 7120SOL     OW32821   3.121   2.702   1.609  0.2746  0.1293 -0.3669
 7120SOL    HW132822   3.042   2.751   1.630 -1.2971 -2.3269 -0.4783
 7120SOL    HW232823   3.089   2.660   1.529 -0.4799  1.9537 -1.0147
 7121SOL     OW32824   0.840   2.308   2.929 -0.1625  0.6717  0.0038
 7121SOL    HW132825   0.778   2.241   2.899  1.6046 -0.5952 -0.8477
 7121SOL    HW232826   0.853   2.355   2.846 -1.3643  1.3532  0.1991
 7122SOL     OW32827   1.006   0.913   0.455 -0.4370 -0.4064 -0.1556
 7122SOL    HW132828   1.065   0.929   0.528 -1.3432  0.6176  0.3383
 7122SOL    HW232829   1.022   0.819   0.445  0.4588 -0.1998 -0.7283
 7123SOL     OW32830   4.439   4.032   9.175 -0.6228 -0.2751 -0.5291
 7123SOL    HW132831   4.499   3.970   9.217 -0.7075 -1.8715 -2.7865
 7123SOL    HW232832   4.440   3.996   9.087 -1.3899 -0.9500 -0.2627
 7124SOL     OW32833   3.113   0.004  10.874  0.5429  0.2031 -0.4057
 7124SOL    HW132834   3.131   0.032  10.784 -1.9850  1.9345 -0.3701
 7124SOL    HW232835   3.108   0.083  10.927 -1.9668 -2.0151  2.6347
 7125SOL     OW32836   4.238   1.403  10.342 -0.1339 -0.4154  0.0156
 7125SOL    HW132837   4.145   1.379  10.342 -0.1694 -0.2631  1.6315
 7125SOL    HW232838   4.254   1.364  10.427 -2.4113 -2.9582 -0.7337
 7126SOL     OW32839   2.713   4.681   8.179  0.4570  0.3221 -0.4501
 7126SOL    HW132840   2.656   0.026   8.148 -1.0181 -0.7067 -0.0859
 7126SOL    HW232841   2.675   4.616   8.121  1.5424 -0.4220 -0.3285
 7127SOL     OW32842   1.218   3.696   5.922  0.2553  0.6331  0.1230
 7127SOL    HW132843   1.173   3.635   5.864 -1.0314 -0.0727  1.8693
 7127SOL    HW232844   1.256   3.632   5.982  0.3742 -0.3024 -0.9376
 7128SOL     OW32845   0.678   4.204   1.182  0.3984  0.1082  0.9588
 7128SOL    HW132846   0.647   4.127   1.229 -0.0061  0.9231  2.0216
 7128SOL    HW232847   0.650   4.187   1.092  2.4955 -2.1775  0.7567
 7129SOL     OW32848   1.296   2.742   3.037 -0.9667 -0.2012 -0.9997
 7129SOL    HW132849   1.211   2.779   3.061 -0.2443  0.7815  0.0726
 7129SOL    HW232850   1.340   2.827   3.036 -0.5837 -0.3969 -1.0321
 7130SOL     OW32851   2.263   1.109   6.621  0.3921  0.1662  0.4290
 7130SOL    HW132852   2.195   1.045   6.642  0.6931 -0.6722 -1.2026
 7130SOL    HW232853   2.220   1.168   6.560 -0.7426 -0.2457  0.8350
 7131SOL     OW32854   1.490   3.339  16.688 -0.2122 -0.1848  0.3282
 7131SOL    HW132855   1.448   3.383  16.614  2.1181  0.0393 -0.8442
 7131SOL    HW232856   1.427   3.266  16.686 -2.0212  1.2830  3.5804
 7132SOL     OW32857   3.325   4.537   3.994  0.1432  0.3379  0.3590
 7132SOL    HW132858   3.276   4.575   3.921  1.0096 -0.7715 -0.8122
 7132SOL    HW232859   3.274   4.556   4.072  0.8932  3.0474  0.2009
 7133SOL     OW32860   0.332   2.695   6.668  0.2146 -0.2535 -0.5533
 7133SOL    HW132861   0.391   2.622   6.690  0.3014 -0.4793 -1.5657
 7133SOL    HW232862   0.291   2.658   6.590 -1.2135 -3.1803  1.5806
 7134SOL     OW32863   0.398   0.913   4.636 -0.5000  0.5822  0.1667
 7134SOL    HW132864   0.340   0.871   4.573 -1.3360 -0.3037  1.5361
 7134SOL    HW232865   0.486   0.880   4.617 -0.7461 -0.1384  0.2736
 7135SOL     OW32866   0.108   3.851   6.468 -0.0137 -0.0531 -0.6056
 7135SOL    HW132867   0.026   3.857   6.518 -0.3894  1.3476 -1.3911
 7135SOL    HW232868   0.133   3.940   6.489  0.4856 -0.1620 -0.7389
 7136SOL     OW32869   4.640   3.225   4.255  0.0808  0.0195  0.4618
 7136SOL    HW132870   4.709   3.190   4.200  0.8967  0.2643  1.3237
 7136SOL    HW232871   4.611   3.143   4.294  3.0425 -0.9552  0.6095
 7137SOL     OW32872   2.350   1.080  16.890 -0.7358  0.5720 -0.4433
 7137SOL    HW132873   2.319   1.020  16.958 -1.1790  1.8531  0.4644
 7137SOL    HW232874   2.387   1.148  16.945 -0.0289  0.3602 -0.6534
 7138SOL     OW32875   0.305   1.797   4.461 -0.9234 -0.9693  0.1942
 7138SOL    HW132876   0.340   1.807   4.372 -2.6669 -3.2202 -0.7398
 7138SOL    HW232877   0.212   1.780   4.451 -0.6565 -0.8561 -2.6733
 7139SOL     OW32878   2.564   4.645   3.120  0.3090 -0.2676 -0.1700
 7139SOL    HW132879   2.472   4.618   3.126 -0.2702  1.7969  0.5195
 7139SOL    HW232880   2.605   4.574   3.170  0.8561  1.6007  2.0530
 7140SOL     OW32881   0.675   1.375  11.864 -0.0320 -0.4296  0.0054
 7140SOL    HW132882   0.623   1.448  11.829 -2.2561 -1.0227  2.0530
 7140SOL    HW232883   0.603   1.340  11.918 -0.1689 -2.2893 -1.4058
 7141SOL     OW32884   0.593   0.139   3.310 -0.2360  0.0062  0.0210
 7141SOL    HW132885   0.673   0.159   3.358 -0.9332  1.0442  0.7522
 7141SOL    HW232886   0.563   0.062   3.358  0.4992 -1.0531 -1.2185
 7142SOL     OW32887   0.784   3.025   7.502  0.5984 -0.4594  0.1350
 7142SOL    HW132888   0.725   3.099   7.500  0.9628 -0.1570  0.7997
 7142SOL    HW232889   0.770   2.988   7.414 -0.1294 -1.4066  0.6428
 7143SOL     OW32890   1.783   2.574   8.034  0.0683 -0.5491  0.2573
 7143SOL    HW132891   1.720   2.644   8.014  0.9005  0.0988 -0.0761
 7143SOL    HW232892   1.730   2.497   8.011  0.0697 -1.5232  3.4606
 7144SOL     OW32893   3.383   2.563  11.053 -0.1367 -0.2343  0.3630
 7144SOL    HW132894   3.294   2.593  11.037  0.4392  1.0986 -0.3478
 7144SOL    HW232895   3.421   2.637  11.102  0.6893 -0.0505 -0.5639
 7145SOL     OW32896   1.112   2.838   1.478 -0.2437 -0.7286 -0.1951
 7145SOL    HW132897   1.052   2.854   1.405  0.3326 -0.2404 -0.5618
 7145SOL    HW232898   1.112   2.743   1.485 -1.1789 -0.6170  1.4161
 7146SOL     OW32899   4.513   4.250  11.809 -0.2969 -0.2012 -0.1170
 7146SOL    HW132900   4.532   4.268  11.717  1.6629 -0.1545  0.3011
 7146SOL    HW232901   4.598   4.281  11.840 -0.8616  2.1069 -0.8839
 7147SOL     OW32902   1.152   0.919   6.145 -0.2916  0.2024 -0.2173
 7147SOL    HW132903   1.096   0.972   6.201 -0.6963  1.3638 -1.7387
 7147SOL    HW232904   1.136   0.836   6.190  1.2139  0.7553  1.3547
 7148SOL     OW32905   2.039   1.324  11.285 -0.2717  0.6358 -0.0310
 7148SOL    HW132906   1.965   1.273  11.316  1.0758 -0.9528  0.6199
 7148SOL    HW232907   2.111   1.266  11.313  0.3038  2.3460  2.0380
 7149SOL     OW32908   2.617   0.812   5.375  0.0740  0.7212  0.1135
 7149SOL    HW132909   2.676   0.744   5.342 -0.0948  0.4984  0.2699
 7149SOL    HW232910   2.628   0.808   5.470  1.6358  1.7648 -0.0208
 7150SOL     OW32911   0.344   3.029   8.786  0.3051 -0.3138  0.2314
 7150SOL    HW132912   0.318   2.937   8.774 -1.3535  0.6022 -3.1012
 7150SOL    HW232913   0.389   3.021   8.870  2.6349  3.3100 -0.6713
 7151SOL     OW32914   0.477   4.576  16.584 -0.0683 -0.1590 -0.5926
 7151SOL    HW132915   0.421   4.514  16.632  0.7626  0.4475  1.1912
 7151SOL    HW232916   0.455   4.655  16.635 -1.1339  0.4822 -2.0499
 7152SOL     OW32917   0.466   2.704   6.054  0.0716  0.5961  0.5563
 7152SOL    HW132918   0.389   2.671   6.101  0.5820  1.4421  2.0013
 7152SOL    HW232919   0.513   2.731   6.133 -0.0526  0.3061  0.7290
 7153SOL     OW32920   4.119   4.299   9.745  0.0440  0.1273  0.2185
 7153SOL    HW132921   4.178   4.375   9.744 -0.8139  0.8053  1.1707
 7153SOL    HW232922   4.184   4.230   9.759 -1.2101 -1.0412  0.3078
 7154SOL     OW32923   4.017   0.996   3.502  0.1934 -0.6796 -0.3169
 7154SOL    HW132924   4.104   1.027   3.525  0.9146 -3.0612  0.2416
 7154SOL    HW232925   4.048   0.922   3.449 -3.2574 -0.7751 -2.2654
 7155SOL     OW32926   3.119   0.677   2.123  0.6584  0.1698 -0.5289
 7155SOL    HW132927   3.127   0.772   2.132  0.4013  0.2133 -0.7456
 7155SOL    HW232928   3.023   0.679   2.128  0.7320 -1.6562  1.3566
 7156SOL     OW32929   0.535   3.938   7.594 -0.0411 -0.4644  0.2057
 7156SOL    HW132930   0.456   3.925   7.648  0.5603  0.3803  1.2939
 7156SOL    HW232931   0.596   3.935   7.667 -1.7647 -0.6612  1.6508
 7157SOL     OW32932   1.566   2.475   0.282  0.8850  0.3582  0.2734
 7157SOL    HW132933   1.513   2.536   0.333  0.7065  0.8816 -0.5431
 7157SOL    HW232934   1.583   2.520   0.199  0.3643 -1.0407 -0.5832
 7158SOL     OW32935   2.861   1.363   2.898 -0.7237 -0.5338  0.6271
 7158SOL    HW132936   2.940   1.330   2.854 -1.4551  1.2085 -1.9725
 7158SOL    HW232937   2.901   1.384   2.982 -0.5990  1.3648  0.0987
 7159SOL     OW32938   3.253   2.079   1.394 -0.5008  0.3936  0.9836
 7159SOL    HW132939   3.162   2.062   1.370 -0.0387  1.5251 -1.5822
 7159SOL    HW232940   3.272   2.008   1.455  1.0800  0.5027  0.6295
 7160SOL     OW32941   4.486   1.799  17.559  0.7864  0.6003  0.0479
 7160SOL    HW132942   4.459   1.784  17.469 -0.4073 -1.6866  0.7949
 7160SOL    HW232943   4.441   1.883  17.572 -1.0296 -0.2907 -0.3515
 7161SOL     OW32944   2.265   0.409   2.754 -0.4777  0.4271  0.8217
 7161SOL    HW132945   2.221   0.473   2.810 -0.8823 -0.1444  1.1512
 7161SOL    HW232946   2.339   0.463   2.725 -1.7448  2.4381  1.3585
 7162SOL     OW32947   3.671   1.559  11.390  0.1303 -0.5371 -0.5200
 7162SOL    HW132948   3.751   1.547  11.338  0.9789  1.8640  0.2410
 7162SOL    HW232949   3.684   1.496  11.462  1.7055  0.9976  0.5556
 7163SOL     OW32950   4.062   3.121   4.332  0.3921  0.0212 -0.4714
 7163SOL    HW132951   4.067   3.067   4.254  1.1369 -0.4093 -0.1279
 7163SOL    HW232952   3.987   3.092   4.383  0.9691 -1.7109 -0.6014
 7164SOL     OW32953   1.673   0.066   1.738  0.7937 -0.3465 -0.1450
 7164SOL    HW132954   1.622   0.147   1.742  1.7704  0.2293  0.6120
 7164SOL    HW232955   1.676   0.055   1.643 -0.6359  2.1689 -0.4631
 7165SOL     OW32956   2.750   3.731   7.133  0.1111 -0.1242 -0.1832
 7165SOL    HW132957   2.725   3.677   7.059  0.5984 -0.0223 -0.4246
 7165SOL    HW232958   2.845   3.721   7.128 -0.1132 -1.0485 -2.2036
 7166SOL     OW32959   4.619   4.699   2.745  0.3199 -0.5489  0.9548
 7166SOL    HW132960   4.534   4.670   2.712  1.5165 -0.5724 -2.0955
 7166SOL    HW232961   4.656   4.722   2.660 -0.7201  2.2083  1.2256
 7167SOL     OW32962   3.214   3.738  13.773  0.0996 -0.0780  0.6401
 7167SOL    HW132963   3.270   3.806  13.736 -1.3341  0.5028 -0.4608
 7167SOL    HW232964   3.196   3.749  13.866  1.3148 -1.7293  1.0869
 7168SOL     OW32965   0.850   0.123   3.455 -0.1747 -0.1434  0.2086
 7168SOL    HW132966   0.785   0.092   3.518  0.0506 -0.4982  0.2641
 7168SOL    HW232967   0.857   0.218   3.470  0.6470 -0.1898  0.1233
 7169SOL     OW32968   3.823   2.597   2.917  0.1338  0.1115 -0.4177
 7169SOL    HW132969   3.756   2.538   2.883  0.2178 -0.3299  0.1883
 7169SOL    HW232970   3.858   2.633   2.836  0.3265  1.7573  0.4070
 7170SOL     OW32971   0.291   2.262   2.524  0.3253  0.1221 -0.3752
 7170SOL    HW132972   0.340   2.344   2.518  1.4408 -0.5747 -0.8438
 7170SOL    HW232973   0.202   2.296   2.509  0.4431  0.1013 -1.1278
 7171SOL     OW32974   2.994   1.339   2.196  0.7918 -0.2775 -0.1076
 7171SOL    HW132975   3.030   1.388   2.121  0.7350 -1.8880 -1.1806
 7171SOL    HW232976   2.900   1.327   2.181  0.5452  1.7420 -0.1586
 7172SOL     OW32977   1.422   3.528   2.241  0.4032 -0.2998 -0.6531
 7172SOL    HW132978   1.481   3.604   2.245  1.3354 -1.0468 -0.3180
 7172SOL    HW232979   1.431   3.493   2.153 -0.8331 -1.2532 -0.3955
 7173SOL     OW32980   0.560   1.808   5.279  0.0560 -0.1643  0.4295
 7173SOL    HW132981   0.487   1.840   5.331  1.3894  2.6317  0.5951
 7173SOL    HW232982   0.606   1.743   5.332  0.0096 -1.8858 -1.6346
 7174SOL     OW32983   0.280   0.915   0.392 -0.3265 -0.5946  0.4440
 7174SOL    HW132984   0.359   0.966   0.408  0.8032 -1.9684 -0.8002
 7174SOL    HW232985   0.226   0.983   0.432  0.6710  1.3064 -1.4481
 7175SOL     OW32986   4.189   1.522  15.025 -0.3445 -0.2270  0.1242
 7175SOL    HW132987   4.250   1.510  14.952 -1.1301  1.8761 -0.8632
 7175SOL    HW232988   4.256   1.515  15.092 -1.2738 -0.9270  0.9884
 7176SOL     OW32989   1.417   1.655  15.490  0.2517 -0.7060 -0.9451
 7176SOL    HW132990   1.375   1.711  15.425 -2.0645  0.1576  1.3050
 7176SOL    HW232991   1.420   1.574  15.439  0.3248 -1.9738  1.0731
 7177SOL     OW32992   1.717   0.426   7.628  0.2043 -0.1718  0.5262
 7177SOL    HW132993   1.773   0.366   7.677 -0.0277 -0.5424  0.3441
 7177SOL    HW232994   1.697   0.490   7.696 -1.2464 -0.3694  0.2864
 7178SOL     OW32995   0.964   3.730   1.558 -0.1878  0.3742  0.3193
 7178SOL    HW132996   1.014   3.799   1.600 -0.3429 -0.0354  1.1875
 7178SOL    HW232997   1.023   3.701   1.490 -0.3831  1.0233 -0.1247
 7179SOL     OW32998   4.070   2.332   8.759 -0.3756 -0.4013  0.2024
 7179SOL    HW132999   4.046   2.264   8.821 -0.7610 -1.4546 -1.1056
 7179SOL    HW233000   4.165   2.321   8.765  0.0708  2.1757 -1.6145
 7180SOL     OW33001   2.588   0.567   7.038  0.0248  0.1487 -0.3524
 7180SOL    HW133002   2.526   0.556   6.967  0.4963  0.2546 -0.7780
 7180SOL    HW233003   2.531   0.594   7.110  2.2307 -0.9643  1.8068
 7181SOL     OW33004   2.411   4.324  11.439 -0.2399  0.3658  0.2240
 7181SOL    HW133005   2.331   4.277  11.415 -0.6201  1.8721 -1.5343
 7181SOL    HW233006   2.474   4.259  11.409 -0.6080 -0.8745  2.1439
 7182SOL     OW33007   1.815   3.985   5.531 -0.2228  0.3647  0.5708
 7182SOL    HW133008   1.720   3.977   5.524 -0.0046 -1.7084 -0.0927
 7182SOL    HW233009   1.808   4.050   5.601 -2.0101  2.3852 -1.4828
 7183SOL     OW33010   0.241   4.278   3.803  0.0230 -0.1407 -0.4350
 7183SOL    HW133011   0.171   4.330   3.764 -0.4142  0.5424  1.2888
 7183SOL    HW233012   0.278   4.240   3.723 -0.6678  0.6868 -1.1544
 7184SOL     OW33013   0.409   2.725  15.551  0.1497 -0.3875  0.0817
 7184SOL    HW133014   0.412   2.754  15.642 -2.0594  2.7240 -0.8776
 7184SOL    HW233015   0.371   2.802  15.510  1.8503 -0.9591 -2.5754
 7185SOL     OW33016   4.450   2.022   2.583  0.0608 -0.1611 -0.1847
 7185SOL    HW133017   4.474   1.997   2.494 -0.9624 -1.8793  0.0201
 7185SOL    HW233018   4.357   2.002   2.584 -0.6649  3.3828  0.5492
 7186SOL     OW33019   0.229   1.152   7.374  0.2753  0.6753 -0.3098
 7186SOL    HW133020   0.271   1.080   7.421 -0.3414  0.9510  0.6580
 7186SOL    HW233021   0.149   1.114   7.339  1.1492 -0.5835 -0.9536
 7187SOL     OW33022   2.798   4.482   2.102 -0.0460  0.3164 -0.3486
 7187SOL    HW133023   2.882   4.483   2.147  0.1484 -0.6976 -0.6857
 7187SOL    HW233024   2.784   4.388   2.093 -0.6357  0.2844  0.9022
 7188SOL     OW33025   1.114   0.281   4.033  0.3124  0.3768 -0.5988
 7188SOL    HW133026   1.194   0.295   3.982  1.1254  1.3699  0.9383
 7188SOL    HW233027   1.143   0.221   4.101 -2.2476  0.2177  0.3461
 7189SOL     OW33028   0.759   1.007  15.952  0.1095  0.0870  0.1613
 7189SOL    HW133029   0.744   1.034  15.861 -1.9486  1.8418  1.0282
 7189SOL    HW233030   0.684   1.048  15.995 -0.3448 -0.7996  0.2170
 7190SOL     OW33031   4.564   2.706   0.793 -0.2379 -0.9164 -0.4674
 7190SOL    HW133032   4.595   2.796   0.784  0.8589 -1.0005  2.4220
 7190SOL    HW233033   4.472   2.718   0.768  0.2237 -1.4333 -2.4066
 7191SOL     OW33034   3.317   4.156   3.063 -0.0139 -0.5792  0.1422
 7191SOL    HW133035   3.301   4.212   3.139 -0.0214  0.3757 -0.5667
 7191SOL    HW233036   3.327   4.216   2.989  0.4882  0.0117  0.6894
 7192SOL     OW33037   4.431   1.528   4.462  0.2723 -0.7816 -0.1846
 7192SOL    HW133038   4.525   1.526   4.449  0.1011 -0.0049 -1.5955
 7192SOL    HW233039   4.397   1.535   4.373  0.2266  0.3653 -0.0815
 7193SOL     OW33040   2.661   3.362  16.595  0.3326 -0.2221 -0.5642
 7193SOL    HW133041   2.589   3.299  16.587  1.1749 -1.3182  0.4817
 7193SOL    HW233042   2.654   3.402  16.509 -1.9342 -0.1511 -0.3507
 7194SOL     OW33043   4.042   0.343   7.044  0.5624 -0.1253  0.5190
 7194SOL    HW133044   4.024   0.426   6.999  2.6022  0.6134  1.0642
 7194SOL    HW233045   4.111   0.353   7.109  0.8999  0.0926  0.1274
 7195SOL     OW33046   4.142   3.431  11.991  0.9783  0.4298 -0.0339
 7195SOL    HW133047   4.105   3.487  12.059 -0.7184  0.1095 -0.6966
 7195SOL    HW233048   4.222   3.404  12.036  1.1811 -2.5307 -2.1366
 7196SOL     OW33049   3.805   1.143   4.495  0.3945  0.3287 -0.3395
 7196SOL    HW133050   3.852   1.214   4.451 -0.3025  1.8627  1.4109
 7196SOL    HW233051   3.873   1.117   4.557  0.3213 -0.2035 -0.4868
 7197SOL     OW33052   1.931   1.349  12.516 -0.3883  0.2806 -0.5565
 7197SOL    HW133053   1.859   1.388  12.466 -0.7714  0.4870  0.1478
 7197SOL    HW233054   1.923   1.386  12.604 -0.4680 -0.7121 -0.1509
 7198SOL     OW33055   1.974   3.857   6.579 -0.3440  0.3790  0.2711
 7198SOL    HW133056   1.981   3.902   6.663 -1.9602 -1.7100  1.5399
 7198SOL    HW233057   1.989   3.937   6.529  4.1185  0.0943  1.1175
 7199SOL     OW33058   0.716   2.811   2.272  0.2734  0.4084 -0.0227
 7199SOL    HW133059   0.754   2.730   2.238 -1.1842 -0.4125  0.2880
 7199SOL    HW233060   0.755   2.877   2.214 -0.4542 -1.2456 -2.4357
 7200SOL     OW33061   2.094   2.504   4.818  0.0411 -0.2016 -0.2261
 7200SOL    HW133062   2.181   2.520   4.781  0.3182  0.0356  0.5216
 7200SOL    HW233063   2.050   2.579   4.778  1.5153  2.2907  2.9031
 7201SOL     OW33064   3.433   3.986   7.848 -0.4929 -0.4882  0.2885
 7201SOL    HW133065   3.413   4.059   7.906 -0.7958 -0.7746  0.5472
 7201SOL    HW233066   3.387   4.008   7.766 -1.2546 -1.1060  0.5481
 7202SOL     OW33067   2.722   0.964   4.215  0.2110  1.3176 -0.0341
 7202SOL    HW133068   2.721   1.051   4.176 -1.1585  0.7352 -1.3057
 7202SOL    HW233069   2.699   0.912   4.138 -1.3360  1.1590  0.5373
 7203SOL     OW33070   1.250   3.076   2.149 -0.0975  0.3912 -0.0777
 7203SOL    HW133071   1.239   3.141   2.080  2.7169  0.3193 -0.5916
 7203SOL    HW233072   1.299   3.133   2.209 -1.2268  0.8767  0.3716
 7204SOL     OW33073   1.114   0.034   2.244 -0.1104 -0.0230 -0.0082
 7204SOL    HW133074   1.136   0.126   2.258  1.5211  0.1078 -3.3083
 7204SOL    HW233075   1.044   0.013   2.306  0.1866  0.7983  0.5956
 7205SOL     OW33076   2.948   2.221   3.432 -0.3647 -0.0460  0.5586
 7205SOL    HW133077   3.035   2.261   3.423 -1.0123  1.1784 -0.3337
 7205SOL    HW233078   2.888   2.278   3.383 -1.2695 -1.7464 -0.2950
 7206SOL     OW33079   0.301   1.886   2.792 -0.4774 -0.5850 -0.0052
 7206SOL    HW133080   0.268   1.862   2.705  0.8633  2.0759 -1.2500
 7206SOL    HW233081   0.338   1.973   2.778  1.6650 -1.2079  1.8378
 7207SOL     OW33082   1.032   4.241   3.193  0.0934 -0.6839  0.1908
 7207SOL    HW133083   0.999   4.173   3.251 -0.5792 -0.5326 -0.0122
 7207SOL    HW233084   1.073   4.187   3.126  1.9210  1.0987 -0.1286
 7208SOL     OW33085   0.870   0.919  16.186  0.2469 -0.0999  0.3170
 7208SOL    HW133086   0.778   0.909  16.212  0.1269 -2.1492 -0.8422
 7208SOL    HW233087   0.846   0.946  16.097  1.0192  2.7741  0.9821
 7209SOL     OW33088   3.333   1.561  13.122  0.2926 -0.9418 -0.3518
 7209SOL    HW133089   3.386   1.568  13.043 -1.1734 -0.9783 -1.3336
 7209SOL    HW233090   3.247   1.528  13.097  0.3043  0.9369 -2.8309
 7210SOL     OW33091   1.247   3.226   5.588  0.4487 -0.6062  0.7049
 7210SOL    HW133092   1.335   3.189   5.576  0.0355 -1.0661 -0.8418
 7210SOL    HW233093   1.270   3.319   5.591 -0.0254 -0.4801  0.3794
 7211SOL     OW33094   4.198   4.414   0.224 -0.4938  0.0102 -0.5088
 7211SOL    HW133095   4.285   4.453   0.226  0.0353 -1.1077 -1.4702
 7211SOL    HW233096   4.144   4.489   0.246  0.9100  0.7371  0.4118
 7212SOL     OW33097   0.066   0.526   0.320 -0.0348  0.0500  0.2571
 7212SOL    HW133098   0.129   0.588   0.284 -0.3768 -0.2563 -0.8672
 7212SOL    HW233099   0.007   0.579   0.374 -0.6827  0.9138 -1.3018
 7213SOL     OW33100   3.275   3.591  11.874 -1.1054 -0.3005 -0.4094
 7213SOL    HW133101   3.291   3.668  11.928 -3.4748  1.2576 -1.9738
 7213SOL    HW233102   3.357   3.594  11.825  0.3435 -1.0699  1.9588
 7214SOL     OW33103   2.391   1.512  12.213 -0.2254  0.5492  0.0271
 7214SOL    HW133104   2.485   1.509  12.230  0.2473  0.3930 -2.6594
 7214SOL    HW233105   2.343   1.519  12.296 -0.6912 -3.1143  0.0612
 7215SOL     OW33106   1.571   2.457  10.138 -0.0918 -0.2293 -0.1872
 7215SOL    HW133107   1.538   2.408  10.063  1.6990 -0.9983 -0.4557
 7215SOL    HW233108   1.637   2.515  10.101  0.1041 -0.0189  0.4805
 7216SOL     OW33109   3.021   2.614   1.129 -0.1599 -0.0056 -0.0517
 7216SOL    HW133110   3.013   2.519   1.120 -0.7939 -0.0698  1.2362
 7216SOL    HW233111   3.116   2.620   1.141  0.1885 -1.2689 -2.2053
 7217SOL     OW33112   1.442   4.669  15.042  0.3520 -0.4010  0.2483
 7217SOL    HW133113   1.409   0.028  15.011 -1.4979 -1.3708 -0.4386
 7217SOL    HW233114   1.525   4.659  14.997 -0.5907 -2.2802 -1.0890
 7218SOL     OW33115   4.678   3.835   6.160  0.1117 -0.0217 -0.7871
 7218SOL    HW133116   4.645   3.791   6.238 -0.5585 -0.4465 -1.3139
 7218SOL    HW233117   0.001   3.759   6.128 -0.0966 -0.0331 -1.0723
 7219SOL     OW33118   1.639   0.369   1.886  0.1351  0.5153  0.0959
 7219SOL    HW133119   1.585   0.338   1.813 -0.1633 -0.4752  0.7372
 7219SOL    HW233120   1.611   0.313   1.958  1.4136  2.3309  2.0115
 7220SOL     OW33121   3.737   1.115   7.589 -0.7172 -0.4090  0.1864
 7220SOL    HW133122   3.777   1.080   7.668  0.0562 -1.5643 -0.7035
 7220SOL    HW233123   3.793   1.192   7.580 -0.8008 -0.3324  0.3238
 7221SOL     OW33124   0.604   0.806   1.968 -0.9676 -0.1491 -0.2309
 7221SOL    HW133125   0.543   0.836   1.900 -1.0674 -1.4907 -0.7339
 7221SOL    HW233126   0.674   0.869   1.957 -2.3090  1.9663  3.4980
 7222SOL     OW33127   1.852   3.150  17.375 -1.0306  0.3546  0.6821
 7222SOL    HW133128   1.836   3.102  17.294  0.3038 -2.6625  2.2053
 7222SOL    HW233129   1.766   3.190  17.386 -2.1303 -1.3375 -1.5256
 7223SOL     OW33130   4.078   3.715   1.273  0.1015 -0.4933  0.0085
 7223SOL    HW133131   4.155   3.747   1.225 -0.9962  2.7076  0.3545
 7223SOL    HW233132   4.068   3.622   1.256 -1.9506 -0.1762 -0.5389
 7224SOL     OW33133   1.898   0.175   3.372  0.2126  0.0161 -0.4906
 7224SOL    HW133134   1.819   0.128   3.347 -1.1654  1.2473  1.6466
 7224SOL    HW233135   1.862   0.263   3.368 -1.7245 -0.7597 -0.1406
 7225SOL     OW33136   2.933   3.768  11.094 -0.0218 -0.2762  0.6283
 7225SOL    HW133137   2.847   3.808  11.092 -0.4094 -1.0025  3.2498
 7225SOL    HW233138   2.918   3.675  11.079 -0.7517  0.1006 -1.0486
 7226SOL     OW33139   2.142   1.434  12.093  0.4712 -0.1827  0.1578
 7226SOL    HW133140   2.216   1.465  12.145 -0.6178  1.7596  0.5568
 7226SOL    HW233141   2.126   1.519  12.052 -0.3485 -1.0524 -1.3321
 7227SOL     OW33142   1.653   4.157   3.976  0.2431  0.0648  0.5874
 7227SOL    HW133143   1.677   4.245   3.946  0.4327 -0.3265 -0.4121
 7227SOL    HW233144   1.559   4.158   3.958  0.0404  1.4831  1.7146
 7228SOL     OW33145   3.299   1.751   2.997  0.9041 -0.2284 -0.4043
 7228SOL    HW133146   3.381   1.758   3.046  0.9502 -0.7708 -0.4044
 7228SOL    HW233147   3.286   1.657   2.984 -1.8860 -0.0205  0.7223
 7229SOL     OW33148   4.409   0.319   2.759  0.9102 -0.5030 -0.2051
 7229SOL    HW133149   4.340   0.259   2.786 -0.4260  0.8065 -0.6871
 7229SOL    HW233150   4.348   0.384   2.725  2.2502 -0.3418 -2.3101
 7230SOL     OW33151   0.238   2.475   7.576 -0.3003  0.1064  0.2272
 7230SOL    HW133152   0.287   2.558   7.577  1.4346 -0.9155  0.2479
 7230SOL    HW233153   0.248   2.445   7.666 -3.2675  0.6822  0.7376
 7231SOL     OW33154   2.385   2.741   6.522  0.1918 -0.1974  0.0863
 7231SOL    HW133155   2.462   2.799   6.525  0.8850 -1.1516  0.6244
 7231SOL    HW233156   2.332   2.785   6.588  1.3235 -0.1340  0.9472
 7232SOL     OW33157   0.151   2.623   2.912 -0.1762  0.4271 -0.4183
 7232SOL    HW133158   0.215   2.627   2.983 -0.8749  2.3869  0.1280
 7232SOL    HW233159   0.186   2.689   2.851  3.1712 -0.6619  0.3315
 7233SOL     OW33160   3.137   2.146  13.748  0.7964  0.0806 -0.5410
 7233SOL    HW133161   3.178   2.168  13.831 -0.3266 -0.9701  0.2808
 7233SOL    HW233162   3.141   2.232  13.706 -2.9617  0.5199  0.0428
 7234SOL     OW33163   0.901   2.245   5.973  0.2565  0.0062  0.1958
 7234SOL    HW133164   0.867   2.328   6.006 -0.4360  0.0362 -0.5792
 7234SOL    HW233165   0.993   2.268   5.988  0.2380  0.1385  0.1061
 7235SOL     OW33166   0.473   4.636   3.721  0.1093  0.4269 -0.4537
 7235SOL    HW133167   0.401   4.629   3.658 -0.4618 -2.8079  0.5433
 7235SOL    HW233168   0.420   4.593   3.788  1.3491 -2.7202 -1.4775
 7236SOL     OW33169   3.686   2.244  12.150 -0.1181  0.0937 -0.1099
 7236SOL    HW133170   3.632   2.321  12.134 -0.0309  0.5515  1.8271
 7236SOL    HW233171   3.729   2.225  12.066 -0.9242 -1.6291 -0.1400
 7237SOL     OW33172   2.899   0.996   7.510 -0.0396  0.1778 -0.0512
 7237SOL    HW133173   2.835   1.061   7.538  1.8361  0.9994  2.3081
 7237SOL    HW233174   2.890   0.942   7.589 -0.6776  0.6779  0.2160
 7238SOL     OW33175   1.953   3.915   2.657  0.2495  0.3061 -0.2832
 7238SOL    HW133176   1.875   3.918   2.712  1.1678  3.3268  0.8635
 7238SOL    HW233177   2.021   3.960   2.707  2.8260 -2.8947 -0.8131
 7239SOL     OW33178   0.705   3.410   7.789 -0.0505 -0.1892  0.0270
 7239SOL    HW133179   0.615   3.429   7.761  0.2968  0.7121 -0.4720
 7239SOL    HW233180   0.705   3.454   7.874  2.7753  0.8611 -0.5412
 7240SOL     OW33181   1.917   0.784   8.911  0.2876  0.3545 -0.3640
 7240SOL    HW133182   1.909   0.741   8.826  0.0212  0.6014 -0.4666
 7240SOL    HW233183   1.908   0.709   8.969 -0.8030 -0.0798 -1.0826
 7241SOL     OW33184   2.675   4.405   3.492 -0.1464 -0.9670  0.9634
 7241SOL    HW133185   2.586   4.413   3.525 -0.1057  0.5345  0.7249
 7241SOL    HW233186   2.657   4.407   3.398  0.4464  1.1509  0.8840
 7242SOL     OW33187   0.725   4.415   2.153  0.4000  0.3129  0.8658
 7242SOL    HW133188   0.761   4.409   2.064  2.5167  4.1214  1.4604
 7242SOL    HW233189   0.767   4.340   2.194 -1.3065 -1.7569 -1.1452
 7243SOL     OW33190   3.487   3.589  10.285  0.1651 -0.0076 -0.3476
 7243SOL    HW133191   3.568   3.538  10.289 -0.1749 -0.4486  0.7812
 7243SOL    HW233192   3.506   3.638  10.365  1.4241 -1.8558  0.4744
 7244SOL     OW33193   4.049   2.143   3.041  0.2025  0.4624  0.1114
 7244SOL    HW133194   4.003   2.059   3.034 -2.9522  2.1266  0.8182
 7244SOL    HW233195   4.141   2.117   3.040 -0.1007 -0.6097 -1.1025
 7245SOL     OW33196   2.511   1.440   7.556 -0.0475 -0.0180 -0.1462
 7245SOL    HW133197   2.428   1.489   7.554 -0.0490  0.0488  1.2420
 7245SOL    HW233198   2.490   1.396   7.639  1.0449  1.3798  0.8763
 7246SOL     OW33199   2.760   0.766   6.268 -0.2028  0.5195  0.2870
 7246SOL    HW133200   2.791   0.676   6.281  1.9086  1.1757 -0.0883
 7246SOL    HW233201   2.826   0.785   6.201  1.7843  2.2161  2.7213
 7247SOL     OW33202   2.700   0.404  12.337  0.1524 -0.1954 -0.0326
 7247SOL    HW133203   2.785   0.359  12.330  0.9018  1.3362 -0.9345
 7247SOL    HW233204   2.662   0.366  12.258 -0.6750 -0.4477  0.4927
 7248SOL     OW33205   1.153   2.834  11.865 -0.2632 -0.1060 -0.2137
 7248SOL    HW133206   1.127   2.757  11.815  0.2035 -0.8097  0.6381
 7248SOL    HW233207   1.118   2.814  11.952 -0.7821 -2.4663 -0.9650
 7249SOL     OW33208   2.168   2.825   2.587  0.1793 -0.2373 -0.8453
 7249SOL    HW133209   2.150   2.856   2.676 -0.5563  3.0465 -2.1375
 7249SOL    HW233210   2.093   2.766   2.582 -0.3525  0.7332 -4.1712
 7250SOL     OW33211   4.107   3.456   5.172 -0.5173  0.4000  0.3984
 7250SOL    HW133212   4.174   3.523   5.158 -0.3062 -0.2994 -1.8343
 7250SOL    HW233213   4.037   3.516   5.147  1.6874  2.7625 -0.0619
 7251SOL     OW33214   3.624   3.649   6.254 -0.1442 -0.2664 -0.3061
 7251SOL    HW133215   3.601   3.693   6.337  1.3967 -1.1882  0.6116
 7251SOL    HW233216   3.669   3.577   6.298  3.2762  0.4040 -2.6819
 7252SOL     OW33217   3.894   4.344   1.851 -0.4772  0.0212 -0.7067
 7252SOL    HW133218   3.974   4.366   1.899 -0.9450  0.6166 -0.2039
 7252SOL    HW233219   3.936   4.296   1.780  0.8611 -1.2397  0.9249
 7253SOL     OW33220   4.172   2.623   6.542 -0.3530 -0.3691  0.0732
 7253SOL    HW133221   4.186   2.702   6.595 -1.4767 -1.4423  1.9847
 7253SOL    HW233222   4.083   2.595   6.564 -0.1425  0.3123  1.8126
 7254SOL     OW33223   4.071   0.514   6.376  0.4885  0.1728 -0.1983
 7254SOL    HW133224   4.101   0.440   6.324  0.9366  1.4162 -1.7295
 7254SOL    HW233225   3.992   0.539   6.328  1.7098 -0.8088 -2.6800
 7255SOL     OW33226   2.582   0.933   7.871  0.3152  0.3330  0.6046
 7255SOL    HW133227   2.560   0.905   7.960 -1.5576  1.2525  0.4283
 7255SOL    HW233228   2.508   0.896   7.822  0.4363 -1.1139  1.4905
 7256SOL     OW33229   0.931   1.533  16.201 -0.1861  0.1202  0.0509
 7256SOL    HW133230   0.941   1.443  16.232 -0.3946 -0.1991 -0.8095
 7256SOL    HW233231   0.892   1.581  16.274  1.9859 -0.4109  1.5606
 7257SOL     OW33232   4.664   1.804  13.992 -0.8923 -0.2811  0.5236
 7257SOL    HW133233   4.646   1.898  13.993  0.6859  0.0371 -2.0675
 7257SOL    HW233234   4.657   1.792  14.087  0.8755 -1.7845  0.4731
 7258SOL     OW33235   3.180   4.576   5.520  0.2503  0.3458 -0.1727
 7258SOL    HW133236   3.203   4.635   5.592  0.9372 -0.5380  0.3174
 7258SOL    HW233237   3.090   4.609   5.516  0.2482  0.1489 -1.8668
 7259SOL     OW33238   2.870   3.347   2.500  0.3618  0.2360 -0.3232
 7259SOL    HW133239   2.928   3.424   2.497  3.4299 -2.0574  0.0180
 7259SOL    HW233240   2.939   3.282   2.514  1.7639  2.0579  1.3616
 7260SOL     OW33241   1.558   4.102   2.848  0.2319 -0.6718 -0.0225
 7260SOL    HW133242   1.551   4.167   2.779 -0.6449 -0.7263  0.0141
 7260SOL    HW233243   1.471   4.097   2.887  0.7210 -0.0035  1.1510
 7261SOL     OW33244   2.075   3.586   4.407 -0.5821 -0.0683  0.1284
 7261SOL    HW133245   2.030   3.642   4.344 -2.3549 -0.4433  1.0818
 7261SOL    HW233246   2.111   3.646   4.472 -2.6392 -0.1584  1.3557
 7262SOL     OW33247   0.732   2.422   7.025  0.1718  0.2947  0.2171
 7262SOL    HW133248   0.748   2.488   7.092 -0.2925  1.3249 -0.6863
 7262SOL    HW233249   0.805   2.438   6.966 -0.9501 -3.7426 -2.2670
 7263SOL     OW33250   4.127   4.155  12.853 -0.0737  0.1625  0.0663
 7263SOL    HW133251   4.182   4.193  12.921  1.1804 -0.7847 -0.4236
 7263SOL    HW233252   4.194   4.123  12.793 -0.4844 -0.9752  0.2270
 7264SOL     OW33253   3.749   3.158   1.531 -0.0158 -0.2339 -0.6962
 7264SOL    HW133254   3.747   3.111   1.614 -0.1295  3.1248  1.1854
 7264SOL    HW233255   3.663   3.137   1.494 -0.7146  1.2565  0.0744
 7265SOL     OW33256   3.211   4.291   6.886 -0.5278  0.5223  0.3950
 7265SOL    HW133257   3.204   4.367   6.944 -1.3505  0.5884  0.2047
 7265SOL    HW233258   3.131   4.241   6.903 -0.9192  0.8863 -0.3501
 7266SOL     OW33259   1.071   1.694   8.443  0.2160  0.5001  0.2355
 7266SOL    HW133260   1.138   1.762   8.451 -0.2639  0.8260  1.5689
 7266SOL    HW233261   1.108   1.630   8.503 -2.0990 -2.6125 -1.6629
 7267SOL     OW33262   2.628   0.505   7.425 -0.0998  0.4062 -0.2573
 7267SOL    HW133263   2.552   0.522   7.369 -1.2293 -0.3694  1.0564
 7267SOL    HW233264   2.621   0.571   7.495 -1.9730 -0.6855  0.5816
 7268SOL     OW33265   0.174   2.553   7.310  0.0800 -0.3860  0.0460
 7268SOL    HW133266   0.198   2.520   7.396  1.4974 -0.0096 -0.2177
 7268SOL    HW233267   0.094   2.602   7.330 -1.3865 -2.2365 -1.2487
 7269SOL     OW33268   3.864   2.366   4.311  0.1839  0.2765 -0.3984
 7269SOL    HW133269   3.901   2.289   4.354  1.1290  1.9499  1.8497
 7269SOL    HW233270   3.770   2.354   4.327  0.4168 -2.0413 -0.7994
 7270SOL     OW33271   2.136   3.310   8.209  0.0786  0.2020 -0.2555
 7270SOL    HW133272   2.096   3.272   8.287  2.7695 -2.2639 -0.1053
 7270SOL    HW233273   2.158   3.398   8.238 -2.4070  0.2282  1.5312
 7271SOL     OW33274   4.496   2.802   3.899  0.1301 -0.3993 -0.0026
 7271SOL    HW133275   4.433   2.834   3.834 -1.0038 -1.9207  0.3329
 7271SOL    HW233276   4.439   2.732   3.933  3.3061 -2.2719  1.4102
 7272SOL     OW33277   0.014   3.816   8.878  0.8647  0.5566  0.1397
 7272SOL    HW133278   0.020   3.886   8.943 -1.5538  0.4964  0.3963
 7272SOL    HW233279   0.107   3.793   8.870  0.5491 -1.3642  1.9977
 7273SOL     OW33280   1.706   0.517   7.915 -0.1061 -0.3453 -0.1205
 7273SOL    HW133281   1.714   0.557   8.002 -0.6112  1.8201 -1.0582
 7273SOL    HW233282   1.776   0.570   7.877 -0.3683 -0.1089 -0.2783
 7274SOL     OW33283   2.622   3.901  17.093  0.4577  0.7413  0.0963
 7274SOL    HW133284   2.602   3.917  17.000  1.9758  0.6108 -0.2462
 7274SOL    HW233285   2.558   3.958  17.137  0.6262 -0.2199  1.5714
 7275SOL     OW33286   1.849   4.342  16.340  0.1093 -0.4979 -0.2386
 7275SOL    HW133287   1.821   4.269  16.284  0.1631 -0.5478 -0.2002
 7275SOL    HW233288   1.770   4.353  16.393  0.0128  1.4627 -0.7842
 7276SOL     OW33289   1.757   3.389   8.337 -0.3981  0.3545 -0.4287
 7276SOL    HW133290   1.738   3.406   8.245 -1.4074  2.8395  0.2332
 7276SOL    HW233291   1.739   3.476   8.374 -2.2068  0.8786 -2.5353
 7277SOL     OW33292   2.406   4.695   3.383  0.5231  0.1480 -0.6922
 7277SOL    HW133293   2.371   0.030   3.448  0.9646  0.1482 -0.4566
 7277SOL    HW233294   2.486   0.015   3.359  2.0766 -1.4943  1.3088
 7278SOL     OW33295   0.096   3.218   6.419 -0.3280  0.1782  0.2999
 7278SOL    HW133296   0.010   3.245   6.385  0.4386 -0.8279 -2.4739
 7278SOL    HW233297   0.105   3.127   6.390  0.6489  0.3161  0.1883
 7279SOL     OW33298   2.347   3.494   2.791  0.4790  0.0263 -0.2201
 7279SOL    HW133299   2.282   3.424   2.794  3.2953 -2.6528 -1.0282
 7279SOL    HW233300   2.404   3.471   2.865  2.0342 -1.5532 -1.8989
 7280SOL     OW33301   0.408   3.815   3.462 -0.3168 -0.1529 -0.1856
 7280SOL    HW133302   0.350   3.836   3.389  2.0478  0.6025 -1.8574
 7280SOL    HW233303   0.430   3.726   3.434 -1.4880 -0.0607 -1.3504
 7281SOL     OW33304   3.814   2.995   1.772  0.2711 -0.5078  0.2821
 7281SOL    HW133305   3.877   2.933   1.734 -0.3827 -0.1814 -1.3206
 7281SOL    HW233306   3.740   2.936   1.782 -0.3909  0.0269 -1.4201
 7282SOL     OW33307   1.702   1.290   3.813 -0.0650 -0.3280  0.7853
 7282SOL    HW133308   1.691   1.380   3.783 -2.0347 -0.5879  0.7280
 7282SOL    HW233309   1.695   1.246   3.729 -0.1820  2.4307 -0.6662
 7283SOL     OW33310   2.010   0.628   1.814  0.0889  0.0886 -0.4771
 7283SOL    HW133311   2.058   0.596   1.891 -0.3922  2.8021  0.9290
 7283SOL    HW233312   1.920   0.616   1.843  0.6123  0.2026  1.2158
 7284SOL     OW33313   4.410   2.793  16.241 -0.0784  0.0042  0.5395
 7284SOL    HW133314   4.379   2.703  16.251 -1.2050  0.1104 -2.1248
 7284SOL    HW233315   4.504   2.778  16.247 -0.0854 -0.4276 -0.4318
 7285SOL     OW33316   1.355   2.988   1.355  0.2900  0.1870 -0.0998
 7285SOL    HW133317   1.409   2.909   1.353 -0.3252 -0.2213 -0.8585
 7285SOL    HW233318   1.272   2.958   1.391 -0.3123 -0.0505 -1.6931
 7286SOL     OW33319   2.851   3.505  12.038  0.5418  0.0514  0.1106
 7286SOL    HW133320   2.946   3.494  12.036  0.4562 -0.5664 -0.5397
 7286SOL    HW233321   2.839   3.551  11.955 -0.5835 -0.7767 -0.1849
 7287SOL     OW33322   0.135   1.770  16.096  0.9025 -0.1510  0.3073
 7287SOL    HW133323   0.220   1.758  16.055  0.6211 -0.2169 -0.2637
 7287SOL    HW233324   0.079   1.708  16.048  2.2073  0.2983 -1.8010
 7288SOL     OW33325   3.537   0.856  16.564  0.1286 -0.2304  0.1787
 7288SOL    HW133326   3.531   0.947  16.534 -2.3541 -0.4951 -0.1441
 7288SOL    HW233327   3.453   0.820  16.536  0.4334 -2.9012  2.7135
 7289SOL     OW33328   1.227   4.225   7.867  0.0163 -0.2153 -0.0755
 7289SOL    HW133329   1.152   4.268   7.908  1.2987  0.0639  1.9935
 7289SOL    HW233330   1.265   4.310   7.843  0.1501  0.0865  1.2239
 7290SOL     OW33331   1.834   0.910   6.128  0.5731 -0.3389 -0.0492
 7290SOL    HW133332   1.790   0.828   6.149 -0.7146  0.0875 -1.0780
 7290SOL    HW233333   1.761   0.971   6.126 -0.0630 -1.1674 -1.7261
 7291SOL     OW33334   3.409   1.873  15.215  0.2828  0.0404 -0.1785
 7291SOL    HW133335   3.448   1.956  15.187 -1.7371  1.3601  0.9779
 7291SOL    HW233336   3.375   1.897  15.301 -0.0011 -0.3879 -0.1683
 7292SOL     OW33337   4.121   4.227   4.920  0.1522 -0.6627 -0.5582
 7292SOL    HW133338   4.206   4.196   4.953 -0.6724  0.2270  2.4025
 7292SOL    HW233339   4.126   4.203   4.827  2.3497  1.0235 -0.8741
 7293SOL     OW33340   2.679   4.174   4.201 -0.5059 -0.3126  0.0886
 7293SOL    HW133341   2.682   4.268   4.184 -0.3498 -0.3379 -0.0217
 7293SOL    HW233342   2.616   4.141   4.137 -1.1031 -0.4902  0.7765
 7294SOL     OW33343   3.717   1.381   7.788 -0.4682 -0.1481  0.5092
 7294SOL    HW133344   3.773   1.446   7.831  1.3250 -0.6604 -1.0577
 7294SOL    HW233345   3.784   1.326   7.748 -2.5142 -1.6979 -0.7667
 7295SOL     OW33346   2.138   2.557   8.724 -0.2640  0.4975 -0.2949
 7295SOL    HW133347   2.142   2.641   8.677 -0.3685  1.9671  2.3102
 7295SOL    HW233348   2.201   2.562   8.796  1.0395  0.6625 -1.4364
 7296SOL     OW33349   3.110   0.945   4.933 -0.1569  0.0111 -0.1816
 7296SOL    HW133350   3.028   0.992   4.949  1.0800  2.6031 -1.4137
 7296SOL    HW233351   3.081   0.854   4.939  1.4020 -0.5098 -0.4772
 7297SOL     OW33352   2.056   0.684   3.045 -0.2437 -0.4947  0.2723
 7297SOL    HW133353   2.021   0.601   3.075 -1.3136 -0.5120 -1.0492
 7297SOL    HW233354   2.035   0.744   3.117 -0.0043  0.1645 -0.1976
 7298SOL     OW33355   3.428   1.464   0.704  0.4154  0.1387  0.2382
 7298SOL    HW133356   3.425   1.374   0.738  0.1731  0.3373  0.7263
 7298SOL    HW233357   3.516   1.466   0.666 -0.7806  3.1518 -2.3696
 7299SOL     OW33358   2.087   4.271   2.340 -0.2679  0.3490  0.2830
 7299SOL    HW133359   2.136   4.294   2.261  0.0298 -0.8428  0.1146
 7299SOL    HW233360   2.000   4.310   2.331  0.5392  1.8497 -0.9613
 7300SOL     OW33361   4.413   2.648   5.182 -0.0653 -0.1107  0.2392
 7300SOL    HW133362   4.347   2.715   5.199  0.5523  0.9192 -1.4368
 7300SOL    HW233363   4.349   2.577   5.176  1.9590 -2.1055  2.1915
 7301SOL     OW33364   2.766   1.168   8.169  0.4368 -0.1522  0.6289
 7301SOL    HW133365   2.766   1.076   8.192 -1.5440 -0.4177 -0.4532
 7301SOL    HW233366   2.861   1.181   8.165  0.6819 -3.0780 -2.5957
 7302SOL     OW33367   1.572   3.766  17.437 -0.6341 -0.0590 -0.4853
 7302SOL    HW133368   1.595   3.678  17.468 -2.8976 -1.1524 -1.8095
 7302SOL    HW233369   1.631   3.822  17.486 -1.6519  1.4292 -0.9519
 7303SOL     OW33370   0.470   1.748   2.491 -0.2991  0.3463 -0.3633
 7303SOL    HW133371   0.376   1.760   2.499 -0.3877 -0.7209  0.2311
 7303SOL    HW233372   0.470   1.658   2.460 -0.3166  0.3023 -0.2363
 7304SOL     OW33373   0.568   4.032   6.018 -0.1413 -0.6042 -0.4927
 7304SOL    HW133374   0.515   4.106   5.986 -1.5689 -1.4794 -0.1502
 7304SOL    HW233375   0.501   3.975   6.056 -1.0664  1.9073  1.7084
 7305SOL     OW33376   1.137   2.300  14.756 -0.5937 -0.7236  0.4857
 7305SOL    HW133377   1.050   2.282  14.791 -2.1282  1.1649 -2.3523
 7305SOL    HW233378   1.142   2.393  14.774  1.2278 -0.7591  0.2036
 7306SOL     OW33379   3.703   2.256   0.432 -0.1930  0.2868  0.4652
 7306SOL    HW133380   3.625   2.205   0.457 -0.3461  1.0821  1.5553
 7306SOL    HW233381   3.723   2.224   0.344  2.0971  1.1867  0.6736
 7307SOL     OW33382   3.279   3.043   8.000  0.3349 -0.2607  0.0602
 7307SOL    HW133383   3.217   3.099   7.953  0.1472  1.0745  1.8859
 7307SOL    HW233384   3.284   2.963   7.949  0.1547  1.1546 -2.1837
 7308SOL     OW33385   1.237   0.687   2.801  0.4563 -0.3816 -0.0343
 7308SOL    HW133386   1.239   0.782   2.793 -0.4214 -0.5159 -1.8281
 7308SOL    HW233387   1.314   0.678   2.857 -0.6138 -1.4622  1.2700
 7309SOL     OW33388   0.550   3.444   4.364  0.4892 -0.7071  0.6322
 7309SOL    HW133389   0.501   3.394   4.297 -1.4831 -0.5446  1.9591
 7309SOL    HW233390   0.514   3.532   4.354 -0.4749 -1.3615 -1.8957
 7310SOL     OW33391   2.476   2.583   3.950 -0.2199 -0.2434 -0.8487
 7310SOL    HW133392   2.499   2.491   3.944  0.5859 -0.2204  1.7531
 7310SOL    HW233393   2.514   2.618   3.870  3.0686  3.6950  2.3793
 7311SOL     OW33394   3.742   4.413   6.294 -0.3245  0.1227  0.2570
 7311SOL    HW133395   3.747   4.389   6.387  0.7799 -1.0570 -0.0982
 7311SOL    HW233396   3.829   4.378   6.271 -0.0864  0.2972  0.8721
 7312SOL     OW33397   0.734   3.058   3.404  0.1994  0.0806 -0.3328
 7312SOL    HW133398   0.666   2.992   3.419 -0.7094  0.8183 -1.1899
 7312SOL    HW233399   0.708   3.089   3.317  2.9488  1.1198 -0.7675
 7313SOL     OW33400   0.087   0.445  15.984  0.2640  0.0462  0.2142
 7313SOL    HW133401   0.043   0.375  16.033 -0.7541  0.8899  0.5002
 7313SOL    HW233402   0.084   0.405  15.897 -2.4286 -0.3054  0.4484
 7314SOL     OW33403   1.881   1.229   2.804 -0.0903 -0.0541  0.1440
 7314SOL    HW133404   1.814   1.278   2.853 -0.9622 -1.1228  0.0275
 7314SOL    HW233405   1.849   1.248   2.715 -3.0499  0.7099  1.3486
 7315SOL     OW33406   0.496   1.701  11.520  0.2835  0.1808 -0.8111
 7315SOL    HW133407   0.490   1.659  11.435 -1.3926  0.9909 -1.0904
 7315SOL    HW233408   0.402   1.704  11.540  0.5983  2.6519  0.2734
 7316SOL     OW33409   0.531   2.855   2.457  0.0886  0.4395 -0.1795
 7316SOL    HW133410   0.595   2.852   2.386  1.9748 -2.3169  1.6540
 7316SOL    HW233411   0.583   2.814   2.526  1.8648 -2.2491 -3.1215
 7317SOL     OW33412   0.416   2.756   0.281  0.1908 -0.5669 -0.1456
 7317SOL    HW133413   0.330   2.788   0.309  1.9958  3.1806  1.0140
 7317SOL    HW233414   0.406   2.660   0.286  3.8903 -0.8291  2.1686
 7318SOL     OW33415   0.032   4.258   5.545  0.2662  0.1371 -0.2062
 7318SOL    HW133416   0.120   4.234   5.517  0.1841 -1.3758  0.8371
 7318SOL    HW233417   0.006   4.323   5.480  1.4424 -0.3831 -1.1930
 7319SOL     OW33418   3.265   4.115   2.376  0.3366  0.1473  0.0568
 7319SOL    HW133419   3.172   4.094   2.366  0.2566 -0.0463  1.2397
 7319SOL    HW233420   3.289   4.127   2.284 -0.6422 -2.5093 -0.5387
 7320SOL     OW33421   2.785   2.802   5.277  0.1270  0.2079 -0.1743
 7320SOL    HW133422   2.829   2.770   5.198  0.7676 -1.9073  1.0326
 7320SOL    HW233423   2.799   2.896   5.274 -1.3057  0.4075 -0.3441
 7321SOL     OW33424   1.165   2.030   6.566  0.4419 -0.5354  0.0835
 7321SOL    HW133425   1.150   2.027   6.661  1.1819  0.5026  0.2342
 7321SOL    HW233426   1.080   2.056   6.532  0.4441 -0.0245  0.4741
 7322SOL     OW33427   1.607   4.431   4.214 -0.4010 -0.2094  0.0194
 7322SOL    HW133428   1.690   4.442   4.261 -0.8389  0.9664  0.4991
 7322SOL    HW233429   1.555   4.412   4.292 -0.5530  0.8306  0.1624
 7323SOL     OW33430   2.695   4.151   6.987 -0.6998  0.2301  0.1306
 7323SOL    HW133431   2.744   4.077   6.950  2.2674  2.6372 -0.7840
 7323SOL    HW233432   2.634   4.112   7.049 -2.3091 -1.2477 -2.3969
 7324SOL     OW33433   2.051   3.409  13.841  0.4387 -0.0102 -0.2218
 7324SOL    HW133434   2.003   3.425  13.760 -1.0922 -2.1662  0.2866
 7324SOL    HW233435   2.066   3.315  13.837  1.0456 -0.0122  2.0063
 7325SOL     OW33436   4.081   4.221   7.195 -0.0284  0.3489  0.2296
 7325SOL    HW133437   4.064   4.315   7.192 -2.2167 -0.1287 -3.3374
 7325SOL    HW233438   4.005   4.196   7.141  1.2470  2.6190 -2.6337
 7326SOL     OW33439   3.470   2.405   0.236  0.0856 -0.0350 -0.3979
 7326SOL    HW133440   3.417   2.340   0.282 -0.7328  0.7769 -0.1817
 7326SOL    HW233441   3.407   2.430   0.168 -0.8326  0.8208  0.7552
 7327SOL     OW33442   1.829   2.468  11.779 -0.6439  0.0263  0.3747
 7327SOL    HW133443   1.775   2.539  11.813  2.4335  2.0809  0.9086
 7327SOL    HW233444   1.894   2.513  11.725  0.4631 -5.0470 -2.6111
 7328SOL     OW33445   1.123   3.961   1.589 -0.1878 -0.1038 -0.1495
 7328SOL    HW133446   1.203   3.910   1.602 -0.7253 -0.4217  2.0120
 7328SOL    HW233447   1.165   4.033   1.542 -1.3724  0.6421 -0.0667
 7329SOL     OW33448   0.804   4.113  13.505  0.0525  0.2785 -0.3352
 7329SOL    HW133449   0.848   4.134  13.423 -0.8762  1.0571 -0.6347
 7329SOL    HW233450   0.769   4.027  13.481 -1.4711  0.5201  1.0159
 7330SOL     OW33451   1.803   0.555   9.748  0.4894 -0.5602 -0.0259
 7330SOL    HW133452   1.713   0.584   9.732  0.8241  0.8232  0.5967
 7330SOL    HW233453   1.859   0.631   9.730 -1.0238  0.8466  1.2258
 7331SOL     OW33454   3.931   2.108   8.092  0.1118  0.3288  0.1463
 7331SOL    HW133455   3.959   2.068   8.175  0.8671 -0.0856 -0.3109
 7331SOL    HW233456   3.840   2.079   8.080 -0.0737  0.4316  1.3226
 7332SOL     OW33457   1.529   0.955   5.588 -0.3021  0.6149 -0.5316
 7332SOL    HW133458   1.591   0.927   5.655  0.1610  1.5644 -0.5588
 7332SOL    HW233459   1.567   1.042   5.578  0.4158  0.5984  2.1382
 7333SOL     OW33460   4.224   2.909  10.115  0.7180 -0.0809  0.6786
 7333SOL    HW133461   4.299   2.931  10.170  1.2324  1.3761 -0.6118
 7333SOL    HW233462   4.177   2.990  10.135 -0.0444 -0.0277 -1.3148
 7334SOL     OW33463   2.192   2.670   2.219  0.4217  0.4629 -0.2117
 7334SOL    HW133464   2.179   2.614   2.143  1.8781 -1.1003  0.6876
 7334SOL    HW233465   2.265   2.623   2.259 -0.3556  0.5893  1.3802
 7335SOL     OW33466   4.222   1.815   7.025 -0.0616  0.3218 -0.1379
 7335SOL    HW133467   4.192   1.904   7.044 -2.3373 -0.1981 -1.3119
 7335SOL    HW233468   4.313   1.827   7.052  0.6837  0.5783 -2.8019
 7336SOL     OW33469   1.275   4.386  10.023  0.2722  0.5474 -0.2169
 7336SOL    HW133470   1.209   4.427  10.079 -0.0085 -1.7885  1.1707
 7336SOL    HW233471   1.303   4.316  10.081  0.2318 -0.8805 -1.9118
 7337SOL     OW33472   1.645   0.824   5.810  0.6199 -0.1755  0.3273
 7337SOL    HW133473   1.582   0.836   5.882  1.6332  0.7776  1.0527
 7337SOL    HW233474   1.721   0.791   5.858  0.3009  0.6462  1.3964
 7338SOL     OW33475   0.354   4.371   1.107 -0.3746  0.1942 -0.2161
 7338SOL    HW133476   0.305   4.452   1.091  0.7670  1.1535  1.1798
 7338SOL    HW233477   0.395   4.349   1.023  0.9364 -1.9531  0.9776
 7339SOL     OW33478   2.196   4.706   8.560  0.4639  0.2068  0.3360
 7339SOL    HW133479   2.250   4.627   8.560 -1.5556 -1.1710  0.1153
 7339SOL    HW233480   2.112   4.670   8.588  1.2127 -0.6708  1.4480
 7340SOL     OW33481   0.014   0.723  16.027 -0.4924  0.4101  0.4030
 7340SOL    HW133482   0.043   0.645  16.073 -1.2140 -1.0913 -1.6799
 7340SOL    HW233483   0.058   0.713  15.942 -1.2231  1.7742 -0.1466
 7341SOL     OW33484   1.542   0.548   7.178  0.1140  0.0948 -0.3952
 7341SOL    HW133485   1.589   0.613   7.126 -0.5078 -1.4149 -2.8518
 7341SOL    HW233486   1.457   0.536   7.137 -0.7536  0.0412  1.4249
 7342SOL     OW33487   0.532   1.925   5.050  0.1899  0.0844 -0.1124
 7342SOL    HW133488   0.614   1.921   5.000  1.7613 -0.5617  2.4699
 7342SOL    HW233489   0.559   1.882   5.131 -0.0110 -0.3278 -0.2645
 7343SOL     OW33490   2.627   0.643   4.157  0.1504  0.1760 -0.0741
 7343SOL    HW133491   2.598   0.730   4.127  1.7958 -0.4587 -3.4582
 7343SOL    HW233492   2.542   0.599   4.159  0.3563 -0.0075  3.3725
 7344SOL     OW33493   3.990   2.486   5.259  0.0010 -0.2856 -0.0041
 7344SOL    HW133494   3.969   2.429   5.184 -1.1014 -0.3139  0.3295
 7344SOL    HW233495   4.024   2.424   5.324 -1.7213 -0.3183  0.8623
 7345SOL     OW33496   2.703   2.082   5.193  0.4757  0.1853  0.0505
 7345SOL    HW133497   2.726   2.172   5.169  0.9784 -0.0537 -0.3449
 7345SOL    HW233498   2.697   2.047   5.105 -0.2633  2.0146 -0.6304
 7346SOL     OW33499   4.224   2.001   6.206  0.2418 -0.2168  0.1519
 7346SOL    HW133500   4.272   2.031   6.129 -2.2982  1.5373 -0.7365
 7346SOL    HW233501   4.273   1.923   6.233  1.7292  1.2621  1.7769
 7347SOL     OW33502   2.943   1.196   4.917  0.1012  0.0660  0.2184
 7347SOL    HW133503   2.876   1.180   4.984 -0.9232  1.4004 -0.4966
 7347SOL    HW233504   2.996   1.272   4.944  0.6930 -0.3456  0.2214
 7348SOL     OW33505   1.811   3.557   6.277 -0.3769 -0.0906 -0.3559
 7348SOL    HW133506   1.778   3.468   6.292  0.9496 -0.5815 -0.3763
 7348SOL    HW233507   1.822   3.596   6.364  0.0214 -0.1698 -0.3729
 7349SOL     OW33508   4.342   2.673   4.445  0.2783 -0.2165  0.3633
 7349SOL    HW133509   4.355   2.673   4.350  0.4926  2.3880  0.3713
 7349SOL    HW233510   4.343   2.579   4.461 -2.7077 -0.1039  1.2825
 7350SOL     OW33511   1.694   3.724   4.991  0.4391 -0.9671  0.1251
 7350SOL    HW133512   1.602   3.723   5.019  0.0449  1.3178 -1.0603
 7350SOL    HW233513   1.688   3.802   4.935 -1.2911 -0.9924  0.2726
 7351SOL     OW33514   0.715   4.256   7.865 -0.2320 -0.4143  0.1244
 7351SOL    HW133515   0.674   4.189   7.920 -0.9950  0.3230  0.4605
 7351SOL    HW233516   0.657   4.256   7.789  2.4857 -0.1757 -1.9132
 7352SOL     OW33517   1.283   1.039   9.238  0.2602 -0.1345 -0.2709
 7352SOL    HW133518   1.229   1.076   9.168  0.6641 -0.6126 -0.8355
 7352SOL    HW233519   1.320   1.116   9.280 -0.6787  0.3487 -0.3267
 7353SOL     OW33520   0.659   1.681   6.228  0.2155  0.4200  0.1242
 7353SOL    HW133521   0.731   1.620   6.209 -1.2306 -0.7498 -1.5573
 7353SOL    HW233522   0.678   1.717   6.315 -1.3318  1.3519  0.0635
 7354SOL     OW33523   4.297   1.398   0.545  0.3907  0.1481 -0.1592
 7354SOL    HW133524   4.295   1.316   0.594  2.2670 -0.2186 -0.6695
 7354SOL    HW233525   4.388   1.392   0.515  0.5748  0.3586  0.3508
 7355SOL     OW33526   0.502   0.014   8.175  0.3464 -0.6479 -0.3670
 7355SOL    HW133527   0.560   4.663   8.182  1.1598 -0.0252 -0.3335
 7355SOL    HW233528   0.567   0.083   8.188 -0.0955  0.2356 -2.8035
 7356SOL     OW33529   3.417   4.184   8.052  0.1495 -0.1644  0.2684
 7356SOL    HW133530   3.366   4.139   8.119 -1.0917  3.1846  1.5606
 7356SOL    HW233531   3.498   4.206   8.099  0.8709  0.4026 -1.2085
 7357SOL     OW33532   3.980   2.747  16.236 -0.2515 -0.2920 -0.1959
 7357SOL    HW133533   3.951   2.829  16.197  2.9253 -0.4389 -2.8528
 7357SOL    HW233534   4.071   2.740  16.206 -0.5549 -1.3623 -0.8307
 7358SOL     OW33535   4.597   1.802   4.610 -0.3120  0.1792 -0.4542
 7358SOL    HW133536   4.651   1.744   4.556 -0.8442  1.0141 -1.8501
 7358SOL    HW233537   4.653   1.806   4.689  2.0316  1.8754 -2.1932
 7359SOL     OW33538   4.027   2.682   4.980 -0.1057 -0.4317 -0.2998
 7359SOL    HW133539   4.080   2.702   5.057 -0.2286  1.6500 -0.7738
 7359SOL    HW233540   4.081   2.696   4.903 -2.3620  0.2839 -1.7469
 7360SOL     OW33541   4.379   3.910   9.946 -0.2298 -0.2323  0.0621
 7360SOL    HW133542   4.380   4.000   9.979  4.8006  0.0365 -0.8649
 7360SOL    HW233543   4.413   3.861  10.020  1.4518 -2.5974 -2.2759
 7361SOL     OW33544   2.446   4.361  11.690 -0.3357  0.2442 -0.4867
 7361SOL    HW133545   2.452   4.371  11.595 -0.6678  0.3848 -0.4926
 7361SOL    HW233546   2.371   4.303  11.702 -0.4492  0.5082  0.0616
 7362SOL     OW33547   4.079   1.362  15.826 -0.3734  0.7270 -0.0333
 7362SOL    HW133548   4.009   1.298  15.842 -0.0224  0.6816  1.3073
 7362SOL    HW233549   4.056   1.389  15.737 -0.7230  1.2671  0.2183
 7363SOL     OW33550   0.369   4.105   0.630  0.1690 -0.0805 -0.2915
 7363SOL    HW133551   0.452   4.152   0.623 -0.4301  0.7688 -1.4814
 7363SOL    HW233552   0.306   4.177   0.630  1.1488  0.7804  0.4962
 7364SOL     OW33553   3.721   3.174   4.622 -0.2901 -0.1094 -0.0134
 7364SOL    HW133554   3.772   3.098   4.650  1.6283  0.8584 -0.8940
 7364SOL    HW233555   3.641   3.154   4.672  1.6345 -0.3325  3.0017
 7365SOL     OW33556   3.241   1.030   7.979 -0.1404 -0.2994  0.5892
 7365SOL    HW133557   3.315   1.090   7.977 -0.0326 -0.4844 -0.8896
 7365SOL    HW233558   3.288   0.950   7.957 -0.5440  0.2800 -2.3386
 7366SOL     OW33559   1.518   3.352   6.256 -0.0125 -0.1324 -0.1507
 7366SOL    HW133560   1.590   3.349   6.193 -0.7175 -0.9098 -0.9271
 7366SOL    HW233561   1.482   3.264   6.251 -1.0642  0.2422  0.7911
 7367SOL     OW33562   2.036   0.521   7.751 -0.3034  0.1502 -0.4513
 7367SOL    HW133563   2.016   0.597   7.806 -2.1500  0.1395 -1.1247
 7367SOL    HW233564   2.131   0.508   7.758 -0.3494 -0.4852 -1.0522
 7368SOL     OW33565   0.250   4.463   6.787 -0.8932 -0.4724 -0.2336
 7368SOL    HW133566   0.307   4.537   6.806  0.2562 -0.9152 -1.8800
 7368SOL    HW233567   0.188   4.476   6.858 -0.0081  1.7549  0.1119
 7369SOL     OW33568   3.825   4.239  13.482  0.4363 -0.2471  0.2785
 7369SOL    HW133569   3.823   4.283  13.567 -0.9982 -0.0873  0.1749
 7369SOL    HW233570   3.734   4.219  13.457  0.5143  0.6694 -0.7582
 7370SOL     OW33571   3.071   1.657  15.440 -0.1770  0.2582  0.0700
 7370SOL    HW133572   3.154   1.615  15.418  0.3717  1.8464 -0.8472
 7370SOL    HW233573   3.055   1.605  15.519 -2.1055  0.5009 -0.1733
 7371SOL     OW33574   4.649   1.768   3.215  0.0873 -0.3345  0.5172
 7371SOL    HW133575   0.001   1.713   3.232 -1.4511 -3.6321 -2.9181
 7371SOL    HW233576   4.588   1.699   3.187  0.7995 -1.1046  0.8478
 7372SOL     OW33577   2.928   1.023   8.490  0.7519  0.4581 -0.2678
 7372SOL    HW133578   3.003   1.059   8.443  0.0710  0.4984 -1.3401
 7372SOL    HW233579   2.952   0.930   8.486  2.8914  1.0615 -1.1929
 7373SOL     OW33580   4.535   4.654   4.444 -0.0360 -0.5099 -0.2630
 7373SOL    HW133581   4.611   4.598   4.463 -0.1906  0.2536  2.5640
 7373SOL    HW233582   4.488   4.594   4.387  0.5994 -0.8272 -0.4486
 7374SOL     OW33583   4.118   4.043   6.177 -0.9359 -0.5914 -0.1138
 7374SOL    HW133584   4.140   3.949   6.183  1.7000  0.0249  0.1770
 7374SOL    HW233585   4.038   4.048   6.229 -0.1954 -1.7173  1.1564
 7375SOL     OW33586   1.672   4.638  10.001  0.4157 -0.4489 -0.3752
 7375SOL    HW133587   1.590   4.606   9.963  0.3033 -0.5476 -0.0469
 7375SOL    HW233588   1.737   4.635   9.931  0.5231  0.7183 -0.3380
 7376SOL     OW33589   3.693   0.802   4.270 -0.3886  0.0157  0.2770
 7376SOL    HW133590   3.656   0.777   4.185 -2.3275  2.5319  0.3734
 7376SOL    HW233591   3.718   0.724   4.319  0.5122 -0.0435 -0.2796
 7377SOL     OW33592   2.266   2.510   9.495  0.1176 -0.3452 -0.4222
 7377SOL    HW133593   2.351   2.469   9.511 -0.8534 -1.9959  0.4872
 7377SOL    HW233594   2.213   2.431   9.507 -0.4094  0.0736  0.0333
 7378SOL     OW33595   1.577   2.312   3.902 -0.5231 -0.8858  0.4323
 7378SOL    HW133596   1.513   2.292   3.834 -1.7581 -1.0764  1.6616
 7378SOL    HW233597   1.665   2.293   3.869  0.6953 -0.5161  3.4442
 7379SOL     OW33598   4.565   2.341   8.559  1.0916  0.3008  0.2277
 7379SOL    HW133599   4.653   2.351   8.596  1.3045  0.0221 -0.2143
 7379SOL    HW233600   4.558   2.270   8.495 -1.3058 -0.1048  0.9310
 7380SOL     OW33601   0.339   4.541  11.828  0.1471 -0.0130  0.1251
 7380SOL    HW133602   0.259   4.587  11.854  1.2925  2.1759 -0.2469
 7380SOL    HW233603   0.305   4.487  11.756 -0.3097  2.5125 -1.5874
 7381SOL     OW33604   1.796   4.336   3.666 -0.3692  0.2370  0.4517
 7381SOL    HW133605   1.841   4.415   3.638  0.8390 -0.5285  0.2546
 7381SOL    HW233606   1.872   4.280   3.654 -0.5244 -0.1529  1.2794
 7382SOL     OW33607   3.218   2.478   2.093  0.8040 -0.1881 -0.1316
 7382SOL    HW133608   3.194   2.532   2.018  2.6158 -1.3234 -1.5267
 7382SOL    HW233609   3.153   2.409   2.081  1.8459 -1.0855 -0.6244
 7383SOL     OW33610   0.172   0.362   2.028  0.1471 -0.1909  0.1372
 7383SOL    HW133611   0.244   0.390   1.972 -0.2031 -2.8247 -1.6396
 7383SOL    HW233612   0.142   0.281   1.987  0.2972  0.2815 -0.9156
 7384SOL     OW33613   4.335   3.539  13.119  0.5101  0.5207 -0.0675
 7384SOL    HW133614   4.245   3.570  13.124  0.5668  0.6227  0.3348
 7384SOL    HW233615   4.351   3.507  13.030 -1.8011  1.5015 -0.8046
 7385SOL     OW33616   2.083   2.983   6.262 -0.0314  0.2384  0.6837
 7385SOL    HW133617   2.121   3.029   6.337  1.9075  1.3744 -0.9948
 7385SOL    HW233618   2.159   2.976   6.205 -1.1292  0.2337 -0.7820
 7386SOL     OW33619   4.034   4.537  10.372 -0.3541  0.1244  0.3822
 7386SOL    HW133620   4.068   4.450  10.393 -1.5863 -0.0744  1.5616
 7386SOL    HW233621   4.013   4.539  10.279 -0.5305 -0.5712  0.4086
 7387SOL     OW33622   4.545   0.248   0.389  0.3453  0.2873 -0.2262
 7387SOL    HW133623   4.594   0.180   0.436  0.7546  0.9838  0.3626
 7387SOL    HW233624   4.460   0.205   0.381 -0.0961  1.2208 -0.5452
 7388SOL     OW33625   3.004   2.623   2.291  0.6472 -0.0894  0.6512
 7388SOL    HW133626   3.048   2.551   2.246  3.3673  1.9382  0.0762
 7388SOL    HW233627   2.950   2.566   2.346  1.2650 -1.3843 -0.0837
 7389SOL     OW33628   1.384   2.370   9.394  0.0792 -0.3204 -0.1951
 7389SOL    HW133629   1.462   2.374   9.449 -0.9969 -1.9998  1.4695
 7389SOL    HW233630   1.374   2.465   9.385  1.0634 -0.1283  0.7956
 7390SOL     OW33631   1.956   3.266   6.592 -0.4037 -0.5975  0.0080
 7390SOL    HW133632   1.899   3.313   6.652 -0.9595  0.6510 -1.5019
 7390SOL    HW233633   1.951   3.176   6.624  1.1518 -0.0767  1.7341
 7391SOL     OW33634   2.151   4.538  11.810 -0.5828  0.2440 -0.6395
 7391SOL    HW133635   2.141   4.555  11.716 -0.5461  1.4236 -0.4297
 7391SOL    HW233636   2.113   4.451  11.818  2.0817 -0.8365  0.1339
 7392SOL     OW33637   2.322   3.128  10.770  0.5444  0.1113  0.2614
 7392SOL    HW133638   2.247   3.117  10.828  0.7832 -0.6562  0.4316
 7392SOL    HW233639   2.283   3.105  10.686 -0.0893  1.1481  0.2773
 7393SOL     OW33640   1.419   4.436   6.561  0.5422 -0.4881 -0.3828
 7393SOL    HW133641   1.412   4.497   6.487  0.9210  1.4051  1.1549
 7393SOL    HW233642   1.513   4.438   6.573  0.1610 -1.5958  2.6142
 7394SOL     OW33643   0.816   4.109  10.411 -0.4813 -0.3401  0.2674
 7394SOL    HW133644   0.794   4.167  10.483 -1.2264  1.5269 -1.4710
 7394SOL    HW233645   0.909   4.131  10.400 -0.0802 -1.7736  0.7485
 7395SOL     OW33646   1.916   2.061   2.884 -0.2229 -0.0168 -0.0058
 7395SOL    HW133647   1.913   2.056   2.979 -0.0484 -0.8950 -0.0431
 7395SOL    HW233648   1.936   1.973   2.851  0.9091 -0.9185  3.1543
 7396SOL     OW33649   2.438   2.507   9.763  0.1046  0.8009  0.5371
 7396SOL    HW133650   2.479   2.539   9.843 -0.0987 -0.1694  1.0317
 7396SOL    HW233651   2.503   2.538   9.699 -1.3078  0.3203 -1.1249
 7397SOL     OW33652   1.958   1.652   4.914  0.3995 -0.2230  0.2040
 7397SOL    HW133653   2.022   1.722   4.928 -0.9595  0.6363  2.0651
 7397SOL    HW233654   1.965   1.647   4.818 -0.4428  0.8690  0.0884
 7398SOL     OW33655   2.032   1.493   8.505 -0.2240  0.1132 -0.4297
 7398SOL    HW133656   2.112   1.531   8.469  0.7399 -1.8975 -0.4202
 7398SOL    HW233657   1.973   1.569   8.505  0.2776  0.5106  0.2638
 7399SOL     OW33658   4.135   1.875   1.045 -0.8317  0.0311 -0.0347
 7399SOL    HW133659   4.068   1.823   1.089 -1.0056  1.6542  1.6297
 7399SOL    HW233660   4.083   1.934   0.991  1.2545  1.5298 -0.4077
 7400SOL     OW33661   1.255   1.826   6.277 -0.0858 -0.2259 -0.3953
 7400SOL    HW133662   1.297   1.778   6.206 -0.2312  1.2250 -1.4504
 7400SOL    HW233663   1.168   1.786   6.270 -0.5246  0.1022  2.9537
 7401SOL     OW33664   3.204   3.196   7.123  0.0112 -0.0193  0.1278
 7401SOL    HW133665   3.256   3.235   7.053  0.3434  0.0853  0.4337
 7401SOL    HW233666   3.236   3.105   7.122 -2.2336 -0.8019 -1.4763
 7402SOL     OW33667   3.000   2.605   1.869 -0.0393 -0.0518  0.0551
 7402SOL    HW133668   3.000   2.691   1.827  1.9022 -0.0428  0.0444
 7402SOL    HW233669   3.045   2.543   1.811 -0.5571  0.2423 -0.6659
 7403SOL     OW33670   2.666   3.698   2.160 -0.1726 -0.8418 -0.4597
 7403SOL    HW133671   2.717   3.617   2.164 -0.3666 -0.8577  1.7106
 7403SOL    HW233672   2.687   3.734   2.074  0.3150  0.7848  0.3409
 7404SOL     OW33673   3.893   2.879  10.624  0.0514  0.1888  0.2226
 7404SOL    HW133674   3.951   2.842  10.691 -2.2098  1.2031  2.7427
 7404SOL    HW233675   3.865   2.797  10.584 -1.1481 -0.3754  2.2154
 7405SOL     OW33676   3.413   4.715   0.973 -0.4628 -0.5041  0.5061
 7405SOL    HW133677   3.344   4.651   0.993  0.0849 -1.7221 -1.4943
 7405SOL    HW233678   3.479   4.652   0.942  0.4853  0.6753  0.1282
 7406SOL     OW33679   2.372   0.700  17.624 -0.3958 -0.1468  0.1633
 7406SOL    HW133680   2.319   0.671  17.550  1.7682 -0.4221 -1.2979
 7406SOL    HW233681   2.343   0.640  17.692 -0.1339 -1.1698 -0.6229
 7407SOL     OW33682   0.923   0.610   5.854  0.2292  0.7034 -0.7322
 7407SOL    HW133683   0.929   0.694   5.809 -2.0598  1.6148  0.6321
 7407SOL    HW233684   0.830   0.605   5.875  0.8214 -0.2116  1.7024
 7408SOL     OW33685   2.267   1.788  12.548 -0.1667 -0.6997 -0.0746
 7408SOL    HW133686   2.180   1.826  12.556  0.1835 -0.2520  1.7144
 7408SOL    HW233687   2.246   1.700  12.581 -1.4692 -0.4242 -0.2099
 7409SOL     OW33688   3.077   2.513   3.285  0.5378  0.2851 -0.0584
 7409SOL    HW133689   3.032   2.550   3.209 -0.3225  1.3899  0.9956
 7409SOL    HW233690   3.164   2.549   3.271 -0.8668  3.1507 -1.3508
 7410SOL     OW33691   0.045   4.563  11.598  0.6800  0.6283  0.5123
 7410SOL    HW133692   4.725   4.480  11.583  2.7233 -0.5431  0.7978
 7410SOL    HW233693   4.711   4.614  11.542  0.9738  0.3688 -0.0451
 7411SOL     OW33694   0.099   4.009  11.447 -0.3028  0.1582  0.6870
 7411SOL    HW133695   0.068   4.059  11.372 -2.1119 -1.3760  0.4119
 7411SOL    HW233696   0.084   4.070  11.519  1.4412  1.5131 -0.1143
 7412SOL     OW33697   1.325   2.883   4.826 -0.6908 -0.2622  0.1914
 7412SOL    HW133698   1.280   2.826   4.764  1.3428 -0.4568 -1.0878
 7412SOL    HW233699   1.284   2.963   4.794 -0.5489 -0.3057 -0.0960
 7413SOL     OW33700   1.089   0.588   8.758 -0.2909  0.1983 -0.5522
 7413SOL    HW133701   1.007   0.617   8.717 -0.2806  0.1884 -0.5795
 7413SOL    HW233702   1.119   0.656   8.818 -3.2657 -0.8884  2.2261
 7414SOL     OW33703   1.430   0.243  14.559  0.1500 -0.1951 -0.1197
 7414SOL    HW133704   1.426   0.173  14.624  1.1315  0.1942  0.3737
 7414SOL    HW233705   1.395   0.318  14.607  2.9802  0.6460  0.6157
 7415SOL     OW33706   2.725   2.685   3.303 -0.1409  0.8919 -0.7285
 7415SOL    HW133707   2.742   2.682   3.209 -0.2178  0.7599 -0.7390
 7415SOL    HW233708   2.656   2.751   3.305 -1.8191 -0.9093  1.1265
 7416SOL     OW33709   3.786   0.800   5.985 -0.2120  0.0729  0.1654
 7416SOL    HW133710   3.697   0.774   5.961  0.4040  0.2394 -2.2196
 7416SOL    HW233711   3.834   0.743   5.925 -0.5150  0.3413 -0.3309
 7417SOL     OW33712   2.101   1.308   5.673 -0.1982  0.6252 -0.4542
 7417SOL    HW133713   2.095   1.404   5.670 -1.1904  0.5578 -0.3312
 7417SOL    HW233714   2.182   1.304   5.724 -1.7793  0.2311  1.9948
 7418SOL     OW33715   3.482   0.375   3.612  0.4814 -0.2799 -0.2009
 7418SOL    HW133716   3.571   0.338   3.610  1.0250  0.9778  0.9624
 7418SOL    HW233717   3.472   0.388   3.517 -0.4700  1.9026  0.1976
 7419SOL     OW33718   3.428   1.946   8.259  0.1225  0.0679 -0.1471
 7419SOL    HW133719   3.479   1.978   8.333 -0.0048 -2.9201  1.2179
 7419SOL    HW233720   3.480   1.870   8.232  0.3712  0.0387  0.4147
 7420SOL     OW33721   0.843   2.819  10.027  0.0529  0.8354  0.8408
 7420SOL    HW133722   0.777   2.888  10.020  0.4681  1.2654  1.1234
 7420SOL    HW233723   0.837   2.805  10.122 -2.4890 -0.3175  0.5105
 7421SOL     OW33724   2.418   3.507   7.962 -1.3829 -0.4726  0.1994
 7421SOL    HW133725   2.463   3.546   8.037 -0.9621 -1.3485  0.3955
 7421SOL    HW233726   2.370   3.583   7.929 -1.7973 -0.5539  0.6175
 7422SOL     OW33727   1.240   1.393   1.203 -0.7175  0.6618  0.2538
 7422SOL    HW133728   1.164   1.448   1.184 -0.7816  0.1044 -1.1132
 7422SOL    HW233729   1.278   1.370   1.118  1.0780 -0.1167  1.2647
 7423SOL     OW33730   2.607   2.366   9.055 -0.0364  0.0995 -0.8179
 7423SOL    HW133731   2.517   2.339   9.072 -0.2749  1.4331  0.0164
 7423SOL    HW233732   2.654   2.299   9.004  1.5570 -0.1475  0.9877
 7424SOL     OW33733   4.667   3.925   8.193 -0.7227  0.3319  0.6062
 7424SOL    HW133734   4.693   3.863   8.125  0.5743 -0.2009  1.6009
 7424SOL    HW233735   0.003   3.904   8.263 -0.5150  0.5105  0.4807
 7425SOL     OW33736   1.773   3.255   2.220  0.0076  0.1720 -0.2042
 7425SOL    HW133737   1.697   3.298   2.260  0.0733  0.7587 -0.7203
 7425SOL    HW233738   1.832   3.217   2.285  0.2340 -2.3149 -1.8854
 7426SOL     OW33739   3.105   2.295   6.972  0.2751  0.2222 -0.0879
 7426SOL    HW133740   3.117   2.387   6.993  3.2631 -0.3689  0.8456
 7426SOL    HW233741   3.089   2.298   6.877 -1.4722 -0.5630  0.1810
 7427SOL     OW33742   3.586   3.003   9.420 -0.1162  1.1374 -0.8402
 7427SOL    HW133743   3.495   2.973   9.415 -0.3042  1.0308  2.8457
 7427SOL    HW233744   3.611   3.019   9.511 -0.0732 -2.1660 -0.2729
 7428SOL     OW33745   1.311   1.192   5.628  0.4668  0.4296  0.5869
 7428SOL    HW133746   1.269   1.107   5.618  3.0371 -0.7252 -0.1115
 7428SOL    HW233747   1.405   1.178   5.631  0.3445 -0.1325  1.6624
 7429SOL     OW33748   3.503   3.089   1.414 -0.8557 -0.0927  0.3275
 7429SOL    HW133749   3.424   3.117   1.370 -1.2848 -0.9364  0.5509
 7429SOL    HW233750   3.471   3.001   1.435  1.4655 -0.4943  2.1679
 7430SOL     OW33751   0.235   2.643  13.136 -0.0366 -0.7944  0.6576
 7430SOL    HW133752   0.273   2.557  13.116 -0.2854 -0.7559  0.0224
 7430SOL    HW233753   0.170   2.612  13.199 -0.1424 -0.3631  0.7553
 7431SOL     OW33754   4.351   3.866  15.544 -0.5585  0.0222 -0.0603
 7431SOL    HW133755   4.315   3.815  15.471  1.0364 -0.6159 -0.4080
 7431SOL    HW233756   4.316   3.952  15.523 -0.8602 -0.2679 -0.7327
 7432SOL     OW33757   2.371   2.155   6.062 -0.7087 -0.1659 -0.3390
 7432SOL    HW133758   2.391   2.188   6.149 -0.5751 -0.6410 -0.1917
 7432SOL    HW233759   2.320   2.226   6.022 -1.9401 -0.3812  0.8582
 7433SOL     OW33760   1.685   2.790   2.758  0.1924  0.5673  0.2667
 7433SOL    HW133761   1.722   2.753   2.678 -0.3590 -2.1522  1.2426
 7433SOL    HW233762   1.599   2.748   2.766 -0.2015  1.0559 -1.4806
 7434SOL     OW33763   2.779   1.044   1.674 -0.6659 -0.2683 -0.2545
 7434SOL    HW133764   2.802   1.012   1.761  3.0330 -1.8830 -1.8334
 7434SOL    HW233765   2.688   1.016   1.671 -1.1492  1.2234  0.2309
 7435SOL     OW33766   2.759   3.829   9.491  0.5390  0.4354 -0.8908
 7435SOL    HW133767   2.664   3.819   9.485  0.3962 -0.3092  2.8006
 7435SOL    HW233768   2.771   3.811   9.584  1.0533 -0.6304 -1.1631
 7436SOL     OW33769   4.359   1.126   5.484 -0.1157 -0.0127  0.5593
 7436SOL    HW133770   4.287   1.074   5.519 -0.7987  0.6528  0.1526
 7436SOL    HW233771   4.406   1.075   5.418 -1.2094  0.1759 -0.3615
 7437SOL     OW33772   1.564   2.096   8.057  0.4026  0.1661  0.2699
 7437SOL    HW133773   1.593   2.005   8.057 -1.0924 -0.3016 -0.7329
 7437SOL    HW233774   1.523   2.103   7.970 -1.0927 -0.8924  0.8869
 7438SOL     OW33775   2.821   1.671   3.844 -0.9600 -0.4016 -0.4019
 7438SOL    HW133776   2.837   1.735   3.913 -1.1307  0.1854 -0.8992
 7438SOL    HW233777   2.896   1.684   3.786 -0.6538 -2.1016 -0.3820
 7439SOL     OW33778   0.992   3.836  13.249 -0.1423  0.2355 -0.0485
 7439SOL    HW133779   0.901   3.840  13.220 -0.0475  1.9743 -0.1273
 7439SOL    HW233780   1.023   3.878  13.168 -1.4517  0.0031 -0.6635
 7440SOL     OW33781   0.487   3.299  10.115 -0.0733 -0.2722 -0.2088
 7440SOL    HW133782   0.407   3.285  10.064  1.0925 -1.3832 -1.7292
 7440SOL    HW233783   0.524   3.210  10.111  1.0547  0.2072 -0.5973
 7441SOL     OW33784   3.719   3.604   6.008  0.3593 -0.1666  0.1680
 7441SOL    HW133785   3.811   3.625   6.020  0.3472  1.4943 -2.5669
 7441SOL    HW233786   3.681   3.621   6.094  1.5098 -1.5494  0.9325
 7442SOL     OW33787   2.074   1.909   3.908 -0.0603 -0.1921 -0.1936
 7442SOL    HW133788   1.993   1.863   3.882 -2.2427  2.9909  1.0459
 7442SOL    HW233789   2.080   1.980   3.845  1.9283  0.0697  0.3027
 7443SOL     OW33790   1.117   3.036  17.667 -0.4838 -0.2577  0.4765
 7443SOL    HW133791   1.204   3.049  17.628 -0.3056 -3.6420 -0.2914
 7443SOL    HW233792   1.065   2.984  17.605 -0.0849 -0.5802  0.4115
 7444SOL     OW33793   2.668   0.442  11.015 -0.0089  0.1778  0.2107
 7444SOL    HW133794   2.633   0.361  10.979  0.5929 -0.3294  0.7683
 7444SOL    HW233795   2.721   0.401  11.084 -0.2500  0.7946  0.7706
 7445SOL     OW33796   2.055   2.568   8.024  0.3667 -0.6126 -0.3551
 7445SOL    HW133797   1.962   2.592   8.033  0.6571  0.3929 -0.1334
 7445SOL    HW233798   2.069   2.537   8.113 -0.2472  1.1486  0.3567
 7446SOL     OW33799   1.895   0.185   6.011  0.1513  0.3803 -0.0203
 7446SOL    HW133800   1.978   0.154   6.047  0.0771  1.9142  1.4700
 7446SOL    HW233801   1.857   0.244   6.075  2.4920  0.6453  1.1276
 7447SOL     OW33802   0.907   2.593   8.470 -0.3698  0.2249 -0.3896
 7447SOL    HW133803   0.951   2.510   8.453 -2.2584 -0.6805 -0.8723
 7447SOL    HW233804   0.882   2.592   8.563  2.3138  0.3643  0.3258
 7448SOL     OW33805   2.980   2.238  13.408  0.3277 -0.0325  0.6880
 7448SOL    HW133806   2.904   2.184  13.431 -0.7678  1.0092 -0.4858
 7448SOL    HW233807   3.010   2.275  13.490  0.2322 -0.7114  1.0278
 7449SOL     OW33808   0.169   0.227   0.748 -0.0687  0.7255 -0.3280
 7449SOL    HW133809   0.127   0.264   0.670  2.4197  1.1323 -1.4669
 7449SOL    HW233810   0.190   0.304   0.801 -0.6680 -0.2178  1.2771
 7450SOL     OW33811   0.391   3.890   3.111 -0.0094 -0.0343  0.1859
 7450SOL    HW133812   0.314   3.869   3.164  0.4604  0.6886  1.1703
 7450SOL    HW233813   0.410   3.983   3.125  1.0056 -0.5405  2.2143
 7451SOL     OW33814   4.618   3.535   3.457  0.5406 -0.9558 -0.2418
 7451SOL    HW133815   4.593   3.488   3.377  0.5178 -2.9082  0.9082
 7451SOL    HW233816   4.534   3.577   3.476  0.9723 -0.2155 -0.0010
 7452SOL     OW33817   1.713   3.110   8.272  0.2468 -0.8081  0.4366
 7452SOL    HW133818   1.705   3.201   8.302 -2.6650 -1.0009  0.1997
 7452SOL    HW233819   1.806   3.111   8.249  0.4049  0.8821  1.1044
 7453SOL     OW33820   3.097   0.588   7.521 -0.2604  0.5546  0.1162
 7453SOL    HW133821   3.034   0.536   7.471 -1.3391  2.4671 -0.4932
 7453SOL    HW233822   3.140   0.641   7.454 -0.4919 -0.3730 -0.7642
 7454SOL     OW33823   0.802   0.641  16.104  0.6817  0.0729  0.3331
 7454SOL    HW133824   0.871   0.619  16.167  0.9870  0.3469  0.0938
 7454SOL    HW233825   0.780   0.729  16.134  1.4365  0.7563 -1.1358
 7455SOL     OW33826   3.929   1.740   1.182 -0.2472 -0.1941  0.1685
 7455SOL    HW133827   3.834   1.730   1.178 -0.0883 -0.9292 -1.9420
 7455SOL    HW233828   3.948   1.650   1.210  1.1021  0.0929  0.1710
 7456SOL     OW33829   2.583   4.497  13.188 -0.1744 -0.3149 -0.2893
 7456SOL    HW133830   2.493   4.509  13.220 -0.5585  0.4812 -1.6304
 7456SOL    HW233831   2.621   4.581  13.213  0.1912 -0.1921 -1.2668
 7457SOL     OW33832   3.231   1.607  11.532  0.6852  0.1046  0.6634
 7457SOL    HW133833   3.218   1.520  11.570 -1.3942 -0.3928 -1.2264
 7457SOL    HW233834   3.209   1.661  11.608 -0.7817  1.8000 -0.9975
 7458SOL     OW33835   0.047   1.644   2.721  0.2406  0.0134 -0.2629
 7458SOL    HW133836   0.045   1.634   2.626 -0.6809 -0.8271 -0.1524
 7458SOL    HW233837   0.013   1.732   2.738 -1.5590 -0.4900 -1.3142
 7459SOL     OW33838   0.473   1.957   7.574  0.4783 -0.3173 -0.5192
 7459SOL    HW133839   0.487   1.890   7.506  0.6471 -2.3741  1.5182
 7459SOL    HW233840   0.560   1.992   7.590 -0.4198  0.9556  1.5402
 7460SOL     OW33841   3.182   2.483   7.863 -0.5501  0.4249  0.2119
 7460SOL    HW133842   3.234   2.409   7.832 -2.2378 -1.5998  2.2040
 7460SOL    HW233843   3.133   2.507   7.784  0.8452 -0.2534 -0.8641
 7461SOL     OW33844   2.844   0.896   7.756 -0.4304 -0.1888  0.7932
 7461SOL    HW133845   2.773   0.937   7.805 -1.7431 -2.4668  0.7553
 7461SOL    HW233846   2.909   0.956   7.793 -1.5334  1.9987 -0.8686
 7462SOL     OW33847   2.520   4.133   9.675  0.0699 -0.0809 -0.0127
 7462SOL    HW133848   2.551   4.077   9.747  1.2139  1.5639  0.7641
 7462SOL    HW233849   2.542   4.217   9.714  0.1009 -0.3617  0.5835
 7463SOL     OW33850   0.815   0.296   1.455 -0.2478 -0.3931  0.6170
 7463SOL    HW133851   0.868   0.223   1.426 -1.4443 -0.7929 -0.5534
 7463SOL    HW233852   0.734   0.254   1.485 -1.0517  0.8520  0.2090
 7464SOL     OW33853   1.609   4.326  13.371  0.0683 -0.1577  0.0109
 7464SOL    HW133854   1.573   4.337  13.283  0.4600  2.1351  0.1328
 7464SOL    HW233855   1.559   4.393  13.418  0.3599 -0.0221  0.1269
 7465SOL     OW33856   0.195   4.048   4.315  0.0555  0.0728  0.5203
 7465SOL    HW133857   0.142   3.968   4.324  2.1323 -1.4115 -0.3382
 7465SOL    HW233858   0.236   4.037   4.400  0.0558 -3.0496  0.1285
 7466SOL     OW33859   0.730   2.684   3.677 -0.1431  0.1615  0.4190
 7466SOL    HW133860   0.674   2.655   3.606  2.0947 -0.0012 -1.2670
 7466SOL    HW233861   0.820   2.671   3.645 -0.3627 -0.6767  0.1454
 7467SOL     OW33862   2.161   3.232   5.019 -0.3483 -0.0990  0.1740
 7467SOL    HW133863   2.223   3.179   4.969  0.1298  0.4922  0.1396
 7467SOL    HW233864   2.085   3.224   4.960 -1.3861  1.5241  1.2810
 7468SOL     OW33865   0.941   0.217  15.688  0.2176  0.2944  0.1848
 7468SOL    HW133866   0.994   0.243  15.612 -0.1937  2.3081  0.5915
 7468SOL    HW233867   0.883   0.292  15.701 -1.3387 -0.6391 -1.3254
 7469SOL     OW33868   2.942   3.274   0.142  0.3517  0.5623 -0.4878
 7469SOL    HW133869   2.919   3.187   0.111  1.7776  0.4897 -1.3643
 7469SOL    HW233870   2.940   3.265   0.237 -0.2013 -0.9687 -0.6542
 7470SOL     OW33871   1.462   2.037   3.874 -0.2409 -0.3814  0.0093
 7470SOL    HW133872   1.446   2.069   3.962  0.1123  1.8659 -0.7443
 7470SOL    HW233873   1.549   2.072   3.854 -0.4140 -0.5006 -0.9470
 7471SOL     OW33874   2.732   0.265   4.211  0.0804 -0.2169  0.4599
 7471SOL    HW133875   2.663   0.241   4.150 -0.2570  3.6322 -0.6937
 7471SOL    HW233876   2.814   0.223   4.183  1.9203  2.5414  1.6552
 7472SOL     OW33877   0.312   4.707   4.217 -0.1367  0.0035  0.1946
 7472SOL    HW133878   0.262   0.021   4.289 -1.0834 -0.7651 -0.0387
 7472SOL    HW233879   0.243   4.652   4.179 -0.6693  0.5696  0.3394
 7473SOL     OW33880   3.260   3.041   5.644 -0.0601  0.5743 -0.2273
 7473SOL    HW133881   3.305   3.125   5.637 -1.1656  0.9319 -2.7806
 7473SOL    HW233882   3.327   2.980   5.677  0.1205  1.2697  0.7097
 7474SOL     OW33883   3.911   2.180   6.659  0.3090 -0.0014  0.0400
 7474SOL    HW133884   3.884   2.271   6.670  0.4918  0.0046  0.4554
 7474SOL    HW233885   3.917   2.172   6.564 -0.5325  0.7761 -0.0781
 7475SOL     OW33886   0.822   2.995   2.072  0.4859  0.4558  0.4450
 7475SOL    HW133887   0.872   3.071   2.103  1.1951  0.0957  0.1679
 7475SOL    HW233888   0.861   2.971   1.988  0.1528 -0.1273  0.4508
 7476SOL     OW33889   0.638   3.476   6.088 -0.0140  0.6541  0.1147
 7476SOL    HW133890   0.566   3.539   6.095 -0.2708  0.3039  0.6591
 7476SOL    HW233891   0.597   3.415   6.026 -0.1497  0.8191  0.0423
 7477SOL     OW33892   2.513   2.132   7.385 -0.4391 -0.1624 -0.1654
 7477SOL    HW133893   2.527   2.072   7.458  0.4860 -0.7558 -0.8375
 7477SOL    HW233894   2.595   2.138   7.336 -0.4939  3.8790  0.2110
 7478SOL     OW33895   1.194   0.662   3.746 -0.6453 -0.3029 -0.6112
 7478SOL    HW133896   1.216   0.578   3.707  0.8949 -0.5180  0.6816
 7478SOL    HW233897   1.107   0.688   3.716 -0.3432  0.8509 -0.5212
 7479SOL     OW33898   2.350   3.459   7.522  0.9382  0.6612  0.2227
 7479SOL    HW133899   2.344   3.550   7.554 -0.3095  0.7192 -0.1852
 7479SOL    HW233900   2.429   3.457   7.469 -0.3587 -1.5202 -1.6352
 7480SOL     OW33901   3.121   1.508  11.963  0.7509 -0.2536 -0.8068
 7480SOL    HW133902   3.140   1.565  11.888  3.2663  2.7830  2.1802
 7480SOL    HW233903   3.097   1.430  11.912 -0.1992 -1.1594  1.0271
 7481SOL     OW33904   1.564   2.039   9.314 -0.2243  0.1529 -0.3646
 7481SOL    HW133905   1.620   2.117   9.308 -0.4022  0.3703  0.8802
 7481SOL    HW233906   1.591   1.996   9.233  3.0977  1.8530 -0.1784
 7482SOL     OW33907   0.077   0.652   7.111  1.2944  0.1385 -0.2679
 7482SOL    HW133908   4.724   0.635   7.164  1.0184  3.1248  0.2721
 7482SOL    HW233909   0.123   0.723   7.155  2.0960 -0.4267 -0.1961
 7483SOL     OW33910   0.298   2.037   7.745  0.2267 -0.2283  0.3167
 7483SOL    HW133911   0.323   1.976   7.814 -0.0126 -0.1804  0.4424
 7483SOL    HW233912   0.363   1.997   7.687  0.8005 -1.5005  1.8413
 7484SOL     OW33913   3.219   4.559   6.161  0.0834  0.4233  0.2709
 7484SOL    HW133914   3.135   4.545   6.118  0.3483 -0.6310  0.0852
 7484SOL    HW233915   3.269   4.566   6.080  0.6677 -0.2910  0.5611
 7485SOL     OW33916   0.256   2.522   8.389 -0.0611 -0.3833  0.0923
 7485SOL    HW133917   0.235   2.438   8.348  0.2848 -1.0502  1.2798
 7485SOL    HW233918   0.299   2.566   8.316 -0.4552 -1.4168 -0.7668
 7486SOL     OW33919   3.057   0.643   8.778  0.1703  0.4312 -0.7167
 7486SOL    HW133920   3.108   0.583   8.723  0.8991  0.5473 -0.1584
 7486SOL    HW233921   3.127   0.685   8.827 -0.3066  0.7515 -0.3142
 7487SOL     OW33922   0.592   2.178   1.762  0.9205  0.3473 -0.2750
 7487SOL    HW133923   0.618   2.125   1.686  2.1682 -1.1170  1.1683
 7487SOL    HW233924   0.544   2.251   1.722 -0.4445  0.7811  2.1783
 7488SOL     OW33925   4.284   3.422   3.108 -0.4493 -0.4815  0.3421
 7488SOL    HW133926   4.302   3.475   3.030  1.1565 -0.1705  0.9207
 7488SOL    HW233927   4.369   3.416   3.153 -0.8510 -0.6347  1.0750
 7489SOL     OW33928   3.924   4.025  16.283  0.0499 -0.7760 -0.4211
 7489SOL    HW133929   3.990   4.081  16.325  0.7265 -1.6267 -0.3353
 7489SOL    HW233930   3.888   4.086  16.219 -0.8627 -0.0418  0.7981
 7490SOL     OW33931   1.832   3.305   0.399 -0.2724  0.2699  0.2676
 7490SOL    HW133932   1.880   3.384   0.422  0.9745 -0.7743  1.2356
 7490SOL    HW233933   1.880   3.287   0.318 -0.9718  0.3953 -0.1722
 7491SOL     OW33934   1.305   3.491   3.454  0.0602  0.3771  0.7740
 7491SOL    HW133935   1.355   3.572   3.445  0.0497  0.2720 -0.1947
 7491SOL    HW233936   1.313   3.476   3.548  0.1096 -1.5551  0.4555
 7492SOL     OW33937   0.855   4.064   1.749  0.3901  0.3064 -0.6041
 7492SOL    HW133938   0.941   4.104   1.736  0.5301  0.8661  2.0771
 7492SOL    HW233939   0.868   3.971   1.734  0.2092  0.2620 -0.4766
 7493SOL     OW33940   0.366   2.515   4.323 -0.6798  0.5915  0.3868
 7493SOL    HW133941   0.314   2.595   4.330  0.4773  1.4161 -0.4416
 7493SOL    HW233942   0.433   2.529   4.389 -0.4291  0.3387  0.1842
 7494SOL     OW33943   1.316   1.895  16.735 -0.0915  0.6724  0.3704
 7494SOL    HW133944   1.408   1.889  16.708 -0.8664 -1.5742 -1.8320
 7494SOL    HW233945   1.262   1.866  16.661 -2.4829  0.6721  2.1224
 7495SOL     OW33946   2.739   0.310   9.826  0.2606 -0.2739 -0.3023
 7495SOL    HW133947   2.768   0.340   9.913  0.4608 -0.9795 -0.1271
 7495SOL    HW233948   2.653   0.351   9.832  0.5635  0.3225  0.0315
 7496SOL     OW33949   2.078   1.819   9.699  0.0769 -0.3617 -0.5249
 7496SOL    HW133950   2.075   1.826   9.794 -1.6035  1.6679 -0.7212
 7496SOL    HW233951   2.165   1.837   9.665 -0.2777  0.4126 -1.0305
 7497SOL     OW33952   0.570   4.035   9.947  0.4602  0.2954 -0.2900
 7497SOL    HW133953   0.600   3.981   9.874  2.4198 -0.8853  1.3584
 7497SOL    HW233954   0.618   4.002  10.023  0.0081  1.3905  0.4607
 7498SOL     OW33955   0.347   0.645  11.932  0.5374  0.3762 -0.9191
 7498SOL    HW133956   0.283   0.686  11.874 -1.0468  0.5816  0.9474
 7498SOL    HW233957   0.303   0.567  11.964 -1.4795  1.0428 -2.0893
 7499SOL     OW33958   1.685   3.908   3.042 -0.0496  0.0198  0.3900
 7499SOL    HW133959   1.654   3.998   3.032 -0.0662 -0.1197 -0.7897
 7499SOL    HW233960   1.777   3.927   3.061 -0.0695 -1.0950  1.5833
 7500SOL     OW33961   0.441   3.138   3.925  0.1926  0.2483 -0.5603
 7500SOL    HW133962   0.495   3.061   3.905  1.5103  1.7378 -2.6757
 7500SOL    HW233963   0.377   3.148   3.855 -1.6616  0.3427  1.1384
 7501SOL     OW33964   1.253   4.465   9.203  0.0775 -0.1600  0.1154
 7501SOL    HW133965   1.214   4.391   9.157 -1.4417 -1.4796  3.4892
 7501SOL    HW233966   1.174   4.509   9.234  0.5648  0.1938  0.8500
 7502SOL     OW33967   0.479   1.579  11.264  0.1025 -0.1450  0.5936
 7502SOL    HW133968   0.466   1.505  11.205 -0.6889  0.9233 -0.5830
 7502SOL    HW233969   0.569   1.607  11.249  0.1623 -0.8693 -0.4362
 7503SOL     OW33970   4.160   1.403   2.245  0.3975  0.4629  0.4235
 7503SOL    HW133971   4.152   1.447   2.161  0.9645  0.3509  0.3131
 7503SOL    HW233972   4.077   1.356   2.249  0.9182 -0.5057 -0.4282
 7504SOL     OW33973   0.947   3.658   4.365 -0.2534 -0.5129  0.2511
 7504SOL    HW133974   0.897   3.599   4.308 -0.8022  0.8923 -0.7156
 7504SOL    HW233975   0.994   3.608   4.432  2.1919  0.7747 -0.5053
 7505SOL     OW33976   2.919   2.897  10.068  0.5733 -0.0519  0.1978
 7505SOL    HW133977   2.887   2.925   9.981  2.0586 -2.2772 -1.0585
 7505SOL    HW233978   2.868   2.944  10.134 -0.2070  0.1106 -0.5103
 7506SOL     OW33979   1.465   4.643  14.369  0.0019  0.8680 -0.1315
 7506SOL    HW133980   1.495   4.656  14.279 -1.5128 -1.2289 -0.9337
 7506SOL    HW233981   1.542   4.657  14.423 -0.8340 -2.5863  1.9484
 7507SOL     OW33982   3.266   0.214  15.691  0.3087  0.1543 -0.4104
 7507SOL    HW133983   3.293   0.147  15.754 -0.0818  0.2759 -0.1068
 7507SOL    HW233984   3.348   0.213  15.643  2.1964  0.0277  2.8127
 7508SOL     OW33985   2.724   0.689   5.047  0.4007 -0.1784 -0.5954
 7508SOL    HW133986   2.790   0.644   4.993  1.0240  0.8435 -0.6790
 7508SOL    HW233987   2.662   0.712   4.978 -1.8010 -0.5412  1.2667
 7509SOL     OW33988   2.976   1.729   2.710 -0.0102 -0.1318  0.3807
 7509SOL    HW133989   2.898   1.720   2.764 -0.1151 -0.6237  0.1436
 7509SOL    HW233990   2.964   1.658   2.647 -0.4051  0.8016 -0.5911
 7510SOL     OW33991   3.740   0.867   3.513  0.4104 -0.0601 -0.1774
 7510SOL    HW133992   3.783   0.803   3.457 -1.1363 -0.0959 -1.3387
 7510SOL    HW233993   3.818   0.913   3.544  0.9204 -0.3042 -1.1035
 7511SOL     OW33994   4.027   2.399   1.331 -0.3592  0.4928  0.3414
 7511SOL    HW133995   4.075   2.419   1.251  1.9111 -2.8667  0.8599
 7511SOL    HW233996   4.090   2.348   1.380  0.3476  1.0188 -0.0227
 7512SOL     OW33997   3.842   3.450  15.305 -0.7635 -0.4071 -0.1115
 7512SOL    HW133998   3.866   3.513  15.237 -0.5759 -1.3561 -0.9296
 7512SOL    HW233999   3.880   3.488  15.384 -0.2946 -2.4821  0.6432
 7513SOL     OW34000   2.656   0.913   9.452  0.2996 -0.2184 -0.0142
 7513SOL    HW134001   2.613   0.976   9.393  0.6411  1.0232  1.0509
 7513SOL    HW234002   2.739   0.957   9.471  1.1015 -2.2795  1.2896
 7514SOL     OW34003   2.564   1.060  12.396 -0.2165 -0.2480 -0.1489
 7514SOL    HW134004   2.587   1.061  12.489 -3.7138 -2.7054  0.7505
 7514SOL    HW234005   2.490   1.121  12.391 -0.2710 -0.0873  2.4591
 7515SOL     OW34006   0.924   3.769  15.344  0.4634  0.0559 -0.2482
 7515SOL    HW134007   0.971   3.701  15.297 -1.0323 -0.8039 -0.5245
 7515SOL    HW234008   0.909   3.734  15.432  1.1919 -0.9311 -0.5259
 7516SOL     OW34009   3.685   0.349   6.485 -0.4296  0.4004  0.0592
 7516SOL    HW134010   3.657   0.353   6.393  2.0333  1.6946 -0.6382
 7516SOL    HW234011   3.614   0.387   6.535  0.3043  0.9713  0.6580
 7517SOL     OW34012   3.040   3.374   8.432 -0.2139  0.0407 -0.2271
 7517SOL    HW134013   3.022   3.427   8.355 -1.5404 -0.1723 -0.0637
 7517SOL    HW234014   3.131   3.402   8.442 -0.2974  0.2530 -0.0668
 7518SOL     OW34015   4.006   0.309   4.887 -0.0026  0.0625 -0.6265
 7518SOL    HW134016   4.058   0.387   4.905 -1.4265  1.6754 -3.5934
 7518SOL    HW234017   3.925   0.338   4.928 -0.8064 -1.0817 -1.4069
 7519SOL     OW34018   4.591   4.244   8.263 -0.4182  0.1667  0.3968
 7519SOL    HW134019   4.528   4.174   8.281 -1.0441  0.9622  1.2655
 7519SOL    HW234020   4.674   4.218   8.302 -0.4142  0.0597  0.3193
 7520SOL     OW34021   1.201   3.601   6.878 -0.3561 -0.2326 -0.0399
 7520SOL    HW134022   1.167   3.514   6.856 -1.2594  0.3711 -1.0441
 7520SOL    HW234023   1.153   3.647   6.809  2.0029 -0.6313 -1.9078
 7521SOL     OW34024   3.888   0.066   4.477  0.4248 -0.4004 -0.1760
 7521SOL    HW134025   3.960   0.091   4.535 -0.0765 -1.9295  1.0931
 7521SOL    HW234026   3.911   4.700   4.459 -2.0352 -1.0986  0.3188
 7522SOL     OW34027   2.539   1.238   7.097  0.0709  0.6295 -0.4916
 7522SOL    HW134028   2.490   1.309   7.139 -0.8160  0.9771 -2.1075
 7522SOL    HW234029   2.487   1.230   7.016 -0.6355 -1.0566  0.1098
 7523SOL     OW34030   3.021   0.237   5.580 -0.4655  0.2510 -0.2197
 7523SOL    HW134031   3.105   0.269   5.546 -0.2690  2.7603  2.6330
 7523SOL    HW234032   3.049   0.146   5.592 -1.8258 -0.4945 -2.5529
 7524SOL     OW34033   0.487   1.593   8.193  0.0369 -0.1868 -0.2450
 7524SOL    HW134034   0.540   1.582   8.272  0.1430  1.1928 -0.1337
 7524SOL    HW234035   0.513   1.682   8.170 -0.2933 -0.7514 -2.8028
 7525SOL     OW34036   3.653   2.499   1.552  0.3219 -0.0039 -0.3193
 7525SOL    HW134037   3.605   2.472   1.630 -0.0332  0.0318 -0.5255
 7525SOL    HW234038   3.684   2.583   1.586  1.5960 -0.2435 -0.8962
 7526SOL     OW34039   3.769   3.709   0.552 -0.0563 -0.0297 -0.6247
 7526SOL    HW134040   3.799   3.735   0.465  0.2355  0.8016 -0.2719
 7526SOL    HW234041   3.749   3.616   0.539  0.2732  0.0506 -1.6599
 7527SOL     OW34042   3.038   3.881   5.251  0.4901 -0.0131  0.5366
 7527SOL    HW134043   3.065   3.859   5.162  0.7315  0.1964  0.5576
 7527SOL    HW234044   3.063   3.973   5.255  1.4363 -0.2512  0.2261
 7528SOL     OW34045   4.571   3.666   6.738 -0.1655  0.2406 -0.2687
 7528SOL    HW134046   4.657   3.624   6.741 -0.4843 -0.3453  0.7701
 7528SOL    HW234047   4.591   3.758   6.724  1.6611  0.2758  2.3385
 7529SOL     OW34048   0.283   4.430  15.128 -0.0017  0.3486  0.0805
 7529SOL    HW134049   0.203   4.386  15.157 -0.1357  1.1696  0.9573
 7529SOL    HW234050   0.354   4.396  15.182 -1.4127 -0.4913  1.3840
 7530SOL     OW34051   0.607   3.260   7.515 -0.0264 -0.1367  0.3354
 7530SOL    HW134052   0.639   3.313   7.588  0.5271 -0.0185  0.0019
 7530SOL    HW234053   0.586   3.332   7.456  2.1766 -0.3369 -0.6707
 7531SOL     OW34054   0.615   2.537   4.161  0.3997 -0.7247  0.2235
 7531SOL    HW134055   0.528   2.503   4.181  0.2463 -1.2217 -1.2802
 7531SOL    HW234056   0.650   2.583   4.237  0.2285 -2.1318  1.1555
 7532SOL     OW34057   1.219   0.652  13.045 -0.7553 -0.4085 -0.4471
 7532SOL    HW134058   1.271   0.601  13.107 -1.5183  0.9284  1.2860
 7532SOL    HW234059   1.139   0.600  13.041 -0.8178 -0.2460 -1.3470
 7533SOL     OW34060   0.342   1.626   6.599  0.0674 -0.6582 -0.0291
 7533SOL    HW134061   0.258   1.640   6.642  0.4843  2.9606 -0.3777
 7533SOL    HW234062   0.377   1.553   6.651 -0.5246 -1.5012 -0.8075
 7534SOL     OW34063   4.468   1.866   1.924 -0.4633 -0.6447  0.5568
 7534SOL    HW134064   4.484   1.948   1.971  0.3889 -1.2012  1.2449
 7534SOL    HW234065   4.506   1.881   1.838 -0.9968  0.5718  0.5278
 7535SOL     OW34066   2.507   1.786   1.032  0.6685  0.1861 -0.5688
 7535SOL    HW134067   2.550   1.700   1.036  1.8787  0.8832  1.6129
 7535SOL    HW234068   2.549   1.828   0.957  1.1984 -1.2852 -1.0909
 7536SOL     OW34069   2.193   0.211   0.789  0.2210 -0.0958 -0.4858
 7536SOL    HW134070   2.132   0.242   0.722 -0.6516  0.6424  0.6646
 7536SOL    HW234071   2.222   0.126   0.756 -0.5141 -0.5091 -0.0695
 7537SOL     OW34072   0.996   2.776   7.014 -0.5053 -0.2190  0.0435
 7537SOL    HW134073   1.086   2.781   7.048 -0.7202 -2.5825  0.9876
 7537SOL    HW234074   0.980   2.863   6.979 -0.9103  0.4224  1.8334
 7538SOL     OW34075   2.251   3.282   6.204 -0.4144  0.5189  0.0452
 7538SOL    HW134076   2.198   3.336   6.262 -0.9308  1.0039 -0.8800
 7538SOL    HW234077   2.318   3.261   6.269 -0.2683  0.9664  0.0358
 7539SOL     OW34078   2.402   3.182   6.380 -0.1454 -0.0738  0.3849
 7539SOL    HW134079   2.334   3.182   6.447  0.6385 -0.2113  1.1972
 7539SOL    HW234080   2.393   3.089   6.358  0.5865  0.4080 -1.9459
 7540SOL     OW34081   0.250   0.041  16.641 -0.2355 -0.8221 -0.0434
 7540SOL    HW134082   0.258   0.136  16.628 -1.1278 -0.8138 -0.5040
 7540SOL    HW234083   0.310   0.030  16.714  0.1827 -0.3034 -0.3063
 7541SOL     OW34084   2.412   1.304  13.380 -0.7488 -0.0429 -0.1666
 7541SOL    HW134085   2.393   1.215  13.409 -0.6156 -0.2239 -0.6323
 7541SOL    HW234086   2.334   1.347  13.415  0.2792  1.7210 -0.0576
 7542SOL     OW34087   0.568   0.284  10.961 -0.1259  0.0834 -0.2365
 7542SOL    HW134088   0.628   0.358  10.969 -0.8392  0.7508 -0.9288
 7542SOL    HW234089   0.486   0.324  10.930 -0.9394 -0.5115  1.1641
 7543SOL     OW34090   1.702   3.925  10.704  0.4584  0.2784 -0.1439
 7543SOL    HW134091   1.624   3.945  10.756  0.6261 -0.4666  0.3919
 7543SOL    HW234092   1.733   4.013  10.683 -2.6840  1.1091 -1.2304
 7544SOL     OW34093   4.627   4.417   5.103  0.2766 -0.9074 -0.4261
 7544SOL    HW134094   4.685   4.467   5.045 -0.7986 -0.0043 -0.7224
 7544SOL    HW234095   4.553   4.417   5.042  0.4647 -1.2016 -0.6583
 7545SOL     OW34096   2.841   2.099   6.410  0.2250  0.1948  0.5969
 7545SOL    HW134097   2.875   2.084   6.321  0.4215  0.7345  0.5805
 7545SOL    HW234098   2.848   2.195   6.410 -1.5629  0.3082  2.6070
 7546SOL     OW34099   2.286   4.273   0.895  0.0852  0.0142 -0.5333
 7546SOL    HW134100   2.352   4.338   0.920  0.6641 -1.2658  1.2701
 7546SOL    HW234101   2.284   4.271   0.800 -0.4705 -0.8797 -0.4922
 7547SOL     OW34102   4.441   2.293   2.638  0.4523  0.5402  0.0825
 7547SOL    HW134103   4.504   2.319   2.706  2.0638 -0.5909 -0.9698
 7547SOL    HW234104   4.467   2.201   2.637 -0.2362  0.3612 -1.0646
 7548SOL     OW34105   2.905   4.212   7.195 -0.3952 -0.3385  0.4552
 7548SOL    HW134106   2.923   4.169   7.112  1.2417 -0.8545  1.0852
 7548SOL    HW234107   2.865   4.295   7.167 -2.0401 -2.0126 -2.1007
 7549SOL     OW34108   4.713   1.283   1.222  0.5102 -0.8042 -0.3478
 7549SOL    HW134109   0.053   1.342   1.185 -0.2058  0.1617 -0.0629
 7549SOL    HW234110   0.026   1.271   1.309  1.0283  2.7899 -0.0808
 7550SOL     OW34111   3.881   4.602   5.096  0.6406  0.2213  0.4972
 7550SOL    HW134112   3.964   4.568   5.064  2.0299  3.6534  0.4791
 7550SOL    HW234113   3.837   4.603   5.011 -0.7721 -0.4169  1.2166
 7551SOL     OW34114   3.061   2.421   9.958  0.4799 -0.0385 -0.5972
 7551SOL    HW134115   3.156   2.411   9.946  0.6206  1.9537 -1.0200
 7551SOL    HW234116   3.053   2.426  10.053  0.1665 -1.2850 -0.5539
 7552SOL     OW34117   4.260   2.404   8.404  0.5116 -0.4622 -0.2315
 7552SOL    HW134118   4.275   2.387   8.311  1.0809  0.1776 -0.2554
 7552SOL    HW234119   4.322   2.476   8.417 -0.1187 -0.2269  1.4783
 7553SOL     OW34120   3.609   3.422   5.840 -0.3261 -0.1077  0.1431
 7553SOL    HW134121   3.602   3.332   5.874  0.3702 -0.0073  0.5457
 7553SOL    HW234122   3.644   3.476   5.911  2.1850 -1.4829 -0.0447
 7554SOL     OW34123   1.958   2.358   5.790  0.2200 -0.7194  0.3167
 7554SOL    HW134124   1.934   2.280   5.840  1.4565 -0.0669  1.9326
 7554SOL    HW234125   1.918   2.343   5.705  0.0423 -1.1732  0.4791
 7555SOL     OW34126   0.415   0.744   8.194 -0.1900 -0.0067 -0.0807
 7555SOL    HW134127   0.375   0.822   8.232  1.5769 -0.0529  1.8630
 7555SOL    HW234128   0.491   0.727   8.249  0.0671 -1.9400 -1.0387
 7556SOL     OW34129   2.078   1.160   3.881  0.3171 -0.3133  0.1725
 7556SOL    HW134130   2.118   1.242   3.852 -0.6883  0.7897  1.9568
 7556SOL    HW234131   2.038   1.174   3.966 -0.3971  0.9381 -0.3773
 7557SOL     OW34132   3.266   0.024   2.256  0.0003 -0.3920  0.3261
 7557SOL    HW134133   3.302   0.012   2.344 -0.2893 -1.4080  0.3144
 7557SOL    HW234134   3.215   0.104   2.267  3.5694  1.7433  1.3207
 7558SOL     OW34135   0.808   0.649   3.886 -0.1182  0.1882 -0.2502
 7558SOL    HW134136   0.833   0.649   3.793 -0.9401  1.0826 -0.4709
 7558SOL    HW234137   0.717   0.620   3.880 -0.6207  1.6113  0.7037
 7559SOL     OW34138   3.376   3.635   2.154 -0.4786  0.7674 -0.1293
 7559SOL    HW134139   3.456   3.632   2.208 -1.6332 -0.9194  1.4969
 7559SOL    HW234140   3.329   3.704   2.199 -0.4763  0.3454  0.5319
 7560SOL     OW34141   2.315   0.898   3.242 -0.0480  0.0812 -0.4830
 7560SOL    HW134142   2.340   0.892   3.150 -3.8128  1.4361 -1.5877
 7560SOL    HW234143   2.258   0.975   3.240 -0.6750 -0.3751 -0.2533
 7561SOL     OW34144   2.578   1.246   2.931 -0.2371 -0.3633 -1.1438
 7561SOL    HW134145   2.614   1.158   2.921  0.8585  0.1703 -1.9559
 7561SOL    HW234146   2.656   1.300   2.919 -0.4197  0.1511  0.0249
 7562SOL     OW34147   2.075   4.304   1.843  0.3374 -0.5266 -0.1901
 7562SOL    HW134148   2.110   4.247   1.775  0.7912  0.4648 -0.7852
 7562SOL    HW234149   2.155   4.349   1.870 -0.0793 -0.8314  1.5659
 7563SOL     OW34150   3.646   1.871   7.471 -0.3744 -0.4416 -0.4784
 7563SOL    HW134151   3.651   1.908   7.383  1.2811 -0.4158 -0.3709
 7563SOL    HW234152   3.559   1.897   7.500  0.5044  2.3951 -0.4284
 7564SOL     OW34153   3.799   0.394   5.738  0.2521 -0.1008  0.5478
 7564SOL    HW134154   3.735   0.438   5.683  0.0098  1.0219  1.7207
 7564SOL    HW234155   3.825   0.329   5.673  1.3401 -1.5276  2.3784
 7565SOL     OW34156   3.810   0.636   4.917 -0.4069 -0.3624 -0.2288
 7565SOL    HW134157   3.851   0.712   4.957 -1.0890 -0.6026  0.9323
 7565SOL    HW234158   3.783   0.664   4.830 -1.9865 -3.0132 -0.6035
 7566SOL     OW34159   3.861   3.834   2.565 -0.1460  0.0454  0.6616
 7566SOL    HW134160   3.912   3.826   2.645  3.0688  0.8559 -1.2738
 7566SOL    HW234161   3.905   3.911   2.528 -0.4601  0.6977  1.6652
 7567SOL     OW34162   1.179   1.580   2.144 -0.1479 -0.1860  0.2439
 7567SOL    HW134163   1.145   1.504   2.097 -2.3613  0.2281  1.2149
 7567SOL    HW234164   1.102   1.632   2.165 -0.3350  1.1300 -3.6586
 7568SOL     OW34165   2.734   2.242   1.242 -0.1509  0.3151 -0.2811
 7568SOL    HW134166   2.715   2.275   1.154  1.1063  0.6798 -0.4147
 7568SOL    HW234167   2.677   2.166   1.252  0.9930 -0.3177  1.4659
 7569SOL     OW34168   3.197   3.092  11.143  0.0402  0.2119 -0.1670
 7569SOL    HW134169   3.233   3.179  11.125  1.2572 -0.5104 -1.2475
 7569SOL    HW234170   3.209   3.039  11.064 -1.7416 -1.5245  0.7196
 7570SOL     OW34171   2.301   4.405   7.437  0.2855 -0.6260  0.5210
 7570SOL    HW134172   2.303   4.485   7.490  0.5441  0.1200 -0.6091
 7570SOL    HW234173   2.322   4.331   7.493  0.9415  0.0485  1.1674
 7571SOL     OW34174   1.101   0.059   6.895  0.3754 -0.6002  0.2055
 7571SOL    HW134175   1.177   0.016   6.856  1.5100  2.1745 -0.5946
 7571SOL    HW234176   1.045   0.074   6.819 -1.3478  1.6364  1.9147
 7572SOL     OW34177   0.633   1.544   4.740  0.3206 -0.7809  0.5086
 7572SOL    HW134178   0.630   1.548   4.836 -0.6067 -1.0494  0.4945
 7572SOL    HW234179   0.723   1.562   4.713  0.0108  0.4814  0.3329
 7573SOL     OW34180   1.911   1.690   5.520 -0.6545  0.0659 -0.4005
 7573SOL    HW134181   1.887   1.738   5.600  1.0173  1.0485 -0.5005
 7573SOL    HW234182   1.999   1.725   5.512 -1.0749  1.0764 -0.5524
 7574SOL     OW34183   1.382   0.545   6.743 -0.4125  0.2921 -0.1958
 7574SOL    HW134184   1.293   0.576   6.756 -0.0800  1.2351 -0.1394
 7574SOL    HW234185   1.440   0.618   6.767 -0.9959  1.2726 -1.7519
 7575SOL     OW34186   3.243   1.402   5.291  0.5193 -0.2965  0.0781
 7575SOL    HW134187   3.333   1.434   5.304 -0.7021  2.9412  0.4916
 7575SOL    HW234188   3.250   1.334   5.224  0.9396  1.5645 -1.7737
 7576SOL     OW34189   4.419   1.869   5.550 -0.0710 -0.8049  0.4721
 7576SOL    HW134190   4.419   1.955   5.593  1.4395  0.3526 -1.8454
 7576SOL    HW234191   4.331   1.834   5.567 -1.1993  2.0937  0.6628
 7577SOL     OW34192   1.624   4.193  12.461  0.3577  0.5961 -0.5874
 7577SOL    HW134193   1.614   4.210  12.368  0.2248 -0.8286 -0.8336
 7577SOL    HW234194   1.715   4.217  12.477 -0.0916  1.8268  0.1791
 7578SOL     OW34195   1.756   2.105   9.677  0.6097  0.2103 -0.1684
 7578SOL    HW134196   1.844   2.129   9.705  0.4586 -2.0637  2.2558
 7578SOL    HW234197   1.783   2.021   9.640 -1.8463 -0.5864 -0.1387
 7579SOL     OW34198   0.480   3.845  16.819  0.1149  0.0859 -0.4791
 7579SOL    HW134199   0.500   3.758  16.785 -2.4590 -0.7079  0.0590
 7579SOL    HW234200   0.465   3.901  16.742  0.7009  0.4138 -0.3566
 7580SOL     OW34201   4.599   1.023  14.134 -0.0429  0.4532 -0.1431
 7580SOL    HW134202   4.554   0.955  14.184  1.8506 -0.0402  0.9072
 7580SOL    HW234203   4.689   1.012  14.165  0.3796 -1.0815 -1.9351
 7581SOL     OW34204   1.750   1.097   8.019  0.0017  0.5115  0.0454
 7581SOL    HW134205   1.694   1.035   7.973  2.0384  0.9636 -3.0870
 7581SOL    HW234206   1.788   1.157   7.955  1.2947  1.0470  1.3129
 7582SOL     OW34207   0.203   4.588   1.131  0.0486 -0.2947  0.2553
 7582SOL    HW134208   0.114   4.605   1.163  0.7044  0.0370  1.9124
 7582SOL    HW234209   0.249   4.620   1.209  0.2870  2.9719 -1.2296
 7583SOL     OW34210   1.794   1.742  11.950 -1.0568 -0.4818 -0.0250
 7583SOL    HW134211   1.721   1.716  12.007 -1.6769 -0.4312 -0.7931
 7583SOL    HW234212   1.792   1.683  11.875  0.8557  1.3709 -1.5253
 7584SOL     OW34213   4.566   3.764   2.444  0.0206 -0.1840 -0.4600
 7584SOL    HW134214   4.587   3.834   2.505  1.9650 -0.4674 -0.7923
 7584SOL    HW234215   4.612   3.788   2.363  1.1292  0.1813  0.2774
 7585SOL     OW34216   3.986   4.180   5.729  0.2091 -0.3547 -0.1791
 7585SOL    HW134217   3.976   4.169   5.634  0.0845 -0.5830 -0.1382
 7585SOL    HW234218   4.081   4.186   5.721  0.0366  1.0147 -1.3501
 7586SOL     OW34219   4.639   0.589   5.929  0.3609  0.4373 -0.1497
 7586SOL    HW134220   4.673   0.678   5.925  0.3493  0.4197 -0.6775
 7586SOL    HW234221   4.719   0.544   5.902 -0.0988 -0.3779 -0.1565
 7587SOL     OW34222   3.310   1.550   7.960 -0.5185 -0.0627  0.2950
 7587SOL    HW134223   3.371   1.604   7.908  0.5683  0.2376  1.8798
 7587SOL    HW234224   3.272   1.625   8.006 -0.1597 -1.2305  2.4522
 7588SOL     OW34225   3.975   0.434  12.068 -0.0407  0.2442  0.0325
 7588SOL    HW134226   3.930   0.386  12.137  0.8165  0.2872  0.6086
 7588SOL    HW234227   4.063   0.448  12.103 -0.4395  1.0592  0.7049
 7589SOL     OW34228   0.607   1.594  13.790 -0.2460 -0.2951  0.3359
 7589SOL    HW134229   0.694   1.632  13.791  0.9108 -2.9411  0.2990
 7589SOL    HW234230   0.595   1.571  13.882 -1.1614  0.8225  0.4978
 7590SOL     OW34231   1.831   1.174   0.757  0.1278 -0.3139 -0.1884
 7590SOL    HW134232   1.770   1.109   0.790  0.0691  0.6539  1.5770
 7590SOL    HW234233   1.810   1.247   0.815  0.6871 -0.5805  0.3435
 7591SOL     OW34234   4.570   1.011   7.812 -0.4093  0.3042 -0.2964
 7591SOL    HW134235   4.504   1.008   7.881 -0.3044  1.9808 -0.1185
 7591SOL    HW234236   4.605   1.099   7.828 -3.3645  1.2525  0.9119
 7592SOL     OW34237   2.662   0.810  17.621 -0.2774 -0.0318 -0.5766
 7592SOL    HW134238   2.583   0.781  17.575 -0.3620 -2.0314  0.8270
 7592SOL    HW234239   2.704   0.859  17.550 -4.0800  2.2970 -1.2111
 7593SOL     OW34240   0.815   0.407   8.474 -0.4436  0.0924  0.3536
 7593SOL    HW134241   0.900   0.420   8.431 -0.8572 -2.1990 -1.1755
 7593SOL    HW234242   0.824   0.322   8.517 -2.1498  1.4110  3.3025
 7594SOL     OW34243   0.479   3.603   7.725 -0.0580  0.2698 -0.3933
 7594SOL    HW134244   0.515   3.625   7.811 -0.6321 -1.1999  0.2236
 7594SOL    HW234245   0.424   3.681   7.728 -0.9039 -0.4053  1.7648
 7595SOL     OW34246   4.087   4.691   8.723  0.1748 -0.1914  0.3052
 7595SOL    HW134247   4.140   4.656   8.794 -2.2707  0.6096  2.5481
 7595SOL    HW234248   4.072   0.049   8.769 -1.2871  0.6824 -1.7532
 7596SOL     OW34249   3.612   4.103  12.942  0.2509 -0.1721  0.7534
 7596SOL    HW134250   3.541   4.166  12.931 -2.1372 -2.7449  1.4810
 7596SOL    HW234251   3.549   4.034  12.963 -0.5580 -0.4694 -2.5675
 7597SOL     OW34252   2.982   4.641   7.281  0.4403  0.2231 -0.2971
 7597SOL    HW134253   3.021   4.725   7.309 -1.2721  0.0082  2.7765
 7597SOL    HW234254   2.907   4.630   7.340  0.6241  0.0521 -0.0925
 7598SOL     OW34255   2.744   2.124   7.264 -0.1863  0.2411  0.1346
 7598SOL    HW134256   2.836   2.144   7.244 -0.2452  0.1326 -0.2477
 7598SOL    HW234257   2.759   2.032   7.285  3.9789  0.9918  0.5573
 7599SOL     OW34258   4.064   0.068   7.078  0.0630  0.4015  0.0222
 7599SOL    HW134259   4.153   0.094   7.101  0.0190  0.0521  0.5809
 7599SOL    HW234260   4.036   0.153   7.043 -1.8498  0.1711  1.0365
 7600SOL     OW34261   0.834   0.861   4.638  0.2677 -0.4296 -0.0327
 7600SOL    HW134262   0.802   0.854   4.548  0.9787  0.0384 -0.3227
 7600SOL    HW234263   0.899   0.930   4.630  1.2603 -1.1187  2.1091
 7601SOL     OW34264   3.276   1.898   6.508  0.3812 -0.3443 -0.7505
 7601SOL    HW134265   3.186   1.892   6.538  0.5828 -1.1636 -0.3093
 7601SOL    HW234266   3.274   1.875   6.415  0.8381 -1.3890 -0.4971
 7602SOL     OW34267   3.210   0.411   4.623 -0.1682  0.5183 -0.4273
 7602SOL    HW134268   3.141   0.467   4.586 -0.1523 -0.1955 -1.5230
 7602SOL    HW234269   3.267   0.480   4.657 -2.1647  2.2198 -0.5210
 7603SOL     OW34270   2.887   0.984   0.338 -0.0810 -0.8749 -0.6825
 7603SOL    HW134271   2.810   0.953   0.291  0.1648 -1.7373 -0.4990
 7603SOL    HW234272   2.931   1.041   0.275 -0.6054 -1.2544 -1.3862
 7604SOL     OW34273   1.112   3.628  13.605 -0.2186 -0.3542  0.0029
 7604SOL    HW134274   1.091   3.643  13.513  1.3918  2.6011  0.1065
 7604SOL    HW234275   1.201   3.662  13.616  0.3722 -2.0272  0.4752
 7605SOL     OW34276   0.079   1.314   3.091 -0.0412  0.2981  0.5817
 7605SOL    HW134277   0.028   1.275   3.020  1.9357 -0.5884 -0.3765
 7605SOL    HW234278   0.124   1.383   3.043 -1.0143  0.3178 -0.3027
 7606SOL     OW34279   1.909   3.624   2.197 -0.3105  0.0722  0.4770
 7606SOL    HW134280   1.965   3.686   2.245  2.1758 -1.4808 -0.4383
 7606SOL    HW234281   1.975   3.564   2.164 -0.7883  0.8421 -1.8947
 7607SOL     OW34282   2.175   1.915  15.569  0.9947 -0.7578 -0.1107
 7607SOL    HW134283   2.088   1.955  15.560  0.9322 -0.3229  2.4550
 7607SOL    HW234284   2.186   1.902  15.474 -1.0272 -2.7241 -0.0475
 7608SOL     OW34285   0.178   3.797  11.268 -0.2108  0.6201 -0.5154
 7608SOL    HW134286   0.148   3.859  11.334 -0.4578 -1.4476  1.3511
 7608SOL    HW234287   0.227   3.858  11.214  0.1215  0.0633 -0.8488
 7609SOL     OW34288   3.606   1.966   7.176 -0.0061  0.2349  0.5886
 7609SOL    HW134289   3.649   1.942   7.093  0.2910  0.5888  0.6381
 7609SOL    HW234290   3.582   2.059   7.167  0.4721  0.4202  1.2180
 7610SOL     OW34291   4.156   3.603   9.993 -0.3204  0.3159  0.0565
 7610SOL    HW134292   4.097   3.528   9.991 -0.9743  0.8378  0.0007
 7610SOL    HW234293   4.235   3.561   9.958  0.1710  1.5714 -0.3212
 7611SOL     OW34294   1.755   4.314  14.353 -0.6200  0.0819 -0.3820
 7611SOL    HW134295   1.793   4.270  14.277 -0.9196 -0.5149 -0.1915
 7611SOL    HW234296   1.776   4.405  14.333  0.6488 -0.6724 -2.5495
 7612SOL     OW34297   1.387   4.598  15.567 -0.4491  0.1563  0.0223
 7612SOL    HW134298   1.449   4.634  15.504 -2.3136  0.6329 -1.5260
 7612SOL    HW234299   1.343   4.522  15.531  0.5968 -0.1772 -0.5557
 7613SOL     OW34300   2.861   0.579   7.112 -0.5449 -0.0103  0.5119
 7613SOL    HW134301   2.767   0.568   7.095 -0.5408  1.8232 -0.6382
 7613SOL    HW234302   2.863   0.672   7.130 -0.3319  0.0025  0.4130
 7614SOL     OW34303   3.447   1.694   1.999  0.0391 -0.0744  0.1273
 7614SOL    HW134304   3.395   1.645   2.064  0.2913  0.5699  0.8114
 7614SOL    HW234305   3.537   1.678   2.029 -0.0849  0.8171  0.9486
 7615SOL     OW34306   1.993   0.301   0.635  0.4181  0.2625  0.4175
 7615SOL    HW134307   2.029   0.300   0.546 -2.1948  0.0902 -0.6631
 7615SOL    HW234308   1.920   0.242   0.614 -0.6897  1.6839  0.2754
 7616SOL     OW34309   2.849   4.480   5.233  0.0605 -0.1455  0.3430
 7616SOL    HW134310   2.755   4.472   5.251 -0.1314  0.2637 -0.4424
 7616SOL    HW234311   2.854   4.481   5.137 -1.0410 -2.5888  0.2562
 7617SOL     OW34312   3.951   3.656  10.208  0.0939  0.1978  0.3321
 7617SOL    HW134313   4.028   3.656  10.152 -0.6114  2.6276 -0.6288
 7617SOL    HW234314   3.921   3.570  10.177  2.5604  0.1822 -1.9416
 7618SOL     OW34315   0.508   0.938   2.820  0.0093  0.2138 -0.5575
 7618SOL    HW134316   0.438   0.874   2.834  0.1081  0.5361  1.3747
 7618SOL    HW234317   0.459   0.990   2.756 -0.2358  1.6530  0.7860
 7619SOL     OW34318   1.768   4.484  11.787  0.5097  0.1128  0.2666
 7619SOL    HW134319   1.719   4.561  11.759 -0.5215 -0.2195  1.1252
 7619SOL    HW234320   1.746   4.492  11.880  0.4014 -1.2945  0.3680
 7620SOL     OW34321   4.639   4.613   1.231 -0.0508 -0.0926 -0.5055
 7620SOL    HW134322   4.663   4.705   1.241 -3.1998  0.7142 -0.3851
 7620SOL    HW234323   4.606   4.588   1.317  1.6214 -0.6858 -0.0420
 7621SOL     OW34324   1.666   1.875  13.498  0.2290  0.2934 -0.0832
 7621SOL    HW134325   1.612   1.797  13.491 -0.4327  0.6691  0.7972
 7621SOL    HW234326   1.682   1.891  13.591 -0.3134  3.2234 -0.4858
 7622SOL     OW34327   0.259   1.407  16.375  1.1029  0.3376  0.0940
 7622SOL    HW134328   0.197   1.446  16.313  1.3437 -0.6171 -0.7596
 7622SOL    HW234329   0.250   1.456  16.456  2.3837  0.8508 -0.0700
 7623SOL     OW34330   2.317   2.855  14.907  0.4241  0.4050 -1.1788
 7623SOL    HW134331   2.290   2.834  14.997  0.0478 -1.8355 -1.8159
 7623SOL    HW234332   2.333   2.767  14.873 -2.0153 -0.2042 -0.7467
 7624SOL     OW34333   2.617   2.018   2.588 -0.0552  0.6175  0.5853
 7624SOL    HW134334   2.647   1.927   2.579 -2.5818 -0.4265  2.7829
 7624SOL    HW234335   2.529   2.005   2.554 -0.5801  0.2506  2.0583
 7625SOL     OW34336   1.382   0.888   7.005 -0.1617 -0.0205  0.3194
 7625SOL    HW134337   1.362   0.878   7.098  1.6872 -0.0736  0.7254
 7625SOL    HW234338   1.351   0.979   7.000 -0.3334 -0.1485 -1.0511
 7626SOL     OW34339   0.663   4.554   7.874 -0.2033  0.8467  0.5391
 7626SOL    HW134340   0.737   4.509   7.833  0.2939  0.5848  1.7242
 7626SOL    HW234341   0.637   4.484   7.934 -1.2518  1.1486  0.4414
 7627SOL     OW34342   3.877   3.413   8.985  0.4265 -0.3100  0.1288
 7627SOL    HW134343   3.901   3.336   9.036  0.7734  0.6853  1.4733
 7627SOL    HW234344   3.951   3.466   9.013  0.6722 -0.8153  0.4262
 7628SOL     OW34345   1.059   1.320   7.120  0.0806 -0.0595  0.0969
 7628SOL    HW134346   1.129   1.342   7.181  2.1718 -0.2766 -2.2720
 7628SOL    HW234347   1.086   1.367   7.042 -1.4557 -2.6696 -2.0240
 7629SOL     OW34348   1.343   3.826   8.850  0.4024 -0.3438  0.1012
 7629SOL    HW134349   1.353   3.800   8.759 -1.4756 -0.7756  0.0170
 7629SOL    HW234350   1.248   3.827   8.865  0.4757  3.1909  0.2497
 7630SOL     OW34351   4.525   1.911   5.305  0.2782  0.1575  0.6023
 7630SOL    HW134352   4.488   1.889   5.390  1.9719 -5.2246 -0.0024
 7630SOL    HW234353   4.456   1.878   5.247 -0.1893  0.2788  1.0888
 7631SOL     OW34354   3.849   3.887   5.738 -0.0322 -0.1257 -0.3871
 7631SOL    HW134355   3.910   3.813   5.731  2.1249  1.6990 -0.6711
 7631SOL    HW234356   3.776   3.884   5.676 -2.2542 -0.4701  2.2688
 7632SOL     OW34357   2.984   3.602   3.712 -0.7864 -0.5775 -0.2346
 7632SOL    HW134358   2.959   3.515   3.682  0.5072 -1.0765  0.1110
 7632SOL    HW234359   2.960   3.657   3.637 -0.0011 -1.7070 -1.3039
 7633SOL     OW34360   2.888   2.996   1.467 -0.3376 -0.1874 -0.0637
 7633SOL    HW134361   2.862   2.911   1.432  0.8792 -0.0654 -1.2673
 7633SOL    HW234362   2.803   3.037   1.476  0.8532  2.8146 -2.5874
 7634SOL     OW34363   2.755   1.036   6.411 -0.2921  0.1235 -0.9164
 7634SOL    HW134364   2.753   0.941   6.398  1.9632 -0.2605  1.6701
 7634SOL    HW234365   2.676   1.052   6.462  1.0886  1.2944  0.8353
 7635SOL     OW34366   0.624   4.467   7.247  0.1884  0.0929 -0.5246
 7635SOL    HW134367   0.542   4.447   7.292  0.8354  2.9837  2.0397
 7635SOL    HW234368   0.673   4.505   7.320 -3.1946 -1.6910  2.6754
 7636SOL     OW34369   2.179   4.376   5.365  0.3267 -0.6161  0.2985
 7636SOL    HW134370   2.186   4.281   5.356  1.9709 -0.4600 -0.2159
 7636SOL    HW234371   2.206   4.406   5.278 -0.1875  1.0702  0.7336
 7637SOL     OW34372   1.299   0.042   2.815 -0.4745 -0.3537  0.3393
 7637SOL    HW134373   1.278   4.674   2.823 -1.5099 -0.2166 -0.6632
 7637SOL    HW234374   1.218   0.076   2.853 -0.6366  2.1300 -2.1693
 7638SOL     OW34375   2.771   2.912   0.669  0.1794 -0.2200 -0.5193
 7638SOL    HW134376   2.714   2.984   0.697  0.0643 -1.1209  1.5721
 7638SOL    HW234377   2.769   2.855   0.746  3.4554 -0.5389 -0.7022
 7639SOL     OW34378   0.943   4.086  10.738 -0.5451  0.1329  0.4922
 7639SOL    HW134379   0.889   4.007  10.746  0.7718 -0.7688  0.3436
 7639SOL    HW234380   0.875   4.142  10.699  0.3074 -0.1025 -1.3299
 7640SOL     OW34381   2.960   3.255   5.898 -0.3124  0.3957  0.5895
 7640SOL    HW134382   2.966   3.349   5.884 -0.0124  0.0564 -1.6711
 7640SOL    HW234383   2.938   3.215   5.814  0.3384  0.1651  0.5280
 7641SOL     OW34384   1.719   3.698   9.448 -0.2320  0.1173 -0.3238
 7641SOL    HW134385   1.670   3.767   9.493 -1.6399  0.1069 -1.8311
 7641SOL    HW234386   1.712   3.735   9.360  1.4551 -1.3092 -1.0557
 7642SOL     OW34387   1.235   1.342   4.798  0.0878  0.0044 -0.0992
 7642SOL    HW134388   1.272   1.338   4.709  0.1919 -0.8516 -0.0214
 7642SOL    HW234389   1.156   1.391   4.778 -1.0458 -2.0071 -0.6119
 7643SOL     OW34390   4.064   1.777   5.957 -0.6097 -0.1684 -0.5086
 7643SOL    HW134391   4.041   1.688   5.985  1.2191 -0.3933  0.2642
 7643SOL    HW234392   4.054   1.829   6.037  1.0824 -0.5541 -0.0353
 7644SOL     OW34393   0.131   1.686   7.972  0.1107  0.2165  0.1951
 7644SOL    HW134394   0.209   1.739   7.955  0.0508  0.0264 -0.6712
 7644SOL    HW234395   0.117   1.627   7.897 -0.2106 -1.7791  1.8454
 7645SOL     OW34396   4.353   3.005   7.961  0.1800 -0.2697 -0.4597
 7645SOL    HW134397   4.296   2.967   8.028 -0.4379  0.0716 -0.7922
 7645SOL    HW234398   4.431   2.952   7.978  0.0768  0.1689  1.3632
 7646SOL     OW34399   1.136   0.437  16.194 -0.3091  0.6124 -0.3017
 7646SOL    HW134400   1.156   0.490  16.116 -0.8998  1.9365  0.4467
 7646SOL    HW234401   1.189   0.359  16.182 -2.5275 -0.9348 -0.0048
 7647SOL     OW34402   2.507   1.385   6.377  0.0276 -0.0830  0.1269
 7647SOL    HW134403   2.493   1.479   6.375 -1.8940 -0.3802 -0.6321
 7647SOL    HW234404   2.584   1.374   6.321 -1.5193 -0.9361 -1.8698
 7648SOL     OW34405   1.451   0.071   7.540  0.0945 -0.0162 -0.2782
 7648SOL    HW134406   1.409   4.713   7.521 -1.1565  0.7787 -0.9939
 7648SOL    HW234407   1.403   0.122   7.475 -1.5708  0.3423  1.2099
 7649SOL     OW34408   0.767   0.516   7.836 -0.3303  0.3855  0.1869
 7649SOL    HW134409   0.732   0.555   7.916 -0.6687  0.0558  0.1991
 7649SOL    HW234410   0.686   0.494   7.790 -0.7362 -0.1511  1.1717
 7650SOL     OW34411   0.105   3.403  13.486 -0.1620  0.8312 -0.1796
 7650SOL    HW134412   0.187   3.420  13.533 -1.5676 -0.4732  2.7398
 7650SOL    HW234413   0.041   3.408  13.557 -1.3164 -1.5097 -1.0409
 7651SOL     OW34414   2.003   0.049   8.904 -0.5479  0.0914 -0.1128
 7651SOL    HW134415   1.950   4.698   8.924 -0.8389  0.6422  1.2314
 7651SOL    HW234416   2.095   0.022   8.903 -0.4627  0.3926 -0.9046
 7652SOL     OW34417   0.151   1.043   6.103  0.4263  0.3203  0.4261
 7652SOL    HW134418   0.168   1.073   6.014 -3.1531  0.8357 -0.0908
 7652SOL    HW234419   0.166   1.120   6.158  0.4172  0.7434 -0.1690
 7653SOL     OW34420   1.868   4.156   9.401  0.3881  0.1295  0.4905
 7653SOL    HW134421   1.789   4.166   9.349  0.6109  3.3932  0.7479
 7653SOL    HW234422   1.829   4.190   9.481 -0.1010  1.3174 -0.2480
 7654SOL     OW34423   4.688   2.571  14.496  0.3016 -0.5075 -0.4733
 7654SOL    HW134424   4.652   2.486  14.473 -2.4726  0.4727  0.2741
 7654SOL    HW234425   4.699   2.569  14.591  2.4124  0.3041 -0.6876
 7655SOL     OW34426   3.062   3.981   3.507 -0.1324 -0.4620  0.2460
 7655SOL    HW134427   3.061   4.039   3.583  1.4811  0.0664 -0.1301
 7655SOL    HW234428   3.157   3.977   3.500 -0.1284 -2.4543  1.5419
 7656SOL     OW34429   3.842   0.764   2.618  0.1785 -0.4026 -0.0966
 7656SOL    HW134430   3.782   0.753   2.544  0.1631 -1.6114  0.0859
 7656SOL    HW234431   3.919   0.717   2.586  1.1408  1.6558 -0.8018
 7657SOL     OW34432   0.065   4.128   8.425  0.2738 -0.2266 -0.9629
 7657SOL    HW134433   0.102   4.041   8.407  1.0503  0.0859 -0.8525
 7657SOL    HW234434   0.124   4.154   8.496  0.9534 -0.6641 -1.3692
 7658SOL     OW34435   4.698   1.371   3.672  0.5604  0.4221 -0.2941
 7658SOL    HW134436   0.032   1.443   3.652  0.6014  0.8680  1.3762
 7658SOL    HW234437   4.721   1.292   3.622  2.2108  0.6203  0.1290
 7659SOL     OW34438   4.365   4.495   9.789  0.0899 -0.0813  0.1212
 7659SOL    HW134439   4.411   4.568   9.747  1.6469 -0.0014  1.9567
 7659SOL    HW234440   4.402   4.497   9.877  0.6840 -0.9102 -0.1124
 7660SOL     OW34441   2.427   0.216   4.541  0.2215 -0.1713 -0.7772
 7660SOL    HW134442   2.519   0.235   4.525  0.2893 -0.3185 -0.5604
 7660SOL    HW234443   2.388   0.301   4.517 -0.9529 -0.9556 -1.6520
 7661SOL     OW34444   1.337   2.050   4.711  0.3874 -0.1544 -0.1365
 7661SOL    HW134445   1.409   1.989   4.721 -0.4486 -1.2048 -0.4686
 7661SOL    HW234446   1.347   2.092   4.796 -0.3571  1.4750 -0.8453
 7662SOL     OW34447   2.437   4.673   5.407 -0.0831 -0.1558 -0.3720
 7662SOL    HW134448   2.478   4.596   5.368 -0.7107 -0.1535 -1.0342
 7662SOL    HW234449   2.379   4.703   5.337 -0.2883  0.2774 -0.0147
 7663SOL     OW34450   1.262   4.708   1.828  0.6719  0.0509 -0.3467
 7663SOL    HW134451   1.318   4.715   1.905 -0.6548 -3.3148  0.9543
 7663SOL    HW234452   1.185   4.671   1.872  0.8025 -0.6184 -0.6724
 7664SOL     OW34453   0.917   2.348   4.036 -0.0073 -0.3818  0.0755
 7664SOL    HW134454   0.979   2.276   4.024  0.4648  0.0442 -0.0215
 7664SOL    HW234455   0.907   2.344   4.131 -3.4398  2.4180 -0.1586
 7665SOL     OW34456   0.939   0.925   5.780  0.3458  0.7375 -0.1416
 7665SOL    HW134457   1.010   0.912   5.717 -1.2896 -1.6488 -1.4719
 7665SOL    HW234458   0.992   0.951   5.855  1.6507  0.6473 -1.0389
 7666SOL     OW34459   1.998   0.590   1.544  0.7987  0.2529  0.1499
 7666SOL    HW134460   2.001   0.615   1.637  1.7731 -1.7070  0.6346
 7666SOL    HW234461   1.917   0.633   1.516  0.9631  0.7244  0.3864
 7667SOL     OW34462   1.915   2.111   6.543 -0.0214  0.9365 -0.2182
 7667SOL    HW134463   1.946   2.063   6.466  0.4128 -1.0348  1.2076
 7667SOL    HW234464   1.826   2.133   6.517 -0.5892 -1.4269 -0.2343
 7668SOL     OW34465   4.057   2.778   5.769 -0.0672 -0.3685  0.2678
 7668SOL    HW134466   4.103   2.725   5.704  0.3633  0.0851  0.2022
 7668SOL    HW234467   4.064   2.721   5.846  0.5022 -1.5926 -0.6905
 7669SOL     OW34468   2.097   1.155   5.156 -0.4535  0.5454  0.6218
 7669SOL    HW134469   2.061   1.222   5.214 -0.0768  0.6161  0.7718
 7669SOL    HW234470   2.141   1.100   5.221  0.5023 -2.0837 -2.2313
 7670SOL     OW34471   0.291   3.522   8.081  0.0870 -0.3407  0.0129
 7670SOL    HW134472   0.262   3.493   7.995  1.7555  2.6758 -1.5678
 7670SOL    HW234473   0.235   3.457   8.123 -2.0957  0.8084 -1.1146
 7671SOL     OW34474   3.038   1.055  10.680 -0.0942  0.7482  0.7159
 7671SOL    HW134475   2.980   1.130  10.693 -0.5160  0.5137  0.1481
 7671SOL    HW234476   3.119   1.086  10.722  0.7471 -1.8488  1.0125
 7672SOL     OW34477   1.596   3.795   5.290  0.0607  0.3908 -0.5738
 7672SOL    HW134478   1.531   3.727   5.270 -0.4360  0.2203  1.6280
 7672SOL    HW234479   1.671   3.764   5.240 -0.4433 -0.2971 -0.9107
 7673SOL     OW34480   1.301   3.272   4.422 -0.4917  0.4528 -0.5465
 7673SOL    HW134481   1.353   3.342   4.381 -0.4650  0.6330 -0.2120
 7673SOL    HW234482   1.224   3.277   4.366 -0.3438 -0.5041 -0.8326
 7674SOL     OW34483   2.112   1.752   3.082 -0.0052 -0.1186  0.0093
 7674SOL    HW134484   2.027   1.723   3.049  0.5111 -1.4013 -0.1912
 7674SOL    HW234485   2.169   1.676   3.071 -0.5111 -0.5557  0.4736
 7675SOL     OW34486   4.465   2.806   6.579  0.1209 -0.1624  0.2844
 7675SOL    HW134487   4.493   2.878   6.636  1.9467 -1.5262  1.1457
 7675SOL    HW234488   4.373   2.828   6.569 -0.5606 -1.5495  3.3974
 7676SOL     OW34489   2.178   3.646   9.643  0.3340  0.2549  0.1350
 7676SOL    HW134490   2.107   3.674   9.701  0.1018  0.4415 -0.2421
 7676SOL    HW234491   2.136   3.613   9.564  0.2597  1.4383 -0.3224
 7677SOL     OW34492   2.923   2.572   3.075  0.0393 -0.3081 -0.2377
 7677SOL    HW134493   2.895   2.527   2.996  1.0207  0.8356 -1.2450
 7677SOL    HW234494   2.919   2.659   3.033 -1.2627  0.6799  1.9414
 7678SOL     OW34495   4.265   2.967   5.754 -0.0381  0.4272  0.5402
 7678SOL    HW134496   4.227   3.052   5.734  0.1968  0.0120 -1.6491
 7678SOL    HW234497   4.186   2.913   5.762  1.0576 -1.0135  1.6633
 7679SOL     OW34498   3.433   3.609   0.377  0.1714  0.2605  0.1645
 7679SOL    HW134499   3.435   3.586   0.284 -0.3386  1.0573 -0.0426
 7679SOL    HW234500   3.477   3.694   0.378 -1.4711  1.0969  0.1887
 7680SOL     OW34501   3.816   2.295   3.150  0.2354 -0.6055  0.0736
 7680SOL    HW134502   3.881   2.237   3.111  0.0999  0.5857 -1.9353
 7680SOL    HW234503   3.735   2.257   3.116 -1.3193  2.8190 -0.0776
 7681SOL     OW34504   1.573   3.518   7.103 -0.1444  0.6054 -0.5405
 7681SOL    HW134505   1.587   3.450   7.037  0.4546 -1.2128  1.4427
 7681SOL    HW234506   1.639   3.502   7.171 -0.3315 -1.0417 -0.7529
 7682SOL     OW34507   4.634   3.731  12.235  0.3290 -0.1284  0.2396
 7682SOL    HW134508   4.546   3.740  12.273 -0.0479 -0.7943 -0.4882
 7682SOL    HW234509   4.650   3.815  12.192  0.4842 -0.5473 -0.5229
 7683SOL     OW34510   0.602   0.700   3.599 -0.3705  0.2340  0.0896
 7683SOL    HW134511   0.549   0.776   3.573 -0.6912 -0.0977 -0.2310
 7683SOL    HW234512   0.611   0.652   3.517  0.6877 -0.7882  0.7948
 7684SOL     OW34513   3.360   3.037  13.188  0.4517  0.8648  0.0268
 7684SOL    HW134514   3.373   2.953  13.144  0.5001  0.0642  1.5755
 7684SOL    HW234515   3.359   3.002  13.277  0.7249  1.7961  0.3964
 7685SOL     OW34516   0.281   0.495   2.974  0.0453 -0.0961  0.1104
 7685SOL    HW134517   0.345   0.426   2.990 -0.7954 -1.2737 -1.5777
 7685SOL    HW234518   0.249   0.508   3.063 -2.0481 -2.1393 -0.3420
 7686SOL     OW34519   2.452   1.377   8.296  0.3245  0.4545 -0.2082
 7686SOL    HW134520   2.484   1.468   8.300 -0.2217  0.7448 -2.1476
 7686SOL    HW234521   2.415   1.375   8.383  0.3153  0.4022 -0.2135
 7687SOL     OW34522   3.635   4.009   1.287  0.4706 -0.2787  0.0508
 7687SOL    HW134523   3.635   3.941   1.355  1.0480 -1.4103 -1.0905
 7687SOL    HW234524   3.718   4.000   1.240 -0.0565  0.8637 -1.0821
 7688SOL     OW34525   0.699   1.775   6.492 -0.2028 -0.0128  0.0631
 7688SOL    HW134526   0.676   1.713   6.562 -2.5856 -0.8486 -1.4890
 7688SOL    HW234527   0.611   1.810   6.480  0.5028  1.2954 -1.1977
 7689SOL     OW34528   1.489   1.791  17.528 -0.8491 -0.3511 -0.1240
 7689SOL    HW134529   1.452   1.747  17.604  0.7898  1.5238  1.7516
 7689SOL    HW234530   1.461   1.880  17.550  4.5972  1.5319 -0.6414
 7690SOL     OW34531   1.318   0.002   6.661  0.0251  0.3925 -0.2119
 7690SOL    HW134532   1.299   4.642   6.622 -1.2229  2.2164 -3.6367
 7690SOL    HW234533   1.344   4.701   6.749  0.8079 -0.4942 -0.6957
 7691SOL     OW34534   3.688   3.157   6.166 -0.7605 -0.9488  0.1113
 7691SOL    HW134535   3.662   3.156   6.074  0.2288 -1.6853 -0.1658
 7691SOL    HW234536   3.636   3.232   6.196  0.8549  0.4863 -0.7002
 7692SOL     OW34537   4.537   1.596  16.112 -0.0035 -0.4199  0.2946
 7692SOL    HW134538   4.551   1.641  16.028 -0.1740  0.4172  0.7125
 7692SOL    HW234539   4.449   1.612  16.145 -0.4385 -2.5553  0.1698
 7693SOL     OW34540   0.656   1.398  10.061  0.3818  0.7177 -0.3730
 7693SOL    HW134541   0.580   1.451  10.036 -1.1322 -0.7876  0.9603
 7693SOL    HW234542   0.662   1.415  10.155 -2.3731  2.3204 -0.4785
 7694SOL     OW34543   3.201   4.538   9.339  0.0500  0.0825  0.8699
 7694SOL    HW134544   3.256   4.586   9.401 -0.0967 -0.2702  1.2704
 7694SOL    HW234545   3.202   4.599   9.265  0.1277 -0.1981  0.6381
 7695SOL     OW34546   1.809   2.454  13.694  0.1363 -0.6641 -0.3201
 7695SOL    HW134547   1.722   2.419  13.676  0.4847 -1.9419  0.4956
 7695SOL    HW234548   1.809   2.410  13.779 -3.2217  1.0831  0.5897
 7696SOL     OW34549   3.517   2.646   4.217 -0.1086 -0.2955 -0.0385
 7696SOL    HW134550   3.586   2.588   4.184 -0.7268 -0.2061 -1.4707
 7696SOL    HW234551   3.472   2.686   4.143 -1.6743  1.7030  2.0000
 7697SOL     OW34552   1.715   2.438   2.366  0.6940  0.5660  0.1886
 7697SOL    HW134553   1.680   2.352   2.340 -1.7102  2.1391 -1.7776
 7697SOL    HW234554   1.705   2.501   2.295  1.5959 -1.3583 -1.6423
 7698SOL     OW34555   4.132   3.720   6.127  0.2812 -0.0962 -0.4364
 7698SOL    HW134556   4.107   3.630   6.108  2.8610 -0.9256  0.0827
 7698SOL    HW234557   4.046   3.754   6.152  1.6169  1.3698  2.1688
 7699SOL     OW34558   4.166   0.546   4.931  0.0176  0.5830  0.3960
 7699SOL    HW134559   4.234   0.546   4.864 -0.8940 -1.1963 -0.5390
 7699SOL    HW234560   4.154   0.640   4.947  1.4293  0.8383 -0.0767
 7700SOL     OW34561   3.564   4.042   3.085  0.6942  0.3557  0.3100
 7700SOL    HW134562   3.582   3.956   3.048 -0.3366  0.5555 -0.6521
 7700SOL    HW234563   3.481   4.063   3.042  0.2625  0.2841  1.1115
 7701SOL     OW34564   1.618   0.159   3.367 -0.0078  0.6272  0.1067
 7701SOL    HW134565   1.559   0.109   3.423  1.8914  0.5854  2.0693
 7701SOL    HW234566   1.576   0.134   3.285  1.1296 -0.0209 -0.2763
 7702SOL     OW34567   2.309   4.093   7.535 -0.6204  0.1098 -0.1662
 7702SOL    HW134568   2.400   4.090   7.565 -0.3684  1.6653 -0.8004
 7702SOL    HW234569   2.319   4.012   7.483 -1.5372  0.5281 -0.9988
 7703SOL     OW34570   3.378   0.582   5.227  0.4916  0.4520  0.2652
 7703SOL    HW134571   3.334   0.570   5.143  0.7646  1.1478  0.0249
 7703SOL    HW234572   3.304   0.612   5.280  1.0906 -0.9416  1.8775
 7704SOL     OW34573   2.105   1.131  13.461  0.7684 -0.5741 -0.2360
 7704SOL    HW134574   2.072   1.042  13.448  0.3491 -0.6900  1.5431
 7704SOL    HW234575   2.141   1.143  13.374 -1.0017  0.7101 -0.7761
 7705SOL     OW34576   2.191   2.961   5.264 -0.0613 -0.0703 -0.1148
 7705SOL    HW134577   2.178   2.913   5.346 -0.3286  0.5039  0.1824
 7705SOL    HW234578   2.157   3.047   5.291  3.0450  0.9557  0.4784
 7706SOL     OW34579   4.211   3.743   9.170  0.5048  0.7054 -0.4360
 7706SOL    HW134580   4.254   3.825   9.146  0.7114  0.5272 -0.6709
 7706SOL    HW234581   4.286   3.695   9.204  0.3262  2.0855  1.9398
 7707SOL     OW34582   2.856   0.467   5.631  0.0685  0.3750 -0.0057
 7707SOL    HW134583   2.793   0.421   5.576 -1.0683  2.3556 -0.3579
 7707SOL    HW234584   2.930   0.406   5.628 -1.6081 -1.6973  1.2575
 7708SOL     OW34585   1.348   0.756   5.128 -0.2061 -0.1602  0.0483
 7708SOL    HW134586   1.257   0.777   5.147 -1.1310 -2.6415 -1.5398
 7708SOL    HW234587   1.389   0.801   5.201 -0.1323  0.6836 -0.5191
 7709SOL     OW34588   2.743   3.582   3.155  0.0618  0.7619  0.0156
 7709SOL    HW134589   2.734   3.670   3.120 -2.2531  0.5507  0.0523
 7709SOL    HW234590   2.836   3.589   3.174  0.1783 -1.3449  0.2917
 7710SOL     OW34591   0.545   1.520   4.471  0.1569 -0.1681  0.1069
 7710SOL    HW134592   0.506   1.603   4.499 -2.1988 -1.1656 -0.2221
 7710SOL    HW234593   0.601   1.507   4.548 -0.3196 -0.4201  0.4143
 7711SOL     OW34594   3.903   2.213   2.591 -0.4916  0.1040  0.0067
 7711SOL    HW134595   3.934   2.144   2.533 -0.8640  1.5859 -1.9396
 7711SOL    HW234596   3.969   2.283   2.587  0.5455 -0.7278  2.4458
 7712SOL     OW34597   0.697   0.106   7.922  0.4176 -0.3084  0.2655
 7712SOL    HW134598   0.722   0.093   8.013  0.1123  0.3978  0.4503
 7712SOL    HW234599   0.669   0.017   7.903  0.7872 -0.6732  1.4617
 7713SOL     OW34600   0.698   3.334  15.178  0.8335  0.1838  0.0656
 7713SOL    HW134601   0.735   3.423  15.180  0.4744  0.3273  0.3500
 7713SOL    HW234602   0.712   3.300  15.090  1.3285 -0.8681  0.5599
 7714SOL     OW34603   1.187   3.796   5.220  0.3882 -0.1892  0.0274
 7714SOL    HW134604   1.097   3.807   5.188  0.9347  0.9988 -1.1275
 7714SOL    HW234605   1.233   3.847   5.154  0.5469 -0.0818  0.2213
 7715SOL     OW34606   4.523   3.212   8.827 -0.2075  0.1796  0.6285
 7715SOL    HW134607   4.569   3.235   8.747  1.3268 -2.3345  0.7930
 7715SOL    HW234608   4.575   3.138   8.858  1.0353  0.6940 -0.2463
 7716SOL     OW34609   2.330   4.276   4.209 -0.1561 -0.2452 -0.0545
 7716SOL    HW134610   2.317   4.186   4.239 -2.3604 -0.0837 -0.5014
 7716SOL    HW234611   2.369   4.265   4.122  0.2542 -2.6554  0.4296
 7717SOL     OW34612   3.835   4.137   7.670 -0.0047  0.0083 -0.0086
 7717SOL    HW134613   3.751   4.106   7.639  0.6001 -0.9882 -0.6208
 7717SOL    HW234614   3.885   4.146   7.589  1.4092 -3.5137  0.4953
 7718SOL     OW34615   1.908   1.500   6.226 -0.5595  0.1815  0.0765
 7718SOL    HW134616   1.974   1.534   6.166  0.3676  0.2920  1.1579
 7718SOL    HW234617   1.836   1.560   6.208 -0.2442  0.8618  1.1488
 7719SOL     OW34618   3.196   0.025   5.724  0.3409 -0.0977 -0.5786
 7719SOL    HW134619   3.233   4.699   5.797  1.1929  0.5854 -0.5371
 7719SOL    HW234620   3.255   0.100   5.731 -0.0278 -0.1943  4.0472
 7720SOL     OW34621   2.846   1.957   5.865  0.4556  0.5175 -0.1458
 7720SOL    HW134622   2.756   1.924   5.867  0.1678  1.2283 -1.5241
 7720SOL    HW234623   2.904   1.884   5.884 -0.5529 -0.0022  0.9490
 7721SOL     OW34624   0.364   1.120   5.212 -0.0485  0.4622 -0.5449
 7721SOL    HW134625   0.354   1.040   5.262  1.4187 -0.5853 -1.9242
 7721SOL    HW234626   0.413   1.172   5.276  0.8546 -0.6050 -0.3629
 7722SOL     OW34627   2.307   2.948   0.109  0.0859  0.5616  0.6116
 7722SOL    HW134628   2.272   3.026   0.066 -1.8146 -0.1093  0.9171
 7722SOL    HW234629   2.400   2.968   0.113  0.6728 -2.2607  1.0569
 7723SOL     OW34630   4.217   1.508   5.822 -0.1753 -0.2110 -0.2666
 7723SOL    HW134631   4.258   1.439   5.873  1.1940  0.8709  0.0851
 7723SOL    HW234632   4.131   1.470   5.801 -0.4214  0.2593 -0.1151
 7724SOL     OW34633   1.192   3.243   2.680  0.2778 -0.3018 -0.0542
 7724SOL    HW134634   1.202   3.224   2.587  1.6202 -3.0168  0.6525
 7724SOL    HW234635   1.175   3.158   2.720 -2.1130  0.1523 -0.0886
 7725SOL     OW34636   0.271   1.405   6.954  0.3151 -0.4816 -0.0116
 7725SOL    HW134637   0.185   1.418   6.994  0.1113  0.6697 -0.8599
 7725SOL    HW234638   0.321   1.360   7.022 -0.4216 -2.3648 -0.7014
 7726SOL     OW34639   4.576   2.085  11.428 -0.0199 -0.0036  0.2993
 7726SOL    HW134640   4.491   2.059  11.465 -0.6714  2.2556  0.3927
 7726SOL    HW234641   4.587   2.025  11.354  0.0653 -0.5910  0.7930
 7727SOL     OW34642   0.924   3.280   9.373 -0.4343  0.0176  0.0404
 7727SOL    HW134643   0.991   3.308   9.436 -1.6825  1.4714  0.7282
 7727SOL    HW234644   0.964   3.196   9.349 -0.6684  0.3242 -1.4312
 7728SOL     OW34645   2.025   2.036   8.191 -0.4674 -0.6376  0.0029
 7728SOL    HW134646   2.012   2.114   8.244 -0.7741 -2.1033  2.0761
 7728SOL    HW234647   2.030   1.965   8.255  1.1549 -0.2935  0.2497
 7729SOL     OW34648   3.514   2.180   1.745  0.2017  0.1520 -0.4010
 7729SOL    HW134649   3.513   2.275   1.745 -0.6999  0.1464 -0.4092
 7729SOL    HW234650   3.548   2.154   1.659 -2.4838 -0.6793 -1.2228
 7730SOL     OW34651   1.377   1.399   4.159  0.4696  0.2949 -0.0201
 7730SOL    HW134652   1.362   1.321   4.105  1.6592  0.2645 -0.3207
 7730SOL    HW234653   1.465   1.386   4.194  0.0346 -0.5367  0.7713
 7731SOL     OW34654   2.955   4.445   9.275 -0.2485  0.1438  0.0978
 7731SOL    HW134655   3.028   4.486   9.321 -0.6616  0.8492  0.1144
 7731SOL    HW234656   2.993   4.362   9.244 -0.2939  0.1350  0.0648
 7732SOL     OW34657   2.325   2.626   4.670  0.1114  0.2901  0.5265
 7732SOL    HW134658   2.373   2.583   4.599  0.1269  1.4663 -0.1578
 7732SOL    HW234659   2.246   2.639   4.618  0.6440  1.6664  0.0609
 7733SOL     OW34660   2.563   3.390   7.355  0.5486 -0.1095  0.2308
 7733SOL    HW134661   2.627   3.410   7.423  0.3594 -1.8475  0.9343
 7733SOL    HW234662   2.625   3.345   7.297 -1.5165 -1.1947 -1.1246
 7734SOL     OW34663   2.377   1.143  13.694 -0.4564 -0.0514  0.0892
 7734SOL    HW134664   2.411   1.144  13.604 -3.1826  0.3739 -0.9568
 7734SOL    HW234665   2.321   1.065  13.694 -0.5139 -0.0222 -2.3438
 7735SOL     OW34666   1.721   1.707  17.385 -0.7469  0.5070 -0.4845
 7735SOL    HW134667   1.784   1.689  17.454 -1.3188  0.7040  0.0915
 7735SOL    HW234668   1.639   1.739  17.423  0.2253  0.0540  2.0066
 7736SOL     OW34669   1.472   2.614   9.152 -0.6213 -0.6035 -0.4218
 7736SOL    HW134670   1.382   2.646   9.147  0.0936  1.7393  1.7770
 7736SOL    HW234671   1.472   2.542   9.088  1.4457  0.8624 -2.1029
 7737SOL     OW34672   1.934   2.902   0.365  0.7635 -0.2525  0.1591
 7737SOL    HW134673   1.879   2.898   0.287  1.0151  1.8937 -0.1022
 7737SOL    HW234674   2.023   2.889   0.334  0.8448  1.2163 -0.2114
 7738SOL     OW34675   0.707   4.426   4.198 -0.2938  0.3713 -0.4928
 7738SOL    HW134676   0.786   4.480   4.199  0.5744 -0.9113  1.7457
 7738SOL    HW234677   0.740   4.360   4.259  1.0757  0.8468 -0.7128
 7739SOL     OW34678   3.890   0.871  14.468  0.5221  0.5411  0.0725
 7739SOL    HW134679   3.807   0.843  14.430 -0.2120  4.3785 -1.0992
 7739SOL    HW234680   3.870   0.889  14.560 -0.5928  0.2678 -0.1178
 7740SOL     OW34681   1.288   3.510   9.322 -0.2974  0.1456  0.2127
 7740SOL    HW134682   1.339   3.461   9.258  1.1765  0.1708  1.3499
 7740SOL    HW234683   1.307   3.457   9.400  3.2636  1.1104  0.0126
 7741SOL     OW34684   1.864   2.310   7.001  0.8325 -0.5680 -0.2867
 7741SOL    HW134685   1.909   2.309   7.085 -0.7042  1.5339  0.5664
 7741SOL    HW234686   1.787   2.259   7.025  0.4565  1.5269  2.8752
 7742SOL     OW34687   3.744   2.826   2.239 -0.5432  0.1015 -0.1860
 7742SOL    HW134688   3.792   2.893   2.287  2.3056 -0.3789 -2.3388
 7742SOL    HW234689   3.796   2.832   2.159 -0.7002 -2.3757 -0.4918
 7743SOL     OW34690   1.407   0.671  12.172  0.1714  0.0912  0.4223
 7743SOL    HW134691   1.502   0.669  12.160  0.0712  0.5018 -0.4066
 7743SOL    HW234692   1.396   0.679  12.267  1.1461  0.5934  0.4944
 7744SOL     OW34693   3.940   1.638   7.098 -0.2013  0.4873  0.5538
 7744SOL    HW134694   3.906   1.641   7.188 -0.7528 -0.7459  0.3936
 7744SOL    HW234695   4.031   1.626   7.124 -0.3664 -2.0469 -0.0320
 7745SOL     OW34696   4.376   4.345   7.700  0.6156 -0.4476 -0.0804
 7745SOL    HW134697   4.298   4.387   7.735 -0.4058 -0.6010 -2.1812
 7745SOL    HW234698   4.438   4.413   7.675  0.0467  0.3256  0.6330
 7746SOL     OW34699   2.433   1.034  13.429  0.2594  0.6853  0.6043
 7746SOL    HW134700   2.355   0.979  13.419  0.2542  0.9487 -0.7128
 7746SOL    HW234701   2.500   0.991  13.375 -1.7971 -0.9303 -0.6468
 7747SOL     OW34702   1.980   3.461   4.648  0.1394 -0.6176 -0.1156
 7747SOL    HW134703   1.956   3.508   4.728  1.5477  0.3638 -0.2607
 7747SOL    HW234704   1.976   3.534   4.586 -1.9364 -0.9780 -0.4012
 7748SOL     OW34705   3.436   2.529   5.169 -0.2742 -0.0368 -0.1606
 7748SOL    HW134706   3.403   2.498   5.253 -0.4820 -0.2959 -0.3386
 7748SOL    HW234707   3.361   2.507   5.114  0.7618 -1.3364 -1.0731
 7749SOL     OW34708   0.808   3.677   3.678  0.3032 -0.5873  0.0033
 7749SOL    HW134709   0.852   3.762   3.676 -1.0693  0.1392  0.0175
 7749SOL    HW234710   0.854   3.638   3.752 -1.3545 -1.0566  0.7994
 7750SOL     OW34711   3.995   0.767  16.679 -0.2605  0.4815 -0.3456
 7750SOL    HW134712   4.007   0.820  16.600 -0.9488 -1.1941 -1.5786
 7750SOL    HW234713   3.916   0.810  16.714 -0.0264 -1.2469  2.2455
 7751SOL     OW34714   3.972   1.173   7.229  0.2183 -0.3929  0.2873
 7751SOL    HW134715   3.951   1.245   7.170 -0.0333 -1.2794 -0.6997
 7751SOL    HW234716   3.885   1.159   7.268  1.4104 -0.9264  2.7708
 7752SOL     OW34717   2.558   0.862   0.470  0.0648 -0.1051 -0.1406
 7752SOL    HW134718   2.619   0.788   0.469  0.2147 -0.0236  2.3469
 7752SOL    HW234719   2.585   0.898   0.555  0.4445 -2.0642  0.5752
 7753SOL     OW34720   0.703   0.484   9.750  0.2125  0.0453  0.4205
 7753SOL    HW134721   0.631   0.470   9.689  0.1166 -0.5408  0.6765
 7753SOL    HW234722   0.696   0.580   9.746 -0.1900  0.0051  0.2091
 7754SOL     OW34723   0.668   0.461   2.424 -0.4210 -0.4795 -0.0648
 7754SOL    HW134724   0.617   0.513   2.362  0.3509 -0.5198 -0.7221
 7754SOL    HW234725   0.603   0.435   2.489 -1.1425  0.5288 -0.3737
 7755SOL     OW34726   1.867   3.644   9.023  0.0682  0.0229 -0.0289
 7755SOL    HW134727   1.857   3.704   9.097  1.6298  0.6516 -0.3255
 7755SOL    HW234728   1.962   3.659   9.026 -0.2111  2.0586 -1.0661
 7756SOL     OW34729   2.160   3.264   5.287  0.3272 -0.0024 -0.7332
 7756SOL    HW134730   2.174   3.271   5.193  1.0809 -0.4552 -0.6564
 7756SOL    HW234731   2.141   3.355   5.312 -2.4619 -1.2391  1.7145
 7757SOL     OW34732   2.971   1.233   5.722 -0.6847 -0.4719  0.0257
 7757SOL    HW134733   2.903   1.204   5.782 -1.7941 -0.0351 -1.0106
 7757SOL    HW234734   2.950   1.326   5.710 -2.8920 -1.2270 -1.9236
 7758SOL     OW34735   2.387   2.688  17.546 -0.2153 -0.1826 -0.0949
 7758SOL    HW134736   2.456   2.753  17.562 -0.1648  0.1335 -1.5931
 7758SOL    HW234737   2.428   2.608  17.578 -1.1658 -0.9313 -0.7409
 7759SOL     OW34738   1.587   0.163   0.127 -0.6800 -0.0725 -0.3279
 7759SOL    HW134739   1.518   0.097   0.120 -1.0226  0.2059  0.3992
 7759SOL    HW234740   1.664   0.121   0.090 -1.0303  1.4572 -2.7843
 7760SOL     OW34741   4.675   3.666   9.184 -0.6714 -0.1949 -0.4449
 7760SOL    HW134742   4.662   3.754   9.218  2.7042  0.0151  0.2500
 7760SOL    HW234743   0.044   3.656   9.170 -0.0342  2.0038  2.4030
 7761SOL     OW34744   4.714   0.231  16.120 -0.3660  0.1659 -0.0429
 7761SOL    HW134745   4.638   0.176  16.099 -1.5590  2.3361 -1.3251
 7761SOL    HW234746   4.699   0.239  16.214 -1.7254  4.0268 -0.5912
 7762SOL     OW34747   2.249   2.548   6.910 -0.2026  0.4188  0.5509
 7762SOL    HW134748   2.338   2.535   6.944 -0.0770 -0.7667 -0.2354
 7762SOL    HW234749   2.214   2.594   6.986 -1.0653  1.6052 -0.5609
 7763SOL     OW34750   0.448   3.162  17.367  0.0766  0.2154  0.3233
 7763SOL    HW134751   0.411   3.073  17.372  0.6784 -0.0966 -0.9752
 7763SOL    HW234752   0.386   3.213  17.420  0.4762  1.0209 -0.0033
 7764SOL     OW34753   2.939   0.776   6.839 -0.0598  0.5623  0.1199
 7764SOL    HW134754   2.970   0.863   6.864 -0.2378  1.2201 -1.9584
 7764SOL    HW234755   2.853   0.785   6.800 -0.2900  1.8402  0.8954
 7765SOL     OW34756   2.869   1.827   7.483 -0.0748 -0.4645  0.4665
 7765SOL    HW134757   2.882   1.778   7.565  0.7749 -1.5027 -0.2777
 7765SOL    HW234758   2.795   1.780   7.443 -0.2955  1.3287 -1.2084
 7766SOL     OW34759   1.055   1.810  13.744 -0.8662 -0.4920 -0.3857
 7766SOL    HW134760   1.145   1.782  13.761 -0.4613  0.8172 -0.3888
 7766SOL    HW234761   1.059   1.859  13.662  0.0060  0.4496  0.2244
 7767SOL     OW34762   0.575   0.113  14.643  0.2835 -0.2343 -0.1146
 7767SOL    HW134763   0.668   0.102  14.660  0.2437  0.3166  0.4642
 7767SOL    HW234764   0.529   0.057  14.706 -0.4138 -0.5855 -0.9267
 7768SOL     OW34765   2.772   3.506   6.974  0.1581 -0.3293  0.5670
 7768SOL    HW134766   2.803   3.424   7.012 -0.6316  0.6397  3.2796
 7768SOL    HW234767   2.854   3.545   6.945 -0.1195 -0.9129 -1.0122
 7769SOL     OW34768   2.468   2.497   6.396  0.5648  0.1311 -1.0144
 7769SOL    HW134769   2.495   2.429   6.458  1.2879  0.3773 -1.0612
 7769SOL    HW234770   2.473   2.572   6.456 -2.6749 -1.0835  0.8197
 7770SOL     OW34771   2.073   1.943  15.850 -0.0698  1.1743 -0.3125
 7770SOL    HW134772   2.105   1.942  15.759  0.1913 -1.7785 -0.2011
 7770SOL    HW234773   2.010   2.015  15.849  0.5625  1.7289 -0.1354
 7771SOL     OW34774   2.524   1.608   9.218 -0.0652  0.9588 -0.1478
 7771SOL    HW134775   2.466   1.671   9.261  0.5448  1.4380 -0.0355
 7771SOL    HW234776   2.608   1.651   9.234  0.2695 -0.0136  0.7367
 7772SOL     OW34777   2.075   1.065   4.906  0.2527 -0.7833 -0.2063
 7772SOL    HW134778   2.027   0.986   4.933  0.1239 -0.1463  1.4138
 7772SOL    HW234779   2.062   1.114   4.987  1.4846 -0.0162 -0.4731
 7773SOL     OW34780   1.434   4.125   7.525 -0.5526 -1.1751  0.5654
 7773SOL    HW134781   1.485   4.203   7.548 -0.0771 -1.6091  0.9769
 7773SOL    HW234782   1.411   4.142   7.433  4.1120  0.6472 -0.2709
 7774SOL     OW34783   2.952   1.024   1.021 -0.7995 -0.1234  0.1323
 7774SOL    HW134784   2.956   0.929   1.022  0.8564 -0.0859 -3.3343
 7774SOL    HW234785   2.886   1.048   0.956  1.6166 -0.7324 -2.5529
 7775SOL     OW34786   3.264   1.868  15.443 -0.5305 -0.3795  0.0574
 7775SOL    HW134787   3.202   1.795  15.448 -1.6103  0.5673  0.6383
 7775SOL    HW234788   3.194   1.932  15.431 -0.6182 -0.2294  1.4434
 7776SOL     OW34789   3.926   3.044  12.361 -0.4582 -0.0510  0.1935
 7776SOL    HW134790   3.956   3.089  12.282  0.5629  0.7425  1.0348
 7776SOL    HW234791   3.843   3.012  12.325 -1.0518 -1.1252  2.4891
 7777SOL     OW34792   0.656   0.745   6.751 -0.0353 -0.0034  0.8423
 7777SOL    HW134793   0.714   0.696   6.810 -2.0135 -2.4585  0.7507
 7777SOL    HW234794   0.589   0.777   6.812  0.3994  0.2077  1.2117
 7778SOL     OW34795   3.402   3.941  12.949  0.2564 -0.1063 -0.1192
 7778SOL    HW134796   3.345   3.890  12.891 -0.6650  1.1460 -0.3000
 7778SOL    HW234797   3.401   3.890  13.030  3.4900 -1.8843 -1.1950
 7779SOL     OW34798   3.772   4.464  12.574  0.1521 -0.2909 -0.1271
 7779SOL    HW134799   3.837   4.419  12.629  1.4122  1.2935 -0.3292
 7779SOL    HW234800   3.763   4.544  12.624  0.1793 -0.5815  0.3421
 7780SOL     OW34801   3.458   3.948   2.091  0.4997 -0.1769  0.1020
 7780SOL    HW134802   3.516   3.872   2.083  2.0631  0.8746  1.2813
 7780SOL    HW234803   3.469   3.999   2.011 -2.4064 -1.8461 -1.3293
 7781SOL     OW34804   4.027   2.125   8.964  0.1410 -0.4930 -0.0561
 7781SOL    HW134805   4.051   2.042   9.006  0.7876 -0.2329  0.0898
 7781SOL    HW234806   4.058   2.191   9.026 -1.7680  0.1674  0.1751
 7782SOL     OW34807   0.941   2.569   4.502 -0.0142 -0.2499  0.1548
 7782SOL    HW134808   0.867   2.601   4.450 -0.5053  0.1850  1.1297
 7782SOL    HW234809   0.922   2.604   4.589 -0.8752  1.2965 -0.6387
 7783SOL     OW34810   3.361   2.192   7.007  0.4910  0.2622  0.2673
 7783SOL    HW134811   3.278   2.231   7.034 -0.0898 -2.3660  2.3166
 7783SOL    HW234812   3.339   2.099   7.014 -0.5688  0.5408  0.5102
 7784SOL     OW34813   1.374   2.290  17.640  0.2710 -0.3004  0.2034
 7784SOL    HW134814   1.366   2.371  17.689  0.2898  0.1864 -0.5981
 7784SOL    HW234815   1.303   2.310  17.578  1.5409  0.9309 -0.8566
 7785SOL     OW34816   0.541   3.412  14.009  0.4693  0.0415  0.3482
 7785SOL    HW134817   0.630   3.435  14.036  0.7691 -0.9817  0.2273
 7785SOL    HW234818   0.511   3.352  14.078 -1.4787  1.5634  0.8382
 7786SOL     OW34819   0.015   3.974   5.390  0.4833 -0.0830 -1.1509
 7786SOL    HW134820   0.098   3.993   5.434 -0.8190  2.1326  0.3309
 7786SOL    HW234821   4.712   4.063   5.371  0.5570  0.5182  1.4536
 7787SOL     OW34822   3.716   3.994   8.047  0.0057  0.2098 -0.4241
 7787SOL    HW134823   3.759   3.944   8.117 -1.1375  1.6652  1.3193
 7787SOL    HW234824   3.655   3.930   8.012 -1.1556  0.4859  1.0803
 7788SOL     OW34825   2.618   0.217   5.748 -0.6038 -0.7515  0.1157
 7788SOL    HW134826   2.544   0.268   5.713  0.2897  1.9771  2.2134
 7788SOL    HW234827   2.688   0.282   5.758  0.1049 -1.0763 -2.7499
 7789SOL     OW34828   4.077   2.215   4.063  0.0361 -0.0404  0.0436
 7789SOL    HW134829   4.099   2.279   4.130  1.1896 -1.5274  1.0830
 7789SOL    HW234830   4.126   2.137   4.092  1.4447  0.7284 -0.2491
 7790SOL     OW34831   1.120   3.323   4.207 -0.2463  0.6745  0.2510
 7790SOL    HW134832   1.145   3.404   4.164  0.1503  0.5359  0.2168
 7790SOL    HW234833   1.066   3.269   4.149  0.8334  0.0326 -0.1581
 7791SOL     OW34834   1.836   4.410  14.670 -0.7294  0.1044  0.1251
 7791SOL    HW134835   1.879   4.330  14.640 -1.1381 -0.4987  1.1170
 7791SOL    HW234836   1.896   4.469  14.718 -0.7414  1.0276 -0.9992
 7792SOL     OW34837   0.352   1.708  11.914 -0.2368 -0.2743  0.5347
 7792SOL    HW134838   0.406   1.779  11.950 -0.1408  0.1862 -0.5079
 7792SOL    HW234839   0.297   1.690  11.991 -0.1724  3.2131  1.3972
 7793SOL     OW34840   3.183   4.262  10.551 -0.5835 -0.7978 -0.2271
 7793SOL    HW134841   3.241   4.243  10.478  0.4203  0.0491  0.3626
 7793SOL    HW234842   3.196   4.192  10.615  1.4741  0.4876  0.7244
 7794SOL     OW34843   1.853   3.614   6.536  0.2020  0.3781 -0.2282
 7794SOL    HW134844   1.872   3.584   6.624  0.6832 -1.2214 -0.8766
 7794SOL    HW234845   1.889   3.703   6.547 -1.7746  1.0031  1.1110
 7795SOL     OW34846   0.678   4.534  14.976  0.7444  0.1922  0.0949
 7795SOL    HW134847   0.674   4.530  15.071  0.7184  1.8814  0.1627
 7795SOL    HW234848   0.707   4.444  14.960 -1.7486 -0.6365  0.2927
 7796SOL     OW34849   1.211   3.203   5.058 -0.4244 -0.1043 -0.2851
 7796SOL    HW134850   1.200   3.265   5.130 -0.1043  0.0817 -0.3955
 7796SOL    HW234851   1.225   3.257   4.980  1.2434 -1.0963 -0.6755
 7797SOL     OW34852   4.246   0.321   8.676 -0.2317 -0.1477  0.2432
 7797SOL    HW134853   4.155   0.292   8.668 -0.3602  1.0790 -2.8832
 7797SOL    HW234854   4.290   0.241   8.704  0.4836 -0.0252 -0.5476
 7798SOL     OW34855   3.902   2.602   4.432  0.6275 -0.1320 -0.0261
 7798SOL    HW134856   3.864   2.564   4.511 -0.5607  0.8964 -0.0849
 7798SOL    HW234857   3.884   2.527   4.375 -2.6137 -0.8430  1.9614
 7799SOL     OW34858   1.673   1.614   5.897 -0.1105  0.3013  0.2747
 7799SOL    HW134859   1.614   1.656   5.835 -1.3801 -1.7535  0.1015
 7799SOL    HW234860   1.672   1.677   5.969 -1.6884  0.5889 -0.0108
 7800SOL     OW34861   4.489   0.509   8.411  0.2225 -0.5719  0.1827
 7800SOL    HW134862   4.535   0.473   8.335  1.3490  0.4394  0.3700
 7800SOL    HW234863   4.527   0.464   8.486  2.5870  0.2704 -0.5013
 7801SOL     OW34864   3.876   3.292   5.061 -0.3208  0.7870 -0.6493
 7801SOL    HW134865   3.938   3.357   5.095  0.0244 -0.5682  1.2803
 7801SOL    HW234866   3.933   3.253   4.994  0.2959 -2.8553  2.0021
 7802SOL     OW34867   3.436   0.880   0.304 -0.1415  0.1502  0.2477
 7802SOL    HW134868   3.401   0.841   0.384  0.7747 -1.2653 -0.0519
 7802SOL    HW234869   3.529   0.890   0.323  0.0727 -1.4931  0.0462
 7803SOL     OW34870   4.641   3.406  10.723  0.4307 -0.1218  0.0073
 7803SOL    HW134871   4.715   3.353  10.752 -0.8640 -1.4407  0.9545
 7803SOL    HW234872   4.655   3.478  10.785 -1.2102  0.4332 -0.2739
 7804SOL     OW34873   1.438   0.516   4.493  0.5688 -0.0097  0.2038
 7804SOL    HW134874   1.525   0.517   4.533  0.5940  3.5857  0.0656
 7804SOL    HW234875   1.388   0.492   4.571  0.2011 -2.0933 -0.6484
 7805SOL     OW34876   4.504   4.129   4.299  0.0380 -0.1194  0.6828
 7805SOL    HW134877   4.592   4.106   4.268 -0.2730  0.4829 -0.6507
 7805SOL    HW234878   4.448   4.076   4.242  0.0931  0.7135 -0.1516
 7806SOL     OW34879   2.425   4.238   6.256 -0.3787 -0.6160 -0.1998
 7806SOL    HW134880   2.457   4.161   6.303  0.0699 -1.1540 -1.3916
 7806SOL    HW234881   2.425   4.310   6.319  0.1059  0.1130 -1.0373
 7807SOL     OW34882   3.285   1.849   6.234 -0.2835  0.0298  0.1191
 7807SOL    HW134883   3.197   1.821   6.212  0.0756 -0.4123 -0.7504
 7807SOL    HW234884   3.343   1.826   6.161  1.6444  1.0099  1.3111
 7808SOL     OW34885   2.385   3.741   7.545  0.2613 -0.1240 -0.9663
 7808SOL    HW134886   2.474   3.763   7.518  1.2579 -0.7571  1.8123
 7808SOL    HW234887   2.356   3.767   7.457  2.0482 -0.2669 -1.6022
 7809SOL     OW34888   4.228   1.731   8.357  0.5775  0.0411  0.5029
 7809SOL    HW134889   4.286   1.806   8.345 -0.4614  1.2310  2.7975
 7809SOL    HW234890   4.141   1.763   8.383  0.6228  1.8833 -1.6443
 7810SOL     OW34891   0.726   0.976   6.990 -0.4292 -0.6426  0.2407
 7810SOL    HW134892   0.749   0.884   6.997  2.3715  0.0253 -0.1796
 7810SOL    HW234893   0.810   1.017   7.011  0.3877 -1.5323 -1.3655
 7811SOL     OW34894   0.691   4.253   2.481  0.5008 -0.7553 -0.1932
 7811SOL    HW134895   0.704   4.314   2.553 -1.1894 -0.9151  0.2403
 7811SOL    HW234896   0.784   4.238   2.460  1.1738  1.7858  1.0503
 7812SOL     OW34897   3.565   4.322   4.519 -0.1834 -0.2598 -0.2123
 7812SOL    HW134898   3.648   4.283   4.491  0.3208  1.6459 -1.3691
 7812SOL    HW234899   3.525   4.257   4.577 -1.6309  1.4496  0.7053
 7813SOL     OW34900   3.422   1.641  11.314  0.0683  0.6974 -0.1365
 7813SOL    HW134901   3.364   1.641  11.390  0.2266  1.6892 -0.0194
 7813SOL    HW234902   3.507   1.606  11.341 -0.4070  1.5496  2.4846
 7814SOL     OW34903   1.656   4.139  13.030  0.3618  0.1580  0.0581
 7814SOL    HW134904   1.627   4.127  12.939  0.5366 -0.9644  0.1458
 7814SOL    HW234905   1.749   4.159  13.020 -0.1245  2.1943 -0.4456
 7815SOL     OW34906   4.306   3.855   5.966 -0.1688 -0.2703  0.1371
 7815SOL    HW134907   4.244   3.816   6.027 -0.6542 -0.1520 -0.2720
 7815SOL    HW234908   4.305   3.778   5.908  2.0414  0.8649 -1.4017
 7816SOL     OW34909   3.465   2.469   2.437  0.0076  0.0988  0.6786
 7816SOL    HW134910   3.407   2.394   2.431 -0.9280  1.0534 -1.9932
 7816SOL    HW234911   3.553   2.433   2.451 -1.1031 -2.9014 -0.2084
 7817SOL     OW34912   1.695   0.832   7.921  0.5312  0.1288  0.3762
 7817SOL    HW134913   1.676   0.804   8.010  0.5339 -2.2246 -0.3649
 7817SOL    HW234914   1.612   0.819   7.876  0.7476 -0.1420  0.0484
 7818SOL     OW34915   4.370   0.831   3.337 -0.1294 -0.0467  0.0399
 7818SOL    HW134916   4.277   0.809   3.336  0.3398 -1.9866 -1.5936
 7818SOL    HW234917   4.410   0.809   3.252  2.2749  0.5683  1.0206
 7819SOL     OW34918   3.290   1.499   5.659  0.9284 -0.3243 -0.4144
 7819SOL    HW134919   3.270   1.554   5.735 -0.7508  0.2635 -1.2763
 7819SOL    HW234920   3.261   1.542   5.579  1.1995  2.8960  1.2294
 7820SOL     OW34921   2.598   3.514   6.195 -0.8823 -0.1854 -0.3696
 7820SOL    HW134922   2.531   3.583   6.199  0.0115  0.7149 -0.8971
 7820SOL    HW234923   2.583   3.446   6.260 -2.9825  0.8471  0.2381
 7821SOL     OW34924   3.730   1.666   3.261  0.3515 -0.7193  0.9848
 7821SOL    HW134925   3.767   1.666   3.349  2.3753 -0.7191  0.1436
 7821SOL    HW234926   3.801   1.644   3.200 -0.8510 -2.5282  0.2394
 7822SOL     OW34927   4.722   4.153   1.320 -0.0781 -0.2613  0.4487
 7822SOL    HW134928   0.069   4.215   1.319  1.4911 -2.0906 -1.6693
 7822SOL    HW234929   0.017   4.109   1.403 -1.3014 -0.8314  0.4448
 7823SOL     OW34930   0.303   1.315   4.570  0.3224  0.3586 -0.2680
 7823SOL    HW134931   0.289   1.406   4.596 -1.7291 -0.4035  1.3083
 7823SOL    HW234932   0.316   1.332   4.476  1.4116 -2.5985 -0.6655
 7824SOL     OW34933   1.725   2.242   9.273 -0.0358  0.2227  0.0498
 7824SOL    HW134934   1.817   2.248   9.296  0.8226  0.7189 -3.4438
 7824SOL    HW234935   1.695   2.294   9.347 -0.2758  0.1096  0.0326
 7825SOL     OW34936   0.483   0.487  10.041 -0.5193  0.1715  0.1682
 7825SOL    HW134937   0.498   0.581  10.047 -0.6659  0.1762  0.4774
 7825SOL    HW234938   0.538   0.460  10.114 -1.5276  1.1178  1.2791
 7826SOL     OW34939   3.232   1.845  10.980  0.0252 -0.0219  0.6283
 7826SOL    HW134940   3.173   1.868  11.052  2.3387 -0.6121  2.7543
 7826SOL    HW234941   3.317   1.828  11.021  0.1377  1.6824  1.1183
 7827SOL     OW34942   0.098   0.662   8.461  0.1929 -0.2008  0.4887
 7827SOL    HW134943   0.063   0.674   8.549 -0.5907  0.6222  0.0543
 7827SOL    HW234944   0.075   0.741   8.413 -1.8370 -0.5634  0.8692
 7828SOL     OW34945   0.237   0.222   4.094  0.4767  0.2055 -0.2210
 7828SOL    HW134946   0.270   0.139   4.128 -1.7834 -1.5134 -2.1771
 7828SOL    HW234947   0.242   0.203   4.000  2.6409 -0.5394  0.0404
 7829SOL     OW34948   2.624   1.731  16.703  0.5269 -0.1739  0.6494
 7829SOL    HW134949   2.574   1.747  16.623  1.1753  1.5176  0.5672
 7829SOL    HW234950   2.695   1.681  16.663 -1.1225 -0.3785 -2.0074
 7830SOL     OW34951   2.982   4.131   9.195  0.4131  0.3774 -0.3813
 7830SOL    HW134952   3.034   4.093   9.124  1.6725  0.6256  0.4102
 7830SOL    HW234953   2.992   4.060   9.258 -0.8033 -0.4612 -1.1208
 7831SOL     OW34954   2.432   2.504   1.345  0.2702 -0.3980 -0.2313
 7831SOL    HW134955   2.415   2.410   1.341 -0.5818 -0.1703 -1.7892
 7831SOL    HW234956   2.346   2.528   1.380  0.0523  0.4403 -1.3348
 7832SOL     OW34957   2.236   1.376  12.441  0.5365  0.2347 -0.3751
 7832SOL    HW134958   2.140   1.377  12.446  0.6588 -0.5404  2.2098
 7832SOL    HW234959   2.266   1.357  12.530 -1.2836 -0.2011  0.1476
 7833SOL     OW34960   1.021   0.805  16.453 -0.0474 -0.1530 -0.4885
 7833SOL    HW134961   0.975   0.832  16.374  0.2103  1.4057 -0.1267
 7833SOL    HW234962   1.006   0.712  16.440 -0.8935  0.2858 -2.7080
 7834SOL     OW34963   2.862   1.200  17.525  0.4348 -0.4392  0.3531
 7834SOL    HW134964   2.797   1.199  17.595  1.6146 -0.7448  1.4561
 7834SOL    HW234965   2.856   1.291  17.498 -0.0311 -0.7125 -0.4650
 7835SOL     OW34966   2.552   1.588   0.749  0.6506  0.3014  0.6299
 7835SOL    HW134967   2.618   1.654   0.768  0.7919  0.0942  0.8570
 7835SOL    HW234968   2.604   1.513   0.777  0.2970  0.1428  0.8657
 7836SOL     OW34969   1.614   3.610   3.485 -0.1039  0.5558  0.1075
 7836SOL    HW134970   1.649   3.521   3.490  0.4454  0.6897 -1.4758
 7836SOL    HW234971   1.683   3.644   3.428 -0.1706  1.1637  0.3892
 7837SOL     OW34972   2.382   3.507   1.206  0.3591 -0.6953 -0.1314
 7837SOL    HW134973   2.441   3.562   1.257  2.2103 -2.8634  0.0311
 7837SOL    HW234974   2.442   3.433   1.201  2.1790  0.6885  1.2897
 7838SOL     OW34975   2.893   4.242   6.279  0.0697  0.2257 -0.1213
 7838SOL    HW134976   2.856   4.193   6.206 -0.4963  3.5156 -2.0485
 7838SOL    HW234977   2.918   4.330   6.253  0.3909  0.0320 -0.4678
 7839SOL     OW34978   0.249   4.222   7.414 -0.6256  0.0705 -0.1090
 7839SOL    HW134979   0.186   4.267   7.358 -1.6290  1.6389  2.2911
 7839SOL    HW234980   0.250   4.137   7.369  0.8795 -0.9609  1.8856
 7840SOL     OW34981   2.662   4.364  16.920 -0.0511 -0.2346  0.4741
 7840SOL    HW134982   2.613   4.328  16.846  0.7025  0.0156 -0.1422
 7840SOL    HW234983   2.639   4.457  16.916 -1.5540 -0.7197 -2.3340
 7841SOL     OW34984   0.239   2.869   6.355  0.1797  0.5177 -0.5554
 7841SOL    HW134985   0.207   2.784   6.383  1.6984 -0.1459 -0.7872
 7841SOL    HW234986   0.265   2.910   6.438 -0.5852 -0.8366  0.3524
 7842SOL     OW34987   3.458   1.498   4.572  0.0737 -0.0531  1.1669
 7842SOL    HW134988   3.543   1.540   4.583 -0.9744  1.8967  1.7730
 7842SOL    HW234989   3.476   1.404   4.581  2.5849  0.3561  0.4168
 7843SOL     OW34990   3.578   3.787   7.680 -0.2250  0.8144  0.0796
 7843SOL    HW134991   3.672   3.785   7.661 -0.7796  2.7560 -2.8477
 7843SOL    HW234992   3.566   3.879   7.703 -0.1960  0.5225  1.2712
 7844SOL     OW34993   4.026   0.139  17.643 -0.0492  0.4012 -0.3018
 7844SOL    HW134994   4.077   0.197  17.586  0.7579  0.0894  0.0986
 7844SOL    HW234995   4.031   0.066  17.582  1.2476  0.3462 -0.1308
 7845SOL     OW34996   2.186   0.470   4.739  0.5201 -0.5442  0.6674
 7845SOL    HW134997   2.270   0.496   4.702 -1.0972  3.6718 -0.0718
 7845SOL    HW234998   2.135   0.528   4.683 -0.8525 -1.9258  0.4558
 7846SOL     OW34999   2.337   3.046   8.308 -0.3852  0.1152 -0.2310
 7846SOL    HW135000   2.321   2.952   8.305  0.0115  0.0555 -0.7022
 7846SOL    HW235001   2.271   3.074   8.371 -0.7941  0.6042 -0.8785
 7847SOL     OW35002   2.899   0.590  12.543 -0.0802 -0.3087 -0.2563
 7847SOL    HW135003   2.912   0.683  12.562 -1.0825  0.2420 -2.2743
 7847SOL    HW235004   2.964   0.576  12.474  1.4038  1.0624  0.8643
 7848SOL     OW35005   3.782   0.973  16.721  0.1753 -0.3109  0.3180
 7848SOL    HW135006   3.777   1.063  16.689  2.9093  0.0929  1.0783
 7848SOL    HW235007   3.697   0.945  16.688  0.2294  1.2320 -1.1616
 7849SOL     OW35008   1.931   3.915   7.496 -0.2037 -0.7791  0.6222
 7849SOL    HW135009   1.967   3.829   7.473  1.3651 -0.3117  1.2988
 7849SOL    HW235010   1.893   3.935   7.410 -0.9160 -2.7372  0.4882
 7850SOL     OW35011   1.560   4.539   7.402  0.0358 -0.3868  0.5865
 7850SOL    HW135012   1.641   4.581   7.372 -0.2652  0.5909  1.1559
 7850SOL    HW235013   1.497   4.595   7.358 -0.4205 -1.1620  0.2520
 7851SOL     OW35014   2.610   2.146   5.570 -0.2284 -0.2860  0.2518
 7851SOL    HW135015   2.636   2.238   5.567  0.1631 -0.3405  1.8471
 7851SOL    HW235016   2.680   2.106   5.622  0.9382 -1.8106 -2.4764
 7852SOL     OW35017   0.125   1.512   3.896 -0.4616  0.2709 -0.2757
 7852SOL    HW135018   0.041   1.486   3.933  0.0595 -1.1076 -0.0597
 7852SOL    HW235019   0.168   1.426   3.897 -2.1926 -0.5972  0.8263
 7853SOL     OW35020   3.073   1.530  12.832  1.1214  0.6280  0.4184
 7853SOL    HW135021   3.107   1.619  12.818 -1.0229  1.6052  1.5011
 7853SOL    HW235022   3.097   1.512  12.922  1.4997  0.9245  0.3790
 7854SOL     OW35023   2.610   2.544   9.960 -0.6492  0.5200  0.1233
 7854SOL    HW135024   2.684   2.590   9.920 -0.2399 -0.8337 -0.6772
 7854SOL    HW235025   2.609   2.587  10.045  1.2251 -0.3915  0.6128
 7855SOL     OW35026   1.014   3.693   3.923  0.0207 -0.3450  0.7125
 7855SOL    HW135027   1.078   3.764   3.925 -0.7011  0.2975  0.7890
 7855SOL    HW235028   1.076   3.620   3.936  1.8579  1.5011  2.3086
 7856SOL     OW35029   2.889   3.913  11.549 -0.3453 -0.0344 -0.1883
 7856SOL    HW135030   2.958   3.904  11.484  0.7596  0.4505  0.9363
 7856SOL    HW235031   2.821   3.882  11.488  1.4591 -0.7449 -1.8281
 7857SOL     OW35032   1.235   1.110   7.301 -0.6913 -0.5729 -0.2703
 7857SOL    HW135033   1.252   1.018   7.318  3.6978 -0.0648 -1.8581
 7857SOL    HW235034   1.250   1.118   7.206  0.2821  0.3949 -0.0284
 7858SOL     OW35035   3.051   0.678   4.961  0.2853  0.8163  0.6244
 7858SOL    HW135036   3.021   0.610   5.022  0.4052 -0.0810 -0.3018
 7858SOL    HW235037   2.978   0.677   4.900  0.5370  0.2363  0.3243
 7859SOL     OW35038   2.478   4.572  16.767  0.1574  0.2142  0.7399
 7859SOL    HW135039   2.395   4.525  16.756  1.2823 -1.6870  0.2776
 7859SOL    HW235040   2.466   4.598  16.859  0.4000  0.0166  0.8288
 7860SOL     OW35041   4.096   1.559   0.462 -0.2651 -0.3202  0.3477
 7860SOL    HW135042   4.120   1.638   0.511 -0.2985  0.5548 -1.0557
 7860SOL    HW235043   4.172   1.510   0.492  0.0882  0.1871  0.2756
 7861SOL     OW35044   4.666   0.961   0.698 -0.1225 -0.0359 -0.4985
 7861SOL    HW135045   4.669   1.005   0.613  1.2122 -1.5777 -1.2427
 7861SOL    HW235046   4.590   0.902   0.698 -0.8242  0.8461  0.7770
 7862SOL     OW35047   1.160   1.736   2.763 -0.1848 -0.3758  0.3756
 7862SOL    HW135048   1.211   1.812   2.792 -3.2687  1.1826  1.7526
 7862SOL    HW235049   1.078   1.751   2.810  0.5958 -0.3592  1.7313
 7863SOL     OW35050   4.359   0.188   9.030 -0.3421 -0.3512  0.3042
 7863SOL    HW135051   4.370   0.160   9.121  0.1122  1.8384  0.9248
 7863SOL    HW235052   4.286   0.249   9.045 -1.1621 -1.4532  0.7848
 7864SOL     OW35053   3.648   0.762  14.380  0.3413 -0.0165 -0.2033
 7864SOL    HW135054   3.620   0.735  14.468  2.7302  2.2664  1.2512
 7864SOL    HW235055   3.634   0.682  14.329  0.7320  0.3429 -0.8752
 7865SOL     OW35056   4.542   3.074   3.991  0.3203  0.7337 -0.0073
 7865SOL    HW135057   4.515   2.988   3.961  0.2424  0.1701  1.6790
 7865SOL    HW235058   4.614   3.059   4.053 -0.0511 -0.8117  0.0311
 7866SOL     OW35059   3.397   0.204   5.768 -0.4792  0.2707 -0.3480
 7866SOL    HW135060   3.461   0.221   5.838 -1.9834  0.8643  0.8878
 7866SOL    HW235061   3.436   0.136   5.713 -0.1226 -0.8691  1.3194
 7867SOL     OW35062   1.342   4.509   7.159  0.2605  0.7730 -0.1782
 7867SOL    HW135063   1.288   4.435   7.186  1.6855 -0.8659 -1.8425
 7867SOL    HW235064   1.350   4.546   7.247  0.1531 -0.2857  0.2810
 7868SOL     OW35065   2.804   0.397  16.163  0.2858  0.5950  0.1573
 7868SOL    HW135066   2.784   0.475  16.111 -1.3744 -0.8455 -1.3494
 7868SOL    HW235067   2.882   0.370  16.115 -0.2187 -0.0163 -0.3060
 7869SOL     OW35068   0.144   2.197   6.216 -0.2349  0.1968  0.4730
 7869SOL    HW135069   0.219   2.240   6.257  1.2912 -1.3057 -0.7858
 7869SOL    HW235070   0.182   2.187   6.129  0.2240 -0.4891  0.7630
 7870SOL     OW35071   3.571   0.827   3.728 -0.3232 -0.2399  0.0604
 7870SOL    HW135072   3.562   0.922   3.735 -0.4304 -0.1206 -1.6234
 7870SOL    HW235073   3.614   0.822   3.642 -1.4799 -2.3562 -0.3937
 7871SOL     OW35074   2.970   1.819   5.583 -0.2462  0.0334  0.2041
 7871SOL    HW135075   3.019   1.896   5.611  0.7786 -0.6214  0.2203
 7871SOL    HW235076   3.038   1.752   5.579  1.5149  1.9360 -1.2399
 7872SOL     OW35077   1.255   3.415   8.628 -0.1403  0.4182  0.0734
 7872SOL    HW135078   1.215   3.466   8.558 -0.3177  0.2904  0.0814
 7872SOL    HW235079   1.335   3.464   8.646  0.1506  0.1698 -0.5266
 7873SOL     OW35080   1.057   0.082   2.959 -0.0982  0.2845 -0.1272
 7873SOL    HW135081   1.079   0.173   2.941  0.8583  0.3667  1.4661
 7873SOL    HW235082   1.040   0.087   3.054 -0.7378 -0.1089 -0.2197
 7874SOL     OW35083   1.643   4.334   1.420 -0.0160  0.2530 -0.1350
 7874SOL    HW135084   1.684   4.380   1.347 -0.5909  0.1342 -0.5354
 7874SOL    HW235085   1.702   4.361   1.490  0.5295 -0.0857 -0.4698
 7875SOL     OW35086   3.807   0.736  17.518 -0.2267  0.2032  0.0694
 7875SOL    HW135087   3.889   0.700  17.552 -0.9119 -2.6220 -1.3021
 7875SOL    HW235088   3.759   0.657  17.493  1.0016 -0.4094 -0.3515
 7876SOL     OW35089   0.155   1.321   8.471  0.0184 -0.5003 -0.3460
 7876SOL    HW135090   0.250   1.319   8.469  0.0611  1.9752 -0.6751
 7876SOL    HW235091   0.133   1.400   8.521 -1.0441 -1.1347  0.1860
 7877SOL     OW35092   3.600   4.137   8.595  0.0552  0.6290 -0.3208
 7877SOL    HW135093   3.641   4.074   8.536  3.4747 -0.7131  3.4949
 7877SOL    HW235094   3.639   4.100   8.674 -2.0275 -0.2403  0.2967
 7878SOL     OW35095   0.753   1.945  15.934 -0.1893  0.3920 -0.2850
 7878SOL    HW135096   0.687   1.977  15.873 -1.6606  0.4928  1.3655
 7878SOL    HW235097   0.733   2.000  16.010 -0.2249 -0.7229  0.5085
 7879SOL     OW35098   2.475   4.577   1.730 -0.2995 -0.1834  0.2244
 7879SOL    HW135099   2.473   4.482   1.719  2.2308 -0.0864 -1.0767
 7879SOL    HW235100   2.380   4.587   1.740 -0.4214 -0.6042 -0.4720
 7880SOL     OW35101   0.398   3.195   2.251 -0.4114  0.2431 -0.3014
 7880SOL    HW135102   0.431   3.129   2.190 -1.6961 -2.2514  1.7045
 7880SOL    HW235103   0.406   3.271   2.194  4.7751 -1.3807 -1.7306
 7881SOL     OW35104   3.691   2.707   4.693 -0.4280  1.0057  0.0836
 7881SOL    HW135105   3.700   2.795   4.728  0.3210  0.4931  1.1760
 7881SOL    HW235106   3.653   2.726   4.607 -0.7763 -0.2332 -0.0484
 7882SOL     OW35107   0.399   3.903   5.786 -0.1470  0.2227 -0.2154
 7882SOL    HW135108   0.359   3.985   5.816  0.3923 -0.6958  3.1012
 7882SOL    HW235109   0.476   3.943   5.747  1.8342 -2.5160  0.8399
 7883SOL     OW35110   3.593   3.774   7.951  0.1337 -0.0198  0.3518
 7883SOL    HW135111   3.571   3.766   7.858 -1.9450  1.2944  0.7195
 7883SOL    HW235112   3.584   3.679   7.962  0.1544 -0.1164 -0.4801
 7884SOL     OW35113   3.478   1.225   7.318 -0.0901  0.1985  0.1157
 7884SOL    HW135114   3.537   1.172   7.265 -0.7126  1.1058 -1.5024
 7884SOL    HW235115   3.540   1.287   7.357 -0.1789  1.4145 -1.6370
 7885SOL     OW35116   0.485   3.027   5.624 -0.3751 -0.0647  0.1051
 7885SOL    HW135117   0.456   3.005   5.712 -0.5197  1.4074  0.4358
 7885SOL    HW235118   0.444   3.113   5.614  1.2678  0.7768  0.6321
 7886SOL     OW35119   1.092   1.917  10.547 -0.0157 -0.2423  0.2119
 7886SOL    HW135120   1.098   1.841  10.604 -0.8710  0.0512  0.6905
 7886SOL    HW235121   1.180   1.922  10.509 -0.5040  2.5824 -0.5683
 7887SOL     OW35122   3.730   2.387   2.354 -0.2657  0.0140 -0.2779
 7887SOL    HW135123   3.710   2.317   2.417 -0.3832 -0.5100 -0.8986
 7887SOL    HW235124   3.742   2.340   2.272 -0.8114  4.6807 -2.9937
 7888SOL     OW35125   0.897   1.411  12.085  0.2622  0.6553  0.0742
 7888SOL    HW135126   0.881   1.397  11.991 -0.3580  0.8861  0.1501
 7888SOL    HW235127   0.820   1.372  12.125 -2.9282  6.3147 -0.4737
 7889SOL     OW35128   0.539   1.846  13.653 -0.0593  0.0866 -0.2964
 7889SOL    HW135129   0.498   1.891  13.579 -1.4017 -1.6315 -0.6010
 7889SOL    HW235130   0.466   1.789  13.675 -0.3788  0.1886 -1.0642
 7890SOL     OW35131   1.453   2.388   9.002 -0.3910  0.2476 -0.2023
 7890SOL    HW135132   1.520   2.325   8.973  0.9186  1.2692  0.5916
 7890SOL    HW235133   1.381   2.354   8.949 -0.6182 -0.3912  0.5155
 7891SOL     OW35134   0.990   4.103   4.394  0.1149 -0.5873  0.3464
 7891SOL    HW135135   1.059   4.127   4.332  0.0408 -0.8168  0.1770
 7891SOL    HW235136   1.044   4.062   4.462 -1.3226  0.3663  2.0767
 7892SOL     OW35137   1.234   0.912  16.999 -0.5326  0.2892 -0.8074
 7892SOL    HW135138   1.250   0.835  17.053 -1.5813 -0.5323 -1.6664
 7892SOL    HW235139   1.323   0.945  16.984  0.2116 -1.6880 -0.7893
 7893SOL     OW35140   3.627   2.156   8.145  0.1417 -0.3647 -0.1559
 7893SOL    HW135141   3.615   2.113   8.229 -1.2091 -2.3793 -1.3734
 7893SOL    HW235142   3.575   2.104   8.084  2.1680 -1.2169 -1.1860
 7894SOL     OW35143   1.292   3.480  11.146 -0.4745 -0.4728 -0.4810
 7894SOL    HW135144   1.377   3.491  11.104 -0.4888 -1.0566 -0.6650
 7894SOL    HW235145   1.326   3.410  11.203  2.2728  0.4533 -0.9855
 7895SOL     OW35146   1.274   1.473  13.840  0.2315  0.2775 -0.6084
 7895SOL    HW135147   1.270   1.429  13.925  0.6047 -0.0574 -0.7665
 7895SOL    HW235148   1.224   1.410  13.788  0.0917 -1.0369  1.1082
 7896SOL     OW35149   2.513   2.824   7.894  0.4596  0.2824  0.2879
 7896SOL    HW135150   2.437   2.776   7.929  2.4899 -2.1451  1.3591
 7896SOL    HW235151   2.492   2.914   7.918  0.5618  0.1854  0.7475
 7897SOL     OW35152   1.156   2.484   2.874  0.0648  0.0862 -0.0771
 7897SOL    HW135153   1.190   2.477   2.785  2.8679  1.1561  0.9243
 7897SOL    HW235154   1.218   2.540   2.920 -0.3993 -0.6087  1.4083
 7898SOL     OW35155   0.131   1.160  12.125 -0.0180 -0.2033  0.0284
 7898SOL    HW135156   0.205   1.102  12.146  0.1388  0.2285  0.6871
 7898SOL    HW235157   0.125   1.144  12.031 -0.4443 -1.3874  0.2612
 7899SOL     OW35158   3.378   1.031   7.673  0.4328 -0.0533 -0.1865
 7899SOL    HW135159   3.304   1.075   7.632  2.3448  2.5209 -0.8655
 7899SOL    HW235160   3.343   0.946   7.701  1.7409 -1.2883 -2.3064
 7900SOL     OW35161   4.427   1.179  13.377 -0.0717 -0.5260  0.4205
 7900SOL    HW135162   4.440   1.182  13.472  0.5246  0.7743  0.2989
 7900SOL    HW235163   4.515   1.150  13.353 -0.3669 -1.4827  0.4602
 7901SOL     OW35164   1.267   2.624  14.474 -0.1598  0.0091 -0.2778
 7901SOL    HW135165   1.278   2.616  14.379 -1.0072 -0.3259 -0.3566
 7901SOL    HW235166   1.346   2.669  14.503 -0.1399  0.3575 -0.8634
 7902SOL     OW35167   1.918   3.076   2.881 -0.7088  0.4591 -0.7064
 7902SOL    HW135168   1.878   3.057   2.966 -0.6183  3.0669 -0.0608
 7902SOL    HW235169   1.947   3.167   2.895 -0.7124  0.5597 -1.3854
 7903SOL     OW35170   2.501   1.579   0.037 -0.4588 -0.5483  0.4199
 7903SOL    HW135171   2.477   1.517  17.670 -4.1074  1.9241 -0.5391
 7903SOL    HW235172   2.474   1.663  17.702 -1.0129 -0.1842  1.6445
 7904SOL     OW35173   2.125   4.255   3.862 -0.1495 -0.3142 -0.5182
 7904SOL    HW135174   2.125   4.350   3.874 -1.7887 -0.1589 -1.7588
 7904SOL    HW235175   2.098   4.250   3.770  1.3636  0.6259 -1.0120
 7905SOL     OW35176   1.813   2.231  13.180  0.4861  0.0577  0.8219
 7905SOL    HW135177   1.743   2.291  13.204 -1.3000 -0.7758 -2.2838
 7905SOL    HW235178   1.765   2.149  13.192 -1.2557  0.8504 -0.7343
 7906SOL     OW35179   1.540   0.532  10.632  0.0794  0.7114  0.0899
 7906SOL    HW135180   1.457   0.505  10.671  0.4518 -0.2220  0.2246
 7906SOL    HW235181   1.572   0.611  10.676  0.6155  0.8878 -0.6007
 7907SOL     OW35182   4.503   0.071   8.549 -0.5129 -0.4162  0.0271
 7907SOL    HW135183   4.432   0.012   8.527  0.3114 -0.8590 -1.4233
 7907SOL    HW235184   4.490   0.052   8.642 -0.6562 -1.4939 -0.2114
 7908SOL     OW35185   0.563   2.218   1.107 -0.3266  0.0870  0.3102
 7908SOL    HW135186   0.633   2.283   1.098  2.1045 -2.6379 -0.5680
 7908SOL    HW235187   0.494   2.284   1.110  1.4524  2.0303 -1.0175
 7909SOL     OW35188   3.421   4.584  14.787  0.2409 -0.2977  0.5411
 7909SOL    HW135189   3.417   4.659  14.846  0.4470  0.7883 -0.8309
 7909SOL    HW235190   3.377   4.610  14.706  1.2922 -0.4661 -0.0994
 7910SOL     OW35191   2.788   2.984   3.855 -0.0593 -0.1962  0.0666
 7910SOL    HW135192   2.794   2.937   3.772 -0.3633 -2.6897  1.4707
 7910SOL    HW235193   2.755   3.068   3.823 -1.5267 -1.3090 -1.3159
 7911SOL     OW35194   4.633   4.146   6.570 -0.1559 -0.5226 -0.2411
 7911SOL    HW135195   4.656   4.205   6.642 -0.6541  0.9061 -1.2649
 7911SOL    HW235196   4.674   4.189   6.496 -2.9755  2.4473 -0.0563
 7912SOL     OW35197   2.420   2.838   9.174 -0.3842  0.2828  0.2205
 7912SOL    HW135198   2.353   2.898   9.207 -0.0143  0.3977  0.7523
 7912SOL    HW235199   2.389   2.752   9.203 -1.1140  0.1741 -0.8897
 7913SOL     OW35200   2.080   1.136  12.629  0.0225 -0.4915  0.4808
 7913SOL    HW135201   2.020   1.204  12.599 -0.2282 -0.4091  1.1606
 7913SOL    HW235202   2.158   1.187  12.654 -0.5562  1.1896 -1.1245
 7914SOL     OW35203   0.324   4.118  13.474  0.4115 -0.4573 -0.4977
 7914SOL    HW135204   0.281   4.050  13.526 -1.8555 -0.5109 -2.4391
 7914SOL    HW235205   0.402   4.124  13.528 -0.3690  3.4500  0.1466
 7915SOL     OW35206   2.415   4.491   6.392  0.1293  0.0662 -0.4954
 7915SOL    HW135207   2.387   4.573   6.433 -1.1235 -0.6226 -0.0025
 7915SOL    HW235208   2.498   4.477   6.438 -0.2709 -0.2700  0.1082
 7916SOL     OW35209   2.081   3.200   4.708 -0.0434 -0.0908 -0.2688
 7916SOL    HW135210   2.057   3.289   4.682  1.3244  0.8921  1.7718
 7916SOL    HW235211   2.166   3.193   4.663 -0.1491 -1.0760 -0.3171
 7917SOL     OW35212   0.853   1.155   9.087 -0.1335 -0.1373  0.9424
 7917SOL    HW135213   0.873   1.226   9.148 -0.3377  0.2662  0.5402
 7917SOL    HW235214   0.928   1.097   9.103 -0.3523 -0.9071 -0.8489
 7918SOL     OW35215   1.041   0.762  12.188 -0.1041  0.1037  0.3128
 7918SOL    HW135216   1.073   0.804  12.267  1.0644 -0.6679  0.2512
 7918SOL    HW235217   0.959   0.810  12.175 -0.4171 -0.8775 -1.2916
 7919SOL     OW35218   3.160   2.026   0.163  0.5802 -0.1155  0.2859
 7919SOL    HW135219   3.099   1.974   0.215 -0.1756 -0.0177 -0.4905
 7919SOL    HW235220   3.207   2.080   0.227 -0.4895 -0.5255  1.4233
 7920SOL     OW35221   3.297   0.863   3.957 -0.3234  0.1389  0.9284
 7920SOL    HW135222   3.372   0.910   3.993  0.0567 -2.3933  3.4182
 7920SOL    HW235223   3.265   0.929   3.896 -0.4521  0.5376  1.4278
 7921SOL     OW35224   1.001   3.093   4.050  0.0813 -0.7147  0.4144
 7921SOL    HW135225   1.058   3.016   4.052  1.1362  0.0265 -0.8742
 7921SOL    HW235226   0.918   3.046   4.041 -0.3271  0.3397 -1.2531
 7922SOL     OW35227   1.618   0.355   3.600  0.1514 -0.4597  0.1569
 7922SOL    HW135228   1.614   0.289   3.531  1.2260 -0.1147 -0.2264
 7922SOL    HW235229   1.712   0.353   3.619  0.5375  0.3026 -1.7204
 7923SOL     OW35230   4.111   3.960  14.614  0.9431  0.1566 -0.2868
 7923SOL    HW135231   4.088   3.937  14.704  2.1461  1.1607  0.2690
 7923SOL    HW235232   4.086   3.888  14.555  0.0828  1.2065 -1.2125
 7924SOL     OW35233   0.748   0.784  13.323  0.1416 -0.3116 -0.1379
 7924SOL    HW135234   0.791   0.709  13.364 -0.2952  0.0597  1.0146
 7924SOL    HW235235   0.733   0.845  13.396  3.5085 -1.2498  1.3578
 7925SOL     OW35236   1.133   0.410  16.982  0.6122 -0.2292 -0.1312
 7925SOL    HW135237   1.186   0.452  16.914 -0.3860  0.4523 -0.4889
 7925SOL    HW235238   1.187   0.436  17.057  0.7992 -1.1895  0.0631
 7926SOL     OW35239   0.673   4.013  17.580  0.2021  0.3767  0.5968
 7926SOL    HW135240   0.733   4.081  17.612 -1.0518  1.5189  0.5391
 7926SOL    HW235241   0.662   4.050  17.492 -1.5360 -0.2101  0.5651
 7927SOL     OW35242   4.695   4.031   5.016  0.1538 -0.3874  0.2990
 7927SOL    HW135243   0.051   4.009   5.060  0.3202 -1.5145 -0.5689
 7927SOL    HW235244   4.649   3.947   5.008 -0.3515 -0.2493  1.6800
 7928SOL     OW35245   2.267   2.459  15.802 -0.2119 -0.1695 -0.2725
 7928SOL    HW135246   2.229   2.450  15.715 -0.1610 -1.2542 -0.1758
 7928SOL    HW235247   2.315   2.377  15.813  0.9620  0.5568  0.1068
 7929SOL     OW35248   3.590   3.242  14.783 -0.0907 -0.1188  0.4284
 7929SOL    HW135249   3.574   3.182  14.856 -2.7378 -0.9321 -0.8098
 7929SOL    HW235250   3.676   3.278  14.804  0.8400 -0.7180 -2.3430
 7930SOL     OW35251   3.125   1.110   4.595 -0.2046  0.0453 -0.8400
 7930SOL    HW135252   3.039   1.144   4.620 -2.2860 -5.3007 -0.8289
 7930SOL    HW235253   3.132   1.109   4.500  0.9326 -0.1165 -0.7606
 7931SOL     OW35254   4.615   2.661   5.376 -0.1554  0.5864  0.4028
 7931SOL    HW135255   4.672   2.738   5.366 -1.6346  2.1398  3.7399
 7931SOL    HW235256   4.564   2.659   5.295  2.2251  0.4007 -1.0893
 7932SOL     OW35257   0.093   4.030  15.866 -0.1084  0.5163 -0.3889
 7932SOL    HW135258   0.128   3.946  15.834 -0.0955 -0.8010  3.1465
 7932SOL    HW235259   0.017   4.039  15.809  0.3410  0.2221 -1.0393
 7933SOL     OW35260   1.697   4.660   3.098 -0.0575  0.3203  0.5034
 7933SOL    HW135261   1.614   4.700   3.124 -0.6473 -0.9839  0.6556
 7933SOL    HW235262   1.692   4.592   3.166 -0.7616 -1.2353 -1.1205
 7934SOL     OW35263   1.146   1.502   1.629  0.3789  0.1163 -0.3397
 7934SOL    HW135264   1.106   1.433   1.576  1.6938  0.6690 -2.0669
 7934SOL    HW235265   1.169   1.569   1.564 -1.3155 -0.0742 -1.1410
 7935SOL     OW35266   0.509   1.444   2.666  0.3944 -0.4149  0.0725
 7935SOL    HW135267   0.571   1.375   2.643  1.6708  1.6708 -2.5670
 7935SOL    HW235268   0.474   1.470   2.581  1.4310  1.5380  0.2406
 7936SOL     OW35269   2.349   2.657  10.123  0.0904 -0.4356  0.1632
 7936SOL    HW135270   2.315   2.695  10.042 -1.4463  0.4813  1.2481
 7936SOL    HW235271   2.362   2.730  10.185 -2.2694  0.4569 -0.3818
 7937SOL     OW35272   0.637   2.546   7.757 -0.3135  0.2526 -0.4251
 7937SOL    HW135273   0.695   2.619   7.734 -1.7215  1.1832 -1.0486
 7937SOL    HW235274   0.585   2.542   7.677  0.0293  0.4516 -0.6602
 7938SOL     OW35275   2.554   1.334   5.952  0.1997  0.1432 -0.5220
 7938SOL    HW135276   2.577   1.271   6.020  0.8031 -1.8649 -2.5822
 7938SOL    HW235277   2.618   1.322   5.883  0.1801  2.9816 -1.0059
 7939SOL     OW35278   1.827   4.376   2.253 -0.0961 -0.2921 -0.0776
 7939SOL    HW135279   1.877   4.447   2.212  0.4368 -2.2268 -2.8181
 7939SOL    HW235280   1.819   4.319   2.176 -0.8431 -2.1011  1.3573
 7940SOL     OW35281   0.181   2.493  13.660 -0.2807 -0.2441  0.5588
 7940SOL    HW135282   0.117   2.491  13.731 -0.7492  1.9910  0.1864
 7940SOL    HW235283   0.254   2.445  13.699 -0.0773 -0.6724 -0.3448
 7941SOL     OW35284   4.457   0.803   3.042 -0.0568  0.3220 -0.0616
 7941SOL    HW135285   4.504   0.720   3.047 -1.0706 -0.4052 -2.3627
 7941SOL    HW235286   4.369   0.772   3.020 -0.0218 -1.2917  2.0612
 7942SOL     OW35287   3.105   1.258   2.808  0.1412 -0.1322 -0.0880
 7942SOL    HW135288   3.154   1.192   2.759 -1.3543 -1.5213  0.2931
 7942SOL    HW235289   3.169   1.277   2.876  1.6765 -0.1030 -1.5571
 7943SOL     OW35290   0.095   2.950  10.918 -0.6533 -0.3209  0.1769
 7943SOL    HW135291   0.160   2.941  10.848 -1.9291 -1.0065 -0.9091
 7943SOL    HW235292   0.089   2.863  10.956 -1.3864 -0.8448 -1.1555
 7944SOL     OW35293   1.542   0.925   8.808  0.4093 -0.2291  0.1699
 7944SOL    HW135294   1.502   0.853   8.857 -0.3200 -1.7037 -2.5890
 7944SOL    HW235295   1.607   0.961   8.868  1.2762 -1.8522  0.2329
 7945SOL     OW35296   2.253   1.168   4.479 -0.2513  0.4465 -0.4548
 7945SOL    HW135297   2.279   1.257   4.503 -1.5044  0.3912  1.1175
 7945SOL    HW235298   2.219   1.130   4.560  1.5107 -0.2984 -0.0604
 7946SOL     OW35299   2.018   0.426   3.993  0.3916 -0.6136  0.0007
 7946SOL    HW135300   2.013   0.464   4.081  0.7438  0.0702 -0.2765
 7946SOL    HW235301   1.992   0.494   3.931  1.2427  0.0813  0.4101
 7947SOL     OW35302   0.447   2.991   2.814  0.0310 -0.5181  0.0142
 7947SOL    HW135303   0.523   3.037   2.779 -0.5573  0.5778  0.1416
 7947SOL    HW235304   0.426   3.041   2.894  0.7788  1.2786 -0.8999
 7948SOL     OW35305   2.241   4.140   0.373 -0.4157 -0.1761 -0.4259
 7948SOL    HW135306   2.211   4.174   0.288 -2.8683 -2.0104 -0.2762
 7948SOL    HW235307   2.163   4.088   0.392 -0.0316 -2.1643 -4.3279
 7949SOL     OW35308   2.301   2.588  14.816 -0.0227  0.5377 -0.4971
 7949SOL    HW135309   2.376   2.537  14.846  0.3776  0.7742 -1.1005
 7949SOL    HW235310   2.275   2.536  14.740  0.9670 -0.2020 -0.3292
 7950SOL     OW35311   3.205   2.714  10.363  0.3392 -0.0234  0.2352
 7950SOL    HW135312   3.216   2.680  10.451 -0.4951 -0.4432  0.1772
 7950SOL    HW235313   3.179   2.637  10.313 -2.0705  0.8449  0.1417
 7951SOL     OW35314   1.073   0.351  10.844 -0.0627  0.6543  0.1692
 7951SOL    HW135315   1.011   0.399  10.789  1.3985  1.7426 -0.5083
 7951SOL    HW235316   1.094   0.281  10.782  0.3508  1.6414 -0.7880
 7952SOL     OW35317   4.348   0.510   5.633  0.1630 -0.3028 -0.7582
 7952SOL    HW135318   4.392   0.526   5.550 -2.9512 -1.9894 -2.7031
 7952SOL    HW235319   4.266   0.558   5.630 -0.7058 -1.7349  0.1483
 7953SOL     OW35320   1.560   3.778   5.836 -0.7292 -0.2830  0.1982
 7953SOL    HW135321   1.578   3.767   5.929 -1.6055 -2.2041  0.1601
 7953SOL    HW235322   1.495   3.848   5.834  0.2735  0.5832 -2.2196
 7954SOL     OW35323   1.235   0.578  16.799 -0.0122  0.2795  0.8093
 7954SOL    HW135324   1.312   0.598  16.746 -1.4254  0.9710 -1.0118
 7954SOL    HW235325   1.200   0.665  16.820  1.8942  1.1828  0.1933
 7955SOL     OW35326   1.253   2.945   5.121  0.4032  0.1654  0.1294
 7955SOL    HW135327   1.215   3.031   5.101 -1.7518 -1.5587 -3.1430
 7955SOL    HW235328   1.288   2.939   5.032  1.9937 -1.4432  0.8748
 7956SOL     OW35329   1.301   1.426   7.216 -0.0569 -0.3228  0.1778
 7956SOL    HW135330   1.383   1.391   7.251 -0.2005  0.6431  1.5067
 7956SOL    HW235331   1.341   1.481   7.149 -1.2600 -0.8898 -0.9892
 7957SOL     OW35332   4.599   4.329  11.527 -0.2214  0.2145 -0.3528
 7957SOL    HW135333   4.586   4.295  11.438 -1.3112 -1.7774  0.5714
 7957SOL    HW235334   4.669   4.274  11.562 -0.8228  0.3214  1.0010
 7958SOL     OW35335   1.608   1.538   6.554  0.0601  0.6370 -0.2062
 7958SOL    HW135336   1.529   1.534   6.499 -0.5486  0.7258  0.6492
 7958SOL    HW235337   1.577   1.579   6.635 -1.2043 -0.6539 -0.0192
 7959SOL     OW35338   3.631   4.260   5.160 -0.0660  0.3609  0.2436
 7959SOL    HW135339   3.722   4.251   5.187 -0.1752 -1.1193  0.0917
 7959SOL    HW235340   3.651   4.244   5.068 -0.5385 -0.1268  0.2267
 7960SOL     OW35341   2.039   0.600   7.023 -0.3330  0.1571  0.1132
 7960SOL    HW135342   2.098   0.565   7.090  0.4868  1.1100 -0.1112
 7960SOL    HW235343   1.962   0.584   7.078  0.7555 -0.2857  1.5018
 7961SOL     OW35344   1.169   0.777   4.824  0.6513 -0.6492  0.0272
 7961SOL    HW135345   1.080   0.743   4.830 -0.3142  1.8029 -0.3050
 7961SOL    HW235346   1.155   0.850   4.765  2.4333  0.6063  1.1311
 7962SOL     OW35347   0.793   3.085   5.778  0.3494 -0.5229  0.0368
 7962SOL    HW135348   0.748   3.002   5.762 -0.0128 -0.6041  1.4359
 7962SOL    HW235349   0.728   3.145   5.816 -0.8786 -0.5210 -2.0561
 7963SOL     OW35350   0.041   3.133  12.863  0.1346  0.0569  0.7262
 7963SOL    HW135351   0.094   3.147  12.784  0.7137  1.0586  1.2936
 7963SOL    HW235352   0.065   3.212  12.911  1.8657  0.7887 -1.3043
 7964SOL     OW35353   2.161   1.558   2.061 -0.4139  0.2276 -0.4752
 7964SOL    HW135354   2.128   1.532   1.976 -1.0497 -0.2629 -0.0802
 7964SOL    HW235355   2.171   1.479   2.114  0.0110 -0.3265 -1.3986
 7965SOL     OW35356   4.069   0.085   7.590 -0.7509  0.5158 -0.3292
 7965SOL    HW135357   4.019   0.079   7.508 -1.3749  0.0777  0.0860
 7965SOL    HW235358   4.047   0.173   7.622 -3.7994 -0.6747  0.8954
 7966SOL     OW35359   3.763   1.973   5.230 -0.0282 -0.0081 -0.0599
 7966SOL    HW135360   3.777   2.047   5.171 -0.5043 -0.6686 -1.0130
 7966SOL    HW235361   3.849   1.961   5.271 -0.2928  2.5532  1.2471
 7967SOL     OW35362   4.104   4.094   8.455 -0.3653 -0.1470 -0.2917
 7967SOL    HW135363   4.140   4.005   8.454  4.2806  1.7439 -0.8156
 7967SOL    HW235364   4.027   4.065   8.503  0.2806 -1.2511  0.0560
 7968SOL     OW35365   4.030   3.353   3.390 -0.9407 -0.8305 -0.6403
 7968SOL    HW135366   4.044   3.439   3.349 -2.8903  0.4681  1.4071
 7968SOL    HW235367   4.049   3.301   3.312  0.4808  0.6327 -1.2841
 7969SOL     OW35368   4.258   1.237   7.085  0.0720  0.3619 -0.3779
 7969SOL    HW135369   4.220   1.275   7.005  0.3593  2.2914  0.4108
 7969SOL    HW235370   4.207   1.156   7.077  0.6618 -0.3095  2.7473
 7970SOL     OW35371   2.226   2.352   1.756  0.4773 -0.1481  0.3498
 7970SOL    HW135372   2.193   2.265   1.779 -1.0174  0.3354 -0.0049
 7970SOL    HW235373   2.242   2.323   1.666  1.9798  3.5309 -0.5534
 7971SOL     OW35374   4.515   3.376   8.004  0.1855  0.3339 -0.6800
 7971SOL    HW135375   4.555   3.450   7.958  1.0267  1.3115  1.6672
 7971SOL    HW235376   4.566   3.379   8.084 -0.7358  0.7991 -0.1104
 7972SOL     OW35377   0.494   0.366   6.175 -0.0325  0.1972  0.0677
 7972SOL    HW135378   0.560   0.418   6.130 -1.1306  0.8345 -0.8034
 7972SOL    HW235379   0.546   0.337   6.250 -0.2485 -0.0998  0.1012
 7973SOL     OW35380   3.185   4.707   4.566 -0.5263  0.1653 -0.2365
 7973SOL    HW135381   3.256   0.036   4.531 -0.5337 -0.4399 -1.1668
 7973SOL    HW235382   3.221   4.619   4.558  1.2423  0.7494  1.3484
 7974SOL     OW35383   2.764   1.070   7.087 -0.4493 -0.0179 -0.2403
 7974SOL    HW135384   2.705   1.131   7.132 -0.7818  0.2294 -1.0123
 7974SOL    HW235385   2.715   1.062   7.005 -0.7666 -1.1361  0.0526
 7975SOL     OW35386   3.426   0.879   5.468  0.4519  0.2743  0.6514
 7975SOL    HW135387   3.341   0.886   5.425  1.3122  0.7229 -0.9901
 7975SOL    HW235388   3.405   0.815   5.536 -0.6266 -0.1778 -0.1047
 7976SOL     OW35389   1.637   2.189   7.021  0.1551  0.2350 -0.0634
 7976SOL    HW135390   1.609   2.104   6.986  2.2821 -0.3048 -0.4109
 7976SOL    HW235391   1.557   2.241   7.016  0.9942  1.4844 -0.2035
 7977SOL     OW35392   3.671   3.738   5.011  0.6543 -0.6581 -0.5318
 7977SOL    HW135393   3.676   3.831   5.033  0.1715 -0.6980 -0.2569
 7977SOL    HW235394   3.610   3.698   5.073 -1.0172  0.3566 -1.5172
 7978SOL     OW35395   3.278   0.028  11.927  0.4131  0.1182  0.5634
 7978SOL    HW135396   3.330   0.010  11.849 -1.3908 -0.7497 -0.4241
 7978SOL    HW235397   3.191   4.720  11.909 -0.0481  0.2866  2.4973
 7979SOL     OW35398   4.121   4.251   3.678  0.0594  0.3410  0.0744
 7979SOL    HW135399   4.127   4.202   3.760 -1.9635  1.4583  0.8961
 7979SOL    HW235400   4.039   4.299   3.694 -1.1419 -1.1276 -1.6727
 7980SOL     OW35401   2.983   1.953   3.501 -0.3116  0.4474  0.1506
 7980SOL    HW135402   3.078   1.959   3.497 -0.3034  0.8647  1.1079
 7980SOL    HW235403   2.963   2.045   3.481 -0.3382  0.1393 -1.2492
 7981SOL     OW35404   4.378   0.644   4.296 -0.2508  0.4484  0.2875
 7981SOL    HW135405   4.303   0.585   4.292  1.7468 -2.0065 -1.2562
 7981SOL    HW235406   4.348   0.691   4.219  0.2791 -1.0536 -0.8377
 7982SOL     OW35407   4.268   3.655   7.619 -0.4805 -0.3791 -0.2808
 7982SOL    HW135408   4.297   3.644   7.528  1.1037 -1.1503  0.3273
 7982SOL    HW235409   4.225   3.572   7.638  0.6807 -0.6170  1.2345
 7983SOL     OW35410   2.127   2.337   7.167 -0.2940  0.3058 -0.2993
 7983SOL    HW135411   2.144   2.426   7.198 -0.5503  0.1319  0.3408
 7983SOL    HW235412   2.169   2.342   7.081  1.7571 -0.0854  0.6848
 7984SOL     OW35413   0.330   4.525   8.517  0.5245 -0.0309 -0.1444
 7984SOL    HW135414   0.242   4.542   8.482 -0.1023  0.8715  1.8510
 7984SOL    HW235415   0.389   4.543   8.444  0.9899 -1.1341 -0.0435
 7985SOL     OW35416   3.513   3.560  17.638 -0.5181 -0.2890  0.0690
 7985SOL    HW135417   3.446   3.629  17.639  0.7205  0.9092  0.8742
 7985SOL    HW235418   3.568   3.588  17.566  1.1043  0.3829  1.5627
 7986SOL     OW35419   1.730   4.248   2.478  0.8875 -0.1792  0.3683
 7986SOL    HW135420   1.724   4.160   2.441 -1.1717  0.7640 -1.5603
 7986SOL    HW235421   1.753   4.313   2.412  0.8443 -2.6712 -2.0816
 7987SOL     OW35422   2.926   0.880   7.210 -0.0524 -0.2968  0.4929
 7987SOL    HW135423   2.883   0.942   7.151  2.1196  1.6856  0.9842
 7987SOL    HW235424   2.897   0.902   7.299 -1.5184  2.8181 -0.7594
 7988SOL     OW35425   3.448   0.143   5.386  0.3738 -0.2586 -0.0405
 7988SOL    HW135426   3.468   0.094   5.466  2.4108 -1.9481 -1.5845
 7988SOL    HW235427   3.414   0.070   5.334 -1.0835  0.3074  0.1225
 7989SOL     OW35428   1.128   1.041   4.639  0.0775 -0.1070  0.8427
 7989SOL    HW135429   1.095   1.117   4.591  1.5795  0.9076  1.3833
 7989SOL    HW235430   1.163   0.982   4.572 -1.0514 -0.6088  0.7048
 7990SOL     OW35431   4.151   2.020   1.986 -0.0729 -0.1197 -0.0930
 7990SOL    HW135432   4.149   1.954   2.056 -1.9352  1.0394  0.9529
 7990SOL    HW235433   4.233   2.007   1.938  0.2203 -0.5566  0.5221
 7991SOL     OW35434   2.789   4.544   4.943  0.2411  1.0856 -0.2369
 7991SOL    HW135435   2.842   4.530   4.865  0.0420 -3.0067  0.3457
 7991SOL    HW235436   2.716   4.489   4.914 -1.1553  1.0228  3.4233
 7992SOL     OW35437   1.087   2.898   8.642  0.1625  0.6081 -0.0884
 7992SOL    HW135438   1.132   2.884   8.559  1.3034 -0.0906  0.6535
 7992SOL    HW235439   1.133   2.979   8.661  0.0894 -0.0683  2.9881
 7993SOL     OW35440   2.205   0.362   7.989  0.4027  0.4388  0.2217
 7993SOL    HW135441   2.229   0.454   7.993  1.4990  0.1321  0.7139
 7993SOL    HW235442   2.214   0.345   7.895 -3.2572  0.6513 -0.1550
 7994SOL     OW35443   1.156   2.786   5.325  0.2023 -0.4470 -0.3809
 7994SOL    HW135444   1.145   2.842   5.402 -2.1149 -1.5369  0.0676
 7994SOL    HW235445   1.197   2.845   5.261  1.3658  0.5948  1.3315
 7995SOL     OW35446   4.017   0.672   8.048  0.4704 -0.1082 -0.3915
 7995SOL    HW135447   4.056   0.753   8.081 -0.2177  1.0165 -2.3586
 7995SOL    HW235448   4.071   0.671   7.969  2.0603  0.7833  0.6801
 7996SOL     OW35449   1.321   4.133   3.619  0.1401 -0.1246  0.1806
 7996SOL    HW135450   1.416   4.130   3.632  0.2747  1.2932 -0.4396
 7996SOL    HW235451   1.308   4.105   3.529 -0.9381  1.5718 -0.2000
 7997SOL     OW35452   3.066   0.662   7.786  0.1442  0.5156  0.4435
 7997SOL    HW135453   3.076   0.641   7.693 -2.0142  1.3905 -0.0082
 7997SOL    HW235454   2.979   0.701   7.783 -0.3317 -0.5616  0.2964
 7998SOL     OW35455   0.454   3.129   3.040 -0.6189  0.0982 -0.3627
 7998SOL    HW135456   0.392   3.199   3.061 -1.8199 -1.5237  1.4661
 7998SOL    HW235457   0.527   3.147   3.100 -0.6225 -1.7761  0.2081
 7999SOL     OW35458   3.712   4.383   7.102  0.0237  0.7349  0.0148
 7999SOL    HW135459   3.697   4.381   7.197 -0.0948 -0.5025 -0.0230
 7999SOL    HW235460   3.761   4.301   7.096  0.2604  0.8362  0.5854
 8000SOL     OW35461   3.187   4.577   0.103  0.2983  0.2473 -0.1956
 8000SOL    HW135462   3.101   4.557   0.140  0.9853  0.0462  1.2763
 8000SOL    HW235463   3.200   4.659   0.151  0.7175 -0.0327  0.1689
 8001SOL     OW35464   3.925   2.246  16.128  0.4382 -0.2976  0.0698
 8001SOL    HW135465   3.855   2.311  16.120  0.8952  0.0182 -1.4139
 8001SOL    HW235466   3.929   2.197  16.046 -2.3545 -0.6900  0.1627
 8002SOL     OW35467   2.475   0.635   5.196 -0.5495  0.0937  0.0583
 8002SOL    HW135468   2.498   0.670   5.282 -1.3987  0.9907 -0.0831
 8002SOL    HW235469   2.528   0.682   5.132  1.1059  0.2306  1.5120
 8003SOL     OW35470   3.087   0.339   4.133 -0.3327 -0.1429 -0.2003
 8003SOL    HW135471   3.047   0.391   4.064 -1.2308  0.4520  0.7685
 8003SOL    HW235472   3.161   0.395   4.159 -0.0918 -0.3049 -0.5373
 8004SOL     OW35473   2.135   0.471   6.150 -0.1147  0.0990 -0.0700
 8004SOL    HW135474   2.062   0.531   6.168 -0.2482 -0.1692  0.2858
 8004SOL    HW235475   2.212   0.527   6.145  0.2956 -0.5126 -0.6261
 8005SOL     OW35476   3.314   4.502  15.740 -0.4529  0.9031 -0.3008
 8005SOL    HW135477   3.295   4.409  15.755  1.2136  0.8212  1.2947
 8005SOL    HW235478   3.396   4.487  15.693 -0.7284 -0.3357 -0.3931
 8006SOL     OW35479   4.117   1.768   0.655 -0.0715  0.6039  0.0108
 8006SOL    HW135480   4.203   1.731   0.678  0.1177  1.8542  1.2920
 8006SOL    HW235481   4.133   1.858   0.682  0.2554  0.9256 -1.2683
 8007SOL     OW35482   4.159   2.141   5.458 -0.2825 -0.2979  0.4216
 8007SOL    HW135483   4.164   2.236   5.454 -0.4216 -0.2435  1.5006
 8007SOL    HW235484   4.235   2.124   5.514 -0.0503  1.6079  0.6713
 8008SOL     OW35485   4.265   0.317  14.596  0.1288 -0.6163 -0.1725
 8008SOL    HW135486   4.258   0.268  14.678 -2.3169  0.1599  0.0804
 8008SOL    HW235487   4.252   0.399  14.644 -0.0572  0.4992 -2.1448
 8009SOL     OW35488   0.771   3.410   5.056 -0.5083 -0.0401  0.4277
 8009SOL    HW135489   0.769   3.496   5.013  2.4316  0.6760  1.6936
 8009SOL    HW235490   0.866   3.400   5.063 -0.1844  2.0009 -0.8944
 8010SOL     OW35491   0.163   0.676   4.729 -0.1123 -0.0566  0.3629
 8010SOL    HW135492   0.070   0.661   4.711 -0.2437 -0.8319  1.7019
 8010SOL    HW235493   0.193   0.695   4.640 -1.4159 -0.5727 -0.1956
 8011SOL     OW35494   0.757   2.249  16.525  0.3632 -0.0532 -0.1580
 8011SOL    HW135495   0.700   2.319  16.557  1.8630 -0.1421  2.8009
 8011SOL    HW235496   0.800   2.227  16.608 -0.7257 -0.0761  0.4088
 8012SOL     OW35497   4.407   2.416   4.465  0.4042 -0.0967 -0.2671
 8012SOL    HW135498   4.495   2.384   4.447  0.3227 -1.8553  2.4541
 8012SOL    HW235499   4.397   2.354   4.537 -0.7868  0.6806  0.2534
 8013SOL     OW35500   3.407   2.430  17.122  0.5816 -0.3071 -0.3541
 8013SOL    HW135501   3.323   2.398  17.091 -1.5482 -0.0171  5.1387
 8013SOL    HW235502   3.389   2.493  17.192  1.8726 -0.6251  0.2614
 8014SOL     OW35503   4.584   0.238  13.051 -0.6387 -0.0921 -0.2141
 8014SOL    HW135504   4.666   0.192  13.063  0.6014  1.7208 -1.7415
 8014SOL    HW235505   4.534   0.180  12.993  0.6499 -0.3385 -1.0824
 8015SOL     OW35506   1.925   3.571  11.167  0.9834  0.5264  0.1277
 8015SOL    HW135507   1.928   3.502  11.101  1.6009  0.6427  0.0387
 8015SOL    HW235508   1.836   3.561  11.203  0.2949 -0.1682 -1.7682
 8016SOL     OW35509   2.435   2.477   3.384  0.2845 -0.1414 -0.2075
 8016SOL    HW135510   2.463   2.554   3.433 -0.6721  0.6613 -0.9110
 8016SOL    HW235511   2.397   2.519   3.306 -0.8223 -1.7445 -0.5296
 8017SOL     OW35512   1.923   3.402  15.424  0.0343 -0.1661 -0.2193
 8017SOL    HW135513   1.982   3.333  15.393  0.0986 -0.1738 -0.0795
 8017SOL    HW235514   1.838   3.377  15.390 -1.5884  1.5945  2.5488
 8018SOL     OW35515   4.502   3.535   2.282 -0.3482  0.0834  0.2210
 8018SOL    HW135516   4.504   3.619   2.327  0.7725  0.2807 -0.2072
 8018SOL    HW235517   4.579   3.537   2.225  0.1829 -2.3947  0.8227
 8019SOL     OW35518   4.491   1.560   2.615 -0.2222  0.2351  0.4089
 8019SOL    HW135519   4.544   1.640   2.620  0.5699 -0.3677  1.6903
 8019SOL    HW235520   4.439   1.574   2.536  0.0415  0.4168  0.2689
 8020SOL     OW35521   2.177   2.933  15.915 -0.0555  0.6203 -0.6149
 8020SOL    HW135522   2.120   2.863  15.882  1.6864 -0.6226 -1.0004
 8020SOL    HW235523   2.262   2.911  15.877 -0.4946  0.9363 -1.7786
 8021SOL     OW35524   4.503   0.912   4.481  0.0367 -0.0829 -0.0960
 8021SOL    HW135525   4.497   0.894   4.387  0.0611 -0.5253 -0.0105
 8021SOL    HW235526   4.508   1.007   4.484 -0.3517 -0.0009 -2.1047
 8022SOL     OW35527   0.624   3.214   1.164  0.1937  0.4252  1.0341
 8022SOL    HW135528   0.646   3.268   1.088  0.1998 -1.0367 -0.0002
 8022SOL    HW235529   0.609   3.292   1.217 -0.9822 -0.5505  2.1422
 8023SOL     OW35530   3.331   4.643  11.382 -0.2595 -0.0674 -0.2336
 8023SOL    HW135531   3.310   4.723  11.333 -1.9380 -0.5587 -0.3251
 8023SOL    HW235532   3.425   4.648  11.400 -0.3361 -0.3070  0.2350
 8024SOL     OW35533   2.566   3.434   4.901 -0.1331  0.6421 -0.1370
 8024SOL    HW135534   2.578   3.357   4.846 -0.0584 -0.4728  1.4542
 8024SOL    HW235535   2.654   3.452   4.935 -1.1897 -0.0488  2.9741
 8025SOL     OW35536   3.355   0.245   8.651 -0.0804 -0.2550 -0.0343
 8025SOL    HW135537   3.435   0.279   8.691  0.2350 -1.6442  0.5114
 8025SOL    HW235538   3.394   0.195   8.579 -1.3903 -0.3520 -0.6696
 8026SOL     OW35539   1.374   3.028   3.003 -0.2492  0.9359  0.2333
 8026SOL    HW135540   1.453   3.043   2.951 -0.0769  0.0501  0.2335
 8026SOL    HW235541   1.376   3.104   3.062  1.2014  0.6065  0.6253
 8027SOL     OW35542   2.674   1.857   9.060 -0.0049 -0.4969  0.8934
 8027SOL    HW135543   2.716   1.812   9.134 -1.2360 -0.0621  1.8596
 8027SOL    HW235544   2.633   1.785   9.011 -1.0773 -0.4410  1.7091
 8028SOL     OW35545   3.303   4.153   4.565  0.3424 -0.0587  0.2529
 8028SOL    HW135546   3.208   4.154   4.577  0.1751 -1.6842 -1.0509
 8028SOL    HW235547   3.315   4.059   4.557 -6.2099 -0.9490  0.8819
 8029SOL     OW35548   2.688   1.656   4.876  0.5969 -0.1670 -0.3911
 8029SOL    HW135549   2.772   1.639   4.834  0.7994 -1.8832  0.7055
 8029SOL    HW235550   2.682   1.579   4.932  0.8168  0.2021  0.1361
 8030SOL     OW35551   3.224   1.557   5.947  0.7552  0.1824 -0.3322
 8030SOL    HW135552   3.319   1.543   5.941  1.0645  2.2058 -0.0412
 8030SOL    HW235553   3.209   1.483   6.005  1.0778  0.8347  0.5829
 8031SOL     OW35554   3.454   1.349   7.603  0.3284 -0.5558 -0.2418
 8031SOL    HW135555   3.512   1.396   7.664 -1.2056  0.2989  0.5506
 8031SOL    HW235556   3.482   1.258   7.611  0.4967 -0.5706 -0.9979
 8032SOL     OW35557   4.119   1.637   6.848  0.0935 -0.2047 -0.1978
 8032SOL    HW135558   4.151   1.701   6.912  2.3188 -0.5412 -0.9815
 8032SOL    HW235559   4.188   1.627   6.783 -1.7105 -0.1686 -2.1412
 8033SOL     OW35560   2.894   0.205  10.287 -0.0302  0.0641 -0.0471
 8033SOL    HW135561   2.866   0.147  10.357 -3.7498  0.5790 -1.0880
 8033SOL    HW235562   2.988   0.193  10.273 -0.0628  0.1142 -0.3222
 8034SOL     OW35563   0.512   4.652  11.268  0.1001 -0.0888  0.1012
 8034SOL    HW135564   0.483   4.582  11.209  1.7163 -2.0067  1.5701
 8034SOL    HW235565   0.458   4.642  11.346 -0.0729 -1.3042 -0.1778
 8035SOL     OW35566   2.478   4.651   2.707  0.1516 -0.7331 -0.1312
 8035SOL    HW135567   2.424   4.603   2.645  1.2225 -1.3111 -0.6143
 8035SOL    HW235568   2.412   4.715   2.735 -0.1674 -0.6775 -0.9914
 8036SOL     OW35569   3.749   2.681  15.394  0.5588 -0.2575  0.1185
 8036SOL    HW135570   3.779   2.634  15.316 -1.2431 -1.2783  0.0382
 8036SOL    HW235571   3.736   2.608  15.454 -1.5661  0.6406  0.7364
 8037SOL     OW35572   3.215   4.091  12.644  0.2482  0.1163 -0.5046
 8037SOL    HW135573   3.174   4.161  12.594 -2.6594 -2.1342 -1.2917
 8037SOL    HW235574   3.148   4.066  12.708  2.3557 -1.5428  1.0745
 8038SOL     OW35575   0.647   1.932   4.399 -0.6307  0.3048  0.0223
 8038SOL    HW135576   0.671   1.936   4.492  3.0603 -0.6130 -0.8815
 8038SOL    HW235577   0.714   1.868   4.374 -2.3065 -0.7167 -1.8361
 8039SOL     OW35578   3.112   3.738  16.949 -0.1967  0.3506 -0.3226
 8039SOL    HW135579   3.133   3.826  16.919 -0.2997 -0.1081 -1.7629
 8039SOL    HW235580   3.035   3.755  17.004 -0.2112  3.2357 -1.2636
 8040SOL     OW35581   2.698   2.149   9.703 -0.4421 -0.4891  0.2514
 8040SOL    HW135582   2.709   2.153   9.798  1.8400  0.4893 -0.0519
 8040SOL    HW235583   2.760   2.076   9.702  1.6889  1.3208  0.9054
 8041SOL     OW35584   3.095   4.064   7.332 -0.0028 -0.0183 -0.1317
 8041SOL    HW135585   3.036   4.126   7.288 -1.8314 -1.3573  0.4058
 8041SOL    HW235586   3.172   4.110   7.365 -0.5085  1.1030 -0.4971
 8042SOL     OW35587   2.480   1.686   6.372  0.6013  0.1416 -0.4335
 8042SOL    HW135588   2.389   1.692   6.402  0.0764 -0.1177 -1.9732
 8042SOL    HW235589   2.502   1.776   6.346 -0.3344  1.1747  2.3483
 8043SOL     OW35590   2.748   0.207   3.408  0.9169 -0.1335  0.0544
 8043SOL    HW135591   2.757   0.112   3.414  0.8891 -0.1261  0.2098
 8043SOL    HW235592   2.818   0.231   3.468  1.3023 -1.9274  0.3057
 8044SOL     OW35593   3.572   0.407   5.601 -0.0868 -0.2508  0.5302
 8044SOL    HW135594   3.555   0.324   5.558  0.3402 -0.7880  1.4040
 8044SOL    HW235595   3.517   0.454   5.538 -0.0404  0.2201  0.8357
 8045SOL     OW35596   0.774   4.342   2.938 -0.3990  0.0507  0.0384
 8045SOL    HW135597   0.806   4.432   2.939 -1.8242  0.5898 -1.5364
 8045SOL    HW235598   0.798   4.292   2.860  0.8634 -0.6472  0.8621
 8046SOL     OW35599   3.668   0.113   6.619  0.4422  0.1609  0.4785
 8046SOL    HW135600   3.692   0.190   6.567 -0.7219  0.4418  0.3604
 8046SOL    HW235601   3.585   0.083   6.581  1.5214 -0.5766 -1.2981
 8047SOL     OW35602   4.539   0.363   4.913  0.0796 -0.0514  0.5400
 8047SOL    HW135603   4.502   0.440   4.869 -1.4448 -1.8776 -1.3743
 8047SOL    HW235604   4.468   0.301   4.923  0.2945 -0.6132 -1.3194
 8048SOL     OW35605   3.959   2.741   8.307  0.1048 -0.3113 -0.0202
 8048SOL    HW135606   3.963   2.711   8.398  2.3415  0.4244  0.1219
 8048SOL    HW235607   3.865   2.751   8.296  0.5742  3.0845 -1.1962
 8049SOL     OW35608   3.416   3.032   3.172 -0.1115 -0.0332  0.2579
 8049SOL    HW135609   3.411   2.992   3.085  2.6846  0.2882 -0.0403
 8049SOL    HW235610   3.468   2.966   3.218  0.5962  0.2509 -0.1274
 8050SOL     OW35611   2.900   1.257   6.502 -0.3412 -0.5328  0.1790
 8050SOL    HW135612   2.963   1.303   6.446  1.4524 -0.2133  2.5038
 8050SOL    HW235613   2.867   1.183   6.451  0.9231 -1.1663  0.2905
 8051SOL     OW35614   4.244   3.980   4.464 -0.1513 -0.0567  0.2589
 8051SOL    HW135615   4.331   4.020   4.467 -0.1591 -0.1358  1.7036
 8051SOL    HW235616   4.262   3.896   4.421 -0.7981 -0.0053 -0.1142
 8052SOL     OW35617   0.495   3.888   2.762 -0.7888  0.3613 -0.2336
 8052SOL    HW135618   0.526   3.934   2.683 -0.1304  0.1087 -0.1194
 8052SOL    HW235619   0.539   3.952   2.818 -1.5910  1.7761 -1.2018
 8053SOL     OW35620   4.288   2.021  11.436 -0.1956  0.3664  0.2441
 8053SOL    HW135621   4.289   1.958  11.364 -1.9051 -1.3784  1.7707
 8053SOL    HW235622   4.242   1.972  11.504  0.1410  1.5684  1.3520
 8054SOL     OW35623   1.949   2.961  16.237  0.2475 -0.0302 -0.1078
 8054SOL    HW135624   2.020   3.024  16.225 -0.4436  0.5343 -1.2083
 8054SOL    HW235625   1.999   2.885  16.207 -0.8383  0.4560 -3.1456
 8055SOL     OW35626   1.158   2.630   5.014 -0.2633 -0.2653  0.4227
 8055SOL    HW135627   1.248   2.661   5.027 -0.3870  0.2770 -0.0432
 8055SOL    HW235628   1.173   2.554   4.957 -0.0729  0.0339  0.0732
 8056SOL     OW35629   1.400   3.514   4.345  0.7554  0.1834  0.0094
 8056SOL    HW135630   1.353   3.573   4.286  1.2330  0.3511 -0.2050
 8056SOL    HW235631   1.490   3.522   4.314  0.6646 -1.2803 -0.6482
 8057SOL     OW35632   1.108   4.515   8.423  0.0339  0.4370 -0.2830
 8057SOL    HW135633   1.177   4.580   8.405 -1.5349  1.3846 -2.8623
 8057SOL    HW235634   1.099   4.487   8.332 -0.1797 -1.7012  0.3900
 8058SOL     OW35635   0.929   0.928  10.581  0.1372  0.4635  0.0235
 8058SOL    HW135636   0.917   0.906  10.673 -1.0525  2.3757  0.3293
 8058SOL    HW235637   0.994   0.863  10.554  1.0652  1.9400 -1.3494
 8059SOL     OW35638   0.367   3.641   5.728  0.1885 -0.2384  0.1559
 8059SOL    HW135639   0.290   3.661   5.674 -2.4836 -2.2086  3.1737
 8059SOL    HW235640   0.383   3.730   5.760 -1.7785 -0.5106  1.9414
 8060SOL     OW35641   4.170   1.557  11.014  0.0215  0.7710 -0.1474
 8060SOL    HW135642   4.131   1.599  11.091 -0.4375  0.7657 -0.3729
 8060SOL    HW235643   4.129   1.600  10.939 -0.5105 -2.4237 -1.7292
 8061SOL     OW35644   0.052   0.069   8.558  0.1012  0.0856  0.3335
 8061SOL    HW135645   4.686   0.087   8.535 -0.1937 -2.2253 -0.3294
 8061SOL    HW235646   0.041   4.704   8.589  0.7288  0.5005  1.7754
 8062SOL     OW35647   2.240   0.789   5.143  0.1052  0.0330 -0.5011
 8062SOL    HW135648   2.319   0.739   5.164  0.1882  1.0419  1.6001
 8062SOL    HW235649   2.176   0.719   5.128 -1.0885  0.8737  0.7398
 8063SOL     OW35650   0.456   4.354   4.124 -0.6920  0.3967 -0.3123
 8063SOL    HW135651   0.484   4.361   4.033  0.5747 -1.4690 -0.0721
 8063SOL    HW235652   0.540   4.381   4.161 -1.5145 -0.4782  2.2143
 8064SOL     OW35653   0.460   2.065   6.077 -0.1486  0.0960 -0.5257
 8064SOL    HW135654   0.509   1.988   6.050 -1.5045 -0.9821  0.0874
 8064SOL    HW235655   0.513   2.099   6.150  0.7721 -0.2001 -1.0512
 8065SOL     OW35656   0.153   3.449   1.574 -0.1002  0.1406 -0.4030
 8065SOL    HW135657   0.224   3.416   1.519  0.7064 -3.0264  2.5016
 8065SOL    HW235658   0.125   3.520   1.516 -2.1800 -1.4130 -1.2966
 8066SOL     OW35659   2.176   3.251   4.127 -0.0681 -0.1710 -0.6713
 8066SOL    HW135660   2.089   3.210   4.128 -0.3647  0.4370 -0.8815
 8066SOL    HW235661   2.172   3.284   4.037 -0.3146 -0.6206 -0.8254
 8067SOL     OW35662   0.491   2.803   7.878  0.2107  0.2237 -0.8374
 8067SOL    HW135663   0.396   2.807   7.870 -0.1844 -1.3300  2.7271
 8067SOL    HW235664   0.502   2.708   7.884 -1.9569 -0.0982 -1.7804
 8068SOL     OW35665   2.135   4.037  13.457 -0.1168 -0.0290  0.4357
 8068SOL    HW135666   2.088   3.961  13.422  1.1540  0.2176 -1.8104
 8068SOL    HW235667   2.228   4.022  13.442 -0.4876  0.3249 -2.3551
 8069SOL     OW35668   1.522   0.823  12.651 -0.1578  0.5309 -0.6240
 8069SOL    HW135669   1.576   0.803  12.727 -0.7794 -0.2453 -0.3932
 8069SOL    HW235670   1.534   0.918  12.643  0.5093  0.3991 -1.1668
 8070SOL     OW35671   1.480   0.011   8.592  0.3126  0.6775  0.1728
 8070SOL    HW135672   1.480   0.087   8.650 -0.2375  0.1625  0.8502
 8070SOL    HW235673   1.500   4.667   8.655  2.7046 -0.1949 -1.5840
 8071SOL     OW35674   3.330   4.723  14.572  0.4401  0.4101 -0.4141
 8071SOL    HW135675   3.387   0.065  14.533 -0.6502  1.6971  0.2212
 8071SOL    HW235676   3.260   4.715  14.507 -1.8316 -0.9522  2.2083
 8072SOL     OW35677   0.410   0.695   7.798 -0.2337  0.0831  0.2253
 8072SOL    HW135678   0.341   0.704   7.732  1.3262  0.7156 -1.3172
 8072SOL    HW235679   0.384   0.770   7.851 -2.8442 -1.7064  1.4934
 8073SOL     OW35680   0.658   1.290   7.780 -0.2397 -0.3148 -0.4251
 8073SOL    HW135681   0.638   1.280   7.873  1.0962 -0.2271 -0.1354
 8073SOL    HW235682   0.747   1.324   7.780  0.2316 -1.5612  2.0676
 8074SOL     OW35683   2.521   3.705   9.545  0.3305 -0.1208 -0.0411
 8074SOL    HW135684   2.458   3.752   9.600  1.6884 -2.5392  3.5665
 8074SOL    HW235685   2.515   3.619   9.585  0.2043 -0.4865 -0.8496
 8075SOL     OW35686   0.831   0.595   4.486 -0.2948  0.0020  0.0113
 8075SOL    HW135687   0.765   0.663   4.475  0.7654  0.9596 -0.4742
 8075SOL    HW235688   0.902   0.630   4.431 -0.4104 -0.2581 -0.3010
 8076SOL     OW35689   2.010   0.430   7.500  0.1233  0.1173  0.6586
 8076SOL    HW135690   1.930   0.479   7.480 -0.3011 -0.5617  0.6688
 8076SOL    HW235691   2.032   0.463   7.587 -1.6258  1.9239  0.4059
 8077SOL     OW35692   1.324   4.047  12.535 -0.5052  0.3071 -0.0951
 8077SOL    HW135693   1.348   4.126  12.584 -0.7407  1.2489 -1.5138
 8077SOL    HW235694   1.415   4.024  12.516 -0.6302 -0.6188  0.4227
 8078SOL     OW35695   1.765   4.037  14.035 -0.4136 -0.0719  0.3447
 8078SOL    HW135696   1.742   3.985  13.958  1.6993 -1.8370  0.9023
 8078SOL    HW235697   1.679   4.068  14.063 -0.5210  0.5685 -0.6815
 8079SOL     OW35698   2.623   3.707   7.397  0.0947  0.2632 -0.0535
 8079SOL    HW135699   2.681   3.645   7.441  0.5083  0.7002  0.0146
 8079SOL    HW235700   2.650   3.686   7.308  0.7039  1.0325 -0.0553
 8080SOL     OW35701   0.253   2.106  11.373  0.6684 -0.3139  0.3289
 8080SOL    HW135702   0.277   2.037  11.312 -1.3324  0.3180 -1.1679
 8080SOL    HW235703   0.315   2.175  11.347  0.4348 -0.7560 -1.3565
 8081SOL     OW35704   0.506   2.635   5.567  0.4526  0.4591  0.8461
 8081SOL    HW135705   0.422   2.662   5.529  0.1022  1.8820  2.6235
 8081SOL    HW235706   0.479   2.646   5.658 -0.0955 -1.5663  0.9290
 8082SOL     OW35707   4.094   2.029   0.751  0.3925 -0.1640  0.6427
 8082SOL    HW135708   4.000   2.043   0.763  0.4018  0.1077  0.3672
 8082SOL    HW235709   4.091   2.090   0.678  1.3512 -0.7399  0.1423
 8083SOL     OW35710   2.591   1.458  13.112 -0.4516  0.1304 -0.4247
 8083SOL    HW135711   2.626   1.395  13.175  0.7856  1.2222 -0.0163
 8083SOL    HW235712   2.535   1.520  13.159  0.5894  1.1296 -0.5152
 8084SOL     OW35713   3.781   4.368  10.459 -0.2660  0.2534 -0.2223
 8084SOL    HW135714   3.717   4.298  10.472  0.5803 -0.5338 -0.2706
 8084SOL    HW235715   3.809   4.379  10.550 -1.3074 -1.3819  0.3055
 8085SOL     OW35716   4.411   0.487   0.531  0.9749 -0.4237 -0.3671
 8085SOL    HW135717   4.438   0.414   0.587  0.3793 -0.6032 -0.3193
 8085SOL    HW235718   4.416   0.452   0.442  0.3798  0.1300 -0.6164
 8086SOL     OW35719   3.204   2.113   2.330 -0.3339 -0.1583  0.3140
 8086SOL    HW135720   3.160   2.066   2.259 -1.7690 -0.3366  1.3313
 8086SOL    HW235721   3.271   2.164   2.284 -0.0748  0.1366  1.0276
 8087SOL     OW35722   1.563   0.306   6.435  0.3223  0.1868  0.2731
 8087SOL    HW135723   1.627   0.266   6.494  0.3556 -0.4916 -0.2261
 8087SOL    HW235724   1.611   0.383   6.404  1.2584 -0.8720 -0.8923
 8088SOL     OW35725   4.679   0.491   7.325  0.2940  0.1928  0.2624
 8088SOL    HW135726   4.674   0.458   7.415 -0.7694  1.8110  0.7951
 8088SOL    HW235727   4.587   0.516   7.310 -0.1672 -0.5265  1.8565
 8089SOL     OW35728   3.631   0.693   4.025 -0.2029  0.1107  0.0323
 8089SOL    HW135729   3.559   0.631   4.011 -1.3109  1.1071  1.3895
 8089SOL    HW235730   3.631   0.726   3.935 -1.3000 -0.8145 -0.3089
 8090SOL     OW35731   1.035   3.971   0.487  0.1791  0.4576  0.7787
 8090SOL    HW135732   1.057   3.890   0.533 -0.4373  0.5958  1.3335
 8090SOL    HW235733   1.113   4.022   0.510  0.2769  1.0705 -0.9089
 8091SOL     OW35734   1.475   0.862   6.756  0.0521 -0.4081  0.0576
 8091SOL    HW135735   1.458   0.855   6.849 -1.9464 -1.0634 -0.3628
 8091SOL    HW235736   1.392   0.897   6.723 -0.1503 -0.6256  0.3405
 8092SOL     OW35737   4.352   3.453   8.955  0.6895  0.3758 -0.4858
 8092SOL    HW135738   4.427   3.510   8.971  0.4157  1.0133 -1.5353
 8092SOL    HW235739   4.395   3.368   8.965  0.6473  0.3840 -0.2250
 8093SOL     OW35740   3.559   3.863  17.243 -0.7049 -0.0952  0.0939
 8093SOL    HW135741   3.650   3.874  17.272 -0.7743  1.0012 -0.1314
 8093SOL    HW235742   3.549   3.923  17.169 -1.6499  0.9771  1.1057
 8094SOL     OW35743   3.159   3.041   8.978 -0.6031 -0.6684  0.3353
 8094SOL    HW135744   3.081   3.063   8.928 -1.1213  0.0427  1.4500
 8094SOL    HW235745   3.157   2.945   8.977  0.5775 -0.7179  1.2233
 8095SOL     OW35746   3.918   0.518   7.779 -0.1146  0.0852  0.5332
 8095SOL    HW135747   3.875   0.511   7.865 -0.9434 -0.0881  0.0997
 8095SOL    HW235748   3.897   0.609   7.757 -1.1448 -0.5922 -1.2716
 8096SOL     OW35749   4.369   1.600   6.724  0.2922  0.2277  0.2179
 8096SOL    HW135750   4.338   1.533   6.664  1.0317 -0.4059  0.5411
 8096SOL    HW235751   4.462   1.576   6.720 -0.1311 -0.9842 -1.8580
 8097SOL     OW35752   2.546   2.730   3.064  0.2543  0.3251 -0.3242
 8097SOL    HW135753   2.617   2.724   3.001  0.1357  2.8880 -0.7062
 8097SOL    HW235754   2.543   2.826   3.072  2.8805  0.5239 -1.9399
 8098SOL     OW35755   1.764   0.359   0.215 -0.4736 -0.5947  0.0387
 8098SOL    HW135756   1.692   0.319   0.166 -0.6144 -0.3793  0.0695
 8098SOL    HW235757   1.741   0.452   0.215 -0.0910 -0.5009  1.2709
 8099SOL     OW35758   2.665   1.408  13.467 -0.6824  0.4618  0.3368
 8099SOL    HW135759   2.675   1.486  13.413 -1.5201 -0.7814 -1.6202
 8099SOL    HW235760   2.572   1.389  13.452 -0.6566 -2.0476  3.4921
 8100SOL     OW35761   4.484   0.176   4.546  0.1961  0.0764 -0.5516
 8100SOL    HW135762   4.391   0.155   4.535 -0.0904  0.6642  0.7986
 8100SOL    HW235763   4.531   0.104   4.504 -0.0938 -1.3173  1.5286
 8101SOL     OW35764   2.999   4.552  11.237  0.1341 -0.2566 -0.6308
 8101SOL    HW135765   2.938   4.498  11.188 -1.2067  0.2061  0.5276
 8101SOL    HW235766   2.962   4.639  11.222 -1.4012 -1.1081 -1.7328
 8102SOL     OW35767   2.732   0.350   7.775  0.2182  0.3531  0.3838
 8102SOL    HW135768   2.753   0.439   7.803  0.7166 -0.4119  2.4258
 8102SOL    HW235769   2.810   0.305   7.809  1.0102  0.9135 -0.7073
 8103SOL     OW35770   3.478   4.130   1.102 -0.0196  0.3812 -1.1970
 8103SOL    HW135771   3.479   4.047   1.056 -0.9107 -0.8222  0.9771
 8103SOL    HW235772   3.538   4.106   1.173 -1.3467  1.0354  0.1516
 8104SOL     OW35773   4.392   3.464   6.703  0.1657  0.2350 -0.0942
 8104SOL    HW135774   4.449   3.539   6.721 -0.2317  0.5156 -0.0162
 8104SOL    HW235775   4.463   3.402   6.682 -2.4361 -2.4939 -0.8268
 8105SOL     OW35776   2.343   0.707  11.072 -0.4596  0.4411 -0.0310
 8105SOL    HW135777   2.378   0.758  11.145  1.2793 -0.9617  0.1223
 8105SOL    HW235778   2.430   0.678  11.045 -0.1986  0.4091  0.8434
 8106SOL     OW35779   0.913   0.928  14.258 -0.1005 -0.2630 -0.5739
 8106SOL    HW135780   0.971   0.978  14.200 -0.2383 -0.9017 -1.2619
 8106SOL    HW235781   0.872   0.992  14.316 -0.8357  0.0617 -1.4490
 8107SOL     OW35782   0.631   4.359  11.075 -0.0612  0.0912  0.5448
 8107SOL    HW135783   0.544   4.386  11.106  0.5129  1.2438  1.1560
 8107SOL    HW235784   0.686   4.397  11.144  0.3386 -1.7611  1.2339
 8108SOL     OW35785   2.336   3.494   3.447 -0.0292 -0.7165  0.0301
 8108SOL    HW135786   2.374   3.550   3.380  0.8816 -2.5167 -0.9570
 8108SOL    HW235787   2.297   3.417   3.406 -0.8670  0.3501 -1.1861
 8109SOL     OW35788   2.759   0.329  14.770  0.0571 -0.2536  0.6056
 8109SOL    HW135789   2.700   0.267  14.727 -0.3252  0.5247  0.0122
 8109SOL    HW235790   2.708   0.409  14.767  2.3034  1.1412 -0.1732
 8110SOL     OW35791   4.173   3.030   0.826  0.4244  0.3284  0.6720
 8110SOL    HW135792   4.097   3.051   0.772  0.3549 -3.4969 -0.7118
 8110SOL    HW235793   4.140   2.963   0.886 -1.6334 -1.3646 -2.3596
 8111SOL     OW35794   0.990   3.198   0.182  0.2346  0.0909  0.2508
 8111SOL    HW135795   1.012   3.122   0.236  0.4025  1.1568  1.6578
 8111SOL    HW235796   1.024   3.168   0.097  0.9128  2.7151 -0.4023
 8112SOL     OW35797   2.782   4.663   0.903 -0.0038 -0.1844 -0.1960
 8112SOL    HW135798   2.759   0.023   0.939 -1.4539 -0.5325 -0.2913
 8112SOL    HW235799   2.742   4.609   0.971  0.6027  1.2408  1.3084
 8113SOL     OW35800   0.482   4.519   2.403 -0.2646  0.4388  0.0358
 8113SOL    HW135801   0.571   4.482   2.406 -1.0204 -1.3503  0.2951
 8113SOL    HW235802   0.455   4.505   2.312 -0.0770 -2.9895  0.4818
 8114SOL     OW35803   0.583   3.023   7.054 -0.2058 -0.0160 -0.1622
 8114SOL    HW135804   0.597   2.976   6.972 -0.3944 -1.4706  0.6376
 8114SOL    HW235805   0.639   3.098   7.035 -0.8718 -0.1979 -2.8418
 8115SOL     OW35806   0.869   1.953   3.923 -0.2462 -0.0989  0.1643
 8115SOL    HW135807   0.948   1.993   3.961 -0.0085 -0.5331  0.1320
 8115SOL    HW235808   0.856   1.994   3.837 -2.2220 -3.1059 -0.9669
 8116SOL     OW35809   2.137   2.679  15.067 -0.2804 -0.2368 -0.2582
 8116SOL    HW135810   2.061   2.695  15.010 -1.2516  1.0502  1.4163
 8116SOL    HW235811   2.182   2.611  15.017 -0.8223 -1.1331  0.4723
 8117SOL     OW35812   3.931   0.997   3.968  0.3271  0.4659  0.3399
 8117SOL    HW135813   4.004   1.053   3.994  0.7325 -0.7928  1.8957
 8117SOL    HW235814   3.891   0.989   4.054 -2.3273 -0.0761 -0.9462
 8118SOL     OW35815   4.342   4.557  12.037 -0.1043 -0.1161  0.2950
 8118SOL    HW135816   4.386   4.613  12.101 -1.6450  1.8370 -0.3170
 8118SOL    HW235817   4.282   4.622  12.000 -0.6262 -1.1705 -0.7102
 8119SOL     OW35818   3.865   2.203   5.062 -1.0526 -0.4542 -0.1448
 8119SOL    HW135819   3.942   2.189   5.007  0.0081  2.0515  0.7157
 8119SOL    HW235820   3.797   2.162   5.008  0.1860 -0.9742 -1.3078
 8120SOL     OW35821   0.290   0.091   4.974 -0.1084 -0.2368  0.4533
 8120SOL    HW135822   0.369   0.142   4.993 -1.4484  0.7470  3.3557
 8120SOL    HW235823   0.307   0.021   5.036  0.7765 -1.9644 -1.7119
 8121SOL     OW35824   3.651   0.035   2.637  0.0960 -0.4961  0.0984
 8121SOL    HW135825   3.737   4.723   2.655 -0.9989 -2.2048  1.7565
 8121SOL    HW235826   3.601   4.691   2.596  2.4439 -2.2414  0.1887
 8122SOL     OW35827   2.126   4.660   0.197  0.2932 -0.4854  0.0689
 8122SOL    HW135828   2.099   4.720   0.127 -0.9834 -0.9194  0.1822
 8122SOL    HW235829   2.133   0.002   0.265 -1.7631 -2.0302  1.8083
 8123SOL     OW35830   4.206   1.503   7.204  0.0424  0.2337 -0.6075
 8123SOL    HW135831   4.133   1.492   7.265  0.4718 -1.2233 -0.3493
 8123SOL    HW235832   4.219   1.413   7.174 -0.0661 -0.8799  2.7241
 8124SOL     OW35833   0.072   2.379   6.679  0.5843 -0.7610 -0.1756
 8124SOL    HW135834   0.052   2.447   6.615  0.1452 -1.7039 -1.0436
 8124SOL    HW235835   0.082   2.426   6.761  1.2731 -1.3685  0.0882
 8125SOL     OW35836   1.024   1.857   2.296 -0.2176  0.1358 -0.2514
 8125SOL    HW135837   1.092   1.849   2.229  1.0965  3.7799  0.6571
 8125SOL    HW235838   1.058   1.805   2.368  0.7632 -0.6058 -1.2492
 8126SOL     OW35839   3.931   4.154   7.929 -0.6749 -0.7394 -0.1519
 8126SOL    HW135840   3.853   4.113   7.966  0.7108 -1.3142  2.1311
 8126SOL    HW235841   3.912   4.143   7.835 -2.0867  0.1066  0.0268
 8127SOL     OW35842   0.261   0.537  16.163  0.1679  0.7059 -0.1864
 8127SOL    HW135843   0.310   0.461  16.194  2.2528  1.2228 -2.2671
 8127SOL    HW235844   0.202   0.493  16.102  1.3346  1.0301 -1.5234
 8128SOL     OW35845   2.514   4.458  11.074 -0.1675  0.0186 -0.4750
 8128SOL    HW135846   2.527   4.364  11.064 -1.0063  0.0058 -1.3395
 8128SOL    HW235847   2.439   4.469  11.133 -0.7615 -2.5249 -0.7905
 8129SOL     OW35848   0.875   2.698  11.061 -0.4726  0.2525  0.6177
 8129SOL    HW135849   0.947   2.676  11.120 -0.0452  0.1066  0.0378
 8129SOL    HW235850   0.799   2.670  11.113 -1.6384  3.1253  0.4450
 8130SOL     OW35851   3.096   2.433   4.661 -0.9103  0.3140 -1.0333
 8130SOL    HW135852   3.157   2.453   4.590  1.3288  0.1213  0.8314
 8130SOL    HW235853   3.027   2.377   4.625 -2.4021  2.4673 -1.4897
 8131SOL     OW35854   1.417   1.753  13.118 -0.1530 -0.1930  0.0864
 8131SOL    HW135855   1.447   1.842  13.102 -0.3549 -0.0200  0.6928
 8131SOL    HW235856   1.327   1.780  13.136  0.8155  2.1816  1.2692
 8132SOL     OW35857   0.162   1.377   2.578 -0.1007  0.3851 -0.1100
 8132SOL    HW135858   0.155   1.309   2.645 -1.4306  0.3027 -0.3310
 8132SOL    HW235859   0.124   1.444   2.635 -1.6764 -1.0060  0.4765
 8133SOL     OW35860   2.660   2.773   9.735  0.3330  0.4061 -0.0434
 8133SOL    HW135861   2.636   2.713   9.665  1.6231 -1.0194  0.7188
 8133SOL    HW235862   2.571   2.797   9.759 -0.0013  1.6219 -2.4807
 8134SOL     OW35863   2.352   3.970  10.621 -0.3413  0.0848 -0.2750
 8134SOL    HW135864   2.285   3.904  10.603 -2.1458  1.6385  0.7008
 8134SOL    HW235865   2.347   4.016  10.537 -0.9196 -1.4881 -1.0956
 8135SOL     OW35866   3.162   1.363  13.652 -0.3715  0.2181 -0.6895
 8135SOL    HW135867   3.084   1.418  13.647 -0.0200  0.7739  0.0907
 8135SOL    HW235868   3.233   1.427  13.653 -0.8309  0.6528  3.0391
 8136SOL     OW35869   4.475   1.753   4.169  0.2123 -0.0506  0.8210
 8136SOL    HW135870   4.519   1.762   4.084 -1.0812  1.5781  0.3308
 8136SOL    HW235871   4.465   1.659   4.184 -0.9366  0.0164  0.4936
 8137SOL     OW35872   2.835   0.909   8.866 -0.4226  0.1114 -0.0724
 8137SOL    HW135873   2.812   0.823   8.831 -1.2444 -0.4885  1.9253
 8137SOL    HW235874   2.764   0.965   8.834  0.0716 -0.7796 -2.6967
 8138SOL     OW35875   3.386   3.412   4.143 -0.0217  0.5660  0.0467
 8138SOL    HW135876   3.413   3.438   4.231 -1.5123 -0.9101  0.9537
 8138SOL    HW235877   3.356   3.491   4.098  0.0733 -0.6354 -2.1587
 8139SOL     OW35878   3.342   0.419  14.547 -0.7255  0.1928  0.2340
 8139SOL    HW135879   3.352   0.344  14.488 -0.7521 -0.0109  0.4859
 8139SOL    HW235880   3.247   0.422  14.559 -0.6301  3.0443  0.3277
 8140SOL     OW35881   2.571   0.653  10.918 -0.0600 -0.5532 -0.2528
 8140SOL    HW135882   2.602   0.631  10.831  1.2336 -1.1746  0.3654
 8140SOL    HW235883   2.612   0.578  10.961  0.2567  0.5333  1.3345
 8141SOL     OW35884   1.164   1.136   5.961 -0.0647  0.0521  0.0142
 8141SOL    HW135885   1.194   1.074   5.895 -1.5728 -1.0906  0.4176
 8141SOL    HW235886   1.124   1.076   6.024 -2.0905  2.6878  1.2325
 8142SOL     OW35887   2.981   2.059  17.312  0.1066 -0.0358 -0.5831
 8142SOL    HW135888   3.042   2.000  17.356 -1.6596 -0.9613  0.6627
 8142SOL    HW235889   2.901   2.055  17.365 -0.5338  0.7772 -1.5095
 8143SOL     OW35890   2.601   2.286   3.554 -0.7507 -0.4606 -0.6118
 8143SOL    HW135891   2.644   2.229   3.491  1.0531  1.3991 -1.0746
 8143SOL    HW235892   2.611   2.371   3.511  1.0510  0.2034  1.1302
 8144SOL     OW35893   2.188   3.115  16.225  0.2338  0.0265 -0.5808
 8144SOL    HW135894   2.240   3.121  16.145 -0.8265 -0.2282 -1.3009
 8144SOL    HW235895   2.190   3.205  16.257 -0.0157  0.0281 -0.5701
 8145SOL     OW35896   1.289   4.057   3.374  0.0633 -0.4296 -0.1852
 8145SOL    HW135897   1.367   4.009   3.348  0.8434  0.3650  0.7165
 8145SOL    HW235898   1.224   4.026   3.310 -0.7486  1.3609 -0.2483
 8146SOL     OW35899   2.857   2.955   7.324 -0.5793 -0.0494 -0.0616
 8146SOL    HW135900   2.848   2.915   7.411  0.0220  3.0172  1.4204
 8146SOL    HW235901   2.891   3.041   7.347  1.5745 -0.9622  0.1543
 8147SOL     OW35902   4.186   1.343   9.329 -0.0676 -0.2986 -0.3132
 8147SOL    HW135903   4.160   1.337   9.237  0.7419  3.0975 -0.7357
 8147SOL    HW235904   4.271   1.301   9.313  0.2461  1.0053 -2.0976
 8148SOL     OW35905   4.537   1.108   5.269  0.3557  0.0906  0.0369
 8148SOL    HW135906   4.630   1.086   5.275  0.3703  0.1405 -0.0094
 8148SOL    HW235907   4.548   1.199   5.295 -0.6241  0.8356 -2.1591
 8149SOL     OW35908   3.459   3.367   8.948  0.1336 -0.1945  0.0631
 8149SOL    HW135909   3.434   3.322   9.028  0.5185 -1.6902 -0.6666
 8149SOL    HW235910   3.376   3.363   8.901  1.7729 -0.4454 -2.8059
 8150SOL     OW35911   3.300   0.596   4.965 -0.2347  0.1141  0.1231
 8150SOL    HW135912   3.280   0.503   4.953  1.4512 -0.3680  1.1791
 8150SOL    HW235913   3.211   0.626   4.945 -0.0839  0.9087  0.6451
 8151SOL     OW35914   0.142   2.823   1.593 -0.6964  0.3135 -0.1768
 8151SOL    HW135915   0.066   2.765   1.605  0.1583 -0.9832 -0.9727
 8151SOL    HW235916   0.155   2.817   1.499 -2.5803  3.0070 -0.6176
 8152SOL     OW35917   4.252   4.645   5.478  0.5600 -0.4227 -0.1673
 8152SOL    HW135918   4.266   0.007   5.513  0.8932 -0.1468 -0.9875
 8152SOL    HW235919   4.266   4.645   5.383  0.5031  0.3132 -0.1707
 8153SOL     OW35920   1.777   4.199   7.870 -0.0584  0.4261 -0.4055
 8153SOL    HW135921   1.748   4.244   7.790  0.5981  1.9491  0.2111
 8153SOL    HW235922   1.704   4.216   7.929 -1.6778 -2.8535 -1.4784
 8154SOL     OW35923   3.788   1.971   3.575  0.0042  0.1569 -0.0370
 8154SOL    HW135924   3.805   1.992   3.667 -0.5646  0.2463  0.0484
 8154SOL    HW235925   3.820   2.053   3.538 -1.5421 -0.2823 -2.3699
 8155SOL     OW35926   3.408   2.404   8.952 -0.5563 -0.0789  0.6139
 8155SOL    HW135927   3.416   2.370   9.041 -3.5393 -2.6265 -0.0756
 8155SOL    HW235928   3.501   2.411   8.931 -0.3811 -1.0304  1.0982
 8156SOL     OW35929   3.714   3.369   4.413 -0.3800  0.1098 -0.2224
 8156SOL    HW135930   3.726   3.298   4.475 -1.5054  0.1519  0.0444
 8156SOL    HW235931   3.649   3.425   4.456 -1.4559 -1.2934 -0.0570
 8157SOL     OW35932   0.822   0.601   8.685  0.2813 -0.4886 -0.5141
 8157SOL    HW135933   0.727   0.596   8.671  0.2840  0.2428 -0.8021
 8157SOL    HW235934   0.832   0.548   8.606  0.8615 -0.2214 -0.6154
 8158SOL     OW35935   1.362   1.663   4.069  0.5266  0.1525 -0.1043
 8158SOL    HW135936   1.348   1.579   4.112  2.6706  0.2109  0.6719
 8158SOL    HW235937   1.364   1.633   3.978 -2.3647  1.2395 -0.5269
 8159SOL     OW35938   1.469   4.183   1.283  0.0354 -0.0998  0.0947
 8159SOL    HW135939   1.549   4.216   1.325  0.9628  0.6162 -2.2347
 8159SOL    HW235940   1.445   4.259   1.229 -1.2317 -0.9369 -0.5242
 8160SOL     OW35941   4.641   2.556  13.151  0.3780 -0.1656 -0.3144
 8160SOL    HW135942   4.695   2.578  13.227  0.7365  0.7712 -0.8453
 8160SOL    HW235943   4.673   2.469  13.126  2.4766  0.4809  0.1770
 8161SOL     OW35944   3.387   2.631   7.547 -0.0492 -0.0141  1.0391
 8161SOL    HW135945   3.398   2.684   7.468 -1.0671  0.0623  0.9581
 8161SOL    HW235946   3.320   2.567   7.526 -0.2898  0.5032  0.2455
 8162SOL     OW35947   2.064   1.071   0.855  0.6703 -0.3461 -0.6543
 8162SOL    HW135948   1.998   1.120   0.806  2.7598  1.5380 -1.6252
 8162SOL    HW235949   2.014   1.059   0.935  1.8240  0.6191  0.2186
 8163SOL     OW35950   2.565   1.881  16.938  0.4313  0.1436 -0.2911
 8163SOL    HW135951   2.646   1.932  16.934  1.4494 -1.4716 -0.2670
 8163SOL    HW235952   2.585   1.845  16.852 -3.5648 -3.3270  0.2620
 8164SOL     OW35953   4.446   4.670  14.139 -0.1307 -0.1487 -0.0075
 8164SOL    HW135954   4.407   0.008  14.199  2.7873  1.8482 -0.2080
 8164SOL    HW235955   4.430   4.709  14.054  1.9072  0.2312 -0.2288
 8165SOL     OW35956   3.731   2.448   0.184 -0.2316  0.4338 -0.2193
 8165SOL    HW135957   3.643   2.430   0.218  0.7567 -2.0969  0.9954
 8165SOL    HW235958   3.768   2.363   0.159 -0.4218  0.8209 -1.8075
 8166SOL     OW35959   0.861   2.070  10.566 -0.4402 -0.1736  0.4331
 8166SOL    HW135960   0.940   2.018  10.581 -0.5941 -0.0822  1.5222
 8166SOL    HW235961   0.880   2.107  10.479 -1.1919 -2.1531 -0.5887
 8167SOL     OW35962   4.655   1.210   7.148  0.0282  0.2835 -0.3649
 8167SOL    HW135963   4.584   1.207   7.211  1.2499 -0.5375  0.9852
 8167SOL    HW235964   4.665   1.116   7.130 -0.9966 -0.4798  3.0131
 8168SOL     OW35965   2.675   0.421  15.022 -0.2711  0.3165  0.1307
 8168SOL    HW135966   2.728   0.491  15.060  1.3754  0.1412 -1.8035
 8168SOL    HW235967   2.740   0.403  14.954 -1.0140  0.6553 -0.6664
 8169SOL     OW35968   4.428   1.071   2.188  0.0418 -0.3272  0.0484
 8169SOL    HW135969   4.444   0.982   2.220 -0.9406 -0.1365  1.0825
 8169SOL    HW235970   4.354   1.049   2.130 -0.6402 -1.5664  1.3706
 8170SOL     OW35971   4.629   1.365   4.015 -0.2556 -0.3048 -0.0527
 8170SOL    HW135972   4.622   1.275   3.984  1.0575 -0.4320  0.0359
 8170SOL    HW235973   4.550   1.401   3.973  0.0814  0.4859 -0.0048
 8171SOL     OW35974   2.084   1.920   4.945  0.1185  0.5007  0.3040
 8171SOL    HW135975   2.044   1.992   4.896  4.0259  1.5764 -1.3105
 8171SOL    HW235976   2.094   1.950   5.035 -1.2386  2.6348 -0.2569
 8172SOL     OW35977   4.665   1.667  11.094  1.0744  0.3987 -0.1657
 8172SOL    HW135978   4.590   1.665  11.035  1.0989  0.5230 -0.2011
 8172SOL    HW235979   4.630   1.627  11.173 -1.3409 -1.5449 -2.2436
 8173SOL     OW35980   3.640   4.307   3.739 -0.0612 -0.2347  0.6236
 8173SOL    HW135981   3.586   4.323   3.816 -1.5914  1.3669 -0.7852
 8173SOL    HW235982   3.622   4.213   3.732 -0.6475 -0.1146  0.5231
 8174SOL     OW35983   3.302   4.067   7.605 -0.6567 -0.1963  0.3152
 8174SOL    HW135984   3.217   4.044   7.642 -1.3117 -0.7836 -1.5847
 8174SOL    HW235985   3.284   4.153   7.569  0.6098  0.0664  0.2977
 8175SOL     OW35986   2.697   2.895   8.780  0.0724  0.2159  0.2209
 8175SOL    HW135987   2.631   2.914   8.714  1.9672  1.5790 -1.2866
 8175SOL    HW235988   2.654   2.932   8.857  1.0286  1.8910 -0.0635
 8176SOL     OW35989   3.002   3.882   8.558  0.2438  0.3768  0.4601
 8176SOL    HW135990   2.999   3.903   8.465  1.9199 -1.8417 -0.0959
 8176SOL    HW235991   3.036   3.792   8.565 -1.6469 -0.3216  0.7956
 8177SOL     OW35992   4.262   3.008   6.397  0.2870 -0.3141  0.3258
 8177SOL    HW135993   4.255   2.958   6.316 -0.6505 -1.2576  0.9900
 8177SOL    HW235994   4.352   3.038   6.383 -0.3269 -0.1862 -3.4398
 8178SOL     OW35995   0.761   2.751  10.290 -0.6390  0.5117 -0.3583
 8178SOL    HW135996   0.747   2.660  10.266  0.1910  0.2980 -0.0360
 8178SOL    HW235997   0.761   2.741  10.385 -1.4201  0.7056 -0.3415
 8179SOL     OW35998   2.300   0.947   0.010  0.0353  0.4924  0.0618
 8179SOL    HW135999   2.332   0.869  17.668 -4.6811 -0.5970 -1.4343
 8179SOL    HW236000   2.339   0.941   0.098 -0.8299 -1.1898  0.3201
 8180SOL     OW36001   4.629   1.151  16.672 -0.4609 -0.2434  0.6008
 8180SOL    HW136002   4.661   1.210  16.603  0.6200 -0.9440  0.4938
 8180SOL    HW236003   4.535   1.140  16.662 -0.0502 -2.3373 -1.0197
 8181SOL     OW36004   0.220   3.915  12.801  0.3743  0.0815 -0.0507
 8181SOL    HW136005   0.238   3.995  12.752  0.8190  1.5790  2.5423
 8181SOL    HW236006   0.216   3.861  12.722  1.8100 -1.3131  0.8279
 8182SOL     OW36007   2.049   1.549   9.596 -0.1220 -0.2569  0.2467
 8182SOL    HW136008   1.996   1.488   9.647  0.6546  0.8716  2.4192
 8182SOL    HW236009   2.047   1.623   9.656  3.4710 -0.4138  0.5741
 8183SOL     OW36010   4.281   0.018   3.637  0.2069 -0.7914 -0.2445
 8183SOL    HW136011   4.290   4.675   3.704  1.6975 -1.4260 -1.1036
 8183SOL    HW236012   4.239   4.698   3.563  0.0171 -0.0319 -0.6077
 8184SOL     OW36013   0.700   0.108   4.462  0.0411 -0.3948  0.0024
 8184SOL    HW136014   0.755   0.079   4.390 -0.9659 -2.1829 -0.0398
 8184SOL    HW236015   0.707   0.203   4.453  1.9931 -0.5928 -0.7420
 8185SOL     OW36016   4.354   1.666   0.731 -0.8677 -0.3537  0.4871
 8185SOL    HW136017   4.438   1.691   0.691 -0.7989 -1.9957 -0.3788
 8185SOL    HW236018   4.347   1.574   0.707  3.5240 -0.3431 -0.8561
 8186SOL     OW36019   3.448   0.486  11.363  0.0338  0.2439 -0.4443
 8186SOL    HW136020   3.396   0.565  11.352  1.6842  1.0718 -2.1577
 8186SOL    HW236021   3.430   0.466  11.455 -1.3979  1.0539 -0.5468
 8187SOL     OW36022   0.516   0.686   2.602  0.5801 -0.3543  0.8709
 8187SOL    HW136023   0.520   0.591   2.595  2.5586 -0.1179 -1.1599
 8187SOL    HW236024   0.463   0.698   2.681 -0.3339  0.3195  0.1505
 8188SOL     OW36025   0.260   2.497  11.739  0.5987 -0.2969 -0.6376
 8188SOL    HW136026   0.288   2.559  11.806  1.4164  0.0304 -1.2847
 8188SOL    HW236027   0.177   2.458  11.768  0.4557  1.5413  1.4465
 8189SOL     OW36028   4.619   1.482   2.264 -0.3987 -0.5649 -0.1601
 8189SOL    HW136029   4.579   1.396   2.278  0.0329 -0.5789  0.9830
 8189SOL    HW236030   4.543   1.522   2.222  0.2478 -0.6930 -1.4617
 8190SOL     OW36031   1.050   2.768  14.189 -0.1562 -0.0228 -0.0660
 8190SOL    HW136032   1.144   2.770  14.210 -0.2928  0.1279  0.5509
 8190SOL    HW236033   1.044   2.845  14.132 -3.1284 -1.0948 -1.1594
 8191SOL     OW36034   4.164   4.466  13.523  0.5899  0.3433 -0.0670
 8191SOL    HW136035   4.069   4.465  13.535  0.8086  1.1712  1.7530
 8191SOL    HW236036   4.196   4.511  13.601  0.2840  0.8854 -0.2540
 8192SOL     OW36037   1.967   0.723   5.290 -0.2263  0.3096 -0.7187
 8192SOL    HW136038   1.962   0.778   5.368 -0.8020 -1.6475  0.6335
 8192SOL    HW236039   2.018   0.649   5.324 -3.7610 -2.3897 -1.3734
 8193SOL     OW36040   0.175   0.803   3.211  0.3622 -0.0305  0.4564
 8193SOL    HW136041   0.147   0.717   3.244 -0.3078  0.2929  0.7407
 8193SOL    HW236042   0.156   0.864   3.282  0.7886 -0.0581  0.5940
 8194SOL     OW36043   2.338   0.475  14.776 -0.1184  0.0682 -0.1151
 8194SOL    HW136044   2.358   0.391  14.735  0.5590  0.6115 -0.9079
 8194SOL    HW236045   2.420   0.525  14.770  0.0484 -0.2518 -0.5382
 8195SOL     OW36046   1.308   4.717   5.671 -0.1306 -0.2657  0.0156
 8195SOL    HW136047   1.369   0.001   5.745  0.3440  1.3514 -0.5894
 8195SOL    HW236048   1.262   0.075   5.677  3.4011  1.5027  2.6917
 8196SOL     OW36049   0.019   0.596   2.023  0.0944 -0.2662  0.3428
 8196SOL    HW136050   4.657   0.593   1.982  0.4452  0.7012 -0.4590
 8196SOL    HW236051   0.050   0.506   2.010 -0.7547 -0.3454 -1.2023
 8197SOL     OW36052   4.722   1.960   1.348  0.0057  0.5706  0.3742
 8197SOL    HW136053   0.028   1.872   1.367  0.0890 -0.1250 -2.9856
 8197SOL    HW236054   4.652   1.954   1.283 -1.0512  2.4487  1.3216
 8198SOL     OW36055   2.798   4.433   7.029  0.1836 -0.3684  0.1909
 8198SOL    HW136056   2.764   4.346   7.011  3.8912 -1.6897 -0.3819
 8198SOL    HW236057   2.788   4.468   6.941 -1.6198 -3.3279 -0.7603
 8199SOL     OW36058   0.716   1.729   7.560 -0.7306  0.6352 -0.2196
 8199SOL    HW136059   0.741   1.639   7.540 -1.5036  0.4950 -0.5345
 8199SOL    HW236060   0.622   1.722   7.578 -0.7188  0.2583 -0.3093
 8200SOL     OW36061   4.720   3.256   3.773  0.1805 -0.2234 -0.2776
 8200SOL    HW136062   4.631   3.233   3.799  1.0123 -1.9608  1.0919
 8200SOL    HW236063   4.697   3.260   3.681  0.6977 -0.0018 -0.3965
 8201SOL     OW36064   1.423   2.944   8.549 -0.0967  0.2253 -0.0039
 8201SOL    HW136065   1.459   2.861   8.519 -2.6224 -1.3298  1.2769
 8201SOL    HW236066   1.359   2.960   8.480 -0.2592 -0.6211 -0.0481
 8202SOL     OW36067   4.009   3.581   8.343  0.4457 -0.6151 -0.0972
 8202SOL    HW136068   4.052   3.570   8.428  1.6157 -1.3052 -0.7699
 8202SOL    HW236069   4.079   3.564   8.279 -0.2781 -1.4538 -0.6636
 8203SOL     OW36070   0.538   4.404  14.752 -0.2765 -0.1860 -0.2110
 8203SOL    HW136071   0.480   4.434  14.682 -0.5870 -0.6598 -0.1511
 8203SOL    HW236072   0.582   4.483  14.784 -1.5871  0.5710 -0.2746
 8204SOL     OW36073   2.377   4.129  14.741  0.5239  0.2360 -0.0806
 8204SOL    HW136074   2.375   4.073  14.664  2.0445  1.7156 -1.2034
 8204SOL    HW236075   2.459   4.175  14.724  0.4212  0.6597  0.5483
 8205SOL     OW36076   0.002   2.729   2.346 -0.4539 -0.1915  0.1024
 8205SOL    HW136077   4.719   2.736   2.441  2.2526  0.4174  0.2662
 8205SOL    HW236078   0.096   2.730   2.328 -0.6990  0.7883 -1.1142
 8206SOL     OW36079   2.178   3.880   3.299 -0.2166  0.8866  0.8612
 8206SOL    HW136080   2.112   3.822   3.261 -0.5726  0.8990  1.4668
 8206SOL    HW236081   2.258   3.831   3.283 -0.2587  1.3861 -0.8794
 8207SOL     OW36082   0.028   1.892   7.376  0.1643 -0.1044  0.0635
 8207SOL    HW136083   0.111   1.930   7.348  0.0959 -0.0390 -0.0530
 8207SOL    HW236084   0.005   1.829   7.307 -1.4412 -0.9463  1.3554
 8208SOL     OW36085   1.784   4.181  13.737  0.7954 -0.4580  0.3138
 8208SOL    HW136086   1.716   4.170  13.803  0.5004 -1.3598 -0.1355
 8208SOL    HW236087   1.861   4.188  13.793  0.1550  2.7706  0.7519
 8209SOL     OW36088   1.064   2.928   9.741 -0.7103  0.2851 -0.1874
 8209SOL    HW136089   0.995   2.977   9.787 -2.1188 -1.7640 -0.1404
 8209SOL    HW236090   1.016   2.848   9.720  1.0461 -0.1777 -2.4230
 8210SOL     OW36091   2.314   0.421   4.415 -0.6391 -0.0272 -0.0075
 8210SOL    HW136092   2.221   0.401   4.407 -1.5760  3.5980  1.6959
 8210SOL    HW236093   2.333   0.454   4.326 -2.6668  2.2105  0.3766
 8211SOL     OW36094   2.467   2.865   4.504 -0.1879  0.5178  0.3667
 8211SOL    HW136095   2.388   2.814   4.517  0.7961 -1.2824 -0.7104
 8211SOL    HW236096   2.527   2.809   4.554 -0.5591  2.0222  2.5052
 8212SOL     OW36097   2.057   4.462   8.528 -0.3325  1.0457 -0.2733
 8212SOL    HW136098   2.126   4.439   8.466  0.1302  1.8147 -0.0387
 8212SOL    HW236099   1.980   4.438   8.476 -1.2171  0.5061  1.2913
 8213SOL     OW36100   2.985   2.455  12.255  0.5758 -0.2356  0.1557
 8213SOL    HW136101   2.944   2.482  12.338 -1.2890 -1.3431 -0.4018
 8213SOL    HW236102   3.025   2.535  12.219  2.2705 -1.7960 -1.4069
 8214SOL     OW36103   0.614   1.838   8.206  0.1538  0.2329  0.3242
 8214SOL    HW136104   0.622   1.881   8.121  0.2717 -0.8535 -0.2111
 8214SOL    HW236105   0.704   1.858   8.231  1.2983 -2.5353 -1.5795
 8215SOL     OW36106   0.868   1.672   2.733  0.6101  0.4106  0.2616
 8215SOL    HW136107   0.820   1.663   2.651 -2.8740  1.3085  2.2158
 8215SOL    HW236108   0.860   1.768   2.733  1.5345  0.4896  0.2926
 8216SOL     OW36109   3.601   3.366   2.231 -0.0006 -0.3076 -0.4159
 8216SOL    HW136110   3.611   3.400   2.319 -0.8966 -0.8005 -0.1224
 8216SOL    HW236111   3.659   3.425   2.184 -0.8662 -0.0493 -1.1661
 8217SOL     OW36112   1.111   3.518   3.232  0.1718 -0.0092  0.3169
 8217SOL    HW136113   1.175   3.502   3.301 -0.6532 -0.5430  0.9532
 8217SOL    HW236114   1.168   3.534   3.157 -1.0000 -0.1685 -0.6162
 8218SOL     OW36115   3.089   3.973   3.084  0.2057 -0.1765 -0.5220
 8218SOL    HW136116   3.057   4.024   3.010  0.7304  1.6565  0.5120
 8218SOL    HW236117   3.182   3.997   3.078  0.4484 -0.8753  0.3137
 8219SOL     OW36118   0.903   0.662   5.405  0.0624  0.3179 -0.1899
 8219SOL    HW136119   0.833   0.599   5.390 -0.3765  0.9221 -0.6578
 8219SOL    HW236120   0.891   0.735   5.345 -1.1547 -0.1172 -0.4805
 8220SOL     OW36121   4.316   0.220   4.966 -0.0619 -0.4582  0.2827
 8220SOL    HW136122   4.265   0.224   4.885  2.1469 -0.3369 -1.1008
 8220SOL    HW236123   4.264   0.249   5.040 -2.2513  0.0976 -1.4447
 8221SOL     OW36124   3.396   0.330  13.454 -0.1552  0.3123 -0.3856
 8221SOL    HW136125   3.436   0.398  13.509 -1.5286  1.8004 -1.1934
 8221SOL    HW236126   3.469   0.271  13.437 -0.3370 -0.7075  2.2796
 8222SOL     OW36127   3.474   1.787  11.096 -0.2363  0.4774 -0.7313
 8222SOL    HW136128   3.504   1.861  11.149 -1.0132  0.9527 -0.9496
 8222SOL    HW236129   3.453   1.726  11.167 -0.3672 -0.2733 -1.4150
 8223SOL     OW36130   1.320   2.505  16.495  0.1941  0.3695 -0.2600
 8223SOL    HW136131   1.371   2.541  16.422  0.7927  0.2044  0.0780
 8223SOL    HW236132   1.230   2.520  16.467 -0.2887 -1.0393  0.5092
 8224SOL     OW36133   2.333   2.280  10.529 -0.4625  0.1459 -0.0136
 8224SOL    HW136134   2.383   2.331  10.465 -0.4831 -0.2209 -0.3183
 8224SOL    HW236135   2.408   2.273  10.588 -1.4996 -2.4936  0.9626
 8225SOL     OW36136   1.451   1.003   3.444 -0.5044 -0.2563 -0.1057
 8225SOL    HW136137   1.429   1.052   3.365 -0.6658 -0.8561 -0.4360
 8225SOL    HW236138   1.496   0.930   3.401 -0.1028  0.5515 -1.0339
 8226SOL     OW36139   3.518   1.777   6.008 -0.1427 -0.2189 -0.3290
 8226SOL    HW136140   3.546   1.691   5.978  0.3526  0.5285 -2.0236
 8226SOL    HW236141   3.581   1.839   5.971 -1.6670  0.6577 -1.5005
 8227SOL     OW36142   1.326   1.644   6.053 -0.1725 -0.1635  0.2487
 8227SOL    HW136143   1.239   1.609   6.033 -0.7113  1.0323  0.4912
 8227SOL    HW236144   1.359   1.667   5.967 -1.5578  0.5985 -0.0777
 8228SOL     OW36145   1.114   0.478   9.309 -0.0969  0.1027  0.1146
 8228SOL    HW136146   1.044   0.458   9.371 -0.2518 -1.2190 -0.4917
 8228SOL    HW236147   1.176   0.405   9.312  2.0001  1.8404 -0.3427
 8229SOL     OW36148   3.854   0.522   0.387  0.3246 -0.6529 -0.1872
 8229SOL    HW136149   3.762   0.496   0.390  0.2093 -0.4407 -1.6844
 8229SOL    HW236150   3.889   0.479   0.308 -1.8657 -2.0349 -0.3877
 8230SOL     OW36151   4.202   0.929   6.798  0.0641  0.0504  0.1430
 8230SOL    HW136152   4.115   0.938   6.760  0.0586 -1.2067 -0.1442
 8230SOL    HW236153   4.179   0.947   6.889  0.5504  1.5315 -0.0164
 8231SOL     OW36154   3.806   2.561   8.001  0.0777 -0.5221  0.3308
 8231SOL    HW136155   3.819   2.498   8.072  1.6749 -0.3652  0.1669
 8231SOL    HW236156   3.711   2.556   7.988 -0.1266 -1.0986  2.0207
 8232SOL     OW36157   0.466   4.520   8.770 -0.1788  0.3999 -0.2358
 8232SOL    HW136158   0.424   4.533   8.686 -2.5278  1.8276  1.1633
 8232SOL    HW236159   0.458   4.427   8.789  0.1454  0.0271 -1.9206
 8233SOL     OW36160   3.748   4.069  12.711  0.2434 -0.2710  0.4638
 8233SOL    HW136161   3.706   4.076  12.797 -3.0213 -1.2118 -1.0377
 8233SOL    HW236162   3.687   4.117  12.655 -0.0447 -0.1913  0.8424
 8234SOL     OW36163   0.554   2.334   5.612  0.2341 -0.2976  0.0067
 8234SOL    HW136164   0.563   2.429   5.601 -1.1614 -0.2072 -0.3239
 8234SOL    HW236165   0.630   2.301   5.564  1.5011 -0.3680  2.0581
 8235SOL     OW36166   0.092   1.083   1.736  0.4375 -0.3065 -0.0932
 8235SOL    HW136167   0.090   1.162   1.790 -2.4475 -0.5477  0.1363
 8235SOL    HW236168   0.187   1.069   1.734  0.7161  1.2322  1.8061
 8236SOL     OW36169   2.588   1.153   9.285  0.7318  0.7698  0.0355
 8236SOL    HW136170   2.512   1.212   9.284 -0.0368 -0.2174  0.6073
 8236SOL    HW236171   2.647   1.211   9.333 -1.2933  1.5879  1.5234
 8237SOL     OW36172   4.492   0.803   8.512 -0.1537 -0.4227  0.6693
 8237SOL    HW136173   4.569   0.835   8.465 -0.1210 -1.4428  0.0289
 8237SOL    HW236174   4.501   0.711   8.485 -2.5878 -0.5761  0.4065
 8238SOL     OW36175   2.533   3.076   5.477  0.1177  0.4707 -0.2032
 8238SOL    HW136176   2.508   2.996   5.432 -0.1080  0.1548  0.4842
 8238SOL    HW236177   2.454   3.116   5.514  0.0098 -0.3399  0.4588
 8239SOL     OW36178   1.048   4.005   8.988  0.7464 -0.7760 -0.1793
 8239SOL    HW136179   1.099   3.987   9.067 -0.7242 -2.8274  0.3148
 8239SOL    HW236180   1.018   3.915   8.977 -0.2948 -0.2565 -1.5570
 8240SOL     OW36181   1.209   0.685  17.146  0.1181  0.5740  0.8789
 8240SOL    HW136182   1.121   0.672  17.110  0.0889  0.6821  0.9122
 8240SOL    HW236183   1.181   0.680  17.238 -0.1207  0.3287  0.7940
 8241SOL     OW36184   2.447   2.853   2.045  0.3914  0.1759  0.1942
 8241SOL    HW136185   2.359   2.841   2.010  0.6505 -0.5734 -0.1919
 8241SOL    HW236186   2.497   2.795   1.989  0.5214  1.0734 -0.6164
 8242SOL     OW36187   2.041   4.110   5.167 -0.5951 -0.3614  0.5124
 8242SOL    HW136188   2.136   4.112   5.183 -0.8649  0.8715  1.9037
 8242SOL    HW236189   2.025   4.029   5.216  2.2003 -0.3442  1.4576
 8243SOL     OW36190   0.686   0.837   7.602 -0.2582 -0.0257  0.1971
 8243SOL    HW136191   0.629   0.833   7.526  1.2731  3.5464 -1.1430
 8243SOL    HW236192   0.724   0.749   7.598  1.0819  0.3836  3.4203
 8244SOL     OW36193   2.808   1.711   2.249  0.4217  0.1494  0.4426
 8244SOL    HW136194   2.736   1.725   2.186  1.3491 -0.7850 -0.8248
 8244SOL    HW236195   2.781   1.631   2.294 -0.7579  0.3742  0.1455
 8245SOL     OW36196   1.816   0.228   4.001  0.5465  0.7125  0.5044
 8245SOL    HW136197   1.876   0.302   4.012  0.3949  0.5702  2.4124
 8245SOL    HW236198   1.847   0.153   4.053  0.6045  0.5200  0.1922
 8246SOL     OW36199   1.511   3.703   1.459  0.5211  0.0264  0.2108
 8246SOL    HW136200   1.461   3.623   1.470 -0.0921  0.3471 -0.2596
 8246SOL    HW236201   1.457   3.745   1.391 -0.2483 -1.5286 -0.1234
 8247SOL     OW36202   0.912   4.389  13.368  0.3622 -0.1154 -0.7461
 8247SOL    HW136203   0.926   4.483  13.355 -0.5815 -0.0038 -0.9618
 8247SOL    HW236204   0.849   4.395  13.440  0.1765 -1.4116 -0.8096
 8248SOL     OW36205   1.108   1.125  12.451 -0.3112 -0.3884  0.2185
 8248SOL    HW136206   1.175   1.154  12.514 -0.0993  0.0820 -0.2203
 8248SOL    HW236207   1.102   1.196  12.387  1.1713  0.5588  1.1357
 8249SOL     OW36208   2.714   0.204   4.576  0.3223  0.1083  0.0649
 8249SOL    HW136209   2.742   0.157   4.655  0.2989  0.0064  0.0136
 8249SOL    HW236210   2.741   0.142   4.508  1.3998  2.3818 -1.5886
 8250SOL     OW36211   0.065   3.584  11.112 -0.1483 -0.0894 -0.4643
 8250SOL    HW136212   0.074   3.656  11.050  1.4901 -1.4918 -1.8438
 8250SOL    HW236213   0.074   3.640  11.189 -1.0301 -1.1865  0.4351
 8251SOL     OW36214   4.120   4.515   8.198  0.7989 -0.2402 -0.3029
 8251SOL    HW136215   4.099   4.495   8.289  1.7392  0.0196 -0.0339
 8251SOL    HW236216   4.097   4.607   8.187  0.4355 -0.3128 -0.1444
 8252SOL     OW36217   3.358   3.327  13.149  0.1276  0.2179  0.5634
 8252SOL    HW136218   3.444   3.368  13.138  0.3810 -0.0338  1.5452
 8252SOL    HW236219   3.376   3.233  13.157 -0.0491  0.1361 -0.0316
 8253SOL     OW36220   0.247   3.693   4.370  0.4798  0.1200  0.3109
 8253SOL    HW136221   0.193   3.616   4.384 -3.0873  3.1293  3.1433
 8253SOL    HW236222   0.191   3.756   4.415 -0.3841  0.1634 -0.8023
 8254SOL     OW36223   4.188   3.320  11.750 -0.1733 -0.3603  0.9845
 8254SOL    HW136224   4.107   3.362  11.723  0.0916  0.1128  0.9359
 8254SOL    HW236225   4.172   3.324  11.844  1.0106  0.4203  1.1460
 8255SOL     OW36226   4.340   4.161   9.580 -0.6659  0.1875 -0.6077
 8255SOL    HW136227   4.344   4.070   9.608  0.4216  0.6058  0.5620
 8255SOL    HW236228   4.382   4.159   9.494  2.3110  1.6652  0.8310
 8256SOL     OW36229   0.149   1.572   3.398  0.4432  0.3999 -0.1300
 8256SOL    HW136230   0.190   1.654   3.371 -0.8668  0.4557 -1.9517
 8256SOL    HW236231   0.131   1.594   3.489  1.3409 -0.6500  0.3065
 8257SOL     OW36232   2.817   1.142  14.359 -0.1659 -0.0611 -0.2846
 8257SOL    HW136233   2.767   1.071  14.320 -1.5446  0.3793  0.6891
 8257SOL    HW236234   2.752   1.212  14.362 -1.2168 -1.0178 -0.9093
 8258SOL     OW36235   0.899   0.996   7.794 -0.2409  1.0827  0.3222
 8258SOL    HW136236   0.972   1.031   7.743  0.9935  0.3879  1.6126
 8258SOL    HW236237   0.924   1.009   7.885  0.1701 -0.9221  0.5039
 8259SOL     OW36238   3.926   3.726  14.470  0.6600 -0.0036  0.1437
 8259SOL    HW136239   3.857   3.775  14.515 -1.0813 -1.2115 -1.1529
 8259SOL    HW236240   3.879   3.674  14.404  1.6155  0.9835 -1.3300
 8260SOL     OW36241   0.298   1.823   3.228 -0.1137  0.3401  0.2725
 8260SOL    HW136242   0.356   1.852   3.298  0.4027  1.0041 -0.4248
 8260SOL    HW236243   0.273   1.908   3.191 -1.8105 -1.0938 -1.8962
 8261SOL     OW36244   4.123   0.095   2.470 -0.1736 -0.4645 -0.9521
 8261SOL    HW136245   4.097   0.011   2.432 -0.8015 -0.8129  0.2633
 8261SOL    HW236246   4.044   0.146   2.455 -0.1203 -0.3430 -0.8222
 8262SOL     OW36247   1.441   1.629   6.733  0.0327  0.3732 -0.6474
 8262SOL    HW136248   1.442   1.719   6.699 -2.5239  0.0696 -1.5000
 8262SOL    HW236249   1.362   1.600   6.688  0.2775 -1.5641  0.1812
 8263SOL     OW36250   2.634   3.585  11.193  0.3447 -0.0577 -0.0700
 8263SOL    HW136251   2.625   3.511  11.132  0.2236 -0.5060  0.4950
 8263SOL    HW236252   2.672   3.537  11.266 -1.2366  0.7819  1.2898
 8264SOL     OW36253   1.209   0.154   5.018  0.5048 -0.1476  0.2655
 8264SOL    HW136254   1.178   0.242   4.995  0.6937 -0.2471 -0.3708
 8264SOL    HW236255   1.295   0.154   4.975 -0.5095 -1.5193 -1.7883
 8265SOL     OW36256   0.546   1.599  11.773 -0.1907  0.0397 -0.2269
 8265SOL    HW136257   0.530   1.644  11.690 -2.6008 -0.5581 -0.0838
 8265SOL    HW236258   0.474   1.634  11.825 -1.4009 -0.7445 -1.3743
 8266SOL     OW36259   2.227   0.744   2.127 -0.4829 -1.1155  0.0871
 8266SOL    HW136260   2.192   0.812   2.070  0.2822  1.6282  2.9234
 8266SOL    HW236261   2.149   0.705   2.167  0.1799 -2.7006 -0.1608
 8267SOL     OW36262   1.111   2.768  16.091  0.0400 -0.3953 -0.0451
 8267SOL    HW136263   1.119   2.855  16.052 -2.8078 -1.2840 -2.6225
 8267SOL    HW236264   1.030   2.741  16.046  0.9809 -3.0901 -0.1186
 8268SOL     OW36265   0.000   1.916  11.264  0.0822  0.0432 -0.6733
 8268SOL    HW136266   0.096   1.917  11.266  0.0742 -0.8912  0.0356
 8268SOL    HW236267   4.708   1.843  11.204  2.4218  0.0664 -1.3877
 8269SOL     OW36268   4.474   3.176   2.699 -0.1054 -0.9895  0.3110
 8269SOL    HW136269   4.396   3.231   2.709  1.4094  1.5205 -1.7709
 8269SOL    HW236270   4.450   3.124   2.622  1.3252  0.6771 -1.2569
 8270SOL     OW36271   3.548   1.246   4.627  0.2875  0.6346 -0.1587
 8270SOL    HW136272   3.628   1.195   4.615 -0.6027 -1.0709  1.1182
 8270SOL    HW236273   3.522   1.220   4.716 -2.0787  1.0618 -0.7064
 8271SOL     OW36274   1.371   3.117  17.591 -0.5757 -0.7855 -0.2420
 8271SOL    HW136275   1.382   3.110  17.496 -0.1980  0.6533 -0.3076
 8271SOL    HW236276   1.409   3.203  17.609 -0.1563 -0.8254 -0.9466
 8272SOL     OW36277   4.690   2.167   2.163 -0.7950  0.3384 -0.5563
 8272SOL    HW136278   0.043   2.166   2.108  0.3236 -1.3527  1.0451
 8272SOL    HW236279   4.615   2.169   2.103 -0.0343  1.7045 -1.4470
 8273SOL     OW36280   3.560   0.142  15.897 -0.6240  0.3072 -0.2416
 8273SOL    HW136281   3.631   0.185  15.849  1.5133 -2.6110  0.3152
 8273SOL    HW236282   3.571   0.190  15.980 -0.1409 -0.9779  0.4453
 8274SOL     OW36283   1.199   1.543   8.017 -0.4026 -0.3585 -0.4884
 8274SOL    HW136284   1.262   1.587   8.074 -1.9392  1.4725 -0.1848
 8274SOL    HW236285   1.119   1.592   8.036  0.8848  1.3223  0.5816
 8275SOL     OW36286   2.151   0.481   7.271 -0.1471 -0.2404 -0.1002
 8275SOL    HW136287   2.095   0.518   7.339 -2.6498 -2.6289 -0.8140
 8275SOL    HW236288   2.087   0.421   7.230  0.0474 -0.6574  0.2069
 8276SOL     OW36289   4.725   2.811   8.680 -0.1576  0.2704  0.0138
 8276SOL    HW136290   4.660   2.805   8.751 -1.7577  0.1018 -1.4612
 8276SOL    HW236291   4.713   2.730   8.630  0.6549  0.5466 -0.6301
 8277SOL     OW36292   3.243   1.214  11.110  0.0982 -0.3524  0.1877
 8277SOL    HW136293   3.257   1.162  11.031 -0.7796 -1.1169  0.5343
 8277SOL    HW236294   3.154   1.242  11.089  0.6386  1.2007 -0.0271
 8278SOL     OW36295   3.179   0.322  12.227 -0.2016  0.0695  0.0573
 8278SOL    HW136296   3.196   0.275  12.309  1.7639 -0.1061 -0.4588
 8278SOL    HW236297   3.240   0.283  12.165 -0.4816 -0.4690  0.1179
 8279SOL     OW36298   0.972   1.739   6.235  0.2904 -0.1722 -0.0829
 8279SOL    HW136299   0.977   1.685   6.156  2.8740  0.2749 -0.2284
 8279SOL    HW236300   0.971   1.830   6.206 -0.4280 -0.2145 -0.1938
 8280SOL     OW36301   4.248   4.021  11.821 -0.2736 -0.4526  0.5218
 8280SOL    HW136302   4.265   3.946  11.764  0.5623  0.6299 -0.6515
 8280SOL    HW236303   4.161   3.993  11.850 -0.2272 -2.0001 -0.7752
 8281SOL     OW36304   1.103   2.732   9.987 -0.0230  0.1559 -0.0542
 8281SOL    HW136305   1.113   2.793   9.914 -1.3442  0.9067  0.3815
 8281SOL    HW236306   1.010   2.746  10.003  0.3313  0.4356  1.8338
 8282SOL     OW36307   2.789   2.609  10.193 -0.2220 -0.3441  0.2745
 8282SOL    HW136308   2.817   2.518  10.201  0.5818 -0.1669 -0.5518
 8282SOL    HW236309   2.865   2.652  10.154  0.9453 -1.0679  1.7609
 8283SOL     OW36310   1.355   0.585   3.218  0.0936  0.3378  0.1118
 8283SOL    HW136311   1.279   0.636   3.190 -0.1475  0.8709  1.7082
 8283SOL    HW236312   1.329   0.561   3.307 -0.4178  1.5018  0.2724
 8284SOL     OW36313   2.582   1.281  14.353  0.4819 -0.2794 -0.0700
 8284SOL    HW136314   2.516   1.229  14.399  0.5497  1.1805  1.6975
 8284SOL    HW236315   2.612   1.344  14.418 -0.2202 -1.1795  1.1319
 8285SOL     OW36316   4.463   4.331   5.706  0.0504 -0.0146  0.2148
 8285SOL    HW136317   4.551   4.309   5.736 -0.6103 -1.3141  1.1877
 8285SOL    HW236318   4.421   4.355   5.788 -1.6745  2.0200 -1.2484
 8286SOL     OW36319   2.982   4.530   4.154 -0.0893  0.2513  0.2256
 8286SOL    HW136320   3.068   4.516   4.193 -0.5390  0.7986  1.4248
 8286SOL    HW236321   2.989   4.620   4.121  4.3341  0.2778  1.2284
 8287SOL     OW36322   3.728   3.739  14.760 -0.0252 -0.7064  0.2921
 8287SOL    HW136323   3.667   3.783  14.820 -1.6337 -2.0570 -0.3391
 8287SOL    HW236324   3.758   3.821  14.721 -0.4121 -0.3271  0.7832
 8288SOL     OW36325   1.485   4.341   3.072  0.5247  0.0255 -0.0897
 8288SOL    HW136326   1.422   4.320   3.004 -0.8629  1.4575  0.7331
 8288SOL    HW236327   1.434   4.396   3.132 -0.2814 -0.6136 -0.2057
 8289SOL     OW36328   1.050   4.048   6.262 -0.3695 -0.3756 -0.1101
 8289SOL    HW136329   1.056   4.078   6.353  1.1625 -0.6629 -0.1220
 8289SOL    HW236330   1.105   3.971   6.273  0.0934 -0.0867 -0.3984
 8290SOL     OW36331   4.389   4.061  14.636  0.6966  0.3841 -0.4374
 8290SOL    HW136332   4.385   3.977  14.681  0.3985  0.1769 -0.8445
 8290SOL    HW236333   4.306   4.053  14.588  0.1693  0.3510  0.4747
 8291SOL     OW36334   3.068   2.684  16.954  0.8139  0.2875  0.0676
 8291SOL    HW136335   3.151   2.669  16.908 -0.3625 -1.4674 -1.4492
 8291SOL    HW236336   3.083   2.776  16.976  1.0644  0.5459 -1.1634
 8292SOL     OW36337   1.194   3.834   0.950  0.1062 -0.3766  0.1089
 8292SOL    HW136338   1.118   3.824   1.007 -0.5591 -1.7530 -1.0325
 8292SOL    HW236339   1.155   3.864   0.868 -0.6992  0.2235  0.7196
 8293SOL     OW36340   4.588   0.434  14.560 -0.4041 -0.0380  0.5573
 8293SOL    HW136341   4.584   0.505  14.496 -0.4395 -2.2274 -1.8432
 8293SOL    HW236342   4.518   0.377  14.530 -0.3499 -0.1717  0.6818
 8294SOL     OW36343   0.395   2.645   7.186  0.2298  0.1483 -0.0392
 8294SOL    HW136344   0.311   2.615   7.219  0.5602 -0.6271  0.0919
 8294SOL    HW236345   0.433   2.678   7.268 -1.0283  1.9405 -0.1787
 8295SOL     OW36346   1.765   1.624   7.742  0.0232  0.0500  0.0159
 8295SOL    HW136347   1.767   1.553   7.677 -0.0284  1.3422 -1.3964
 8295SOL    HW236348   1.775   1.571   7.821 -0.9491  0.3685  0.3496
 8296SOL     OW36349   0.159   4.110   1.850 -0.4909  0.2014  0.2911
 8296SOL    HW136350   0.251   4.107   1.824  0.1815  1.3927  2.4524
 8296SOL    HW236351   0.114   4.157   1.780  0.4012 -1.9064 -1.6813
 8297SOL     OW36352   3.407   3.660   6.066 -0.5833  0.1218 -0.2926
 8297SOL    HW136353   3.496   3.667   6.102  0.2595  0.9776 -2.5772
 8297SOL    HW236354   3.377   3.750   6.055 -4.0463 -1.2367 -1.9132
 8298SOL     OW36355   2.197   2.626   7.158  0.2157 -0.0084  0.1013
 8298SOL    HW136356   2.233   2.608   7.245 -1.9635 -0.0350  1.0110
 8298SOL    HW236357   2.265   2.686   7.127  0.4273 -0.5199 -0.4286
 8299SOL     OW36358   0.098   3.724  10.044  0.3657  0.0900 -0.0614
 8299SOL    HW136359   0.024   3.783  10.037  0.7011  0.6972  1.6118
 8299SOL    HW236360   0.142   3.727   9.959  0.2001  0.8745 -0.1174
 8300SOL     OW36361   2.675   0.157   1.024 -0.6868 -0.4546 -0.1977
 8300SOL    HW136362   2.666   0.197   1.110 -2.4106  2.1060 -1.5606
 8300SOL    HW236363   2.639   0.235   0.981  0.3100  1.2147  1.9674
 8301SOL     OW36364   2.852   2.230  15.303  0.6769 -0.0171  0.0528
 8301SOL    HW136365   2.817   2.209  15.390 -1.3090 -0.3450 -0.8318
 8301SOL    HW236366   2.907   2.153  15.292  2.5059  1.7327 -2.9639
 8302SOL     OW36367   1.808   1.243   5.004 -0.4337 -0.6392 -0.4485
 8302SOL    HW136368   1.815   1.150   4.983 -1.0272 -1.0473  1.1196
 8302SOL    HW236369   1.892   1.287   4.988 -0.8331  0.5751  0.8413
 8303SOL     OW36370   1.829   3.678  16.126 -0.4360  0.1766 -0.0819
 8303SOL    HW136371   1.895   3.737  16.091 -0.7659 -1.4731 -3.4969
 8303SOL    HW236372   1.807   3.628  16.047  1.0368  1.4792 -1.3274
 8304SOL     OW36373   0.066   1.173   2.403  0.5275  0.0476 -0.1625
 8304SOL    HW136374   0.096   1.256   2.439 -2.3851  0.2906  1.7008
 8304SOL    HW236375   4.713   1.154   2.454 -0.0986 -1.8563 -1.8292
 8305SOL     OW36376   4.475   0.266   5.659  0.2056 -0.2029 -0.3415
 8305SOL    HW136377   4.443   0.355   5.653 -2.3167 -1.0287  1.0256
 8305SOL    HW236378   4.401   0.219   5.622  1.1302 -1.5770 -0.4852
 8306SOL     OW36379   3.565   2.911   5.896 -0.0776  0.1696  0.2463
 8306SOL    HW136380   3.660   2.924   5.895 -0.3686  1.8934 -2.5124
 8306SOL    HW236381   3.560   2.870   5.810  1.6639 -0.8491  0.6130
 8307SOL     OW36382   0.511   2.189  15.105 -0.1841 -0.4198 -0.3245
 8307SOL    HW136383   0.416   2.172  15.105 -0.2832  0.1157 -0.0205
 8307SOL    HW236384   0.537   2.108  15.148 -0.9166 -0.0960  0.7314
 8308SOL     OW36385   4.589   1.414   6.670 -0.0575  0.2630  0.7556
 8308SOL    HW136386   4.678   1.380   6.666 -0.4324 -0.7733  0.9369
 8308SOL    HW236387   4.547   1.369   6.744 -0.7879  0.9290  0.7490
 8309SOL     OW36388   0.013   1.959  13.060 -0.6428  0.2112 -0.7702
 8309SOL    HW136389   0.067   1.887  13.027  3.5123  2.3921  1.2069
 8309SOL    HW236390   4.693   1.979  12.978  0.8958 -1.2326 -1.9621
 8310SOL     OW36391   3.080   2.261   8.276 -0.2600 -0.6246 -0.4997
 8310SOL    HW136392   3.140   2.329   8.245  2.0516 -1.7521  1.5459
 8310SOL    HW236393   3.143   2.203   8.319  0.2281  0.1772 -0.1201
 8311SOL     OW36394   1.240   0.525   7.079  0.2492 -0.0310 -0.0165
 8311SOL    HW136395   1.235   0.445   7.026 -0.1411 -1.5651  2.3616
 8311SOL    HW236396   1.246   0.599   7.018  0.3047 -1.3728 -1.6495
 8312SOL     OW36397   0.103   0.580  10.076 -0.1504 -0.1664 -0.0013
 8312SOL    HW136398   0.013   0.593  10.105 -0.4517 -1.8671 -0.2254
 8312SOL    HW236399   0.103   0.650  10.010  0.8672  0.1109  0.2949
 8313SOL     OW36400   3.113   2.860  10.782  0.4611 -0.1329 -0.6251
 8313SOL    HW136401   3.181   2.904  10.834 -0.7181  0.1864  0.6617
 8313SOL    HW236402   3.056   2.848  10.858  0.4420 -3.0268 -1.0854
 8314SOL     OW36403   3.854   3.730   9.842  0.1382  0.2900  0.5597
 8314SOL    HW136404   3.776   3.688   9.879  0.4808 -0.4520  0.4297
 8314SOL    HW236405   3.898   3.659   9.794 -0.7800 -1.1578  1.8712
 8315SOL     OW36406   1.129   0.573   5.531  0.0308 -0.0783 -0.0628
 8315SOL    HW136407   1.059   0.636   5.549  0.8935 -0.2939  4.1018
 8315SOL    HW236408   1.094   0.531   5.452 -0.9140 -1.1949  0.9548
 8316SOL     OW36409   0.541   2.678  12.719  0.4712 -0.1148 -0.2093
 8316SOL    HW136410   0.575   2.589  12.728  2.5139  0.7709  0.8664
 8316SOL    HW236411   0.520   2.711  12.806  0.4798  0.5842 -0.4726
 8317SOL     OW36412   0.730   0.925   5.566  0.1922  0.2489  0.1528
 8317SOL    HW136413   0.777   0.892   5.490 -0.8346 -0.0417 -0.3490
 8317SOL    HW236414   0.804   0.941   5.625  0.5816 -0.6130 -0.1045
 8318SOL     OW36415   1.417   3.367  14.243  0.5209  0.0047  0.0975
 8318SOL    HW136416   1.506   3.378  14.208  0.8330 -0.3938  0.7556
 8318SOL    HW236417   1.434   3.331  14.331 -1.1721 -1.2792 -0.0989
 8319SOL     OW36418   1.262   4.359   0.284  0.3108 -0.1169 -0.0573
 8319SOL    HW136419   1.324   4.414   0.238  0.0524 -0.4160 -0.7635
 8319SOL    HW236420   1.304   4.274   0.299 -0.1839  0.0201  2.1379
 8320SOL     OW36421   2.265   4.634   1.429 -0.2793 -0.2582  0.2170
 8320SOL    HW136422   2.182   4.616   1.383 -0.4224 -2.0523  1.1834
 8320SOL    HW236423   2.236   4.607   1.516  1.6686 -0.1632  0.8852
 8321SOL     OW36424   0.193   0.840   2.050 -0.7455 -0.3320 -0.2691
 8321SOL    HW136425   0.156   0.870   2.133  0.3446  2.9806 -0.9912
 8321SOL    HW236426   0.113   0.792   2.029 -0.0064 -1.8436  0.3783
 8322SOL     OW36427   4.551   4.666  13.275 -0.1111  0.1960 -0.3978
 8322SOL    HW136428   4.559   4.694  13.366  1.5714 -0.3280 -0.3862
 8322SOL    HW236429   4.586   4.577  13.281  0.5843  0.4931 -0.0802
 8323SOL     OW36430   2.108   2.646   6.394  0.1358 -0.3519 -0.2895
 8323SOL    HW136431   2.173   2.662   6.461 -1.9579  0.9582  1.4399
 8323SOL    HW236432   2.049   2.583   6.436  0.5929  0.0267  0.9083
 8324SOL     OW36433   0.453   2.317  17.373 -0.2028 -0.1277  0.1317
 8324SOL    HW136434   0.424   2.397  17.331 -0.1326 -1.3967 -2.2994
 8324SOL    HW236435   0.368   2.295  17.412 -0.2273 -1.3547 -0.5971
 8325SOL     OW36436   1.867   0.562   9.079 -0.1959  0.0840 -0.5310
 8325SOL    HW136437   1.910   0.499   9.021  0.9244 -1.7174  2.2119
 8325SOL    HW236438   1.792   0.509   9.106  1.0737 -1.2449  0.4154
 8326SOL     OW36439   2.398   3.047   7.229  0.0593  0.2644  0.0005
 8326SOL    HW136440   2.356   3.121   7.184  1.7204  0.6113 -1.0125
 8326SOL    HW236441   2.368   3.059   7.319  1.1550 -2.9783  0.7873
 8327SOL     OW36442   1.545   1.915   5.630  0.1265  0.0638  1.0717
 8327SOL    HW136443   1.598   1.898   5.553  0.2530 -0.6112  1.3100
 8327SOL    HW236444   1.469   1.862   5.608  1.9068 -1.2322 -1.9654
 8328SOL     OW36445   1.120   2.365   9.058  0.8438 -0.6085 -0.3997
 8328SOL    HW136446   1.212   2.341   9.050  0.6943 -1.3634  0.2634
 8328SOL    HW236447   1.094   2.409   8.976  0.7357 -2.6623 -1.4623
 8329SOL     OW36448   2.155   3.155  13.879  0.5008  0.6780 -0.4565
 8329SOL    HW136449   2.149   3.129  13.971  2.7834  0.6912 -0.2814
 8329SOL    HW236450   2.168   3.070  13.837  0.8415  0.2515  0.5036
 8330SOL     OW36451   1.909   0.088   3.722  0.1139 -0.0649 -0.1364
 8330SOL    HW136452   1.891   0.163   3.665  2.8946  0.9092  0.2574
 8330SOL    HW236453   1.913   0.127   3.809 -0.4503  1.8456 -0.9529
 8331SOL     OW36454   1.339   0.412   2.995 -0.7637  0.7688 -0.0190
 8331SOL    HW136455   1.331   0.463   3.075  0.4865  1.4063 -0.3035
 8331SOL    HW236456   1.327   0.323   3.028  0.3804  0.9691  0.9351
 8332SOL     OW36457   4.115   2.086   7.010 -0.1925  0.1069  0.2083
 8332SOL    HW136458   4.110   2.125   7.097 -1.7697  1.4517 -0.4995
 8332SOL    HW236459   4.128   2.163   6.956  1.8383 -0.3502  0.0551
 8333SOL     OW36460   0.574   0.662   7.191 -0.7100 -0.4748 -0.1502
 8333SOL    HW136461   0.504   0.611   7.151 -0.9311  0.2652 -0.7075
 8333SOL    HW236462   0.630   0.678   7.115 -1.2855 -2.2819 -0.9513
 8334SOL     OW36463   4.190   1.957   4.685 -0.0456 -0.0951 -0.1150
 8334SOL    HW136464   4.164   1.916   4.603  1.5522 -1.0547 -0.1473
 8334SOL    HW236465   4.210   2.046   4.655  2.0946 -0.5229  0.0468
 8335SOL     OW36466   4.286   1.641   1.050  0.0423 -0.8061 -0.3310
 8335SOL    HW136467   4.301   1.615   0.959 -1.0486  1.0139 -1.0109
 8335SOL    HW236468   4.223   1.712   1.043 -0.1361 -0.7183  2.1228
 8336SOL     OW36469   2.806   3.134   9.138 -0.6211 -0.2207 -0.2094
 8336SOL    HW136470   2.823   3.224   9.167 -0.1643 -0.4082  0.1050
 8336SOL    HW236471   2.718   3.147   9.103 -0.5247 -1.9599 -1.0887
 8337SOL     OW36472   1.253   0.766   9.605  0.5172  0.2172  0.0841
 8337SOL    HW136473   1.333   0.716   9.594  1.0237  1.3176 -1.2224
 8337SOL    HW236474   1.234   0.810   9.522  1.6277  2.1382  0.8547
 8338SOL     OW36475   3.051   3.143   2.537  0.4528 -0.1963  0.5968
 8338SOL    HW136476   3.088   3.130   2.450 -1.0889 -0.7320  0.0084
 8338SOL    HW236477   3.024   3.054   2.560 -2.2201  0.3693 -0.3494
 8339SOL     OW36478   0.964   1.408   8.622 -0.1636 -0.2338 -0.2213
 8339SOL    HW136479   0.913   1.382   8.699 -0.8025  0.3553 -0.4376
 8339SOL    HW236480   0.992   1.322   8.592  2.1493  0.0231  1.2479
 8340SOL     OW36481   0.109   3.349  16.016  0.3988 -0.0309  0.2312
 8340SOL    HW136482   0.191   3.399  16.020  0.4564 -0.2171  1.3681
 8340SOL    HW236483   0.081   3.349  16.108  2.6154  0.8413  0.9073
 8341SOL     OW36484   3.516   1.175   5.448  0.3325  0.3194  0.2208
 8341SOL    HW136485   3.482   1.102   5.500  1.8380 -0.8309 -0.4311
 8341SOL    HW236486   3.535   1.247   5.508 -0.7525  0.0385  0.9105
 8342SOL     OW36487   3.731   0.483   8.016 -0.0955 -0.2925 -0.3693
 8342SOL    HW136488   3.641   0.487   8.046 -0.3961 -0.0401 -1.3070
 8342SOL    HW236489   3.760   0.395   8.041  2.3433  0.5783 -0.1226
 8343SOL     OW36490   3.971   1.510   7.858  0.3731  0.8839 -0.3250
 8343SOL    HW136491   4.020   1.436   7.894  0.3092  0.2759 -1.4710
 8343SOL    HW236492   3.972   1.566   7.935 -0.3772 -1.6619  1.5209
 8344SOL     OW36493   4.017   1.108   4.661  0.4165 -0.6752 -0.0967
 8344SOL    HW136494   4.089   1.111   4.723  0.6905 -1.0958 -0.3959
 8344SOL    HW236495   3.958   1.142   4.728  0.4706 -1.3914  0.3091
 8345SOL     OW36496   4.406   1.304   6.450 -0.3313 -0.7118  0.1802
 8345SOL    HW136497   4.482   1.354   6.480 -1.3471  0.3054  1.0545
 8345SOL    HW236498   4.440   1.263   6.370 -3.1180 -1.2393 -0.7137
 8346SOL     OW36499   3.158   3.106   2.287 -0.3156  0.7890 -0.1929
 8346SOL    HW136500   3.251   3.084   2.283 -0.3072  0.3634  1.9803
 8346SOL    HW236501   3.123   3.031   2.240 -0.7063  2.5734 -2.7628
 8347SOL     OW36502   3.697   3.550   9.156  0.2878  0.3069  0.3963
 8347SOL    HW136503   3.716   3.529   9.064 -0.2887  2.2425 -0.1721
 8347SOL    HW236504   3.601   3.544   9.159  0.3912 -1.2529  0.3024
 8348SOL     OW36505   1.689   3.076   3.473  0.0138  0.1982  0.9350
 8348SOL    HW136506   1.764   3.039   3.426 -0.5724 -0.2018  0.3085
 8348SOL    HW236507   1.617   3.019   3.446  1.6420 -0.7025 -1.4849
 8349SOL     OW36508   1.592   1.223   5.562  0.1407  0.0560  0.4108
 8349SOL    HW136509   1.649   1.278   5.616  1.3146 -3.0526  2.3125
 8349SOL    HW236510   1.564   1.280   5.490  0.0606 -0.2148  0.2243
 8350SOL     OW36511   4.458   4.085  16.538 -0.0255 -0.5101  0.1205
 8350SOL    HW136512   4.504   4.038  16.607 -0.7299 -1.3856 -0.0129
 8350SOL    HW236513   4.503   4.167  16.561 -3.9669  1.8599 -0.5290
 8351SOL     OW36514   3.345   0.816   3.125 -0.5508 -0.9143  0.4898
 8351SOL    HW136515   3.345   0.721   3.134 -2.7113 -0.9476  0.1652
 8351SOL    HW236516   3.397   0.844   3.200 -1.9647  1.3635  0.6371
 8352SOL     OW36517   0.162   0.532  11.080 -0.4718 -0.8015  0.1109
 8352SOL    HW136518   0.173   0.481  11.160  0.9612 -0.6357  0.0187
 8352SOL    HW236519   0.089   0.586  11.110 -0.4671 -0.2869 -0.7854
 8353SOL     OW36520   2.915   1.041   2.884 -0.6849  0.6845  0.2404
 8353SOL    HW136521   2.975   1.010   2.953 -0.9884  3.1384  1.6175
 8353SOL    HW236522   2.979   1.092   2.834  0.1662 -0.5342  0.0971
 8354SOL     OW36523   4.122   1.055   8.915 -0.4642  0.2016  0.2444
 8354SOL    HW136524   4.051   1.063   8.852 -0.2326 -1.2683 -0.1933
 8354SOL    HW236525   4.076   1.026   8.994 -0.6893 -0.7096 -0.2320
 8355SOL     OW36526   4.401   2.314  12.568  0.3550 -0.3809 -0.4506
 8355SOL    HW136527   4.478   2.370  12.556 -0.9584  1.0078 -2.3149
 8355SOL    HW236528   4.389   2.264  12.487 -0.7833 -0.8399  0.0061
 8356SOL     OW36529   0.951   4.189  14.819  0.5109 -0.7450  0.0455
 8356SOL    HW136530   0.947   4.240  14.738 -0.9985 -1.3381 -0.2457
 8356SOL    HW236531   0.938   4.099  14.788 -0.1355 -0.0032 -1.8256
 8357SOL     OW36532   2.232   0.737   4.293  0.1899 -0.4744 -0.4282
 8357SOL    HW136533   2.161   0.795   4.322  0.4292  0.3715 -1.5321
 8357SOL    HW236534   2.303   0.801   4.289 -0.3289  0.3311  3.1442
 8358SOL     OW36535   1.567   1.309  12.577  0.0332  0.1226  0.0226
 8358SOL    HW136536   1.618   1.333  12.655  2.6931  1.2176 -2.0363
 8358SOL    HW236537   1.563   1.215  12.595  0.6351 -0.0562 -0.7576
 8359SOL     OW36538   1.367   4.276  12.732 -0.3932  0.7894  0.6423
 8359SOL    HW136539   1.416   4.342  12.684 -2.1044  0.3214 -1.7917
 8359SOL    HW236540   1.440   4.259  12.791  0.0137 -0.4670 -0.2134
 8360SOL     OW36541   1.404   2.805   5.691 -0.6422  0.1021 -0.6858
 8360SOL    HW136542   1.381   2.739   5.625 -0.8609  0.0938 -0.5984
 8360SOL    HW236543   1.499   2.810   5.680 -0.4429 -0.4660  0.7235
 8361SOL     OW36544   0.883   3.970   9.947  0.4305 -0.2115 -0.2214
 8361SOL    HW136545   0.830   3.895   9.922  0.7691 -0.7517  0.6712
 8361SOL    HW236546   0.834   3.995  10.025 -2.8230 -0.6738 -2.1140
 8362SOL     OW36547   4.444   3.242   3.825  0.6214 -0.0094  0.2153
 8362SOL    HW136548   4.350   3.230   3.830  0.6172  2.3662  4.9360
 8362SOL    HW236549   4.476   3.186   3.895  1.4728  0.0187 -0.1452
 8363SOL     OW36550   4.311   4.021  10.317  0.1146 -0.0167 -0.3506
 8363SOL    HW136551   4.245   3.955  10.337  0.3919 -0.5546 -1.2113
 8363SOL    HW236552   4.394   3.975  10.308 -0.1359 -0.1537 -2.0354
 8364SOL     OW36553   1.557   3.438  12.842 -0.1740 -0.6442 -0.1255
 8364SOL    HW136554   1.578   3.400  12.757  2.0762 -3.2291  1.5928
 8364SOL    HW236555   1.471   3.401  12.863 -1.3736  0.5978 -2.7639
 8365SOL     OW36556   2.908   1.522  13.327 -0.3761  0.0700 -0.1484
 8365SOL    HW136557   2.926   1.440  13.281  0.9893 -1.0437  2.3914
 8365SOL    HW236558   2.927   1.585  13.257  2.0710 -0.7994 -0.2686
 8366SOL     OW36559   3.453   3.032  13.956  0.0698 -0.2437 -0.1947
 8366SOL    HW136560   3.495   3.050  14.040  0.7022  3.4990 -1.3133
 8366SOL    HW236561   3.463   3.111  13.902 -0.6112  0.9048  1.3525
 8367SOL     OW36562   3.934   3.808   4.676  0.2296 -0.2871  0.1671
 8367SOL    HW136563   3.987   3.763   4.610 -0.5948 -2.4373  0.9650
 8367SOL    HW236564   3.947   3.899   4.651  1.1820  0.1608  2.2439
 8368SOL     OW36565   1.610   0.751   5.379  0.0187  0.4392 -0.0072
 8368SOL    HW136566   1.573   0.815   5.441  0.1562 -0.9505  1.5078
 8368SOL    HW236567   1.636   0.682   5.439 -2.3408 -0.3144  0.1544
 8369SOL     OW36568   4.455   0.979   8.042 -0.8999  0.2796  0.3720
 8369SOL    HW136569   4.537   1.010   8.082 -0.3982  0.1008 -0.5290
 8369SOL    HW236570   4.434   0.900   8.092  0.4429 -0.5360 -0.3300
 8370SOL     OW36571   3.630   0.632  14.001  0.2416  0.3854 -0.1425
 8370SOL    HW136572   3.618   0.675  13.917 -3.0440  0.6031  0.4251
 8370SOL    HW236573   3.723   0.608  13.995 -0.3370 -2.5985  2.7807
 8371SOL     OW36574   1.650   3.190   4.009 -0.1083 -0.1049 -0.2123
 8371SOL    HW136575   1.673   3.283   4.014  2.1811 -0.7655  1.6378
 8371SOL    HW236576   1.639   3.180   3.914  0.6867  1.1159 -0.4357
 8372SOL     OW36577   2.978   0.081  17.527 -0.6600 -0.4457 -0.0727
 8372SOL    HW136578   3.003   4.718  17.500 -1.8899 -0.5146 -1.0079
 8372SOL    HW236579   3.064   0.121  17.534 -0.5804 -0.2536 -2.2359
 8373SOL     OW36580   3.121   3.861   9.094  0.0533 -0.4913  0.0625
 8373SOL    HW136581   3.038   3.827   9.127  0.1183 -1.0623 -0.3653
 8373SOL    HW236582   3.100   3.880   9.003 -3.0523 -0.6141  0.7711
 8374SOL     OW36583   1.336   3.997   2.996  0.3421 -0.0599 -0.0705
 8374SOL    HW136584   1.249   4.031   3.019  0.8936  1.5801 -0.3689
 8374SOL    HW236585   1.317   3.913   2.954  1.3024 -0.3069  0.0033
 8375SOL     OW36586   2.719   3.990   7.409  0.5742 -0.0898 -0.2226
 8375SOL    HW136587   2.803   3.969   7.449 -0.5475 -3.3165  0.4314
 8375SOL    HW236588   2.710   3.925   7.339 -0.8264 -0.5331  0.3832
 8376SOL     OW36589   1.977   0.814   3.274  1.1145  0.0992  0.3395
 8376SOL    HW136590   1.909   0.882   3.274 -1.5582 -2.5823 -0.4851
 8376SOL    HW236591   1.990   0.802   3.368 -0.1586 -0.5050  0.4292
 8377SOL     OW36592   4.323   1.487  14.800 -0.1790  0.0202  0.0199
 8377SOL    HW136593   4.315   1.518  14.709 -1.9608  0.0936  0.2090
 8377SOL    HW236594   4.416   1.466  14.815  0.4781  0.3191 -3.5881
 8378SOL     OW36595   2.454   4.224   5.117 -0.1466 -0.0066  0.2670
 8378SOL    HW136596   2.428   4.200   5.028  0.0475  3.0711 -0.5878
 8378SOL    HW236597   2.373   4.213   5.168 -0.6074 -0.7847 -0.6253
 8379SOL     OW36598   2.539   1.533   4.639  0.2578  0.2313 -0.4825
 8379SOL    HW136599   2.479   1.581   4.696 -0.9029 -1.3682 -0.3565
 8379SOL    HW236600   2.626   1.550   4.673 -0.0725  1.0741 -0.0786
 8380SOL     OW36601   2.318   0.520  17.178  0.0958 -0.0904 -0.1892
 8380SOL    HW136602   2.361   0.604  17.163  4.1855 -1.9134  1.2235
 8380SOL    HW236603   2.269   0.539  17.258 -1.1040 -0.0444 -0.9348
 8381SOL     OW36604   1.645   0.080   4.438  0.1933  0.1648  0.0840
 8381SOL    HW136605   1.581   0.019   4.400  0.0296  0.6977 -0.5096
 8381SOL    HW236606   1.598   0.159   4.411  1.1026  0.0955 -1.7508
 8382SOL     OW36607   2.164   2.933   2.343 -0.0001  0.2574 -0.4557
 8382SOL    HW136608   2.175   2.891   2.428  0.8489  2.3134  0.4713
 8382SOL    HW236609   2.159   2.856   2.287  0.5318 -0.0126 -0.1384
 8383SOL     OW36610   3.499   1.563   5.310 -0.1730 -0.8224  0.1029
 8383SOL    HW136611   3.550   1.561   5.390 -1.6317  0.1191  1.0519
 8383SOL    HW236612   3.438   1.636   5.319  1.0524  0.1047  0.7524
 8384SOL     OW36613   2.318   0.464  11.802  0.4498 -0.4536  0.0157
 8384SOL    HW136614   2.319   0.516  11.722  1.6130  2.9745  2.2735
 8384SOL    HW236615   2.409   0.435  11.811  0.7714  0.2310 -1.0725
 8385SOL     OW36616   2.535   2.469  17.595 -0.1311  0.0997  0.2767
 8385SOL    HW136617   2.498   2.446  17.680 -0.6337  2.3172  0.6503
 8385SOL    HW236618   2.622   2.435  17.615  0.3888  2.6941  2.5136
 8386SOL     OW36619   1.926   3.791  14.951  0.1296 -0.5922 -0.8986
 8386SOL    HW136620   1.985   3.863  14.971  0.4266 -1.3137  0.8681
 8386SOL    HW236621   1.979   3.736  14.892  4.5207  1.7660  0.8096
 8387SOL     OW36622   0.479   1.038  12.976 -0.1624  0.2697  0.0185
 8387SOL    HW136623   0.480   1.032  12.881 -0.0328 -1.9895  0.1720
 8387SOL    HW236624   0.532   1.118  12.979  2.3634 -1.4641  0.9724
 8388SOL     OW36625   0.554   3.083   9.846 -0.1591  0.4748 -0.0414
 8388SOL    HW136626   0.509   3.167   9.836  1.9810  1.3307 -2.5162
 8388SOL    HW236627   0.554   3.073   9.941  0.1730  1.6502  0.0816
 8389SOL     OW36628   0.322   1.837   7.190  0.1462 -0.3652 -0.0701
 8389SOL    HW136629   0.394   1.812   7.132  1.4665 -0.9352  1.8325
 8389SOL    HW236630   0.254   1.797   7.136  0.5198  0.2097 -0.9859
 8390SOL     OW36631   2.988   3.687   8.146  0.3565 -0.0926 -0.2599
 8390SOL    HW136632   3.012   3.598   8.120  0.5129 -0.6448  1.7474
 8390SOL    HW236633   3.065   3.706   8.200 -0.3360 -3.7362  2.0065
 8391SOL     OW36634   3.365   3.274   4.890 -0.2345  0.1988  0.6535
 8391SOL    HW136635   3.455   3.308   4.892  1.0482 -3.2201  1.7091
 8391SOL    HW236636   3.376   3.221   4.969  1.9922 -0.3103 -0.0016
 8392SOL     OW36637   2.701   0.063  15.162 -0.8953  0.2808 -0.2304
 8392SOL    HW136638   2.743   4.710  15.196 -0.7872  0.4935  0.1275
 8392SOL    HW236639   2.677   0.112  15.240 -2.6796 -3.7150  1.6710
 8393SOL     OW36640   1.244   2.556  14.763 -0.3702 -0.5974 -0.2585
 8393SOL    HW136641   1.217   2.607  14.686 -0.9240 -0.7023 -0.1362
 8393SOL    HW236642   1.329   2.521  14.735 -1.1203 -3.2360  0.7512
 8394SOL     OW36643   0.016   3.160   8.215 -0.0126 -0.4497  0.1277
 8394SOL    HW136644   0.055   3.151   8.302 -1.9976 -0.0478  1.0451
 8394SOL    HW236645   0.011   3.256   8.209  3.5158 -0.2600 -0.1744
 8395SOL     OW36646   1.317   2.120   6.296 -0.4993  0.1929  0.2455
 8395SOL    HW136647   1.401   2.130   6.252 -0.2261 -0.5451  0.6105
 8395SOL    HW236648   1.298   2.029   6.275 -0.1576 -0.1942  1.6015
 8396SOL     OW36649   2.981   3.946   9.405 -0.6524  0.1456  0.1734
 8396SOL    HW136650   3.040   3.886   9.451  2.0317  1.4179 -1.5769
 8396SOL    HW236651   2.898   3.912   9.438  0.4029 -1.7702  0.8899
 8397SOL     OW36652   2.888   2.533  14.332  0.3933  0.5727  0.4095
 8397SOL    HW136653   2.812   2.476  14.323  1.5934 -1.1120  0.8762
 8397SOL    HW236654   2.906   2.577  14.249 -1.1227  1.1117  0.3639
 8398SOL     OW36655   2.074   0.838   6.607  0.4311 -0.0913  0.0670
 8398SOL    HW136656   1.993   0.890   6.610 -0.0342 -0.6905 -2.3923
 8398SOL    HW236657   2.078   0.841   6.511  4.1236 -2.0883  0.1898
 8399SOL     OW36658   1.799   1.330   8.429  0.2707 -0.6361  0.7803
 8399SOL    HW136659   1.869   1.391   8.454  0.9838 -1.6393  1.2161
 8399SOL    HW236660   1.719   1.382   8.442 -0.0027 -0.7443 -0.4815
 8400SOL     OW36661   2.300   2.662   7.952 -0.1520  0.1081  0.0079
 8400SOL    HW136662   2.249   2.715   7.891 -0.5961  0.4761  0.6870
 8400SOL    HW236663   2.240   2.616   8.010  1.5752  0.2833  1.9337
 8401SOL     OW36664   2.326   1.759   3.314  0.5858 -0.1798 -0.1558
 8401SOL    HW136665   2.267   1.754   3.390  2.0954 -0.1380  1.0133
 8401SOL    HW236666   2.267   1.761   3.239 -0.3172  0.3503  0.5586
 8402SOL     OW36667   1.042   2.517   3.329  0.1170  0.8224  0.2942
 8402SOL    HW136668   0.981   2.446   3.307  0.2154  0.8112  0.0584
 8402SOL    HW236669   1.039   2.560   3.244 -0.3065  1.8462  0.8266
 8403SOL     OW36670   4.045   1.513   9.083  0.5556  0.4303 -0.0978
 8403SOL    HW136671   4.066   1.557   9.000 -1.3688  0.7272 -0.4294
 8403SOL    HW236672   4.089   1.432   9.058 -0.0255 -0.0929  0.6160
 8404SOL     OW36673   0.484   1.059  12.701 -0.5472  0.2597 -0.6961
 8404SOL    HW136674   0.444   1.087  12.619 -1.5361  0.9733  0.0102
 8404SOL    HW236675   0.574   1.044  12.673 -0.1259 -2.4668  2.0610
 8405SOL     OW36676   4.110   0.830   4.977 -0.5016  0.7278 -0.1712
 8405SOL    HW136677   4.143   0.915   4.948 -3.5360  1.7035 -0.7496
 8405SOL    HW236678   4.031   0.866   5.018  0.5311  0.7224  1.7874
 8406SOL     OW36679   3.750   0.394   8.560 -0.5425 -0.0699  0.3613
 8406SOL    HW136680   3.691   0.383   8.635 -1.5727 -1.4739 -0.6801
 8406SOL    HW236681   3.818   0.450   8.599 -0.7231  1.0153 -0.8927
 8407SOL     OW36682   1.740   4.223   3.013  0.1027  0.0976  0.1018
 8407SOL    HW136683   1.676   4.205   2.944  0.5669  0.0002 -0.3012
 8407SOL    HW236684   1.686   4.269   3.077 -0.3694 -0.1195 -0.1359
 8408SOL     OW36685   0.196   3.642   9.059 -0.0717  0.2445 -0.0043
 8408SOL    HW136686   0.248   3.701   9.005 -1.6607 -0.9220 -2.8473
 8408SOL    HW236687   0.251   3.629   9.136 -0.3666 -1.0919 -0.0193
 8409SOL     OW36688   4.305   3.175   4.952 -0.2168  0.6982 -0.2509
 8409SOL    HW136689   4.398   3.159   4.937 -0.4982 -1.9177  0.6939
 8409SOL    HW236690   4.310   3.189   5.047  2.5839 -1.4163 -0.0936
 8410SOL     OW36691   4.648   4.435  12.002 -0.6565 -0.1952  0.2490
 8410SOL    HW136692   4.554   4.424  11.988 -0.3100 -1.2312 -1.2972
 8410SOL    HW236693   4.661   4.418  12.096 -2.1144 -3.6575 -0.1839
 8411SOL     OW36694   2.293   1.579   7.497 -0.5332 -0.3164 -0.3294
 8411SOL    HW136695   2.280   1.630   7.417 -2.0866  1.3944  1.0406
 8411SOL    HW236696   2.301   1.651   7.559  2.5930 -0.9112 -0.0616
 8412SOL     OW36697   3.812   4.410   5.832  0.2093 -0.4182 -0.3941
 8412SOL    HW136698   3.858   4.399   5.916 -2.5227 -0.9620  1.0259
 8412SOL    HW236699   3.799   4.317   5.814  1.8680 -0.7280 -0.0741
 8413SOL     OW36700   2.437   0.130   5.074 -0.1649 -0.1449  0.1126
 8413SOL    HW136701   2.498   0.057   5.079 -0.1146 -0.1375 -0.4178
 8413SOL    HW236702   2.430   0.130   4.979 -1.8931  0.7609  0.2293
 8414SOL     OW36703   3.819   3.768   6.491  0.1937 -0.0999 -0.7881
 8414SOL    HW136704   3.878   3.828   6.537 -1.0586 -0.0394  0.7261
 8414SOL    HW236705   3.887   3.714   6.451  2.9061  1.3653  1.7867
 8415SOL     OW36706   0.913   1.629   3.453 -0.3719 -0.0377  0.5922
 8415SOL    HW136707   0.896   1.539   3.424  3.0645 -0.7456  0.8233
 8415SOL    HW236708   0.848   1.637   3.524 -3.0145  2.6314 -2.1349
 8416SOL     OW36709   1.288   2.660   3.383 -0.3891 -0.5102  0.1216
 8416SOL    HW136710   1.211   2.644   3.437  0.0086  1.5043  1.2876
 8416SOL    HW236711   1.265   2.745   3.346  1.8501 -0.6401 -1.5966
 8417SOL     OW36712   3.116   3.703  17.668 -0.0833 -0.5356 -0.2097
 8417SOL    HW136713   3.100   3.609  17.660 -2.4076 -0.2454  1.1025
 8417SOL    HW236714   3.193   3.698   0.024 -1.1499 -1.4424  1.1362
 8418SOL     OW36715   3.637   0.257   8.197  0.3792  0.1401 -0.0007
 8418SOL    HW136716   3.570   0.264   8.266 -1.5930 -0.3091 -1.8807
 8418SOL    HW236717   3.711   0.253   8.257 -0.2016  3.4385  0.9389
 8419SOL     OW36718   4.031   3.848   8.042  0.0187 -0.2139  0.0288
 8419SOL    HW136719   4.108   3.856   7.986  1.2825 -0.8688  1.6728
 8419SOL    HW236720   3.987   3.930   8.019 -1.3245 -0.2298  2.5416
 8420SOL     OW36721   0.803   1.285   8.843  0.5151 -0.0693 -0.0154
 8420SOL    HW136722   0.833   1.194   8.850  0.9290  0.0319 -0.5208
 8420SOL    HW236723   0.825   1.307   8.933 -0.6126 -0.9429  0.4896
 8421SOL     OW36724   1.859   1.729  15.997 -0.7903  0.0691 -0.0008
 8421SOL    HW136725   1.886   1.805  15.946 -0.3577  0.8188  1.3633
 8421SOL    HW236726   1.939   1.678  15.986  0.2956  1.2615  2.4689
 8422SOL     OW36727   0.418   3.607  13.871 -0.0019 -0.4780 -0.6866
 8422SOL    HW136728   0.328   3.622  13.899  0.1924  1.9509 -1.4050
 8422SOL    HW236729   0.448   3.537  13.929 -1.4137 -1.0588 -0.6750
 8423SOL     OW36730   1.001   4.551   5.385  0.3506 -0.1597  0.0293
 8423SOL    HW136731   1.040   4.638   5.377  1.2655 -0.6085 -0.4487
 8423SOL    HW236732   1.076   4.506   5.424  0.5166  1.8976  2.0555
 8424SOL     OW36733   3.844   2.375   3.653 -0.0201  0.2519 -0.1198
 8424SOL    HW136734   3.812   2.303   3.599  0.1500 -0.7668  1.1380
 8424SOL    HW236735   3.763   2.425   3.642 -0.4095 -0.1566  0.9070
 8425SOL     OW36736   3.233   0.428   5.750  0.4477 -0.2277  0.2585
 8425SOL    HW136737   3.300   0.363   5.771  0.1701 -0.5858  0.0313
 8425SOL    HW236738   3.210   0.408   5.660 -3.4081 -0.3655  1.2929
 8426SOL     OW36739   2.769   2.324  17.635 -0.2426  0.0117 -0.0081
 8426SOL    HW136740   2.808   2.253  17.685 -0.2593 -1.2368 -1.7715
 8426SOL    HW236741   2.839   2.338  17.572 -0.3920 -0.2322 -0.2274
 8427SOL     OW36742   3.434   2.704  10.004  0.5505  0.3464 -0.0855
 8427SOL    HW136743   3.468   2.620  10.033 -0.4199  0.5347  1.5376
 8427SOL    HW236744   3.350   2.688   9.962 -0.1036  0.4754  1.1970
 8428SOL     OW36745   3.139   2.484  10.245  0.2332 -0.2213  0.2669
 8428SOL    HW136746   3.192   2.420  10.196 -3.1762 -3.2127  0.5147
 8428SOL    HW236747   3.101   2.423  10.308  0.7656 -0.9016 -0.0683
 8429SOL     OW36748   3.137   2.873   6.540  0.5160 -0.0067 -0.5728
 8429SOL    HW136749   3.105   2.791   6.578  0.2433  0.5088  0.3067
 8429SOL    HW236750   3.231   2.854   6.534  0.8989  1.8162 -0.3185
 8430SOL     OW36751   4.676   0.467   0.766 -0.7294 -0.3948 -0.0225
 8430SOL    HW136752   0.009   0.428   0.700 -1.4193  0.7050 -1.2954
 8430SOL    HW236753   4.595   0.417   0.758 -1.5748  1.2749 -2.1561
 8431SOL     OW36754   2.836   2.279  16.327  0.8356  1.0122  0.8517
 8431SOL    HW136755   2.826   2.259  16.420  0.7362 -1.2859  0.3483
 8431SOL    HW236756   2.851   2.188  16.299  2.2173  0.7077  2.5851
 8432SOL     OW36757   4.701   2.146  15.185  0.4774  0.1424  0.0936
 8432SOL    HW136758   4.610   2.172  15.169 -0.3054 -3.2692 -1.0812
 8432SOL    HW236759   4.686   2.075  15.249  0.0580 -0.9953 -1.2639
 8433SOL     OW36760   4.305   1.248   4.425  0.0550  0.1091 -0.1443
 8433SOL    HW136761   4.366   1.219   4.358  0.6100 -0.9767  0.8283
 8433SOL    HW236762   4.242   1.175   4.423  1.9660 -1.5117 -1.3399
 8434SOL     OW36763   1.184   2.101  14.979  0.4176  0.0040 -0.8005
 8434SOL    HW136764   1.231   2.151  14.912  1.8071 -1.9608 -1.2874
 8434SOL    HW236765   1.144   2.035  14.922 -2.7134  1.2482 -0.0294
 8435SOL     OW36766   4.629   0.642   1.358 -0.0934  0.1479  0.8520
 8435SOL    HW136767   4.682   0.586   1.301  1.3744  1.6568  0.7268
 8435SOL    HW236768   4.681   0.659   1.437  0.7672 -0.5319  0.4269
 8436SOL     OW36769   1.707   1.339  10.100 -0.2122  0.5500 -0.1104
 8436SOL    HW136770   1.717   1.308  10.010 -1.1839 -0.7930  0.2306
 8436SOL    HW236771   1.614   1.319  10.117 -0.0927  0.2101  0.1553
 8437SOL     OW36772   3.742   4.694   6.882 -0.4212 -0.3040 -1.1165
 8437SOL    HW136773   3.799   4.630   6.837  1.4326 -0.7630  1.9115
 8437SOL    HW236774   3.750   0.048   6.830 -0.6193  0.4459  0.0117
 8438SOL     OW36775   1.894   0.889   3.853 -0.3530  0.1821  0.3280
 8438SOL    HW136776   1.962   0.956   3.844 -1.7990  1.8087  1.6347
 8438SOL    HW236777   1.856   0.901   3.766 -2.2742  0.4544  1.1945
 8439SOL     OW36778   3.411   3.400   8.236 -0.0048  0.3333 -0.0251
 8439SOL    HW136779   3.373   3.313   8.244  1.4589 -0.2448  0.7918
 8439SOL    HW236780   3.505   3.379   8.237 -0.2156 -0.6152  0.4164
 8440SOL     OW36781   4.033   1.407   4.568  0.3930 -0.1200  0.4135
 8440SOL    HW136782   3.951   1.422   4.614  1.2582  3.2654  0.8237
 8440SOL    HW236783   4.092   1.356   4.624 -0.5649  0.1949  1.6932
 8441SOL     OW36784   2.404   3.272   4.655 -0.1412 -0.8377  0.2092
 8441SOL    HW136785   2.441   3.202   4.601  1.0155 -0.4678  0.5339
 8441SOL    HW236786   2.346   3.327   4.602  0.6270  0.5307  0.8095
 8442SOL     OW36787   2.625   3.684   8.153 -0.3124  0.0747 -0.0504
 8442SOL    HW136788   2.610   3.778   8.141  2.0637  0.3325 -1.0296
 8442SOL    HW236789   2.583   3.671   8.239 -0.9995  1.7902 -0.1241
 8443SOL     OW36790   0.262   2.502   1.541  0.3433  0.9247 -0.0978
 8443SOL    HW136791   0.191   2.454   1.583  2.2461 -1.1757  0.7198
 8443SOL    HW236792   0.290   2.568   1.605 -1.6608  0.0513  1.6759
 8444SOL     OW36793   4.117   0.611  11.724  0.0832  0.2352 -0.4223
 8444SOL    HW136794   4.157   0.620  11.638  1.0165  1.2016  0.1241
 8444SOL    HW236795   4.178   0.549  11.766  0.9369  0.4157 -1.3937
 8445SOL     OW36796   3.664   3.414   0.562  0.5485 -0.2855  0.1305
 8445SOL    HW136797   3.754   3.380   0.557  1.0823  1.1706 -0.0225
 8445SOL    HW236798   3.654   3.430   0.468 -0.2005 -4.0653 -0.4369
 8446SOL     OW36799   4.547   1.018  15.338  0.5097 -0.0098 -0.4702
 8446SOL    HW136800   4.463   1.029  15.293 -0.1542 -2.1837  0.2191
 8446SOL    HW236801   4.522   0.977  15.421  1.4629  0.9686  0.2852
 8447SOL     OW36802   0.514   1.901   3.410  0.0890  0.1543 -0.0510
 8447SOL    HW136803   0.526   1.868   3.500 -0.1302 -1.5444 -0.6483
 8447SOL    HW236804   0.586   1.858   3.365 -0.9204 -2.1081  0.4672
 8448SOL     OW36805   0.098   1.883   5.322  0.3419  0.1350  0.7941
 8448SOL    HW136806   0.096   1.916   5.232  0.8760 -1.5884  0.1493
 8448SOL    HW236807   0.004   1.879   5.338  0.1450 -2.4988 -0.9600
 8449SOL     OW36808   2.461   3.449   5.913  0.0114  0.4857  0.3489
 8449SOL    HW136809   2.428   3.494   5.991  1.8147 -0.1896  1.4882
 8449SOL    HW236810   2.536   3.406   5.953 -0.9109  1.4208  3.0428
 8450SOL     OW36811   2.301   3.704   7.806  0.0312 -0.0605  0.2156
 8450SOL    HW136812   2.208   3.682   7.801  0.1831 -0.5040 -0.5621
 8450SOL    HW236813   2.314   3.749   7.723  0.9957 -1.9107 -0.6314
 8451SOL     OW36814   4.694   2.511  16.447 -0.7290  0.1316 -0.3808
 8451SOL    HW136815   4.715   2.471  16.363 -1.4620  1.7927 -1.3623
 8451SOL    HW236816   0.016   2.454  16.508 -0.2194  1.2791  0.2881
 8452SOL     OW36817   0.807   0.458  11.025  0.3019  0.5826 -0.1771
 8452SOL    HW136818   0.832   0.478  10.935  2.5125 -1.7882 -0.0940
 8452SOL    HW236819   0.888   0.414  11.053 -1.0250 -0.6650  1.6884
 8453SOL     OW36820   0.449   0.623  10.731  0.1780 -0.0866 -0.4605
 8453SOL    HW136821   0.407   0.557  10.787 -0.5005  0.1646 -0.6820
 8453SOL    HW236822   0.536   0.643  10.766  0.5736 -0.7941 -1.0302
 8454SOL     OW36823   2.753   3.213   7.224  0.2739  0.5235 -0.2600
 8454SOL    HW136824   2.813   3.226   7.151  0.2601 -0.9132 -0.5359
 8454SOL    HW236825   2.805   3.218   7.304 -1.1101  1.9741  0.5433
 8455SOL     OW36826   0.134   0.712  16.642 -0.5999 -0.2414 -0.0828
 8455SOL    HW136827   0.168   0.802  16.636 -1.9151  0.2342 -0.3493
 8455SOL    HW236828   0.141   0.683  16.551 -1.1121  1.7260 -0.7582
 8456SOL     OW36829   1.333   1.741  12.205 -0.7678 -0.2047 -0.6293
 8456SOL    HW136830   1.365   1.669  12.260  1.5100  0.5297 -0.9780
 8456SOL    HW236831   1.241   1.723  12.189 -1.1040 -0.0612  1.1252
 8457SOL     OW36832   0.085   4.506   8.382  0.4756  0.0063  0.0523
 8457SOL    HW136833   0.023   4.579   8.371 -2.3182 -2.0784  2.0433
 8457SOL    HW236834   0.036   4.444   8.436  1.3979 -0.8162 -0.0592
 8458SOL     OW36835   2.569   3.752  16.729 -0.2497 -0.1148 -0.2837
 8458SOL    HW136836   2.549   3.681  16.668  1.3970 -1.5157  0.7873
 8458SOL    HW236837   2.663   3.738  16.738 -0.2765  0.3849  0.7326
 8459SOL     OW36838   0.411   0.811  10.070  0.5396 -0.0800  0.3297
 8459SOL    HW136839   0.322   0.790  10.042  0.6120 -0.5367  0.4378
 8459SOL    HW236840   0.387   0.901  10.095 -0.4076 -0.1743 -0.2420
 8460SOL     OW36841   1.288   4.447   9.761 -0.1672  0.2661 -0.5383
 8460SOL    HW136842   1.376   4.482   9.764  0.9007 -2.3767 -0.4186
 8460SOL    HW236843   1.280   4.418   9.852  0.7749 -1.4504 -0.9937
 8461SOL     OW36844   4.365   0.528  17.620  0.1688 -0.4355 -0.1464
 8461SOL    HW136845   4.386   0.502   0.007 -0.1113 -0.5888 -0.1231
 8461SOL    HW236846   4.370   0.440  17.583  2.2900 -0.7480  0.9242
 8462SOL     OW36847   1.686   3.925   8.569 -0.0498 -0.5232  0.1891
 8462SOL    HW136848   1.686   3.988   8.641  1.8482 -0.0922 -0.1972
 8462SOL    HW236849   1.715   3.847   8.617 -0.5218 -0.3002  0.8418
 8463SOL     OW36850   1.259   0.203   3.178 -0.5146 -0.4967 -0.0597
 8463SOL    HW136851   1.185   0.150   3.205  1.5371 -3.2567  0.1277
 8463SOL    HW236852   1.253   0.268   3.249  0.8861 -1.9329  1.3799
 8464SOL     OW36853   1.470   2.716   0.318 -0.6818  0.0076  0.0834
 8464SOL    HW136854   1.480   2.757   0.232 -1.9441 -3.0371 -1.5257
 8464SOL    HW236855   1.456   2.789   0.378 -0.3241 -0.9285  1.3024
 8465SOL     OW36856   2.744   0.592   5.859 -0.5607  0.2278  0.1057
 8465SOL    HW136857   2.766   0.523   5.922 -2.1992 -0.3156  0.0934
 8465SOL    HW236858   2.799   0.566   5.784 -1.4781 -1.3476 -0.0242
 8466SOL     OW36859   4.175   4.016   1.530 -0.3669  0.2133  0.3546
 8466SOL    HW136860   4.145   4.013   1.439 -0.4011 -1.4826  0.4132
 8466SOL    HW236861   4.263   3.979   1.524 -0.1186  1.4584 -3.5107
 8467SOL     OW36862   4.265   0.732  10.297  0.1162 -0.2442 -0.3041
 8467SOL    HW136863   4.209   0.808  10.309 -0.2313 -0.4324 -0.7559
 8467SOL    HW236864   4.206   0.675  10.249 -2.0662  0.2600  1.7785
 8468SOL     OW36865   3.530   4.380   8.649 -0.4065  0.5535 -0.5118
 8468SOL    HW136866   3.562   4.297   8.614 -1.6097 -0.2203  0.2105
 8468SOL    HW236867   3.454   4.354   8.701  1.6392  0.5406  2.4662
 8469SOL     OW36868   3.767   3.007   3.721  0.4922 -0.3953 -0.0201
 8469SOL    HW136869   3.674   3.027   3.725  0.4546 -0.7479  0.9181
 8469SOL    HW236870   3.757   2.914   3.703 -0.8096 -0.8003  2.8045
 8470SOL     OW36871   1.092   0.848   8.214  0.0816  0.1783  0.2529
 8470SOL    HW136872   1.146   0.928   8.218 -0.9630  0.8357  1.1842
 8470SOL    HW236873   1.139   0.794   8.151 -1.5172  0.2472 -1.0175
 8471SOL     OW36874   0.811   1.142   4.483  0.1327 -0.3289  0.6931
 8471SOL    HW136875   0.837   1.233   4.470  1.9066 -0.8916  0.2269
 8471SOL    HW236876   0.764   1.143   4.566  0.5702  1.5364  0.9102
 8472SOL     OW36877   1.146   3.979  11.669  0.6654  0.3707  0.1255
 8472SOL    HW136878   1.143   3.894  11.625  0.3443  0.2761  0.3253
 8472SOL    HW236879   1.197   3.956  11.747 -1.6759 -2.6375  0.8006
 8473SOL     OW36880   0.466   2.574   3.487 -0.6064 -0.2777  0.0908
 8473SOL    HW136881   0.376   2.548   3.466 -0.1541  0.2082 -2.4667
 8473SOL    HW236882   0.500   2.486   3.501  0.1803 -0.1668 -1.0727
 8474SOL     OW36883   2.430   3.017  11.505 -0.1480  0.4265 -0.4446
 8474SOL    HW136884   2.467   3.102  11.482  1.4596 -0.2582 -0.4120
 8474SOL    HW236885   2.454   3.014  11.598  1.0333  0.9437 -0.7406
 8475SOL     OW36886   2.976   4.010  17.456 -0.3181  0.1220  0.1346
 8475SOL    HW136887   2.991   4.051  17.370 -0.7751 -0.4578 -0.2192
 8475SOL    HW236888   2.999   4.088  17.506 -2.5181 -0.3002  1.7858
 8476SOL     OW36889   3.970   3.657  14.854  0.4644  0.3808  0.4676
 8476SOL    HW136890   3.953   3.577  14.904 -1.0238  0.1483 -0.4161
 8476SOL    HW236891   3.880   3.668  14.823  0.5177  1.7583  0.8016
 8477SOL     OW36892   4.137   0.307  17.440  0.2917 -0.1603 -0.1058
 8477SOL    HW136893   4.132   0.234  17.378  2.3581  0.2643 -0.7630
 8477SOL    HW236894   4.231   0.320  17.451  0.4337 -1.8422  0.6597
 8478SOL     OW36895   0.922   3.810   4.835  0.3229 -0.0194 -0.2764
 8478SOL    HW136896   0.969   3.814   4.751  1.9227  3.3171  0.7657
 8478SOL    HW236897   0.849   3.871   4.821  2.4608  3.1505  2.3640
 8479SOL     OW36898   0.404   2.804  15.120 -0.4433  0.0105 -0.3419
 8479SOL    HW136899   0.398   2.748  15.198  1.4847 -0.3032 -0.4079
 8479SOL    HW236900   0.499   2.812  15.115 -0.4206  0.1477  0.3547
 8480SOL     OW36901   0.240   1.515   1.645 -0.5523  0.1528  0.1601
 8480SOL    HW136902   0.215   1.581   1.709 -0.2978  0.9405 -0.5449
 8480SOL    HW236903   0.274   1.447   1.703  1.9331  0.2786 -1.1527
 8481SOL     OW36904   3.174   3.882  11.065  0.4169 -0.4153 -0.3389
 8481SOL    HW136905   3.129   3.966  11.050  0.8658 -0.4281 -1.7658
 8481SOL    HW236906   3.099   3.823  11.075 -0.1319  0.2957 -0.2349
 8482SOL     OW36907   0.806   3.493  10.831 -0.3841 -0.0250 -0.9261
 8482SOL    HW136908   0.796   3.434  10.906  2.2099 -2.0784 -2.1770
 8482SOL    HW236909   0.901   3.493  10.821 -0.1674  0.3336  1.0606
 8483SOL     OW36910   3.676   2.656   7.460 -0.4745  0.7454 -0.4376
 8483SOL    HW136911   3.727   2.614   7.390  0.4256  1.8247 -0.4385
 8483SOL    HW236912   3.642   2.570   7.483  1.3160 -0.3014 -1.7422
 8484SOL     OW36913   0.855   4.674   6.088  0.6383 -0.0745 -0.3565
 8484SOL    HW136914   0.898   0.028   6.056  1.4521 -0.3632  0.0177
 8484SOL    HW236915   0.929   4.628   6.129 -0.5663 -0.1807  1.7356
 8485SOL     OW36916   2.467   3.918  10.188 -0.5076 -0.1151  0.2743
 8485SOL    HW136917   2.401   3.988  10.184 -2.0480 -1.5109  1.1918
 8485SOL    HW236918   2.520   3.951  10.261 -0.7929  0.6760  0.1282
 8486SOL     OW36919   2.564   0.646   0.170 -0.1747  0.0110 -0.0119
 8486SOL    HW136920   2.563   0.684   0.082  0.7865 -0.4303 -0.2214
 8486SOL    HW236921   2.474   0.616   0.174  0.1824 -1.0698 -0.0397
 8487SOL     OW36922   3.829   1.471   4.024 -0.5902  0.2769  0.3746
 8487SOL    HW136923   3.802   1.453   4.114 -3.0744 -0.3817 -0.5160
 8487SOL    HW236924   3.825   1.565   4.006 -1.7073  0.0901 -0.3946
 8488SOL     OW36925   3.839   2.891   5.038  0.1927  0.0914  0.2891
 8488SOL    HW136926   3.855   2.927   4.950  2.1284  1.2149  1.1075
 8488SOL    HW236927   3.883   2.806   5.041  0.1597  0.1082  1.1083
 8489SOL     OW36928   4.229   0.515   8.485 -0.2142 -0.1472 -0.5030
 8489SOL    HW136929   4.231   0.467   8.568  0.0841  1.1521  0.2429
 8489SOL    HW236930   4.306   0.483   8.440  0.4450 -2.3491  2.1807
 8490SOL     OW36931   0.102   2.001   5.055  0.2739 -0.4167  0.5348
 8490SOL    HW136932   0.095   1.924   4.998 -1.2737  0.0274  0.1410
 8490SOL    HW236933   0.189   2.034   5.033 -0.1963 -1.0300 -2.3228
 8491SOL     OW36934   3.034   4.170  16.533  0.1672 -0.4052 -0.6054
 8491SOL    HW136935   3.074   4.226  16.599 -0.9095  0.5067 -0.7245
 8491SOL    HW236936   3.046   4.085  16.575 -0.7389 -1.6973 -2.9095
 8492SOL     OW36937   0.580   1.323  15.003  0.3794 -0.3693  0.3299
 8492SOL    HW136938   0.550   1.305  14.914  2.3116 -0.8209 -0.2423
 8492SOL    HW236939   0.667   1.282  14.998  0.9374  0.8958 -0.2988
 8493SOL     OW36940   1.896   4.443   7.152 -0.1434 -0.1385  0.1622
 8493SOL    HW136941   1.983   4.466   7.184 -0.3693  2.2934 -0.9508
 8493SOL    HW236942   1.844   4.524   7.158 -1.0519 -0.7796  0.8033
 8494SOL     OW36943   1.549   0.569   9.369  0.8020 -0.1118 -0.2947
 8494SOL    HW136944   1.503   0.629   9.311 -0.8706 -1.7070 -0.5995
 8494SOL    HW236945   1.631   0.556   9.322  1.6603  0.3494  1.0603
 8495SOL     OW36946   1.908   2.830  12.561 -0.8785 -0.0575  0.1219
 8495SOL    HW136947   1.846   2.903  12.564 -0.4829  0.2818  0.0759
 8495SOL    HW236948   1.946   2.820  12.649 -1.1155 -0.6691  0.1551
 8496SOL     OW36949   2.098   0.424   3.110  0.0455  0.1442 -0.1557
 8496SOL    HW136950   2.023   0.375   3.078  0.8103  0.5624 -2.5853
 8496SOL    HW236951   2.159   0.350   3.107  1.9191  1.6886 -0.0560
 8497SOL     OW36952   1.747   4.182   5.732 -0.7336 -0.3432 -0.9533
 8497SOL    HW136953   1.815   4.250   5.732 -2.1018  0.9861  1.8317
 8497SOL    HW236954   1.787   4.112   5.784 -2.0842  0.5112  1.2257
 8498SOL     OW36955   0.366   1.089   6.938 -0.3454  0.0334 -0.7252
 8498SOL    HW136956   0.288   1.084   6.883 -0.8919 -0.1354  0.0613
 8498SOL    HW236957   0.424   1.129   6.874  2.1915 -1.3342  0.7497
 8499SOL     OW36958   0.315   0.653  13.531 -0.2640 -0.8395  0.3634
 8499SOL    HW136959   0.309   0.740  13.569  0.7764 -1.5676  2.1980
 8499SOL    HW236960   0.393   0.619  13.575  2.0723  2.9646 -0.8730
 8500SOL     OW36961   3.944   2.116   4.395  0.5547 -0.0607  0.7609
 8500SOL    HW136962   3.874   2.108   4.460  0.2158  0.8210  0.5039
 8500SOL    HW236963   4.000   2.050   4.436 -1.6026 -2.0792  0.3906
 8501SOL     OW36964   4.168   2.199   6.432 -0.2927  0.1042 -0.5508
 8501SOL    HW136965   4.197   2.138   6.365 -2.3379 -0.2315 -1.1403
 8501SOL    HW236966   4.233   2.183   6.500 -0.6311  0.2252 -0.1963
 8502SOL     OW36967   0.378   3.228   6.641 -0.0461  0.1637  0.2299
 8502SOL    HW136968   0.349   3.137   6.638  2.3822 -0.6359  0.9291
 8502SOL    HW236969   0.310   3.260   6.700  0.9873  1.2783  0.7996
 8503SOL     OW36970   3.108   2.672   5.777 -0.3976  0.3256 -0.2890
 8503SOL    HW136971   3.080   2.722   5.701 -1.4437 -0.5730 -0.4914
 8503SOL    HW236972   3.088   2.731   5.849  4.0696  0.3052  0.9517
 8504SOL     OW36973   4.489   0.854   7.620  0.4454 -0.3771  0.0924
 8504SOL    HW136974   4.572   0.837   7.577  0.8997  1.5678  0.1866
 8504SOL    HW236975   4.512   0.904   7.699 -2.0199  2.9998 -1.3156
 8505SOL     OW36976   2.247   2.379  11.515  0.0263 -0.3637  0.3809
 8505SOL    HW136977   2.247   2.348  11.425 -1.0720  0.2053  0.1846
 8505SOL    HW236978   2.336   2.415  11.513 -0.7110  1.4340 -0.1044
 8506SOL     OW36979   3.769   0.716   7.906  0.3383 -0.1573  0.0268
 8506SOL    HW136980   3.778   0.634   7.954 -0.3205  0.3021  0.9071
 8506SOL    HW236981   3.676   0.726   7.885  0.5576  4.0670  0.9956
 8507SOL     OW36982   3.825   0.445  11.864 -0.3319 -0.1651  0.3260
 8507SOL    HW136983   3.826   0.350  11.853  2.7325 -0.0335 -0.3591
 8507SOL    HW236984   3.881   0.454  11.940  1.1576 -0.9946 -0.6651
 8508SOL     OW36985   3.052   3.029  13.703  0.1203  0.0103  0.4649
 8508SOL    HW136986   3.105   3.041  13.624 -3.5416  1.4446 -1.8187
 8508SOL    HW236987   3.110   3.063  13.771 -0.6215 -0.0650  1.1303
 8509SOL     OW36988   3.303   2.730   4.453  0.5922 -0.0322  0.4889
 8509SOL    HW136989   3.378   2.778   4.419 -0.0954  0.9163  0.2961
 8509SOL    HW236990   3.265   2.801   4.506  0.8309  0.3492  0.1423
 8510SOL     OW36991   3.931   3.857  13.205  0.6188  0.2079 -0.1056
 8510SOL    HW136992   3.977   3.940  13.192  0.3499  0.6305  1.7086
 8510SOL    HW236993   3.841   3.888  13.212  0.6379  0.3253 -0.3756
 8511SOL     OW36994   2.796   4.609  13.626  0.0057  0.4080  0.1231
 8511SOL    HW136995   2.841   4.689  13.597  2.1934 -1.2038 -0.9519
 8511SOL    HW236996   2.728   4.649  13.681 -0.9541  1.2879 -1.6918
 8512SOL     OW36997   0.577   0.420   8.295  0.1189  0.1521 -0.1306
 8512SOL    HW136998   0.499   0.380   8.334  1.9871 -3.3097  0.0085
 8512SOL    HW236999   0.644   0.416   8.363 -0.5936  1.9673  0.6546
 8513SOL     OW37000   0.799   4.399   8.584 -0.5688  0.6193  0.2219
 8513SOL    HW137001   0.851   4.480   8.576 -1.3065  1.3343  2.9539
 8513SOL    HW237002   0.807   4.381   8.677 -0.2558  2.5268  0.5690
 8514SOL     OW37003   2.537   1.013   5.207  0.2812 -0.2632 -0.4101
 8514SOL    HW137004   2.532   0.950   5.279 -2.3050  1.0254  0.5389
 8514SOL    HW237005   2.447   1.044   5.219  0.6852  0.3997  0.9335
 8515SOL     OW37006   3.448   3.289  11.842 -0.0871 -0.1148  0.2521
 8515SOL    HW137007   3.469   3.196  11.855  1.2775  0.1206 -0.2786
 8515SOL    HW237008   3.535   3.313  11.872 -0.2940  0.5561  0.3030
 8516SOL     OW37009   3.220   2.578   8.904  0.1167 -0.3347 -0.2483
 8516SOL    HW137010   3.280   2.509   8.933  1.4568  0.5345 -0.9493
 8516SOL    HW237011   3.191   2.599   8.993 -0.2417 -1.1592 -0.1659
 8517SOL     OW37012   2.422   2.462  10.279 -0.2783  0.0168  0.1428
 8517SOL    HW137013   2.424   2.544  10.230 -0.8597  0.6035  1.0746
 8517SOL    HW237014   2.342   2.419  10.252 -0.2683 -0.4629  0.8671
 8518SOL     OW37015   4.636   3.810  13.475 -0.4939 -0.1582  0.0914
 8518SOL    HW137016   4.681   3.803  13.391 -0.0105  1.4658  0.2241
 8518SOL    HW237017   4.669   3.891  13.513 -0.3809 -1.2105  2.2360
 8519SOL     OW37018   0.850   2.184   6.833 -0.0901 -0.5482  0.4348
 8519SOL    HW137019   0.763   2.217   6.853 -0.1651 -1.3664  1.5272
 8519SOL    HW237020   0.837   2.119   6.765 -1.1002  0.2640 -0.1331
 8520SOL     OW37021   1.428   3.419   7.637 -0.0389  0.1069  0.6458
 8520SOL    HW137022   1.421   3.340   7.690 -1.9338  0.4401  0.9017
 8520SOL    HW237023   1.517   3.400   7.607  0.2540  2.6227 -0.1349
 8521SOL     OW37024   2.072   0.060   2.104 -0.4418 -0.3031 -0.0292
 8521SOL    HW137025   2.101   0.146   2.134  2.8597 -1.8828  1.3457
 8521SOL    HW237026   1.989   0.048   2.149  0.5230  0.3789  1.9172
 8522SOL     OW37027   1.397   3.580   4.871 -0.1442 -0.7849  0.2041
 8522SOL    HW137028   1.471   3.553   4.817 -0.4443  0.6528 -0.9234
 8522SOL    HW237029   1.330   3.532   4.823  0.4868 -0.7833 -0.6727
 8523SOL     OW37030   4.164   1.636   8.812 -0.0762  0.3861 -0.0595
 8523SOL    HW137031   4.078   1.654   8.773  0.4909 -0.7317 -1.8274
 8523SOL    HW237032   4.183   1.563   8.753  0.7475  1.4373 -1.1058
 8524SOL     OW37033   2.430   2.460   5.393 -0.4474 -0.5243 -0.1173
 8524SOL    HW137034   2.443   2.426   5.304 -0.3406  1.3464 -0.8233
 8524SOL    HW237035   2.476   2.400   5.452 -0.3591 -2.9193 -2.6247
 8525SOL     OW37036   3.618   2.885   7.883 -0.4180  0.4092 -0.0065
 8525SOL    HW137037   3.579   2.799   7.866 -0.7372  0.2670  1.4574
 8525SOL    HW237038   3.609   2.927   7.797 -0.5668 -0.9657 -0.6672
 8526SOL     OW37039   0.102   2.466   8.695  0.4930 -0.7449  0.1270
 8526SOL    HW137040   0.027   2.506   8.739  2.1779  0.2142  2.1271
 8526SOL    HW237041   0.176   2.499   8.747  1.4087 -0.3480 -1.4030
 8527SOL     OW37042   0.288   3.634   4.974 -0.1250 -0.4750  0.1069
 8527SOL    HW137043   0.337   3.555   4.952 -0.2192  0.0172 -1.8620
 8527SOL    HW237044   0.260   3.614   5.063 -1.1512  0.9796  0.1184
 8528SOL     OW37045   1.368   0.228   7.268  0.2830 -0.1594 -0.2806
 8528SOL    HW137046   1.435   0.286   7.305 -0.0013  0.3638 -0.5745
 8528SOL    HW237047   1.375   0.240   7.173 -1.0346  0.5858 -0.2870
 8529SOL     OW37048   1.403   3.119  14.131  0.1523  0.3438 -0.7790
 8529SOL    HW137049   1.334   3.145  14.070 -0.1082  0.7454 -0.3128
 8529SOL    HW237050   1.446   3.202  14.150  1.1362 -0.2613 -0.3490
 8530SOL     OW37051   2.461   4.526   6.965 -0.1828 -0.0573  0.3410
 8530SOL    HW137052   2.491   4.548   7.053  0.5415 -3.4827  0.9487
 8530SOL    HW237053   2.462   4.615   6.930 -1.4460  1.6383  4.6331
 8531SOL     OW37054   3.424   4.314   5.309  0.2410 -0.6651 -0.0750
 8531SOL    HW137055   3.505   4.279   5.270  1.1530  2.4189 -0.9576
 8531SOL    HW237056   3.349   4.309   5.249 -1.0664  1.9023  1.3582
 8532SOL     OW37057   0.208   4.388   4.328  0.2384  0.2934  0.8193
 8532SOL    HW137058   0.132   4.408   4.383  0.9497 -0.7466  2.1711
 8532SOL    HW237059   0.248   4.473   4.348  1.9556  0.0532 -1.6232
 8533SOL     OW37060   0.169   0.080   6.873  0.6924 -0.0736  0.1956
 8533SOL    HW137061   0.215   0.163   6.877 -0.0230  0.4962 -3.2228
 8533SOL    HW237062   0.242   0.026   6.902 -0.4282 -1.4706  0.4367
 8534SOL     OW37063   2.345   3.490   6.592 -0.3818 -0.3778  0.6822
 8534SOL    HW137064   2.312   3.468   6.679  0.4996 -1.1072  0.8327
 8534SOL    HW237065   2.292   3.568   6.576 -0.7642 -0.3317  2.1585
 8535SOL     OW37066   0.724   3.410   7.145 -0.1271  0.1670  0.7386
 8535SOL    HW137067   0.747   3.438   7.056 -0.6897  1.1191  0.8832
 8535SOL    HW237068   0.808   3.400   7.189  0.6490  1.6721 -0.3847
 8536SOL     OW37069   2.267   4.122   5.333 -0.3293 -0.3489 -0.0103
 8536SOL    HW137070   2.219   4.095   5.411  0.1129 -1.2498 -0.0606
 8536SOL    HW237071   2.353   4.086   5.354  0.3960  1.0883 -0.5115
 8537SOL     OW37072   3.245   4.492   3.217 -0.3629  0.1622  0.1527
 8537SOL    HW137073   3.200   4.431   3.275  0.3561 -1.7792 -1.3027
 8537SOL    HW237074   3.214   4.471   3.129 -1.7566  0.0021  0.6868
 8538SOL     OW37075   3.075   0.342   1.063 -0.0903 -0.4215 -0.4653
 8538SOL    HW137076   2.989   0.377   1.089  0.7107 -0.1333  1.7675
 8538SOL    HW237077   3.055   0.290   0.985 -0.7665  0.3522 -0.8135
 8539SOL     OW37078   1.063   3.785   6.717  0.1557  0.6245 -0.5604
 8539SOL    HW137079   0.983   3.813   6.763  0.8838  2.2602 -0.2967
 8539SOL    HW237080   1.030   3.797   6.628  0.9020 -2.3108 -1.2428
 8540SOL     OW37081   3.879   3.161   5.336  0.7522  0.5480 -0.3212
 8540SOL    HW137082   3.867   3.189   5.246  0.2408 -0.2044 -0.4886
 8540SOL    HW237083   3.888   3.066   5.326  1.3133  0.2504  2.8123
 8541SOL     OW37084   1.388   3.840   2.053 -0.0600  0.1784 -0.0718
 8541SOL    HW137085   1.322   3.896   2.094  0.4418  1.1365 -0.5822
 8541SOL    HW237086   1.336   3.795   1.986 -0.9458  0.3052  0.5340
 8542SOL     OW37087   3.948   4.523  13.059  0.4205  0.4061  0.6420
 8542SOL    HW137088   3.918   4.479  13.138 -1.6318 -1.7612 -1.3533
 8542SOL    HW237089   3.869   4.510  13.007  0.5872 -1.2627  0.8120
 8543SOL     OW37090   1.462   3.267  14.503 -0.5086 -0.7391 -0.3753
 8543SOL    HW137091   1.511   3.338  14.545  0.9940  0.3516 -4.0368
 8543SOL    HW237092   1.431   3.210  14.574 -2.4470  0.2216 -0.4568
 8544SOL     OW37093   1.754   1.143   7.354  0.3860 -0.2519  0.2615
 8544SOL    HW137094   1.699   1.185   7.420 -0.2605  0.8984 -0.9860
 8544SOL    HW237095   1.835   1.189   7.375  1.5273 -2.3503  0.3820
 8545SOL     OW37096   0.442   2.359   7.212 -0.1019 -0.3004  0.1563
 8545SOL    HW137097   0.448   2.454   7.199 -1.4458 -0.1645  0.4913
 8545SOL    HW237098   0.422   2.327   7.124  0.7746 -1.2750  0.3074
 8546SOL     OW37099   2.636   3.700   5.755  0.2676 -0.1368 -0.1679
 8546SOL    HW137100   2.553   3.729   5.717  0.2026 -0.4282 -0.2504
 8546SOL    HW237101   2.618   3.727   5.846  1.2962 -0.6992  0.1999
 8547SOL     OW37102   1.947   2.162   7.298 -0.1050 -0.7486  0.1143
 8547SOL    HW137103   2.002   2.107   7.241 -1.0465 -0.0783 -1.4273
 8547SOL    HW237104   2.017   2.226   7.310 -1.7975  1.4792 -1.8435
 8548SOL     OW37105   3.428   0.794  16.070 -0.1935 -0.0696  0.1781
 8548SOL    HW137106   3.352   0.806  16.128 -1.1467  2.6120 -1.6468
 8548SOL    HW237107   3.381   0.767  15.991 -0.5665  0.3675  0.2486
 8549SOL     OW37108   2.026   3.764   8.390  0.1064 -0.3391  0.1429
 8549SOL    HW137109   1.989   3.851   8.380 -1.2758 -1.0250 -0.8130
 8549SOL    HW237110   2.106   3.786   8.437  0.9823 -2.5949 -0.2766
 8550SOL     OW37111   3.772   4.634  10.568 -0.1127 -0.4308  0.2011
 8550SOL    HW137112   3.699   4.589  10.525  0.4850 -1.4989  0.3063
 8550SOL    HW237113   3.842   4.607  10.510  0.6293  0.0560  0.8757
 8551SOL     OW37114   0.781   1.413   8.062 -0.0889  0.5422  0.1867
 8551SOL    HW137115   0.830   1.433   8.141  0.4520  0.0841 -0.0374
 8551SOL    HW237116   0.851   1.402   7.998 -0.0381 -0.2043  0.3668
 8552SOL     OW37117   0.725   4.550   8.290  0.4047 -0.7284 -0.4498
 8552SOL    HW137118   0.677   4.468   8.280 -1.1030  0.3444 -1.8472
 8552SOL    HW237119   0.815   4.523   8.269  1.3510  0.5282  1.9160
 8553SOL     OW37120   2.909   4.521   7.706 -0.2067  0.3527 -0.0957
 8553SOL    HW137121   2.889   4.431   7.681  1.7040 -0.3184  0.7680
 8553SOL    HW237122   2.902   4.569   7.623  0.7284 -0.1725 -0.4695
 8554SOL     OW37123   1.670   3.986   4.854  0.9306 -0.1562  0.3103
 8554SOL    HW137124   1.683   4.049   4.783  3.6699 -0.7830  0.2337
 8554SOL    HW237125   1.648   4.045   4.925  2.5983  0.6319  0.1848
 8555SOL     OW37126   4.649   0.556   3.381  0.3624  0.6346 -0.1192
 8555SOL    HW137127   0.008   0.571   3.424  0.0583 -0.6418  0.9332
 8555SOL    HW237128   4.585   0.554   3.451 -0.4157  1.1008 -0.8170
 8556SOL     OW37129   4.235   0.305  12.110  0.2775 -0.0588 -0.2148
 8556SOL    HW137130   4.210   0.305  12.202  0.3316 -0.3648 -0.2004
 8556SOL    HW237131   4.233   0.213  12.081 -2.9248  0.1011 -0.5004
 8557SOL     OW37132   1.403   1.561   6.332 -0.4622 -0.6593 -0.2243
 8557SOL    HW137133   1.372   1.593   6.247 -1.7293  0.8677  0.8086
 8557SOL    HW237134   1.444   1.476   6.318  0.2486 -0.3531 -0.0327
 8558SOL     OW37135   0.496   1.158   6.723 -0.2962 -0.1926 -0.2597
 8558SOL    HW137136   0.577   1.109   6.708  0.0453  0.2586  0.1325
 8558SOL    HW237137   0.443   1.137   6.646 -1.6329 -3.9724  1.6457
 8559SOL     OW37138   1.957   2.443  16.906 -0.6195  0.2757 -0.5103
 8559SOL    HW137139   1.902   2.376  16.947  1.5087 -1.1773 -0.0063
 8559SOL    HW237140   1.919   2.526  16.935 -1.3080  0.3007 -1.4877
 8560SOL     OW37141   3.317   1.143  13.688  0.1994 -0.3283  0.7032
 8560SOL    HW137142   3.269   1.080  13.742 -1.3639  0.4599  0.2333
 8560SOL    HW237143   3.259   1.219  13.689  3.1537  1.9904 -1.3579
 8561SOL     OW37144   1.501   2.525   1.914 -0.2159 -0.2295  0.3448
 8561SOL    HW137145   1.491   2.473   1.834  2.6803 -0.6999  0.3056
 8561SOL    HW237146   1.548   2.463   1.969  0.6256  0.4541  0.3986
 8562SOL     OW37147   0.524   4.098   0.940  0.1439  0.0291  0.3911
 8562SOL    HW137148   0.482   4.181   0.917  0.0978 -0.3362 -0.8417
 8562SOL    HW237149   0.527   4.071   0.849 -1.0985  0.6024  0.1867
 8563SOL     OW37150   2.154   3.801   7.009 -0.4955  0.9393  0.1314
 8563SOL    HW137151   2.123   3.857   7.080  1.5771  0.3508  1.4966
 8563SOL    HW237152   2.230   3.844   6.969  0.2773  1.5163  2.2005
 8564SOL     OW37153   2.304   4.665   8.287 -0.1915 -0.2912  0.0403
 8564SOL    HW137154   2.296   0.020   8.236  4.8135  0.0220 -0.2991
 8564SOL    HW237155   2.238   4.684   8.354 -1.0280  0.1993 -0.9232
 8565SOL     OW37156   0.794   4.009   6.261  0.0287 -0.7233  0.3347
 8565SOL    HW137157   0.829   3.925   6.290  1.5936 -0.5298 -1.0152
 8565SOL    HW237158   0.875   4.060   6.257 -2.3574  2.8503 -2.3098
 8566SOL     OW37159   4.636   3.970   2.644  0.3010 -0.0457  0.3867
 8566SOL    HW137160   0.006   3.955   2.646  0.0221 -1.6199  2.6722
 8566SOL    HW237161   4.636   4.051   2.593 -1.6175 -0.6191 -0.5190
 8567SOL     OW37162   3.596   2.189   5.606 -0.3632  0.2088  0.0170
 8567SOL    HW137163   3.681   2.217   5.572  0.2302 -0.8883  0.6049
 8567SOL    HW237164   3.620   2.182   5.698  0.0312  1.5063  0.0148
 8568SOL     OW37165   0.893   2.497   8.067  0.4649 -0.0695  1.3345
 8568SOL    HW137166   0.873   2.590   8.056  2.8318  0.4077  0.9878
 8568SOL    HW237167   0.971   2.492   8.013 -0.4339 -0.9301  0.1125
 8569SOL     OW37168   0.068   0.935   2.268 -0.2497 -0.1277 -0.1855
 8569SOL    HW137169   0.049   1.014   2.319 -1.0105 -0.2743 -0.2319
 8569SOL    HW237170   4.707   0.892   2.261 -0.8270  0.9019  0.6029
 8570SOL     OW37171   1.753   0.880   7.326  0.0885  0.6013  0.5545
 8570SOL    HW137172   1.752   0.973   7.348  2.0242 -0.1422  3.8616
 8570SOL    HW237173   1.704   0.853   7.404  0.6009  0.1631  0.7272
 8571SOL     OW37174   0.312   4.532  15.402 -0.2226 -0.5363  0.4640
 8571SOL    HW137175   0.406   4.541  15.386 -0.3147 -0.7683 -0.1952
 8571SOL    HW237176   0.276   4.561  15.318 -0.1681 -2.3760 -0.1771
 8572SOL     OW37177   0.729   1.023   8.278 -0.3363 -0.4106 -0.3901
 8572SOL    HW137178   0.668   0.965   8.323 -0.0635  0.5247  1.1832
 8572SOL    HW237179   0.767   0.973   8.207 -1.6700 -1.2998 -0.4857
 8573SOL     OW37180   0.587   4.406   6.483 -0.1167  0.8896  0.4375
 8573SOL    HW137181   0.572   4.334   6.422 -1.7032  1.0484  0.6523
 8573SOL    HW237182   0.678   4.384   6.501 -0.0697  0.7141 -0.0206
 8574SOL     OW37183   3.918   3.761  13.847  0.2410 -0.0470  0.7147
 8574SOL    HW137184   3.910   3.855  13.830 -3.3275 -0.1519  1.8397
 8574SOL    HW237185   3.971   3.740  13.770  1.3683 -1.7341  1.9547
 8575SOL     OW37186   0.768   3.718   2.192  0.3507  0.2253  0.3494
 8575SOL    HW137187   0.771   3.624   2.212 -0.9089 -0.0005 -0.5250
 8575SOL    HW237188   0.859   3.739   2.216  0.5059  0.7496 -0.6887
 8576SOL     OW37189   4.153   3.301  15.479 -0.7874 -0.1289  0.0590
 8576SOL    HW137190   4.195   3.249  15.411 -1.3126 -1.0398  0.4293
 8576SOL    HW237191   4.182   3.392  15.470  0.1146 -0.4501 -0.2579
 8577SOL     OW37192   4.609   3.915   6.684 -0.0291  0.2664  1.0700
 8577SOL    HW137193   4.606   4.001   6.641  0.4462 -0.1628  0.1655
 8577SOL    HW237194   4.619   3.938   6.776  3.3721  0.2451  0.7179
 8578SOL     OW37195   3.681   4.226  10.102  0.4674 -0.6305 -0.1074
 8578SOL    HW137196   3.665   4.150  10.046  1.0129  0.6273 -1.9661
 8578SOL    HW237197   3.591   4.253  10.121  0.8009 -0.4763  1.2668
 8579SOL     OW37198   0.351   0.491   4.288  0.6629 -0.5837 -0.1162
 8579SOL    HW137199   0.290   0.422   4.311  0.7786 -0.3189  0.9965
 8579SOL    HW237200   0.344   0.486   4.193  2.8429 -0.0060 -0.3065
 8580SOL     OW37201   3.452   0.232   2.267  0.2566 -0.1986 -0.1521
 8580SOL    HW137202   3.418   0.147   2.240  1.3387 -1.1127  1.3873
 8580SOL    HW237203   3.370   0.273   2.293  0.7251  0.3778  0.4180
 8581SOL     OW37204   2.287   0.029   7.713  0.8453 -0.3293 -0.8826
 8581SOL    HW137205   2.229   4.688   7.749 -0.0940  1.6586  1.2694
 8581SOL    HW237206   2.355   0.046   7.779  1.5178  0.3811 -1.7526
 8582SOL     OW37207   0.177   2.907  16.444 -0.1119  0.5454  0.4208
 8582SOL    HW137208   0.152   2.999  16.440  0.0635  0.6236  0.9830
 8582SOL    HW237209   0.242   2.904  16.373 -1.0025 -0.4528 -0.3460
 8583SOL     OW37210   3.625   2.300   7.467  0.4142 -0.3301 -0.4629
 8583SOL    HW137211   3.674   2.221   7.488  0.1424  0.0669  1.6739
 8583SOL    HW237212   3.594   2.288   7.377 -0.1019 -0.6209 -0.2498
 8584SOL     OW37213   4.600   3.396   6.969  0.1064 -0.5292 -0.0393
 8584SOL    HW137214   4.671   3.447   6.932  1.0599 -1.0033  1.1286
 8584SOL    HW237215   4.564   3.353   6.891 -1.0867  1.5028 -0.6051
 8585SOL     OW37216   2.727   1.384   6.208  0.1619 -0.2184 -0.5264
 8585SOL    HW137217   2.811   1.412   6.171  0.3412 -1.3448 -0.9779
 8585SOL    HW237218   2.704   1.302   6.162  0.8442 -0.0445 -1.1771
 8586SOL     OW37219   2.760   0.582  17.276 -0.3105  0.1994 -0.0883
 8586SOL    HW137220   2.851   0.596  17.248  0.2763  0.3146  1.8556
 8586SOL    HW237221   2.717   0.659  17.239 -2.1915 -0.6432  0.3622
 8587SOL     OW37222   1.845   3.073   9.101 -0.7699 -0.1112 -0.1216
 8587SOL    HW137223   1.777   3.110   9.045  0.1776  0.6485 -0.7627
 8587SOL    HW237224   1.921   3.073   9.043 -0.7097  0.9101 -0.0393
 8588SOL     OW37225   0.453   2.231   4.764  0.0442  0.1626 -0.3355
 8588SOL    HW137226   0.545   2.217   4.785  0.6162  3.8462 -0.3925
 8588SOL    HW237227   0.428   2.154   4.713  2.0107  0.4115 -1.6544
 8589SOL     OW37228   0.902   3.320   3.713 -0.0911 -0.0924  0.7153
 8589SOL    HW137229   0.853   3.355   3.787 -1.6497 -1.2233  0.2215
 8589SOL    HW237230   0.837   3.257   3.680 -0.9702  0.1459  2.0099
 8590SOL     OW37231   4.712   3.204   1.476  0.3986  0.1987  0.1832
 8590SOL    HW137232   0.078   3.221   1.450  0.4171  1.3627  0.9931
 8590SOL    HW237233   4.677   3.293   1.477  0.7118  0.3508 -1.7044
 8591SOL     OW37234   2.550   0.333  11.802 -0.2278 -0.5882  0.2445
 8591SOL    HW137235   2.553   0.246  11.843  0.5877  0.0910  1.6368
 8591SOL    HW237236   2.607   0.311  11.728 -0.8948 -0.7132 -0.2353
 8592SOL     OW37237   2.731   2.524   1.755 -0.3866  0.3302  0.0542
 8592SOL    HW137238   2.807   2.511   1.812 -1.3326  3.0949  1.9776
 8592SOL    HW237239   2.706   2.432   1.753 -3.1672  1.0258  2.1236
 8593SOL     OW37240   0.038   2.548   5.599 -0.5068  0.3237 -0.0964
 8593SOL    HW137241   4.711   2.595   5.533 -3.2079 -1.4385  0.7745
 8593SOL    HW237242   0.110   2.508   5.551 -0.1452 -1.1360  1.6761
 8594SOL     OW37243   4.350   2.949   7.248  0.2001  0.7210 -0.8679
 8594SOL    HW137244   4.386   2.952   7.159  1.0838 -1.0124 -0.5726
 8594SOL    HW237245   4.256   2.958   7.232  0.0019  0.1339  0.0025
 8595SOL     OW37246   1.588   2.466   7.643  0.5372  0.2338 -0.4499
 8595SOL    HW137247   1.677   2.498   7.629  0.8100  0.1643  1.1112
 8595SOL    HW237248   1.610   2.373   7.653  0.4298  0.1015 -1.4550
 8596SOL     OW37249   2.246   1.966   8.022  0.3843 -0.2771 -0.1568
 8596SOL    HW137250   2.239   1.932   8.111  0.3029  1.8447  0.6442
 8596SOL    HW237251   2.161   2.008   8.012  0.6875  0.6650  1.1256
 8597SOL     OW37252   2.144   3.357  10.692 -0.4863  0.4412 -0.3639
 8597SOL    HW137253   2.156   3.332  10.784  0.5343  0.4372 -0.4985
 8597SOL    HW237254   2.068   3.413  10.708 -0.4304  0.6650 -0.9045
 8598SOL     OW37255   3.436   4.482  12.290 -0.2762 -0.0929  0.4675
 8598SOL    HW137256   3.377   4.429  12.237 -0.4079 -1.8694  2.4158
 8598SOL    HW237257   3.442   4.557  12.231 -0.7734 -0.5598 -0.1701
 8599SOL     OW37258   2.243   4.458   9.200 -0.0098  0.0186  0.4196
 8599SOL    HW137259   2.257   4.521   9.271  1.0602 -0.1401  0.3509
 8599SOL    HW237260   2.187   4.386   9.230 -0.5676 -0.0580 -0.8063
 8600SOL     OW37261   2.457   3.259   7.749  0.0097  0.0190 -0.2968
 8600SOL    HW137262   2.426   3.321   7.684 -1.8101  1.0548  1.5729
 8600SOL    HW237263   2.447   3.309   7.830  1.1284  0.9062 -0.6974
 8601SOL     OW37264   2.805   1.516   6.553  0.5372 -0.5223 -0.0277
 8601SOL    HW137265   2.830   1.426   6.528  0.8566 -0.9708  1.8939
 8601SOL    HW237266   2.759   1.546   6.475  1.6775 -0.8937 -0.8448
 8602SOL     OW37267   0.888   3.145   3.078  0.4427  0.3626 -0.6197
 8602SOL    HW137268   0.874   3.221   3.134  0.5548  0.0074 -0.1116
 8602SOL    HW237269   0.896   3.179   2.989 -3.3650  3.2180  0.1336
 8603SOL     OW37270   0.581   0.226   7.129 -0.4301  0.0371  0.2315
 8603SOL    HW137271   0.621   0.229   7.216 -2.5211  0.3229  1.1829
 8603SOL    HW237272   0.534   0.143   7.141  0.1934 -0.6217 -1.8208
 8604SOL     OW37273   3.194   2.140   9.383 -0.4206 -0.3300  0.3411
 8604SOL    HW137274   3.223   2.057   9.344 -0.7463  0.2217 -1.0787
 8604SOL    HW237275   3.180   2.110   9.472  0.8949  0.1989  0.7214
 8605SOL     OW37276   3.840   2.243  17.611  0.2797  0.1810  0.0934
 8605SOL    HW137277   3.745   2.236  17.603  0.2477  0.5000  0.1965
 8605SOL    HW237278   3.847   2.226   0.003 -0.5146  1.3879  0.3657
 8606SOL     OW37279   4.273   3.426   2.447  0.0930 -0.1013  0.2562
 8606SOL    HW137280   4.299   3.515   2.425 -0.7657  0.1084  0.0940
 8606SOL    HW237281   4.341   3.372   2.405 -0.6851 -0.2200 -0.8426
 8607SOL     OW37282   3.721   1.773   4.670  0.6438 -0.5759  0.4597
 8607SOL    HW137283   3.812   1.758   4.695  1.3273 -0.1222 -1.7555
 8607SOL    HW237284   3.674   1.761   4.753 -1.1305  1.7532 -0.1942
 8608SOL     OW37285   1.186   1.435   6.895  0.2267 -0.3895  0.2164
 8608SOL    HW137286   1.218   1.521   6.923 -1.8247  0.9677 -1.6512
 8608SOL    HW237287   1.192   1.455   6.802 -2.9660 -1.5292 -0.2452
 8609SOL     OW37288   3.729   1.705   2.001 -0.3662  0.9166 -0.1032
 8609SOL    HW137289   3.738   1.626   1.948 -0.6342  0.9425 -0.1858
 8609SOL    HW237290   3.778   1.766   1.946 -0.5493  0.6314 -0.5768
 8610SOL     OW37291   1.414   0.390  10.444 -0.4155  0.0530  0.1570
 8610SOL    HW137292   1.471   0.454  10.487 -1.1284  1.2951 -0.7337
 8610SOL    HW237293   1.385   0.330  10.512  2.2512 -2.4480 -0.8776
 8611SOL     OW37294   2.337   1.406  13.815 -0.4490 -0.1078  0.2462
 8611SOL    HW137295   2.348   1.313  13.798  0.8267 -0.0995  1.0568
 8611SOL    HW237296   2.243   1.411  13.833 -0.2936  0.0878  1.0180
 8612SOL     OW37297   0.446   2.082   2.237 -0.3147  0.4079 -0.3458
 8612SOL    HW137298   0.480   2.117   2.155  1.5194 -1.4959 -0.4077
 8612SOL    HW237299   0.380   2.143   2.271 -0.3335  0.1758  0.0367
 8613SOL     OW37300   1.862   3.024   3.792 -0.3065  0.3690 -0.6287
 8613SOL    HW137301   1.862   2.931   3.813  1.7980 -0.1304 -2.8777
 8613SOL    HW237302   1.772   3.051   3.774 -0.0203  1.3541 -0.5978
 8614SOL     OW37303   2.905   1.992   4.358  0.5892  0.0444  0.3933
 8614SOL    HW137304   2.989   2.038   4.352  0.3353  0.5927  1.1142
 8614SOL    HW237305   2.919   1.920   4.419  1.4441  0.4630  0.6977
 8615SOL     OW37306   3.861   3.550   4.015 -0.3649  0.0763  0.3208
 8615SOL    HW137307   3.842   3.467   3.970 -0.6383  0.5682 -0.4598
 8615SOL    HW237308   3.776   3.580   4.045  0.0063  0.8309  0.6120
 8616SOL     OW37309   1.759   2.558   2.990 -0.1381  0.7885 -0.4154
 8616SOL    HW137310   1.792   2.514   3.068  1.8308  1.7761 -0.6881
 8616SOL    HW237311   1.735   2.489   2.928 -0.6682 -0.4469  1.1567
 8617SOL     OW37312   1.990   0.194  11.368 -0.8821 -0.1533  0.2118
 8617SOL    HW137313   2.060   0.225  11.311 -1.9427  0.4746 -0.7376
 8617SOL    HW237314   2.001   0.101  11.349  1.9454 -0.2363  2.2825
 8618SOL     OW37315   4.404   4.665   0.896  0.2482  0.6131  0.0867
 8618SOL    HW137316   4.311   4.646   0.889  0.7985 -0.7529 -3.2121
 8618SOL    HW237317   4.399   0.019   0.949 -2.1400 -0.0949  0.9129
 8619SOL     OW37318   3.219   3.550   7.352 -0.3710  0.4834 -0.5146
 8619SOL    HW137319   3.261   3.603   7.420 -2.0074  0.0396  0.8586
 8619SOL    HW237320   3.263   3.575   7.271  0.0039 -1.6955 -0.9897
 8620SOL     OW37321   1.235   3.314   2.023 -0.5908 -0.0681  0.2041
 8620SOL    HW137322   1.178   3.296   1.948  0.0590  0.8450 -0.4976
 8620SOL    HW237323   1.182   3.380   2.068  1.1144  0.9801  0.6905
 8621SOL     OW37324   1.018   4.311   1.730  0.5886 -0.1035  0.1821
 8621SOL    HW137325   1.010   4.351   1.644 -2.1266 -0.7362  0.1525
 8621SOL    HW237326   1.114   4.312   1.733  0.6546 -0.0389 -1.8692
 8622SOL     OW37327   4.443   4.482   2.480 -0.4503  0.0425  0.2425
 8622SOL    HW137328   4.520   4.529   2.510 -1.6044  2.5964 -0.7751
 8622SOL    HW237329   4.458   4.463   2.387 -0.4964  1.0546  0.0343
 8623SOL     OW37330   0.177   2.746   6.010  0.2322 -0.2180  0.7515
 8623SOL    HW137331   0.106   2.743   5.945 -0.9154 -0.7690  2.0319
 8623SOL    HW237332   0.160   2.829   6.055  1.0698  0.2754  0.1667
 8624SOL     OW37333   3.654   2.145  15.910  0.0794  0.0325  0.4975
 8624SOL    HW137334   3.656   2.241  15.914  0.5354  0.0005  0.9448
 8624SOL    HW237335   3.745   2.126  15.929  0.7427  1.9817 -0.7519
 8625SOL     OW37336   1.618   2.260   8.280  0.6690  0.1812 -0.5746
 8625SOL    HW137337   1.602   2.188   8.219 -0.0963 -0.6463  0.5801
 8625SOL    HW237338   1.526   2.288   8.279  0.8767  0.9281  1.4000
 8626SOL     OW37339   2.941   0.084  11.186 -0.4998  0.1243  0.1957
 8626SOL    HW137340   2.997   0.137  11.129 -0.0900  0.4182  0.8631
 8626SOL    HW237341   2.865   0.142  11.182 -2.0422 -1.9705 -0.4145
 8627SOL     OW37342   1.957   3.612   3.680  0.2819  0.1615  0.0340
 8627SOL    HW137343   2.037   3.637   3.635 -0.6588 -0.0288 -1.7495
 8627SOL    HW237344   1.940   3.524   3.649  1.0292  0.0889 -0.1568
 8628SOL     OW37345   1.749   3.654  15.102  0.1082  0.0679 -0.0768
 8628SOL    HW137346   1.785   3.569  15.078  0.2395  0.6182 -1.8121
 8628SOL    HW237347   1.813   3.718  15.071 -0.6079  0.6655 -0.3085
 8629SOL     OW37348   3.518   0.356   3.060  0.5646  0.3129  0.5205
 8629SOL    HW137349   3.554   0.305   2.988  2.4727 -1.8883  3.0584
 8629SOL    HW237350   3.431   0.325   3.036 -0.0906  2.4293  0.1431
 8630SOL     OW37351   1.746   0.634  14.433 -0.3152  0.1479 -0.4252
 8630SOL    HW137352   1.830   0.668  14.400 -1.3352  2.2954 -0.8290
 8630SOL    HW237353   1.733   0.691  14.509 -1.1331  1.0036 -1.2029
 8631SOL     OW37354   1.286   4.155  13.719 -0.1005 -0.1701 -0.0980
 8631SOL    HW137355   1.283   4.059  13.717 -0.5619 -0.1468 -0.5924
 8631SOL    HW237356   1.193   4.168  13.702  0.0788 -0.2965 -1.1708
 8632SOL     OW37357   2.852   1.861   1.484  0.4443 -0.1872  0.0730
 8632SOL    HW137358   2.918   1.829   1.421 -0.1698  1.7946 -1.5899
 8632SOL    HW237359   2.779   1.863   1.422  1.2366 -0.9667 -0.8916
 8633SOL     OW37360   1.202   1.541   6.630 -0.3191  0.5884 -0.2169
 8633SOL    HW137361   1.184   1.493   6.549 -0.8549  0.8887 -0.2784
 8633SOL    HW237362   1.124   1.596   6.624 -0.6000  0.1449 -0.6273
 8634SOL     OW37363   2.710   3.636   4.690 -0.4056 -0.3279  0.1736
 8634SOL    HW137364   2.654   3.714   4.686  0.5822  0.4851  2.2710
 8634SOL    HW237365   2.660   3.578   4.632  0.4060 -1.1686  0.3196
 8635SOL     OW37366   0.045   1.686   1.363  0.0670 -0.0980 -0.5119
 8635SOL    HW137367   0.063   1.599   1.397 -1.8641  0.4942  1.9693
 8635SOL    HW237368   4.685   1.666   1.323 -0.4558  0.2719  0.4136
 8636SOL     OW37369   2.289   3.611   5.758  0.2851 -0.2500  0.1432
 8636SOL    HW137370   2.338   3.685   5.722 -0.1462 -0.3858 -0.7181
 8636SOL    HW237371   2.360   3.568   5.805  0.1284 -0.2357  0.3971
 8637SOL     OW37372   2.365   0.049   2.138 -0.2571  0.2462  0.5647
 8637SOL    HW137373   2.286   0.101   2.123 -0.8691 -0.7053  0.4718
 8637SOL    HW237374   2.324   4.690   2.117  0.8730 -0.2369  0.3008
 8638SOL     OW37375   3.126   1.552   4.054  0.2567  0.3121  0.2617
 8638SOL    HW137376   3.136   1.537   3.960  1.1781 -1.7489  0.6859
 8638SOL    HW237377   3.124   1.460   4.081 -0.7637  0.0058 -0.8740
 8639SOL     OW37378   3.099   2.335  10.471 -0.0011 -0.2095  0.0717
 8639SOL    HW137379   3.190   2.357  10.488 -0.2647  0.3692  0.7526
 8639SOL    HW237380   3.052   2.404  10.518 -2.0019 -1.3440 -0.2314
 8640SOL     OW37381   3.230   1.773   7.730  1.0817 -0.6119 -0.1252
 8640SOL    HW137382   3.311   1.787   7.779  1.2312  2.6528 -1.3089
 8640SOL    HW237383   3.264   1.772   7.641  2.8645  0.1293  0.5412
 8641SOL     OW37384   4.411   0.535   7.342 -0.4463  0.5630  0.1199
 8641SOL    HW137385   4.377   0.513   7.428 -0.1984  3.0264  0.8507
 8641SOL    HW237386   4.346   0.488   7.289  0.4865  1.8130 -2.1568
 8642SOL     OW37387   1.672   2.314  12.401  0.0050 -0.1933  0.0000
 8642SOL    HW137388   1.643   2.241  12.455  0.1159  0.0659  0.4074
 8642SOL    HW237389   1.668   2.383  12.467 -0.5635 -1.6126  1.4549
 8643SOL     OW37390   4.339   2.102   1.740 -0.1114  0.3503  0.1753
 8643SOL    HW137391   4.344   2.073   1.649  1.2958  2.1902 -0.3421
 8643SOL    HW237392   4.254   2.144   1.731  0.3450  0.8697 -1.7689
 8644SOL     OW37393   0.373   2.157   5.091  0.3200 -0.1899  0.8117
 8644SOL    HW137394   0.429   2.167   5.168  1.1332  1.2162  0.0301
 8644SOL    HW237395   0.406   2.075   5.053  1.8715  1.1651 -0.7508
 8645SOL     OW37396   2.985   1.065  13.474  0.1475 -0.0029 -0.0632
 8645SOL    HW137397   3.050   1.134  13.460  0.4229 -0.6119 -1.7592
 8645SOL    HW237398   2.906   1.105  13.512  1.0043  1.3229  0.3146
 8646SOL     OW37399   0.093   0.314   8.418 -0.4250  0.1445  0.3689
 8646SOL    HW137400   4.723   0.318   8.432 -0.6351 -0.0661 -1.0074
 8646SOL    HW237401   0.111   0.231   8.464 -1.1218 -1.1223 -1.6400
 8647SOL     OW37402   2.181   1.197  16.115 -1.0176  0.5519  0.1758
 8647SOL    HW137403   2.263   1.239  16.088 -0.3718 -2.5963 -2.8116
 8647SOL    HW237404   2.135   1.257  16.174  1.8649  0.9574  2.0139
 8648SOL     OW37405   2.100   2.311   6.243  0.4807  0.0523  0.4518
 8648SOL    HW137406   2.149   2.375   6.190  0.3806 -1.3965 -1.4131
 8648SOL    HW237407   2.171   2.262   6.285  0.8723  0.1362 -0.1069
 8649SOL     OW37408   0.621   4.062   8.044  0.2942 -0.4558  0.1457
 8649SOL    HW137409   0.532   4.026   8.046  0.1614 -0.3436 -2.9326
 8649SOL    HW237410   0.675   3.988   8.072  1.0200  0.5310  1.3410
 8650SOL     OW37411   1.906   3.302   6.199  0.0103  0.9719 -0.5150
 8650SOL    HW137412   1.946   3.221   6.167  1.4976  0.3268  2.9599
 8650SOL    HW237413   1.968   3.340   6.261  0.4023  1.2709 -1.0962
 8651SOL     OW37414   4.077   2.431   3.870  0.0693  0.0221 -0.7162
 8651SOL    HW137415   3.988   2.395   3.880 -1.0595  3.1702  0.5349
 8651SOL    HW237416   4.113   2.359   3.922 -2.8104  0.0012  1.2290
 8652SOL     OW37417   3.781   0.118   0.079 -0.4569 -0.1081 -0.2294
 8652SOL    HW137418   3.858   0.137   0.025  0.0644 -1.1775  0.1321
 8652SOL    HW237419   3.740   0.202   0.098  1.2475  0.0846  2.6431
 8653SOL     OW37420   0.758   1.858   1.942 -0.1762 -0.1364 -0.2064
 8653SOL    HW137421   0.666   1.839   1.955  0.2740 -1.5732  0.8862
 8653SOL    HW237422   0.767   1.819   1.855 -0.0025  0.0600 -0.2778
 8654SOL     OW37423   0.048   2.452  13.908 -0.0580  0.6626  0.4408
 8654SOL    HW137424   0.089   2.435  13.993 -2.8880 -0.3995  1.5869
 8654SOL    HW237425   4.700   2.508  13.934  0.3503  1.5356 -0.2856
 8655SOL     OW37426   0.838   1.609   5.747  0.1799 -0.1838  0.0322
 8655SOL    HW137427   0.833   1.533   5.690 -1.9733 -2.0100  2.6481
 8655SOL    HW237428   0.751   1.647   5.733  1.4452  2.0040 -1.9689
 8656SOL     OW37429   4.507   4.649   9.624 -0.3139  0.5066 -0.0174
 8656SOL    HW137430   4.500   4.677   9.533 -0.1174  0.7659  0.0457
 8656SOL    HW237431   4.590   4.602   9.627  0.0261  1.0750 -0.3598
 8657SOL     OW37432   2.890   4.028   3.292 -0.0254  0.1731  0.0541
 8657SOL    HW137433   2.951   3.994   3.227 -1.1310  0.2303 -1.0134
 8657SOL    HW237434   2.941   4.008   3.370 -0.0881 -0.4648 -0.0723
 8658SOL     OW37435   0.315   3.814   4.099 -0.5702 -0.0254  0.1463
 8658SOL    HW137436   0.361   3.873   4.159  1.0886 -0.9339 -0.2266
 8658SOL    HW237437   0.262   3.760   4.158 -1.4553  0.2987 -0.3570
 8659SOL     OW37438   0.455   0.298  14.451  0.3832  0.6593 -0.1864
 8659SOL    HW137439   0.546   0.325  14.458  0.6502  0.1780 -2.0102
 8659SOL    HW237440   0.452   0.258  14.539  2.0278 -0.3566 -0.5917
 8660SOL     OW37441   1.383   3.753   3.468 -0.0833 -0.0737  0.0523
 8660SOL    HW137442   1.458   3.697   3.487 -1.1832 -1.4409  0.3166
 8660SOL    HW237443   1.431   3.821   3.420 -0.6844 -0.1871 -0.7074
 8661SOL     OW37444   3.651   0.814   5.669 -0.1453  0.6921 -0.1833
 8661SOL    HW137445   3.688   0.893   5.632  0.4193  1.0543  1.1443
 8661SOL    HW237446   3.700   0.741   5.630  0.5733  1.3346 -0.4757
 8662SOL     OW37447   3.287   2.209   0.346  0.0312  0.1029  0.0936
 8662SOL    HW137448   3.197   2.205   0.377 -0.1022  1.0365 -0.1772
 8662SOL    HW237449   3.326   2.183   0.429 -0.4665 -0.5905  0.1099
 8663SOL     OW37450   0.757   0.194   7.397  0.1627  0.2207  0.1585
 8663SOL    HW137451   0.830   0.250   7.425 -0.5955  1.0066  0.5832
 8663SOL    HW237452   0.753   0.144   7.478 -0.7173 -1.5767 -1.0086
 8664SOL     OW37453   1.879   2.257   7.932  0.3621  0.0415 -0.4796
 8664SOL    HW137454   1.973   2.270   7.923  0.4160  0.8202  1.2043
 8664SOL    HW237455   1.865   2.190   7.999  1.2584  0.0842 -0.2553
 8665SOL     OW37456   3.428   2.706   8.801 -0.3539  0.0316  0.1643
 8665SOL    HW137457   3.345   2.664   8.824 -0.1162 -1.2046 -1.2935
 8665SOL    HW237458   3.395   2.796   8.793 -1.0653 -0.3738 -1.3653
 8666SOL     OW37459   2.580   2.222   6.279  0.0454 -0.2185  0.0898
 8666SOL    HW137460   2.592   2.191   6.369 -0.2556 -1.9701 -0.4623
 8666SOL    HW237461   2.506   2.281   6.288 -0.4534 -0.9027  0.5110
 8667SOL     OW37462   2.818   1.843   0.058 -0.3322  0.1823 -0.2481
 8667SOL    HW137463   2.730   1.859   0.093 -1.1971 -0.9022 -1.9218
 8667SOL    HW237464   2.819   1.750   0.083  2.4653  0.7244  1.6753
 8668SOL     OW37465   1.576   0.928  13.755 -0.3237  0.1397 -0.4654
 8668SOL    HW137466   1.537   0.873  13.686  0.7922  2.7515 -3.1986
 8668SOL    HW237467   1.507   0.995  13.754 -1.5558 -1.1301  0.5100
 8669SOL     OW37468   0.917   0.573   2.470 -0.0174 -0.1202 -0.2290
 8669SOL    HW137469   0.908   0.657   2.515  2.6522  0.6280 -1.1425
 8669SOL    HW237470   0.831   0.539   2.445  0.5596 -1.3709 -0.5309
 8670SOL     OW37471   1.908   0.116   4.295 -0.2123 -0.1165  0.7818
 8670SOL    HW137472   1.954   0.032   4.303 -0.5832 -0.3015  0.9960
 8670SOL    HW237473   1.823   0.092   4.330 -0.1227 -2.4138 -0.5396
 8671SOL     OW37474   2.039   4.326   0.938 -0.7921 -0.4837 -0.2978
 8671SOL    HW137475   2.134   4.312   0.938 -0.6300  0.6098 -0.2674
 8671SOL    HW237476   2.014   4.315   1.030 -1.7026  2.2275 -0.2233
 8672SOL     OW37477   1.412   1.320  10.090 -0.1475 -0.5874  0.2724
 8672SOL    HW137478   1.320   1.300  10.106 -0.1816 -1.5202 -1.1167
 8672SOL    HW237479   1.436   1.242  10.041 -0.3789 -0.3444 -0.2302
 8673SOL     OW37480   0.767   4.030   2.012 -0.3304  0.2980 -0.2636
 8673SOL    HW137481   0.804   4.059   1.928 -0.7160 -0.8086 -0.8113
 8673SOL    HW237482   0.840   4.051   2.070 -1.3690 -0.7238  1.3980
 8674SOL     OW37483   4.085   2.736   7.547  0.8787  0.4163  0.1452
 8674SOL    HW137484   4.115   2.778   7.627  0.2759 -0.3987  0.8098
 8674SOL    HW237485   3.989   2.733   7.552  0.7152  0.3214 -3.1869
 8675SOL     OW37486   3.669   4.246   4.851  0.6226  0.3842 -0.3942
 8675SOL    HW137487   3.591   4.201   4.817 -0.2175  0.5432  1.3509
 8675SOL    HW237488   3.726   4.174   4.874 -1.4703 -0.6990  1.4110
 8676SOL     OW37489   2.993   0.974  16.283  0.2343 -0.1260 -0.0547
 8676SOL    HW137490   2.911   0.943  16.322 -0.0786  2.3719  1.2603
 8676SOL    HW237491   3.035   1.017  16.357  0.2087 -1.2700  0.6128
 8677SOL     OW37492   2.379   2.150  13.367 -0.1347 -0.7531  0.1654
 8677SOL    HW137493   2.307   2.130  13.427 -0.6995  1.1883  0.1461
 8677SOL    HW237494   2.370   2.088  13.295  0.6630  0.6907 -1.1836
 8678SOL     OW37495   0.395   3.933   8.078  1.1572 -0.1743  0.3009
 8678SOL    HW137496   0.392   3.870   8.150  0.9462 -0.0128  0.4327
 8678SOL    HW237497   0.300   3.942   8.070  1.0697 -1.0256  0.3059
 8679SOL     OW37498   1.434   0.744  11.824  0.3237 -0.4525  0.2732
 8679SOL    HW137499   1.370   0.712  11.887 -0.1097 -1.2742 -0.5843
 8679SOL    HW237500   1.450   0.832  11.858 -2.0031  0.0759 -0.0312
 8680SOL     OW37501   2.258   4.617  17.505 -0.2131 -0.2681 -0.2221
 8680SOL    HW137502   2.293   4.651  17.588 -3.2169  0.8239  0.6188
 8680SOL    HW237503   2.330   4.558  17.484 -0.0662 -0.9278  2.1542
 8681SOL     OW37504   1.203   2.560   4.408 -0.4573 -0.1275  0.1020
 8681SOL    HW137505   1.109   2.564   4.430  0.1091  0.5824  2.3702
 8681SOL    HW237506   1.218   2.513   4.326  2.6605  0.3311  0.4449
 8682SOL     OW37507   4.371   1.399   0.873  0.3996 -0.2703  0.0584
 8682SOL    HW137508   4.410   1.415   0.959 -0.9823 -0.2672  0.6840
 8682SOL    HW237509   4.451   1.393   0.821 -0.3595  1.5553 -1.3239
 8683SOL     OW37510   4.450   2.304   1.484 -0.2271 -0.1228  0.0154
 8683SOL    HW137511   4.500   2.340   1.410 -0.9234 -0.8235 -0.8003
 8683SOL    HW237512   4.511   2.237   1.514  0.6843  1.5517  1.9149
 8684SOL     OW37513   1.006   1.436  16.794  0.5596  0.3375 -0.2870
 8684SOL    HW137514   1.085   1.426  16.742 -0.0204 -3.5112 -0.4236
 8684SOL    HW237515   1.041   1.456  16.881 -1.3290 -1.4291  0.8882
 8685SOL     OW37516   3.041   3.104   6.775 -0.2478  0.3842  0.1699
 8685SOL    HW137517   3.052   3.195   6.747  2.1050 -0.2860 -1.0382
 8685SOL    HW237518   3.126   3.068   6.749 -0.7617 -1.0666  0.5226
 8686SOL     OW37519   0.439   1.315   2.231  0.7918  0.6697  0.2218
 8686SOL    HW137520   0.493   1.328   2.153  0.0799  1.8250 -0.0754
 8686SOL    HW237521   0.368   1.268   2.189  1.6591 -0.2175 -0.2347
 8687SOL     OW37522   1.340   1.684   5.792  0.1545 -0.2130  0.0664
 8687SOL    HW137523   1.303   1.597   5.783  2.0275 -1.0392  0.3695
 8687SOL    HW237524   1.333   1.715   5.701 -1.1919  0.3579  0.3685
 8688SOL     OW37525   1.599   1.550   4.460 -0.3635  0.3014  0.0395
 8688SOL    HW137526   1.679   1.568   4.411 -0.3435 -0.5372 -0.2263
 8688SOL    HW237527   1.637   1.502   4.533 -1.2606  2.0752  1.6938
 8689SOL     OW37528   1.779   0.842   3.575  0.6718 -0.0443  0.4523
 8689SOL    HW137529   1.744   0.855   3.487  0.0632  1.5005  0.9183
 8689SOL    HW237530   1.712   0.779   3.602  1.9096  0.3475  4.4566
 8690SOL     OW37531   0.711   3.282  14.915 -0.4310 -0.0370  0.2925
 8690SOL    HW137532   0.696   3.336  14.837 -0.3845  3.2912  2.5770
 8690SOL    HW237533   0.658   3.207  14.890  0.8051 -0.5548 -0.7520
 8691SOL     OW37534   3.005   2.218   3.827 -0.1152 -0.1098  0.0107
 8691SOL    HW137535   2.950   2.287   3.861 -0.1075 -0.2911  0.3868
 8691SOL    HW237536   3.004   2.162   3.904 -1.7600  0.2067  0.2105
 8692SOL     OW37537   3.564   0.513  13.572 -0.1360  0.2648  0.2202
 8692SOL    HW137538   3.643   0.520  13.519 -0.0797  1.6514  0.5037
 8692SOL    HW237539   3.579   0.596  13.618  0.9691 -0.6910  1.5880
 8693SOL     OW37540   3.256   1.064   7.044 -0.1451 -0.6582 -0.3479
 8693SOL    HW137541   3.278   1.115   6.966  2.6305  0.6916  1.2960
 8693SOL    HW237542   3.162   1.078   7.036 -0.3326 -1.6752  0.1388
 8694SOL     OW37543   4.253   2.210   7.527 -0.2729 -0.2023 -0.3274
 8694SOL    HW137544   4.301   2.273   7.472  0.8249  1.2934  2.3520
 8694SOL    HW237545   4.163   2.244   7.525 -0.5834 -1.0154  0.2641
 8695SOL     OW37546   1.588   0.031  10.261  0.2268  0.0991 -0.0700
 8695SOL    HW137547   1.627   0.014  10.175  1.3835  2.4330 -0.0128
 8695SOL    HW237548   1.664   0.046  10.317 -1.5067  0.6464  2.1515
 8696SOL     OW37549   1.884   3.211   0.820  0.3554 -0.5409 -0.1149
 8696SOL    HW137550   1.831   3.214   0.740  0.1370  0.5285  0.0632
 8696SOL    HW237551   1.883   3.303   0.845 -0.3498 -0.2775 -1.1169
 8697SOL     OW37552   2.164   3.768  10.605  0.2008 -0.0494  0.5351
 8697SOL    HW137553   2.074   3.742  10.583 -0.0060  0.9822  0.1802
 8697SOL    HW237554   2.179   3.710  10.680 -2.0922  1.3339  2.0670
 8698SOL     OW37555   3.335   0.389   6.455 -0.1004  0.0963 -0.0365
 8698SOL    HW137556   3.365   0.313   6.505 -0.5102 -0.4896 -0.6663
 8698SOL    HW237557   3.370   0.465   6.501  0.1012  1.6502 -2.7435
 8699SOL     OW37558   3.590   1.084   3.718  0.3539 -0.4911  0.0658
 8699SOL    HW137559   3.615   1.170   3.752 -1.5442 -0.4876  1.4450
 8699SOL    HW237560   3.580   1.112   3.627 -0.9104  1.5272  0.8153
 8700SOL     OW37561   0.559   0.545   8.587 -0.0558 -0.2723  0.5579
 8700SOL    HW137562   0.479   0.533   8.537  1.2249  0.4868 -1.6996
 8700SOL    HW237563   0.581   0.452   8.599  0.9724  0.3158  3.3912
 8701SOL     OW37564   3.805   0.356   2.901  0.1233 -0.5361  0.0372
 8701SOL    HW137565   3.726   0.317   2.863  1.3472 -2.1804 -0.8550
 8701SOL    HW237566   3.801   0.443   2.861  5.5901 -0.8858 -1.2966
 8702SOL     OW37567   3.012   2.261   9.097 -0.0210 -0.3415 -0.5508
 8702SOL    HW137568   3.076   2.327   9.124  0.1945 -0.9296  0.3843
 8702SOL    HW237569   3.019   2.284   9.004  0.8909 -0.3727 -0.4863
 8703SOL     OW37570   2.512   2.515   5.885  0.2389  0.0051  0.2807
 8703SOL    HW137571   2.570   2.479   5.818 -0.0607  0.4208 -0.1943
 8703SOL    HW237572   2.567   2.563   5.947  1.0985 -3.5148  2.2421
 8704SOL     OW37573   0.600   2.419  15.211 -0.0287 -0.4367 -0.5045
 8704SOL    HW137574   0.573   2.340  15.165 -2.7114 -0.0908  0.4572
 8704SOL    HW237575   0.520   2.471  15.213  0.0218 -0.3756 -0.0860
 8705SOL     OW37576   1.110   1.634   5.013 -0.6745  0.1862 -0.3015
 8705SOL    HW137577   1.042   1.573   4.983  0.4645 -1.2086 -0.0325
 8705SOL    HW237578   1.059   1.691   5.072 -2.8896 -0.6145 -1.4370
 8706SOL     OW37579   4.202   4.572   3.420  0.0281  0.2435 -0.3135
 8706SOL    HW137580   4.136   4.528   3.475  1.3077  0.0800  1.0936
 8706SOL    HW237581   4.276   4.512   3.410  1.0172  0.9653  2.7182
 8707SOL     OW37582   2.013   1.146   2.123  0.2637 -0.1261  0.7162
 8707SOL    HW137583   1.945   1.213   2.119 -1.1265 -1.5022  1.4064
 8707SOL    HW237584   2.086   1.204   2.141  1.3903 -0.9075 -1.3516
 8708SOL     OW37585   2.453   0.398   4.910 -0.1413  0.8662 -0.4216
 8708SOL    HW137586   2.419   0.311   4.887 -2.0152  1.5392 -0.2001
 8708SOL    HW237587   2.464   0.443   4.826 -0.5822 -0.2300 -1.0689
 8709SOL     OW37588   3.736   2.500  15.594  0.4774 -0.1253 -0.6457
 8709SOL    HW137589   3.765   2.413  15.621  0.9176  0.8065  1.8692
 8709SOL    HW237590   3.642   2.489  15.608  1.0246  0.6997  3.5574
 8710SOL     OW37591   4.647   2.823   9.197  0.0303 -0.2097 -0.4171
 8710SOL    HW137592   4.687   2.911   9.198 -0.6364  0.0973 -3.1594
 8710SOL    HW237593   4.724   2.770   9.175 -0.5321 -0.9365 -0.6090
 8711SOL     OW37594   1.531   3.053  13.240 -0.1810  0.9757  0.6453
 8711SOL    HW137595   1.476   2.988  13.197  0.9338  0.2096  0.3738
 8711SOL    HW237596   1.503   3.046  13.331 -1.7078  2.9382  0.3257
 8712SOL     OW37597   0.878   3.735  16.838  0.0293 -0.6019  0.0704
 8712SOL    HW137598   0.923   3.712  16.919  1.0301  0.1832 -0.2512
 8712SOL    HW237599   0.952   3.753  16.779  0.3230 -0.3245  0.5202
 8713SOL     OW37600   4.463   1.857   6.742 -0.0434  0.5390 -0.3245
 8713SOL    HW137601   4.402   1.785   6.755 -0.1679  0.8192  0.6219
 8713SOL    HW237602   4.506   1.817   6.666 -0.7367  0.2925 -0.5896
 8714SOL     OW37603   2.919   3.223   0.742 -0.3861  0.0961  0.1387
 8714SOL    HW137604   2.985   3.273   0.694 -1.8400  1.5297 -0.3813
 8714SOL    HW237605   2.958   3.229   0.829 -0.1123  0.1439  0.0147
 8715SOL     OW37606   3.170   3.790  12.868  0.1591  0.1794 -0.3066
 8715SOL    HW137607   3.149   3.705  12.831  1.3429  0.3261 -1.3090
 8715SOL    HW237608   3.171   3.754  12.957  0.2030 -1.7377 -1.0943
 8716SOL     OW37609   2.791   3.099   4.597 -0.1489 -0.0499 -0.3272
 8716SOL    HW137610   2.711   3.137   4.559 -0.3208 -0.4359 -0.3515
 8716SOL    HW237611   2.754   3.063   4.678  1.2423  0.1405  0.3827
 8717SOL     OW37612   2.814   2.724   0.918  0.1820 -0.1082  0.0985
 8717SOL    HW137613   2.891   2.682   0.959  0.1850 -0.2424 -0.0449
 8717SOL    HW237614   2.780   2.791   0.977  4.8632 -0.0462  2.7455
 8718SOL     OW37615   3.432   0.654  17.520  0.1553 -0.1787  0.3372
 8718SOL    HW137616   3.431   0.730  17.578 -2.2014 -0.0493  0.1051
 8718SOL    HW237617   3.527   0.637  17.521  0.5804  2.1127 -0.8432
 8719SOL     OW37618   2.754   2.136   3.722  0.0473  0.4558 -0.2965
 8719SOL    HW137619   2.846   2.152   3.742 -0.0131  1.6944 -0.9965
 8719SOL    HW237620   2.732   2.224   3.693 -1.4250 -0.1674 -1.0541
 8720SOL     OW37621   1.093   2.852   4.041 -0.3271 -0.4762  0.3916
 8720SOL    HW137622   1.179   2.840   4.082 -0.2067  1.4867  0.6825
 8720SOL    HW237623   1.047   2.775   4.075 -0.2839 -0.9042 -0.5169
 8721SOL     OW37624   0.541   3.148   1.536 -0.1315 -0.3145 -0.1200
 8721SOL    HW137625   0.631   3.152   1.505  0.5995  2.8635  2.3672
 8721SOL    HW237626   0.550   3.082   1.605  0.3534 -0.8273 -0.6817
 8722SOL     OW37627   4.500   1.548   7.771  0.2736 -0.0586 -0.2598
 8722SOL    HW137628   4.439   1.597   7.714  1.1644 -0.0940 -1.2491
 8722SOL    HW237629   4.517   1.482   7.703 -0.5069 -2.6963  2.1315
 8723SOL     OW37630   4.055   2.003  12.152 -0.0226  0.1276  0.6343
 8723SOL    HW137631   3.978   1.969  12.106 -0.3267 -0.5578  1.6575
 8723SOL    HW237632   4.055   1.959  12.237 -1.4457 -2.4394 -0.6978
 8724SOL     OW37633   0.699   1.175   4.726  0.6682  0.4320  0.8928
 8724SOL    HW137634   0.717   1.203   4.816  0.0019 -3.2272  2.1922
 8724SOL    HW237635   0.604   1.164   4.732  0.9062 -2.2238 -0.1297
 8725SOL     OW37636   2.572   2.695   6.751 -0.9940  0.7541 -0.1546
 8725SOL    HW137637   2.520   2.621   6.783  1.5360 -1.0873 -0.3162
 8725SOL    HW237638   2.638   2.716   6.817  0.2116  0.5278 -1.2949
 8726SOL     OW37639   0.627   0.108  15.407  0.1192 -0.0276 -0.0253
 8726SOL    HW137640   0.701   0.169  15.414 -0.6863  0.8789  0.4783
 8726SOL    HW237641   0.599   0.107  15.498  0.3475  0.3320  0.0472
 8727SOL     OW37642   0.439   1.636   0.540  0.1293 -0.7194 -0.0143
 8727SOL    HW137643   0.517   1.626   0.595 -0.6092 -0.0754  1.1532
 8727SOL    HW237644   0.485   1.652   0.458 -1.0288 -0.9896 -0.7052
 8728SOL     OW37645   0.728   1.796   2.500 -0.5091 -0.4058 -0.0470
 8728SOL    HW137646   0.728   1.879   2.548 -0.1653  0.7787 -2.0895
 8728SOL    HW237647   0.634   1.776   2.501 -0.4436 -0.6050  2.9112
 8729SOL     OW37648   3.984   4.093   6.836 -0.6327  0.1524  0.2850
 8729SOL    HW137649   3.979   4.001   6.812  1.1368 -0.2502  1.4897
 8729SOL    HW237650   4.003   4.128   6.749  0.1497 -3.4030 -0.9379
 8730SOL     OW37651   0.899   3.437   5.945  0.0929 -0.1886 -0.1247
 8730SOL    HW137652   0.963   3.500   5.979  0.0826 -1.0271  1.4346
 8730SOL    HW237653   0.828   3.442   6.009 -0.8923 -2.2256 -1.0597
 8731SOL     OW37654   1.774   4.565  13.206 -0.1357  0.4194 -0.2038
 8731SOL    HW137655   1.710   4.503  13.171  1.4631 -1.9725  1.0769
 8731SOL    HW237656   1.751   4.627  13.137 -0.3125  1.1780  0.5510
 8732SOL     OW37657   1.204   3.253  17.144 -0.0636  0.6758 -0.5981
 8732SOL    HW137658   1.127   3.308  17.158 -0.2617 -0.0661  1.2129
 8732SOL    HW237659   1.152   3.173  17.135 -0.5497  1.0220 -0.9040
 8733SOL     OW37660   3.710   4.398   9.766 -0.0276  0.4482  0.0640
 8733SOL    HW137661   3.621   4.417   9.794 -0.4959  1.6658 -2.2496
 8733SOL    HW237662   3.704   4.405   9.671 -0.7904 -0.5327  0.0425
 8734SOL     OW37663   0.005   2.390   4.582 -0.2811 -0.0223  0.1215
 8734SOL    HW137664   4.714   2.426   4.495 -2.1584  0.1327  0.5434
 8734SOL    HW237665   0.100   2.379   4.578 -0.2820  0.1898 -0.4613
 8735SOL     OW37666   3.713   4.251   1.362 -0.0993 -0.0817  0.0918
 8735SOL    HW137667   3.707   4.304   1.282 -2.8314 -0.2306  0.1917
 8735SOL    HW237668   3.671   4.167   1.344 -0.8738  0.2822  0.2116
 8736SOL     OW37669   3.984   2.595   6.961  0.1406 -0.1853  0.1379
 8736SOL    HW137670   4.002   2.601   7.054 -1.2492  1.2402  0.3122
 8736SOL    HW237671   3.975   2.683   6.924 -0.7203  0.7885  2.7168
 8737SOL     OW37672   1.843   1.711   9.312 -0.1859  0.6597 -0.1147
 8737SOL    HW137673   1.804   1.636   9.356 -0.7885  1.5894  0.9270
 8737SOL    HW237674   1.862   1.674   9.225  1.7977  0.3856  0.4188
 8738SOL     OW37675   1.575   1.145   4.727  0.9198 -0.7467 -0.1298
 8738SOL    HW137676   1.637   1.215   4.704 -0.1668 -0.5561 -2.5503
 8738SOL    HW237677   1.519   1.148   4.650 -1.9710 -1.0083  1.9963
 8739SOL     OW37678   1.337   3.792   9.324  0.4695  0.1577 -0.2450
 8739SOL    HW137679   1.408   3.792   9.260  2.3494  0.5456  1.8180
 8739SOL    HW237680   1.332   3.698   9.338  0.7273 -0.0601 -1.6151
 8740SOL     OW37681   0.022   2.675  11.474  0.2613  0.2125  0.4182
 8740SOL    HW137682   4.657   2.703  11.489 -0.3512 -1.2412 -0.4947
 8740SOL    HW237683   0.052   2.713  11.557  1.0903 -1.3241  0.8374
 8741SOL     OW37684   1.764   2.832   0.122  0.0722 -0.0618 -0.2495
 8741SOL    HW137685   1.685   2.778   0.124 -0.2757  0.4840  0.8263
 8741SOL    HW237686   1.755   2.873   0.035  0.2910 -0.7984 -0.6141
 8742SOL     OW37687   1.386   4.677  11.898  0.2575 -0.3084 -0.2630
 8742SOL    HW137688   1.327   0.009  11.849  1.6612  1.0984 -0.2815
 8742SOL    HW237689   1.447   4.645  11.832  0.2112  1.6780 -1.2560
 8743SOL     OW37690   2.944   0.624   2.575  0.2209  0.2522 -0.0780
 8743SOL    HW137691   2.927   0.713   2.606 -0.1291  0.2097 -0.1418
 8743SOL    HW237692   2.864   0.573   2.585  1.5278 -2.1568 -1.8957
 8744SOL     OW37693   0.480   0.828   5.626 -0.4614 -0.3622  0.3959
 8744SOL    HW137694   0.564   0.864   5.599 -0.3109  0.5750  2.0839
 8744SOL    HW237695   0.506   0.753   5.680  0.3520 -0.9307 -0.8027
 8745SOL     OW37696   2.942   3.195   7.410  0.9805 -0.3462 -0.9708
 8745SOL    HW137697   2.931   3.215   7.503  1.8627 -0.2445 -0.8912
 8745SOL    HW237698   3.033   3.222   7.404  0.8259  0.6585  1.0442
 8746SOL     OW37699   3.739   3.452   8.385  0.2456 -0.3168 -0.5179
 8746SOL    HW137700   3.690   3.511   8.441 -0.1257 -0.4127 -0.7392
 8746SOL    HW237701   3.821   3.497   8.362 -0.2231  1.3024  1.0827
 8747SOL     OW37702   3.044   1.796  10.079  0.6022 -0.3198  0.0707
 8747SOL    HW137703   3.041   1.809  10.174  2.4405  1.1625 -0.0775
 8747SOL    HW237704   2.992   1.871  10.052 -1.5799 -2.6344 -2.1472
 8748SOL     OW37705   1.189   2.571   0.671 -1.0092 -0.0852  0.2451
 8748SOL    HW137706   1.182   2.634   0.599 -1.0709  1.7873  1.9119
 8748SOL    HW237707   1.111   2.519   0.652  0.2091 -1.2377 -1.6629
 8749SOL     OW37708   3.947   4.469  13.673  0.2608 -0.1420 -0.3982
 8749SOL    HW137709   3.992   4.457  13.757  1.8209  0.0329 -1.1897
 8749SOL    HW237710   3.879   4.534  13.687 -0.5801 -1.3449  1.0284
 8750SOL     OW37711   3.296   2.604   8.421  0.2482  0.0409 -0.5631
 8750SOL    HW137712   3.218   2.658   8.408  0.7102  0.6635 -0.7258
 8750SOL    HW237713   3.353   2.641   8.354  1.0338  0.7897  0.5263
 8751SOL     OW37714   1.155   3.033  15.983  0.0057  0.4204 -0.3062
 8751SOL    HW137715   1.122   3.007  15.897  0.8419 -0.0488 -0.4883
 8751SOL    HW237716   1.248   3.051  15.974  0.2357 -0.1173  0.9602
 8752SOL     OW37717   1.815   0.562   7.368 -0.2694  0.4717 -0.0539
 8752SOL    HW137718   1.772   0.522   7.292 -1.2035 -1.0569  1.2947
 8752SOL    HW237719   1.749   0.621   7.403  0.0158  1.6819 -1.5497
 8753SOL     OW37720   4.309   2.917   4.555 -0.4506 -0.1533 -0.2041
 8753SOL    HW137721   4.325   2.828   4.523  0.8255  0.6670 -1.8455
 8753SOL    HW237722   4.362   2.918   4.634 -0.7178  1.9092 -0.0407
 8754SOL     OW37723   2.426   1.935   5.834  0.1142  0.5809 -0.2430
 8754SOL    HW137724   2.475   1.994   5.777  0.6023  0.3326 -0.0825
 8754SOL    HW237725   2.423   1.992   5.910 -1.6872  0.4153 -0.1828
 8755SOL     OW37726   3.426   0.341  16.783 -0.3643  0.2974  0.4336
 8755SOL    HW137727   3.333   0.343  16.761 -0.3318  1.7074  0.4349
 8755SOL    HW237728   3.474   0.354  16.701 -1.0583 -2.5275 -0.3930
 8756SOL     OW37729   3.605   2.632   9.012  0.2591  0.1986 -0.1871
 8756SOL    HW137730   3.587   2.670   9.098 -3.1475 -1.9733  0.0539
 8756SOL    HW237731   3.523   2.658   8.970 -0.8246 -0.2866  1.6070
 8757SOL     OW37732   4.655   0.232  10.717 -0.1680  0.2548 -0.1839
 8757SOL    HW137733   4.624   0.213  10.805  0.4389  3.2885  0.6656
 8757SOL    HW237734   4.580   0.279  10.682  0.7401  0.8422 -1.3620
 8758SOL     OW37735   2.781   0.817   3.727  0.2951  0.3246 -0.3553
 8758SOL    HW137736   2.864   0.817   3.775  0.0110  1.1133  0.1261
 8758SOL    HW237737   2.761   0.724   3.717  2.2132 -0.0314 -0.8760
 8759SOL     OW37738   3.069   4.145  10.268 -0.0366  0.3520  0.0011
 8759SOL    HW137739   3.155   4.125  10.305 -0.3239  0.5066  0.7520
 8759SOL    HW237740   3.104   4.190  10.192  1.1293 -0.1882  0.2223
 8760SOL     OW37741   0.812   4.606  14.553  0.5463  0.2406  0.2640
 8760SOL    HW137742   0.896   4.651  14.559  0.4519  0.7439 -2.3522
 8760SOL    HW237743   0.832   4.513  14.552 -0.7640 -0.0385 -0.7064
 8761SOL     OW37744   4.424   1.305   2.614  0.0504  0.5653 -0.0255
 8761SOL    HW137745   4.420   1.293   2.519  0.8652 -2.8599  0.3525
 8761SOL    HW237746   4.456   1.394   2.622 -2.7794  1.7049 -1.2279
 8762SOL     OW37747   3.930   0.086  10.182  0.3338  1.0104  0.8840
 8762SOL    HW137748   3.938   0.021  10.112  1.9706 -1.5917  3.5038
 8762SOL    HW237749   3.962   0.171  10.152  1.5860 -0.3250 -1.5937
 8763SOL     OW37750   4.630   1.798  13.375 -0.0200 -0.3369  0.1175
 8763SOL    HW137751   4.642   1.715  13.422 -2.4808 -0.7148  0.0725
 8763SOL    HW237752   4.622   1.863  13.444  2.4481  0.5353 -0.4503
 8764SOL     OW37753   2.973   2.298  17.467  0.2469 -0.5492  0.2387
 8764SOL    HW137754   2.979   2.204  17.453 -0.1103 -0.8294  1.9121
 8764SOL    HW237755   3.048   2.337  17.422 -1.4106  2.6774  0.2727
 8765SOL     OW37756   4.094   4.101   2.900  0.3831  0.1446  0.2455
 8765SOL    HW137757   4.034   4.163   2.942  1.6393  1.0298  0.7351
 8765SOL    HW237758   4.179   4.099   2.943  0.6017 -0.0456 -0.2019
 8766SOL     OW37759   2.169   3.697  16.628 -0.2900 -0.3575  0.1572
 8766SOL    HW137760   2.181   3.753  16.705  1.6083  0.4236 -0.7147
 8766SOL    HW237761   2.089   3.654  16.658  0.5344 -2.4824 -0.6877
 8767SOL     OW37762   4.262   2.980   3.041  0.0804  0.0044  0.3537
 8767SOL    HW137763   4.348   2.947   3.015  0.6180  1.2088  0.5824
 8767SOL    HW237764   4.208   2.983   2.962  1.1043  0.0331 -0.3507
 8768SOL     OW37765   1.684   1.024   4.088  0.4531 -0.0153 -0.6771
 8768SOL    HW137766   1.764   0.986   4.123 -0.5003 -0.6463  0.8025
 8768SOL    HW237767   1.721   1.059   4.006 -2.2180  3.0428 -0.6000
 8769SOL     OW37768   1.067   4.723  17.224  0.2910 -0.5850 -0.1673
 8769SOL    HW137769   1.000   0.040  17.171 -0.5685 -2.2562 -0.4143
 8769SOL    HW237770   1.095   0.075  17.273 -1.1738  0.5711 -1.1698
 8770SOL     OW37771   0.657   2.638  13.624 -0.1542 -0.0081 -0.2942
 8770SOL    HW137772   0.729   2.575  13.619 -0.1325 -0.0184  0.1060
 8770SOL    HW237773   0.631   2.625  13.715  0.8752  1.0149  0.1563
 8771SOL     OW37774   1.028   1.361   5.907 -1.1200  0.1539  0.1301
 8771SOL    HW137775   0.942   1.322   5.895 -1.1298 -0.2885  1.6269
 8771SOL    HW237776   1.076   1.278   5.915  0.2208  0.8533 -0.8158
 8772SOL     OW37777   3.877   0.030   4.189 -0.4551  0.8672  0.3155
 8772SOL    HW137778   3.843   4.667   4.206  1.3537  0.0164 -0.5050
 8772SOL    HW237779   3.871   0.068   4.276  2.3420  2.6802 -0.2980
 8773SOL     OW37780   0.214   4.335   1.346  0.4463 -0.2673 -0.6801
 8773SOL    HW137781   0.300   4.322   1.385  0.5864  0.1981 -0.8232
 8773SOL    HW237782   0.241   4.412   1.295  0.9356  0.7315  1.0707
 8774SOL     OW37783   1.218   3.825   8.022 -0.4363  0.3610  0.0791
 8774SOL    HW137784   1.297   3.876   8.001 -0.8502  0.8860 -0.1936
 8774SOL    HW237785   1.253   3.796   8.107  0.1986 -0.3075 -0.4166
 8775SOL     OW37786   2.338   1.978  16.610  0.1390 -0.5389  0.1046
 8775SOL    HW137787   2.364   1.955  16.699 -1.9702  1.4691  1.2158
 8775SOL    HW237788   2.254   2.020  16.625 -0.1728 -1.1741  0.1492
 8776SOL     OW37789   0.480   0.269   7.943  0.4745 -0.1301 -0.5355
 8776SOL    HW137790   0.487   0.332   7.872  2.1591 -1.1941 -1.2935
 8776SOL    HW237791   0.562   0.220   7.941  0.5945  0.0653 -0.4342
 8777SOL     OW37792   0.643   4.143  14.726 -0.7553 -0.8226  0.3734
 8777SOL    HW137793   0.599   4.226  14.745 -0.9728 -1.0712  0.9603
 8777SOL    HW237794   0.731   4.164  14.756 -0.7147 -1.7849  0.9433
 8778SOL     OW37795   1.860   1.242   2.528 -0.1994 -0.5696 -1.2193
 8778SOL    HW137796   1.804   1.304   2.481  1.2999  1.9653  0.3309
 8778SOL    HW237797   1.947   1.263   2.495 -0.7943 -0.3770 -2.6765
 8779SOL     OW37798   4.555   3.277  17.626  0.0475 -0.2478 -0.1613
 8779SOL    HW137799   4.547   3.276   0.019 -1.2998 -0.3054 -0.2784
 8779SOL    HW237800   4.616   3.343  17.593 -0.7956  1.1197  1.0089
 8780SOL     OW37801   1.587   3.915   6.768 -0.1650  0.5149 -0.1787
 8780SOL    HW137802   1.550   3.946   6.850  0.1691 -1.7654  0.8279
 8780SOL    HW237803   1.681   3.909   6.788 -0.0348  1.3255 -0.5722
 8781SOL     OW37804   4.669   0.174   2.053 -0.0972  0.4025  0.1027
 8781SOL    HW137805   4.723   0.168   2.132 -1.2367 -3.1983  0.6239
 8781SOL    HW237806   4.600   0.231   2.086 -1.7584 -1.2473 -0.5239
 8782SOL     OW37807   4.357   4.023   3.000 -0.4341 -0.1827  0.1617
 8782SOL    HW137808   4.384   4.046   3.089  0.7456 -2.3013  0.3500
 8782SOL    HW237809   4.408   3.944   2.987  1.0190  1.0614 -1.6435
 8783SOL     OW37810   3.071   0.598   4.477 -0.6685 -0.1470  0.6292
 8783SOL    HW137811   3.032   0.673   4.521 -0.9591  1.4140 -2.3236
 8783SOL    HW237812   3.005   0.572   4.413  1.2227  1.3302 -1.8992
 8784SOL     OW37813   4.685   2.520   4.347  0.7170  0.4838 -0.0617
 8784SOL    HW137814   4.656   2.611   4.352 -0.9001  0.0169 -1.0651
 8784SOL    HW237815   4.649   2.498   4.261 -2.1637 -0.5012  1.3892
 8785SOL     OW37816   4.133   3.970   1.991  0.0050 -0.2093  0.3990
 8785SOL    HW137817   4.194   3.902   2.018  1.2349  1.2489  1.3318
 8785SOL    HW237818   4.185   4.050   1.997  0.5615 -0.3908 -2.0643
 8786SOL     OW37819   0.674   1.657   6.740  0.0374  0.1983  0.4683
 8786SOL    HW137820   0.664   1.740   6.787 -1.0617  0.8663 -0.9455
 8786SOL    HW237821   0.592   1.608   6.750 -0.5764  1.7845  3.2519
 8787SOL     OW37822   1.995   0.279   6.778  0.5693  0.2390  0.0365
 8787SOL    HW137823   1.904   0.292   6.804  0.5035  1.3027 -0.7407
 8787SOL    HW237824   2.044   0.243   6.852 -0.2862 -1.5839 -0.2807
 8788SOL     OW37825   0.633   0.762   5.913  0.2408  0.3114  0.3854
 8788SOL    HW137826   0.686   0.699   5.961  3.4976  0.5522 -2.8807
 8788SOL    HW237827   0.567   0.788   5.978  0.8973  1.3733  0.6296
 8789SOL     OW37828   2.084   0.849   5.910  0.1572 -0.4092  0.1812
 8789SOL    HW137829   2.078   0.934   5.866  1.2472  0.3992  1.6091
 8789SOL    HW237830   2.012   0.858   5.972 -1.1024 -0.2776 -1.2857
 8790SOL     OW37831   3.322   3.412   6.677 -0.7774 -0.0232 -0.1903
 8790SOL    HW137832   3.241   3.382   6.634 -0.2951 -0.2747 -0.9310
 8790SOL    HW237833   3.343   3.489   6.623 -0.6118 -0.0973 -0.2306
 8791SOL     OW37834   2.668   2.021   6.603 -0.1560 -0.0901 -0.0170
 8791SOL    HW137835   2.682   1.929   6.627 -0.3741 -0.6486 -2.0010
 8791SOL    HW237836   2.741   2.037   6.543  0.4043 -1.1181  0.3862
 8792SOL     OW37837   0.355   3.609  16.471 -0.4694  1.0902 -0.1199
 8792SOL    HW137838   0.439   3.643  16.438 -0.4570  0.1736 -1.0394
 8792SOL    HW237839   0.381   3.584  16.560 -1.3395 -0.2848 -0.2676
 8793SOL     OW37840   0.629   4.634   1.216 -0.1487  0.2382 -0.2101
 8793SOL    HW137841   0.674   4.687   1.281 -1.5091 -1.6238  2.2288
 8793SOL    HW237842   0.689   4.629   1.142  1.3492 -2.2290  1.1813
 8794SOL     OW37843   0.273   0.497   8.155 -0.1437 -0.2094 -0.3753
 8794SOL    HW137844   0.287   0.520   8.247 -0.8501 -2.2705  0.2683
 8794SOL    HW237845   0.334   0.560   8.118  1.6201 -1.7867 -0.1927
 8795SOL     OW37846   1.164   2.877   1.744 -0.4033 -0.6214 -0.2136
 8795SOL    HW137847   1.162   2.864   1.649  0.0442 -1.3998 -0.1176
 8795SOL    HW237848   1.170   2.785   1.771  0.8963 -0.7250 -0.8437
 8796SOL     OW37849   3.103   1.986   2.118  0.6041  0.6337  0.4624
 8796SOL    HW137850   3.144   1.944   2.042 -0.0680  1.5526 -0.4103
 8796SOL    HW237851   3.011   2.000   2.096  0.3386 -2.8461 -0.7219
 8797SOL     OW37852   4.509   1.294   6.914 -0.1015 -0.7023 -0.1442
 8797SOL    HW137853   4.580   1.274   6.975 -0.9873  0.4007  1.2416
 8797SOL    HW237854   4.433   1.265   6.964 -0.9371  1.8773  0.0973
 8798SOL     OW37855   0.285   2.332   2.195 -0.2424 -0.0461 -0.3384
 8798SOL    HW137856   0.313   2.423   2.184 -0.0648 -0.2626 -1.7055
 8798SOL    HW237857   0.231   2.332   2.274 -2.2697 -0.3704 -1.7343
 8799SOL     OW37858   1.543   3.818   9.141  0.4633  0.2196  0.1585
 8799SOL    HW137859   1.635   3.845   9.143  0.4111  0.0097  4.5090
 8799SOL    HW237860   1.504   3.837   9.056  2.6930  0.5117 -0.7952
 8800SOL     OW37861   4.611   4.439   1.754 -0.3743  0.7928 -0.7418
 8800SOL    HW137862   4.563   4.519   1.734  0.7330  1.6020 -0.1188
 8800SOL    HW237863   4.555   4.392   1.815  0.1639 -0.0169 -0.8666
 8801SOL     OW37864   4.080   3.380   3.779  0.1904 -0.3657 -0.9080
 8801SOL    HW137865   4.118   3.300   3.743  1.9090 -0.0729  0.2568
 8801SOL    HW237866   4.007   3.331   3.819  1.1737  0.0298  1.3695
 8802SOL     OW37867   3.310   1.224   3.639  0.1814 -0.7273 -0.1013
 8802SOL    HW137868   3.267   1.310   3.638 -0.7717 -1.1852  0.6021
 8802SOL    HW237869   3.403   1.243   3.642  0.0841 -0.2606  0.0293
 8803SOL     OW37870   2.293   1.367   3.775  0.3388 -0.5304  0.0899
 8803SOL    HW137871   2.368   1.385   3.718  1.6426 -1.8532  1.3731
 8803SOL    HW237872   2.321   1.408   3.857 -1.5402  1.8120 -0.4443
 8804SOL     OW37873   2.855   3.988   4.269  0.8872  0.1535  0.6277
 8804SOL    HW137874   2.799   4.062   4.245  0.7539 -0.4059 -0.7988
 8804SOL    HW237875   2.914   4.006   4.196 -1.1486 -1.7637 -1.4998
 8805SOL     OW37876   1.641   1.352   4.215  0.1438  0.0325 -0.0294
 8805SOL    HW137877   1.707   1.315   4.274 -0.2583  0.1806  0.5127
 8805SOL    HW237878   1.698   1.419   4.177 -0.3645  0.7079  0.4054
 8806SOL     OW37879   1.296   4.420  14.707 -0.4448 -1.0309  0.3257
 8806SOL    HW137880   1.297   4.343  14.763 -3.1290 -0.8079  0.6798
 8806SOL    HW237881   1.293   4.488  14.774 -1.4953  0.5386 -1.3119
 8807SOL     OW37882   0.197   1.490   7.343  0.0871 -0.8991 -0.5836
 8807SOL    HW137883   0.158   1.478   7.430 -0.8634 -1.3631 -1.0750
 8807SOL    HW237884   0.119   1.531   7.306  0.0170  0.9687  1.6266
 8808SOL     OW37885   4.693   2.762   2.668  0.2600  0.1263  0.4045
 8808SOL    HW137886   4.604   2.731   2.654 -0.3001  1.7610  0.2956
 8808SOL    HW237887   4.681   2.813   2.749 -0.6931  1.0543 -0.3268
 8809SOL     OW37888   1.150   2.247   2.654 -0.3607 -0.4697 -0.1311
 8809SOL    HW137889   1.125   2.201   2.574 -1.0312 -1.2032  0.5034
 8809SOL    HW237890   1.130   2.335   2.622  0.2877 -0.1026  0.4756
 8810SOL     OW37891   2.947   0.229   8.867 -0.3352 -0.0941  0.2210
 8810SOL    HW137892   3.003   0.292   8.912 -0.4703 -0.4855  0.9429
 8810SOL    HW237893   2.860   0.265   8.886 -0.0546  0.2973  0.7588
 8811SOL     OW37894   1.085   4.423   0.483  0.4834 -0.2192  0.2235
 8811SOL    HW137895   1.161   4.437   0.426 -1.0943  1.9472 -1.3124
 8811SOL    HW237896   1.047   4.351   0.433  0.4644 -0.7792  1.0479
 8812SOL     OW37897   2.374   4.033  17.209  0.4954  0.7496  0.0358
 8812SOL    HW137898   2.358   3.975  17.284 -0.5506 -0.4243 -1.0786
 8812SOL    HW237899   2.362   4.115  17.256  0.1906 -0.2188  1.6469
 8813SOL     OW37900   2.253   3.989   6.550 -0.9593  0.4171  0.8048
 8813SOL    HW137901   2.339   3.997   6.509  0.7340 -0.9961  4.1130
 8813SOL    HW237902   2.227   4.073   6.588  0.2944  0.7849  0.8468
 8814SOL     OW37903   4.699   2.295  13.079  0.0122 -0.1662 -0.3750
 8814SOL    HW137904   0.069   2.294  13.066 -0.2184  1.2984 -2.2155
 8814SOL    HW237905   4.669   2.282  12.989 -0.0682 -1.3768 -0.1722
 8815SOL     OW37906   2.993   1.646   8.209  0.2407 -0.0424 -0.2352
 8815SOL    HW137907   2.912   1.602   8.181 -1.4955  3.8240 -1.1936
 8815SOL    HW237908   3.016   1.699   8.133 -2.4459  0.0290 -1.0305
 8816SOL     OW37909   1.311   2.100   9.385 -1.0176  0.3556  0.2817
 8816SOL    HW137910   1.401   2.076   9.363 -0.6154  1.1259  1.0774
 8816SOL    HW237911   1.317   2.194   9.369 -2.8429  0.6223  1.1536
 8817SOL     OW37912   1.177   1.799   0.211  0.0108 -0.0738 -0.0226
 8817SOL    HW137913   1.256   1.778   0.160  1.5552  1.2110  1.8602
 8817SOL    HW237914   1.184   1.747   0.291 -0.7938 -0.9176 -0.5121
 8818SOL     OW37915   0.042   1.728   4.408  0.3243 -0.2276 -0.0311
 8818SOL    HW137916   0.047   1.696   4.318 -0.4430  3.1751 -1.2873
 8818SOL    HW237917   4.707   1.801   4.391  1.9426  1.1026 -0.0964
 8819SOL     OW37918   1.543   4.656   7.756  0.0038  0.7871 -0.9180
 8819SOL    HW137919   1.509   0.007   7.710 -1.6121  0.6640  0.0682
 8819SOL    HW237920   1.634   4.677   7.777  0.2528  1.2228 -2.4640
 8820SOL     OW37921   0.296   1.053   3.112 -0.1145  0.0221  0.0372
 8820SOL    HW137922   0.282   0.958   3.121  3.6674 -0.6465 -1.0225
 8820SOL    HW237923   0.213   1.080   3.073  0.1254 -2.3362 -2.1839
 8821SOL     OW37924   0.168   3.212   8.533  0.3148  0.0968 -0.3395
 8821SOL    HW137925   0.211   3.141   8.486  0.3111  0.9024 -1.5592
 8821SOL    HW237926   0.239   3.218   8.598  0.1187 -0.9333 -0.0432
 8822SOL     OW37927   0.606   4.084   8.899 -0.1705  0.3165  0.0331
 8822SOL    HW137928   0.674   4.060   8.963 -0.8581  0.3942  0.7948
 8822SOL    HW237929   0.526   4.038   8.924 -0.1305  0.3251  0.1766
 8823SOL     OW37930   3.810   2.813  15.982 -0.4793 -0.0215 -0.3453
 8823SOL    HW137931   3.866   2.773  15.915  0.0742 -0.1006  0.1672
 8823SOL    HW237932   3.729   2.805  15.932 -0.0249 -0.6126 -0.9901
 8824SOL     OW37933   0.780   3.895   6.619 -0.2598 -0.3304  0.0369
 8824SOL    HW137934   0.726   3.850   6.554 -1.0964  0.7232 -0.0065
 8824SOL    HW237935   0.783   3.989   6.599  0.0097 -0.5084 -0.7583
 8825SOL     OW37936   4.707   0.953   5.529 -0.1884 -0.4900  0.2127
 8825SOL    HW137937   0.027   1.005   5.463 -0.7984  0.3403  0.4571
 8825SOL    HW237938   0.049   0.887   5.548 -1.3545 -2.1729 -1.5214
 8826SOL     OW37939   2.234   1.782   6.503 -0.0664 -0.5974  0.2600
 8826SOL    HW137940   2.156   1.826   6.539 -0.0685 -0.2024 -0.2276
 8826SOL    HW237941   2.294   1.804   6.574  0.5759 -3.8734  0.7583
 8827SOL     OW37942   2.651   3.312   2.658  0.2092  0.1536 -0.9830
 8827SOL    HW137943   2.716   3.319   2.587  0.8908 -0.3127 -0.4010
 8827SOL    HW237944   2.696   3.340   2.738 -0.5269 -1.3358 -0.0568
 8828SOL     OW37945   2.366   4.342  15.985  0.1131  0.4545 -0.1173
 8828SOL    HW137946   2.286   4.391  15.971 -0.2065 -0.0577 -0.0826
 8828SOL    HW237947   2.426   4.391  15.928  1.2256  0.3971  1.0015
 8829SOL     OW37948   0.043   2.812  16.057 -0.5442  0.1394 -0.9272
 8829SOL    HW137949   0.034   2.778  16.146 -1.8739  2.7091 -0.0577
 8829SOL    HW237950   0.120   2.867  16.069 -0.6479  0.4147 -1.5270
 8830SOL     OW37951   2.604   1.481   2.267 -0.4079 -0.2018  0.5436
 8830SOL    HW137952   2.600   1.414   2.335 -1.3597  0.2603  0.9360
 8830SOL    HW237953   2.551   1.542   2.318  1.0097 -0.6936  2.5787
 8831SOL     OW37954   3.167   4.519   1.001 -0.3378 -0.0058 -0.1594
 8831SOL    HW137955   3.241   4.458   0.994 -0.3911  0.0111 -0.9521
 8831SOL    HW237956   3.154   4.545   0.909 -0.4503  0.3887 -0.0297
 8832SOL     OW37957   2.066   1.752  13.447  0.5737  0.5173 -0.0237
 8832SOL    HW137958   2.159   1.731  13.454  0.0273 -1.7424  0.4116
 8832SOL    HW237959   2.033   1.719  13.530 -0.9529 -2.8137 -1.9320
 8833SOL     OW37960   3.805   2.435   9.541  0.5129 -0.3579  0.4591
 8833SOL    HW137961   3.862   2.423   9.617 -0.6453  1.1120  1.5648
 8833SOL    HW237962   3.794   2.530   9.548 -1.7397 -0.5140 -0.9805
 8834SOL     OW37963   3.366   4.564  14.091 -0.1963  0.0827 -0.0153
 8834SOL    HW137964   3.377   4.658  14.107  0.7548 -0.3560  1.9094
 8834SOL    HW237965   3.278   4.568  14.055 -0.8857  0.8317  1.7290
 8835SOL     OW37966   1.580   3.844   7.319  0.3933 -0.2698  0.3776
 8835SOL    HW137967   1.608   3.827   7.409 -1.3779 -1.3434  0.7169
 8835SOL    HW237968   1.489   3.851   7.347 -0.2915 -0.4224 -1.8351
 8836SOL     OW37969   1.946   1.402  12.784 -0.2358  0.4136  0.4659
 8836SOL    HW137970   1.969   1.351  12.861  0.3485 -1.1752 -0.7432
 8836SOL    HW237971   1.904   1.480  12.820  0.9990  1.1332  0.3709
 8837SOL     OW37972   2.279   0.594   3.291  0.2187  0.6536 -0.2011
 8837SOL    HW137973   2.205   0.585   3.231 -0.6163  1.1417  0.7567
 8837SOL    HW237974   2.323   0.676   3.265  1.0973  0.1193 -0.4085
 8838SOL     OW37975   3.020   2.664   4.782 -0.1347 -0.0709  0.1209
 8838SOL    HW137976   3.082   2.734   4.761 -0.9925 -0.3020 -3.1640
 8838SOL    HW237977   3.059   2.592   4.733 -0.5474 -0.2857  0.1162
 8839SOL     OW37978   2.704   3.071   8.048  0.1484 -0.0508 -0.5453
 8839SOL    HW137979   2.610   3.082   8.039 -0.1944  0.0518  3.1219
 8839SOL    HW237980   2.702   2.986   8.091  2.0829  0.5364  0.7434
 8840SOL     OW37981   0.723   1.326   7.011  0.4169 -0.0900 -0.0225
 8840SOL    HW137982   0.741   1.347   6.919 -1.3649 -2.5574 -0.9147
 8840SOL    HW237983   0.778   1.251   7.033  0.1634 -0.1522  0.3969
 8841SOL     OW37984   1.468   3.920   1.285  0.2859 -0.5134  0.1506
 8841SOL    HW137985   1.474   4.015   1.277 -0.5378 -0.6427 -1.9459
 8841SOL    HW237986   1.416   3.895   1.209  0.3345 -2.1787  0.6544
 8842SOL     OW37987   4.072   3.284   2.544 -0.7419 -0.5877  0.0452
 8842SOL    HW137988   4.143   3.337   2.509 -0.9274 -0.6109 -0.3684
 8842SOL    HW237989   4.120   3.206   2.569  0.8537  0.1637 -0.6442
 8843SOL     OW37990   0.574   1.553   3.446 -0.1374 -0.1147  0.5757
 8843SOL    HW137991   0.531   1.596   3.372  0.4346 -1.5989 -0.6285
 8843SOL    HW237992   0.538   1.464   3.441  0.3943 -0.3767  1.3865
 8844SOL     OW37993   1.551   1.925   6.363 -0.2013  0.0869  0.3276
 8844SOL    HW137994   1.503   1.855   6.407 -1.1439  0.3232 -0.3418
 8844SOL    HW237995   1.535   1.916   6.270 -0.2075 -2.4176  0.5838
 8845SOL     OW37996   0.762   2.383  10.690  0.2626 -0.3260 -0.4079
 8845SOL    HW137997   0.684   2.431  10.716  0.8949 -0.4666  1.7108
 8845SOL    HW237998   0.725   2.295  10.701 -1.2688  0.2774 -0.7448
 8846SOL     OW37999   2.687   3.448   7.869 -0.1027 -0.5694 -0.1804
 8846SOL    HW138000   2.596   3.449   7.899  0.1530  0.1567  0.5880
 8846SOL    HW238001   2.686   3.529   7.818  0.7282 -0.5956 -0.2379
 8847SOL     OW38002   0.918   4.424  16.290  0.6261  0.3653 -0.1125
 8847SOL    HW138003   0.898   4.482  16.217  0.8395 -0.0081 -0.4653
 8847SOL    HW238004   0.834   4.442  16.333  0.4057  1.6246 -1.0911
 8848SOL     OW38005   1.735   2.676   8.610 -0.2232 -0.0466 -0.2067
 8848SOL    HW138006   1.653   2.691   8.564 -0.0555  1.2518 -0.0792
 8848SOL    HW238007   1.777   2.609   8.555  1.4224  2.1508 -1.6341
 8849SOL     OW38008   3.045   2.343   1.195 -0.4911  0.2147 -0.8606
 8849SOL    HW138009   3.133   2.309   1.178  0.7450  3.3562 -0.6205
 8849SOL    HW238010   2.996   2.260   1.194 -0.8258  0.4262 -1.9718
 8850SOL     OW38011   2.911   1.975   8.336  0.3064 -0.1053  0.8959
 8850SOL    HW138012   2.992   1.988   8.386  0.9312 -4.1422  0.8653
 8850SOL    HW238013   2.922   1.884   8.310  0.8849 -0.2108  1.5001
 8851SOL     OW38014   4.605   4.679   6.368  0.0714  0.6418 -0.0902
 8851SOL    HW138015   4.643   4.611   6.425  0.8896  0.4557 -0.8748
 8851SOL    HW238016   4.550   0.007   6.426 -0.3410  0.9836 -0.8030
 8852SOL     OW38017   4.033   0.937   7.689  0.6114  0.4766 -0.8391
 8852SOL    HW138018   4.102   0.964   7.750  0.5583  0.3498 -0.7245
 8852SOL    HW238019   4.087   0.912   7.614  2.4472  0.2452  0.5684
 8853SOL     OW38020   0.997   3.591  13.352  0.5178  0.2829  0.1381
 8853SOL    HW138021   0.998   3.674  13.305  1.7622 -0.7040 -1.6136
 8853SOL    HW238022   1.000   3.540  13.270 -0.4922  0.1136  0.2057
 8854SOL     OW38023   4.437   0.242   3.590 -0.2723 -0.1619  0.0222
 8854SOL    HW138024   4.382   0.165   3.602  1.4058 -1.5016 -0.8514
 8854SOL    HW238025   4.417   0.275   3.677  0.2010 -1.5421  0.6451
 8855SOL     OW38026   3.512   1.852  13.116 -0.2907  0.2286 -0.6825
 8855SOL    HW138027   3.540   1.899  13.037 -2.1429  3.2498  0.4630
 8855SOL    HW238028   3.557   1.768  13.109  0.7329  0.8419 -1.5073
 8856SOL     OW38029   4.256   4.435  13.280 -0.2633 -0.2414  0.8589
 8856SOL    HW138030   4.351   4.434  13.292 -0.4083  2.8830  2.1838
 8856SOL    HW238031   4.223   4.444  13.369 -0.4828  1.2463  0.6281
 8857SOL     OW38032   1.755   3.098   7.543 -0.2136  0.3315 -0.0861
 8857SOL    HW138033   1.830   3.043   7.520  1.5298  3.6156 -2.3017
 8857SOL    HW238034   1.688   3.037   7.513  0.0925 -0.8092  1.5370
 8858SOL     OW38035   4.428   0.561  17.052 -0.3087  0.1159  0.2166
 8858SOL    HW138036   4.370   0.554  17.127 -3.2191  5.0390 -1.5397
 8858SOL    HW238037   4.433   0.657  17.049 -1.3816  0.1177 -1.8078
 8859SOL     OW38038   3.464   3.463  10.036  0.0764 -0.1611 -0.6711
 8859SOL    HW138039   3.519   3.389  10.061  0.0948 -0.0544 -0.3861
 8859SOL    HW238040   3.473   3.517  10.115 -0.5896  0.3054 -0.9119
 8860SOL     OW38041   1.131   1.128   4.913 -0.5091 -0.1197  0.3989
 8860SOL    HW138042   1.114   1.070   4.839  0.6549  1.2666 -0.9436
 8860SOL    HW238043   1.171   1.206   4.877 -0.6465 -0.7464 -1.1189
 8861SOL     OW38044   4.024   0.950  17.393  0.3817 -0.3331 -0.3310
 8861SOL    HW138045   3.984   1.000  17.464 -0.7615 -0.5453 -0.8268
 8861SOL    HW238046   3.946   0.938  17.338  0.3586 -0.7162 -0.2133
 8862SOL     OW38047   2.098   4.265   7.660 -0.1330 -0.2135  0.1922
 8862SOL    HW138048   2.180   4.243   7.616 -0.9125  1.9721 -2.4253
 8862SOL    HW238049   2.075   4.180   7.696 -0.2702 -0.2165  0.1019
 8863SOL     OW38050   3.077   1.444   7.793  0.2283 -0.4867 -0.7646
 8863SOL    HW138051   3.061   1.439   7.887 -0.4858  0.5963 -0.8159
 8863SOL    HW238052   3.170   1.465   7.800  0.3816 -1.5237  0.2625
 8864SOL     OW38053   3.198   2.927   7.585 -0.0149  0.8778  1.0878
 8864SOL    HW138054   3.167   2.873   7.513  2.8041  2.3671 -1.2809
 8864SOL    HW238055   3.202   2.861   7.654  0.7353  0.1255  0.3160
 8865SOL     OW38056   0.993   0.305  11.161 -0.1483  0.5402 -0.0215
 8865SOL    HW138057   1.071   0.253  11.177  0.9464  1.7796 -1.3264
 8865SOL    HW238058   0.958   0.317  11.249 -2.6657 -1.2095 -0.7744
 8866SOL     OW38059   2.812   1.975  16.902 -0.2003 -0.3610 -0.0301
 8866SOL    HW138060   2.822   2.061  16.863  4.8508 -0.9272  0.0985
 8866SOL    HW238061   2.891   1.952  16.951 -0.6811  0.9277  1.3522
 8867SOL     OW38062   0.520   0.846   9.040  0.5497 -0.3457 -0.9025
 8867SOL    HW138063   0.599   0.793   9.053  0.5192 -0.0933  0.3953
 8867SOL    HW238064   0.561   0.932   9.034 -1.6948  0.5966 -2.6460
 8868SOL     OW38065   1.957   3.545  13.276  0.1077 -0.4020 -0.5209
 8868SOL    HW138066   1.906   3.493  13.213  0.4318 -1.6363  0.2269
 8868SOL    HW238067   2.042   3.557  13.235 -0.0885  2.1722 -0.1243
 8869SOL     OW38068   1.833   0.391  12.348  0.5048 -0.0717 -0.1570
 8869SOL    HW138069   1.826   0.425  12.437 -1.0999 -2.5966  0.6550
 8869SOL    HW238070   1.927   0.376  12.338  0.5940  1.6640 -1.9564
 8870SOL     OW38071   4.218   0.509   2.716  0.2411 -0.5703  0.1298
 8870SOL    HW138072   4.133   0.502   2.673 -0.6928  3.7962  1.2164
 8870SOL    HW238073   4.257   0.575   2.659 -1.7664  0.3330 -0.1971
 8871SOL     OW38074   2.691   0.914  10.715 -0.5209  0.0372 -0.2396
 8871SOL    HW138075   2.671   0.922  10.622 -0.8280 -3.0745 -0.4411
 8871SOL    HW238076   2.736   0.995  10.740 -0.2409 -0.6856  1.5984
 8872SOL     OW38077   1.732   3.644   7.544 -0.4003 -0.0025  0.5719
 8872SOL    HW138078   1.789   3.644   7.467  0.0656 -1.6078  0.9155
 8872SOL    HW238079   1.675   3.574   7.512 -0.0865 -0.0531  0.1099
 8873SOL     OW38080   1.889   2.528   6.498  0.0561  0.0445 -0.6600
 8873SOL    HW138081   1.891   2.477   6.579 -1.9958  2.3218  0.8192
 8873SOL    HW238082   1.883   2.458   6.432  0.1384 -0.1281 -0.4856
 8874SOL     OW38083   3.675   1.954  17.112  0.2572 -0.4064  0.0610
 8874SOL    HW138084   3.663   1.946  17.018 -0.8506 -0.4638  0.2061
 8874SOL    HW238085   3.753   2.009  17.119  0.9886 -1.3252 -0.9338
 8875SOL     OW38086   3.760   4.124   5.368  0.1661  0.1064  0.2578
 8875SOL    HW138087   3.702   4.121   5.444  0.3734  2.2571  0.4883
 8875SOL    HW238088   3.847   4.128   5.408  1.0506 -2.6118 -1.4066
 8876SOL     OW38089   3.012   1.845   0.318  0.3510  0.0849  0.6732
 8876SOL    HW138090   2.920   1.849   0.343  0.8796 -1.0158  2.7529
 8876SOL    HW238091   3.028   1.766   0.266 -3.4685 -1.2128  1.4542
 8877SOL     OW38092   0.880   4.177   4.053  0.4656 -0.7956 -0.0714
 8877SOL    HW138093   0.844   4.262   4.028 -3.0099 -1.4333  2.6877
 8877SOL    HW238094   0.852   4.120   3.981  1.0565 -0.5946 -0.4624
 8878SOL     OW38095   3.168   0.053   4.822  0.5952  0.8209  0.4037
 8878SOL    HW138096   3.167   0.012   4.735 -0.1445  1.3852  0.1392
 8878SOL    HW238097   3.224   4.719   4.871  0.0124  0.3993  0.5536
 8879SOL     OW38098   3.060   4.137  10.987 -0.0093 -0.4168 -0.4081
 8879SOL    HW138099   3.126   4.181  11.041 -0.3680 -1.7831  1.1464
 8879SOL    HW238100   3.032   4.212  10.935 -2.4455 -0.6232  0.5577
 8880SOL     OW38101   1.251   3.330   4.758 -0.1755 -0.0807  0.3525
 8880SOL    HW138102   1.233   3.386   4.682 -0.0722  0.2997  0.6074
 8880SOL    HW238103   1.204   3.250   4.739  0.9275 -0.6817  0.1376
 8881SOL     OW38104   3.077   2.274  16.875 -0.2397 -0.2489 -0.0889
 8881SOL    HW138105   2.983   2.279  16.893 -0.2519 -0.5311 -0.0752
 8881SOL    HW238106   3.112   2.271  16.964 -1.3091 -0.8557  0.3101
 8882SOL     OW38107   0.396   2.381   1.840  0.5987 -0.3360  0.0654
 8882SOL    HW138108   0.344   2.461   1.842 -2.5717 -2.3961  0.7605
 8882SOL    HW238109   0.467   2.403   1.780  0.1691  1.7488  0.3055
 8883SOL     OW38110   1.678   1.155   3.574 -1.0575 -0.8834  0.2857
 8883SOL    HW138111   1.643   1.229   3.525  0.8226 -0.2501 -0.1027
 8883SOL    HW238112   1.640   1.079   3.530 -0.2121  0.1240 -2.1980
 8884SOL     OW38113   1.919   2.860  13.184 -0.1302  0.0626  0.0510
 8884SOL    HW138114   1.866   2.894  13.256 -0.8278 -0.3333 -0.2776
 8884SOL    HW238115   1.865   2.880  13.107  1.0161  2.6614 -0.0828
 8885SOL     OW38116   2.386   1.514   5.774 -0.1402  0.1021 -0.1017
 8885SOL    HW138117   2.420   1.457   5.843  0.3216 -1.0825 -1.2969
 8885SOL    HW238118   2.465   1.510   5.720 -1.1137  1.3429 -1.6110
 8886SOL     OW38119   0.953   1.786   1.297 -0.2483  0.0686 -0.2639
 8886SOL    HW138120   0.942   1.717   1.232  1.7263  1.0968 -1.6735
 8886SOL    HW238121   1.036   1.824   1.270 -0.2158 -1.1019 -1.7927
 8887SOL     OW38122   4.330   1.906   1.235  0.0304 -0.1249  0.5348
 8887SOL    HW138123   4.373   1.989   1.216  1.9745 -1.5133 -1.0808
 8887SOL    HW238124   4.267   1.897   1.164 -0.1143  0.6391  0.5706
 8888SOL     OW38125   3.233   0.662   2.416 -0.0682 -0.1072  0.1491
 8888SOL    HW138126   3.185   0.645   2.498 -1.2554 -0.5185 -0.6256
 8888SOL    HW238127   3.172   0.712   2.362 -1.7917  0.5758  2.6930
 8889SOL     OW38128   1.883   4.554   9.830 -0.1137  0.5077  0.4310
 8889SOL    HW138129   1.936   4.625   9.793 -0.9982  0.8300 -0.1927
 8889SOL    HW238130   1.938   4.526   9.903 -0.1854 -2.5144 -0.6830
 8890SOL     OW38131   2.612   0.411   3.015  0.6667 -0.5311 -0.3830
 8890SOL    HW138132   2.690   0.362   3.040  0.4313 -0.4561  0.5020
 8890SOL    HW238133   2.545   0.379   3.077  1.4588  0.2256  0.8599
 8891SOL     OW38134   2.589   2.940   3.384  0.1063 -0.3446  0.3241
 8891SOL    HW138135   2.498   2.952   3.411 -0.3364 -1.0857 -0.8644
 8891SOL    HW238136   2.586   2.981   3.298  0.1034 -3.0875 -0.9669
 8892SOL     OW38137   1.803   1.461  14.806 -0.3766 -0.1139 -0.2383
 8892SOL    HW138138   1.836   1.386  14.757 -3.5532 -0.5954 -1.6017
 8892SOL    HW238139   1.723   1.437  14.852 -1.0391  1.2574 -0.6909
 8893SOL     OW38140   1.705   2.746   1.239 -0.0169  0.6327  0.1851
 8893SOL    HW138141   1.656   2.680   1.190 -0.0870  0.5315  0.3929
 8893SOL    HW238142   1.644   2.819   1.233  0.6640  1.2740  1.0549
 8894SOL     OW38143   3.718   1.553   0.916  0.6028 -0.4599 -0.2442
 8894SOL    HW138144   3.668   1.476   0.944 -1.2009  0.6335 -0.4707
 8894SOL    HW238145   3.783   1.509   0.862 -0.4063 -1.7629 -0.4064
 8895SOL     OW38146   0.085   3.604   6.051  0.2747 -0.3520  0.2750
 8895SOL    HW138147   0.083   3.508   6.059 -4.1037 -0.3699 -1.3908
 8895SOL    HW238148   0.039   3.609   5.967  0.0737 -0.2442  0.3929
 8896SOL     OW38149   4.509   0.731   0.714  0.2096 -0.3240  0.2316
 8896SOL    HW138150   4.524   0.658   0.774 -3.1406 -0.7512  0.5551
 8896SOL    HW238151   4.456   0.696   0.643 -1.3629 -0.7842  1.6338
 8897SOL     OW38152   2.984   4.339  15.962 -0.7323 -0.2715  1.1316
 8897SOL    HW138153   3.007   4.376  15.876 -1.3584 -1.2403  0.5471
 8897SOL    HW238154   3.011   4.411  16.020  0.1662  2.0736 -2.1633
 8898SOL     OW38155   2.752   1.283   7.864 -0.0530 -0.0118  0.3217
 8898SOL    HW138156   2.689   1.258   7.932 -0.6823 -1.0019 -0.6253
 8898SOL    HW238157   2.835   1.292   7.912  0.5097 -1.8704 -0.2892
 8899SOL     OW38158   1.935   1.425   3.063  0.4489 -0.3933  0.6801
 8899SOL    HW138159   2.018   1.424   3.016  0.8976 -2.2798  1.5217
 8899SOL    HW238160   1.916   1.519   3.065  0.8504 -0.2927 -0.2002
 8900SOL     OW38161   3.776   1.867  12.079  0.2928 -0.3131 -0.1585
 8900SOL    HW138162   3.685   1.886  12.104  0.9359  1.4205  0.9112
 8900SOL    HW238163   3.773   1.876  11.984  0.2585  1.3182 -0.0086
 8901SOL     OW38164   4.270   1.705   1.873  0.1854 -0.1506  0.3474
 8901SOL    HW138165   4.344   1.746   1.918  0.0325 -0.2798  0.7118
 8901SOL    HW238166   4.297   1.717   1.782 -0.3131  3.0878  0.6175
 8902SOL     OW38167   3.108   2.360  16.622  0.2549  0.1532  0.2531
 8902SOL    HW138168   3.079   2.324  16.706  0.5327 -1.4788 -0.3417
 8902SOL    HW238169   3.058   2.441  16.623 -0.1876 -0.1223  1.6812
 8903SOL     OW38170   3.619   3.189  16.068 -0.0499  0.4392 -0.4108
 8903SOL    HW138171   3.644   3.147  15.986  0.3827 -1.9577  0.9481
 8903SOL    HW238172   3.541   3.235  16.039 -0.0825  1.1426  0.7750
 8904SOL     OW38173   2.083   3.091   7.820 -0.1500 -0.1723  0.0030
 8904SOL    HW138174   2.106   3.153   7.751 -1.0944 -0.3397 -0.4552
 8904SOL    HW238175   2.120   3.140   7.894  0.3104 -0.3363 -0.1198
 8905SOL     OW38176   2.636   4.596   6.090  0.7771  0.0581  0.1394
 8905SOL    HW138177   2.600   4.648   6.018 -0.1258  1.8725  1.8949
 8905SOL    HW238178   2.668   4.520   6.041  0.8307  1.1984 -1.5918
 8906SOL     OW38179   0.213   3.840  15.065 -0.1562 -0.3752 -0.0389
 8906SOL    HW138180   0.302   3.805  15.064 -0.2659 -0.6072 -1.8032
 8906SOL    HW238181   0.234   3.930  15.092  1.0116 -0.5863 -0.2370
 8907SOL     OW38182   3.546   2.921   8.573 -0.4586  0.4288 -0.1217
 8907SOL    HW138183   3.614   2.860   8.602  2.2673  2.3050 -2.6002
 8907SOL    HW238184   3.516   2.959   8.655  1.0317  1.2352  0.0462
 8908SOL     OW38185   3.228   0.165   3.348 -0.2366  0.1068  0.3158
 8908SOL    HW138186   3.269   0.109   3.282  0.2032 -1.3182  1.7906
 8908SOL    HW238187   3.303   0.222   3.361  0.8319 -1.1526 -0.3204
 8909SOL     OW38188   0.993   1.051   7.041  0.3192 -0.5288  0.8357
 8909SOL    HW138189   0.996   1.076   6.948 -1.9586 -0.6588  0.7245
 8909SOL    HW238190   1.046   1.120   7.082  1.1414 -1.7556  1.8409
 8910SOL     OW38191   4.345   0.107   7.179  0.2246 -0.5235 -0.1919
 8910SOL    HW138192   4.430   0.084   7.217 -0.3401 -0.1750  1.2825
 8910SOL    HW238193   4.297   0.049   7.238 -1.4627 -0.5865 -1.6190
 8911SOL     OW38194   0.090   3.863   1.271  0.3832  0.0703  0.0994
 8911SOL    HW138195   0.037   3.942   1.277 -0.3857 -0.4089 -0.3475
 8911SOL    HW238196   0.177   3.902   1.260 -0.6413  2.3568  0.1490
 8912SOL     OW38197   0.264   3.780   5.357  0.3371  0.2416 -0.3788
 8912SOL    HW138198   0.204   3.800   5.429  0.1510 -1.0231 -0.1808
 8912SOL    HW238199   0.349   3.808   5.391  0.2588  0.8443 -0.6779
 8913SOL     OW38200   1.667   4.443  13.738  0.3952  0.1143 -0.0335
 8913SOL    HW138201   1.730   4.507  13.771  1.4616 -1.1929  0.4591
 8913SOL    HW238202   1.724   4.366  13.736 -1.5342 -1.3331  0.7685
 8914SOL     OW38203   3.011   2.083   7.514 -0.2729 -0.4250  0.4084
 8914SOL    HW138204   2.941   2.146   7.532 -0.6502 -0.2117 -1.8896
 8914SOL    HW238205   2.969   1.998   7.501  0.8215 -0.9136  0.1023
 8915SOL     OW38206   2.821   2.787   8.511  0.3398  0.3721  0.2006
 8915SOL    HW138207   2.781   2.818   8.592  0.4724 -1.1042  0.8236
 8915SOL    HW238208   2.823   2.692   8.517 -0.5413  0.3351 -0.0066
 8916SOL     OW38209   3.822   1.921   4.132 -0.0739 -0.3220  0.3815
 8916SOL    HW138210   3.750   1.936   4.071 -0.4093 -1.8270  0.4145
 8916SOL    HW238211   3.854   2.008   4.160  2.4427 -0.6016 -1.6365
 8917SOL     OW38212   1.506   2.958  17.104  0.7856 -0.2840 -0.0257
 8917SOL    HW138213   1.478   3.027  17.044  2.1401 -0.4442 -0.8593
 8917SOL    HW238214   1.594   2.993  17.118  0.3951  0.3122  0.9131
 8918SOL     OW38215   1.153   2.865   3.653 -0.0181  0.2773  0.4375
 8918SOL    HW138216   1.112   2.828   3.731 -1.1373  0.3792 -0.0941
 8918SOL    HW238217   1.078   2.909   3.612  0.7521  0.4009 -0.8480
 8919SOL     OW38218   1.075   4.023   8.231 -0.0380 -0.3948  0.2901
 8919SOL    HW138219   1.034   3.943   8.265 -1.9993  0.1550 -0.8556
 8919SOL    HW238220   1.001   4.083   8.235  0.6036  0.4288 -0.4423
 8920SOL     OW38221   2.811   3.070   5.320 -0.0372 -0.1061  0.2571
 8920SOL    HW138222   2.752   3.080   5.395 -1.1766 -0.1952 -0.6223
 8920SOL    HW238223   2.871   3.142   5.339 -0.9814  0.5136  0.9315
 8921SOL     OW38224   1.145   0.323   2.831 -0.1430 -0.0679  0.0385
 8921SOL    HW138225   1.186   0.394   2.881 -0.4544 -0.8501  1.3947
 8921SOL    HW238226   1.123   0.368   2.750  2.9001 -1.4119 -1.5143
 8922SOL     OW38227   1.653   2.345  10.605 -0.6873  0.0344 -0.3324
 8922SOL    HW138228   1.563   2.350  10.574 -1.0004 -0.2201  0.5577
 8922SOL    HW238229   1.687   2.383  10.523  0.2459 -0.9246 -0.3855
 8923SOL     OW38230   0.594   2.101  16.112 -0.4458 -0.1378  0.6889
 8923SOL    HW138231   0.579   2.195  16.102 -1.9108 -0.3683  0.7263
 8923SOL    HW238232   0.545   2.067  16.037 -1.7901  1.0658  1.0268
 8924SOL     OW38233   2.107   3.077  13.518 -0.0765 -0.2702 -0.2940
 8924SOL    HW138234   2.122   3.004  13.577 -1.3844 -1.1375 -1.0457
 8924SOL    HW238235   2.172   3.132  13.562  0.0568 -0.5426 -0.1507
 8925SOL     OW38236   1.782   0.950   4.658  0.7597 -0.3227  0.0164
 8925SOL    HW138237   1.734   1.026   4.690  1.0901 -0.6706  1.3347
 8925SOL    HW238238   1.751   0.956   4.568  0.9343 -1.0043 -0.0873
 8926SOL     OW38239   3.067   0.565   3.077  0.9987 -0.2750  0.0386
 8926SOL    HW138240   2.978   0.556   3.111 -0.6455  2.1235 -3.7203
 8926SOL    HW238241   3.077   0.660   3.080  0.3268 -0.1058 -3.0636
 8927SOL     OW38242   2.729   3.115  17.460  0.3013 -0.2098 -0.1871
 8927SOL    HW138243   2.754   3.141  17.371  0.0721  3.7130  0.8625
 8927SOL    HW238244   2.721   3.204  17.495 -0.5009  0.0923 -1.1373
 8928SOL     OW38245   0.806   3.904   2.528  0.0621 -0.2277  0.4656
 8928SOL    HW138246   0.751   3.827   2.538 -0.7228  0.0633 -1.6095
 8928SOL    HW238247   0.737   3.964   2.501  2.0944  1.3954 -1.1908
 8929SOL     OW38248   0.589   2.327   7.456  0.2243  0.0716  0.2280
 8929SOL    HW138249   0.650   2.259   7.427 -1.0622  0.2150 -2.8293
 8929SOL    HW238250   0.531   2.319   7.381  1.8545  2.8689 -1.3379
 8930SOL     OW38251   2.286   1.737   3.962 -0.2572  0.6996  0.3296
 8930SOL    HW138252   2.212   1.796   3.945 -1.4608 -0.5968  1.1436
 8930SOL    HW238253   2.326   1.729   3.875  0.8534  1.4649  0.7675
 8931SOL     OW38254   0.337   0.416  10.891  0.5673  0.2339 -0.7542
 8931SOL    HW138255   0.277   0.446  10.959  0.4825  0.7163 -1.0432
 8931SOL    HW238256   0.282   0.388  10.817 -0.3600 -1.2085  0.4586
 8932SOL     OW38257   3.030   4.099   6.978  0.3337 -0.0103 -0.0739
 8932SOL    HW138258   3.062   4.011   6.998 -0.8140 -0.0460  1.7121
 8932SOL    HW238259   3.026   4.083   6.884 -2.2589 -3.6508  0.6459
 8933SOL     OW38260   3.230   1.924  10.385  0.4129 -0.7688  0.1502
 8933SOL    HW138261   3.173   1.863  10.432 -2.1011 -0.8654 -3.0926
 8933SOL    HW238262   3.173   1.990  10.345 -1.6942 -2.1700  0.8278
 8934SOL     OW38263   3.873   3.500   4.818 -0.3568 -0.4963 -0.9325
 8934SOL    HW138264   3.939   3.530   4.755 -2.0919  0.4773 -2.2932
 8934SOL    HW238265   3.883   3.406   4.831 -0.2919 -0.4366 -0.5600
 8935SOL     OW38266   3.382   2.254   5.982  0.2538  0.2817 -0.2826
 8935SOL    HW138267   3.416   2.317   6.046  0.7901  0.4879 -0.7785
 8935SOL    HW238268   3.364   2.322   5.917  0.6548  0.7657  0.1085
 8936SOL     OW38269   0.988   3.072   9.111  0.3132  0.0757  0.6761
 8936SOL    HW138270   1.042   3.082   9.189  0.5151 -0.2273  0.5762
 8936SOL    HW238271   1.054   3.110   9.052 -0.4910 -1.8580 -1.4946
 8937SOL     OW38272   2.396   0.622   2.298  0.2912 -0.2388  0.7809
 8937SOL    HW138273   2.362   0.667   2.221 -3.5175 -0.8899  2.0588
 8937SOL    HW238274   2.359   0.672   2.370 -0.1045 -0.3098  0.6245
 8938SOL     OW38275   1.683   2.127   7.285 -0.4791 -0.3377 -0.1410
 8938SOL    HW138276   1.778   2.126   7.293 -0.6764 -2.1181  2.0171
 8938SOL    HW238277   1.668   2.143   7.192  0.0391 -0.6434 -0.2791
 8939SOL     OW38278   3.901   0.649   2.016 -0.0914  0.8690  0.0676
 8939SOL    HW138279   3.828   0.643   2.077 -0.2578 -0.8692 -0.3226
 8939SOL    HW238280   3.979   0.661   2.071 -1.3044  1.8918  1.5569
 8940SOL     OW38281   1.426   0.728   8.982 -0.4061 -0.1926 -0.0997
 8940SOL    HW138282   1.429   0.634   8.996  1.2787 -0.0237  0.7272
 8940SOL    HW238283   1.443   0.765   9.069 -1.4869 -2.7922  1.2225
 8941SOL     OW38284   1.313   1.168   7.025  0.1578  0.1177  0.0427
 8941SOL    HW138285   1.385   1.231   7.024  1.7546 -1.7065 -0.7774
 8941SOL    HW238286   1.258   1.204   6.956  1.3329  0.6614 -0.6221
 8942SOL     OW38287   0.788   1.581  14.331  0.4294 -0.2051  0.6059
 8942SOL    HW138288   0.796   1.634  14.410 -0.4479  0.4078  0.2754
 8942SOL    HW238289   0.874   1.539  14.328  1.0888  1.1261  0.7864
 8943SOL     OW38290   1.501   3.836   2.801 -0.2244  0.2611  0.2546
 8943SOL    HW138291   1.527   3.917   2.844  0.0489  0.0996  0.3870
 8943SOL    HW238292   1.587   3.817   2.764 -0.1771  1.6683 -0.3675
 8944SOL     OW38293   0.337   0.600  14.687 -0.1584  0.2789 -0.7838
 8944SOL    HW138294   0.250   0.560  14.686 -0.1632  0.2912 -1.1390
 8944SOL    HW238295   0.390   0.532  14.728 -0.3545  0.7103  0.1866
 8945SOL     OW38296   2.008   4.724   4.015 -0.0511  0.6733  0.1760
 8945SOL    HW138297   2.077   4.673   4.058 -0.7415 -0.2361  0.1903
 8945SOL    HW238298   1.934   4.702   4.072  0.9581 -0.8357  0.9127
 8946SOL     OW38299   1.942   0.474  11.480 -0.0061  0.4161  0.4384
 8946SOL    HW138300   1.989   0.429  11.410 -1.5069 -1.1341  0.4332
 8946SOL    HW238301   1.873   0.521  11.433 -1.0150 -0.3580  1.1511
 8947SOL     OW38302   0.884   4.125  13.254 -0.6959 -0.0486  0.1915
 8947SOL    HW138303   0.904   4.217  13.273 -1.7691  0.3732 -0.7655
 8947SOL    HW238304   0.943   4.105  13.181 -2.5633 -0.0323 -1.2978
 8948SOL     OW38305   3.333   4.238  15.787 -0.0851 -0.0323  0.6864
 8948SOL    HW138306   3.264   4.177  15.813 -0.6844  0.0301 -0.7213
 8948SOL    HW238307   3.411   4.184  15.776 -0.8211 -1.2901  1.6841
 8949SOL     OW38308   1.537   0.347  16.410 -0.1917  0.6935 -0.1565
 8949SOL    HW138309   1.510   0.255  16.403 -1.9539  1.2182 -0.1315
 8949SOL    HW238310   1.593   0.354  16.332  0.3909 -0.6420  0.1300
 8950SOL     OW38311   0.024   1.536  16.311 -0.4124  0.4890  0.2582
 8950SOL    HW138312   4.689   1.570  16.378 -0.1468 -0.6216  1.0666
 8950SOL    HW238313   4.691   1.546  16.235 -0.3728  1.0947  0.3031
 8951SOL     OW38314   1.914   2.434   7.671 -0.4480 -0.7156 -0.3387
 8951SOL    HW138315   1.956   2.377   7.607 -1.6545 -1.1677 -0.7341
 8951SOL    HW238316   1.959   2.402   7.749 -0.5795 -0.9985 -0.3781
 8952SOL     OW38317   0.115   0.480  13.496 -0.3996  0.2654  0.1799
 8952SOL    HW138318   0.176   0.409  13.473  1.8648  1.0070  4.0133
 8952SOL    HW238319   0.181   0.547  13.514  0.6139 -0.6429 -0.1569
 8953SOL     OW38320   2.415   1.755   7.710 -0.1319 -0.1745  0.4424
 8953SOL    HW138321   2.355   1.828   7.694  0.1716  0.1758  0.9139
 8953SOL    HW238322   2.446   1.789   7.794  0.2341  1.0957 -0.2056
 8954SOL     OW38323   3.825   2.212   9.239  1.0015  0.3343  0.3994
 8954SOL    HW138324   3.900   2.258   9.201  0.8210  1.2646  1.1614
 8954SOL    HW238325   3.795   2.267   9.312 -1.1820  1.4113 -1.3215
 8955SOL     OW38326   2.211   2.607   9.206 -0.3847 -0.0819 -0.3605
 8955SOL    HW138327   2.143   2.674   9.202  0.7246  1.2379  2.4252
 8955SOL    HW238328   2.203   2.590   9.300 -1.2293 -2.5271 -0.8860
 8956SOL     OW38329   4.564   3.896  16.737 -1.0844  0.4781 -0.5662
 8956SOL    HW138330   4.549   3.926  16.827  0.8229 -1.0222  0.2604
 8956SOL    HW238331   4.509   3.818  16.729 -1.0707  0.5675 -1.4744
 8957SOL     OW38332   3.245   4.287  11.129  0.6418 -0.3869  0.0234
 8957SOL    HW138333   3.294   4.279  11.211  0.3711  1.1363  0.3340
 8957SOL    HW238334   3.256   4.379  11.107 -0.5151 -0.4145 -0.6640
 8958SOL     OW38335   0.412   1.959   1.855 -0.4566 -0.2163  0.3879
 8958SOL    HW138336   0.478   2.028   1.847  0.0049 -1.0340 -2.6818
 8958SOL    HW238337   0.371   1.984   1.938 -0.9948  1.5920 -0.4410
 8959SOL     OW38338   1.514   1.262   5.958  0.4257 -0.2823  0.0629
 8959SOL    HW138339   1.423   1.242   5.939  0.0957 -0.1651  1.5463
 8959SOL    HW238340   1.520   1.358   5.966 -0.4286 -0.1033 -1.3827
 8960SOL     OW38341   4.259   1.710   1.573 -0.3455 -0.1109 -0.1584
 8960SOL    HW138342   4.241   1.805   1.572  1.0461  0.1146 -2.8533
 8960SOL    HW238343   4.335   1.718   1.516 -0.5694 -0.7355 -0.5404
 8961SOL     OW38344   1.745   0.639   1.897  0.0683 -0.0905  0.6110
 8961SOL    HW138345   1.705   0.560   1.861  1.0259  0.4223 -1.5703
 8961SOL    HW238346   1.751   0.632   1.992  0.7460  0.8560  0.6379
 8962SOL     OW38347   1.098   3.958   3.159 -0.4019 -0.0908  0.3357
 8962SOL    HW138348   1.154   3.890   3.122 -1.0237  0.4563 -1.6517
 8962SOL    HW238349   1.039   3.974   3.084 -1.6165 -3.4118  0.6054
 8963SOL     OW38350   2.601   2.707   1.580 -0.0721 -0.3417  0.0705
 8963SOL    HW138351   2.548   2.639   1.539  0.9285 -0.4556 -1.0444
 8963SOL    HW238352   2.654   2.653   1.638 -2.0246 -2.3386 -0.0252
 8964SOL     OW38353   4.280   3.118   1.238 -0.5059 -1.0035 -0.1447
 8964SOL    HW138354   4.194   3.140   1.203 -0.4836  2.1296  1.7951
 8964SOL    HW238355   4.309   3.041   1.189  0.2554 -1.8665  1.6317
 8965SOL     OW38356   3.532   3.017   2.075  0.0307 -0.7685  0.1643
 8965SOL    HW138357   3.521   2.941   2.131 -1.0380 -0.6179  0.1590
 8965SOL    HW238358   3.499   3.087   2.131 -2.6546 -1.1177 -1.0251
 8966SOL     OW38359   1.789   3.113  12.721 -0.2878 -0.3650  0.2719
 8966SOL    HW138360   1.825   3.114  12.633 -1.2634  0.3194 -0.1080
 8966SOL    HW238361   1.698   3.140  12.709 -0.0027  0.5304  0.1589
 8967SOL     OW38362   3.328   3.025   3.579 -0.2090  0.0239  0.1480
 8967SOL    HW138363   3.300   2.933   3.573 -1.1118  0.3878 -1.2541
 8967SOL    HW238364   3.408   3.034   3.528 -1.0350  1.6953 -0.8468
 8968SOL     OW38365   0.894   3.933  14.736 -0.1272 -0.1012  0.4233
 8968SOL    HW138366   0.839   3.855  14.732  2.0323 -1.4355 -2.7147
 8968SOL    HW238367   0.979   3.891  14.721  0.7070  1.6799  0.1491
 8969SOL     OW38368   1.429   1.198   3.252  0.0595  0.1504  0.3583
 8969SOL    HW138369   1.355   1.231   3.304 -0.0209  1.2397 -0.4337
 8969SOL    HW238370   1.497   1.251   3.292 -0.3015  1.7570 -1.1511
 8970SOL     OW38371   4.624   3.606   5.862 -0.1274  0.1836  0.1454
 8970SOL    HW138372   4.596   3.650   5.781 -0.0575 -1.2886 -0.6776
 8970SOL    HW238373   4.603   3.516   5.838 -0.1197  0.6838 -1.7265
 8971SOL     OW38374   3.160   0.654   6.689 -0.0844 -0.3956  0.0098
 8971SOL    HW138375   3.213   0.730   6.664 -1.2314  0.2087 -0.6198
 8971SOL    HW238376   3.100   0.684   6.756  0.7193 -0.5262  0.7807
 8972SOL     OW38377   0.455   0.635  11.121  0.0962  0.4183  0.2758
 8972SOL    HW138378   0.370   0.610  11.084  0.8497  0.2833 -1.3705
 8972SOL    HW238379   0.460   0.590  11.205 -0.5071 -1.2485 -0.5679
 8973SOL     OW38380   3.568   2.175   2.425 -0.0489 -0.2552  0.1745
 8973SOL    HW138381   3.602   2.086   2.414 -0.2741 -0.5194  1.6361
 8973SOL    HW238382   3.512   2.194   2.349  0.6005  0.3016 -0.1619
 8974SOL     OW38383   4.649   2.982   2.245 -0.7555 -0.4700  0.0616
 8974SOL    HW138384   4.667   2.896   2.283  1.8069  0.6693  1.4950
 8974SOL    HW238385   4.556   3.000   2.255 -0.5926 -0.5373  1.6811
 8975SOL     OW38386   2.042   2.560  11.574  1.0854  0.2583  0.8629
 8975SOL    HW138387   2.107   2.626  11.550  1.1614 -0.3299 -0.5343
 8975SOL    HW238388   2.096   2.483  11.593 -2.0758 -2.0824  0.1718
 8976SOL     OW38389   0.968   3.657  14.914  0.1552  0.7611 -0.6159
 8976SOL    HW138390   0.921   3.617  14.841 -0.8810  2.0003 -0.6221
 8976SOL    HW238391   1.038   3.700  14.866  1.6111  1.1771  1.8637
 8977SOL     OW38392   3.351   4.592   8.652 -0.3312 -0.3580 -0.0428
 8977SOL    HW138393   3.381   4.656   8.587  0.4088 -0.6522  0.0119
 8977SOL    HW238394   3.419   4.528   8.634 -0.1538 -0.0624 -0.4206
 8978SOL     OW38395   2.623   4.258   7.445  0.0673 -0.5955  0.0204
 8978SOL    HW138396   2.587   4.290   7.362 -2.4989  0.5929  1.6029
 8978SOL    HW238397   2.653   4.169   7.425 -1.6832 -1.5851  1.7728
 8979SOL     OW38398   3.590   3.713   1.489  0.8685 -0.5779  0.4718
 8979SOL    HW138399   3.535   3.638   1.466  0.1036  0.2795 -0.4871
 8979SOL    HW238400   3.527   3.775   1.527 -0.0921 -1.1636 -0.1532
 8980SOL     OW38401   1.940   3.128   8.102  0.5228  0.4947 -0.0802
 8980SOL    HW138402   1.901   3.171   8.026  0.6231  0.1682 -0.3209
 8980SOL    HW238403   2.020   3.178   8.115  2.5681 -2.4832 -1.0883
 8981SOL     OW38404   1.389   3.242   3.375 -0.1668  0.4758 -0.0873
 8981SOL    HW138405   1.358   3.330   3.397 -0.7252  0.1261  0.5453
 8981SOL    HW238406   1.418   3.200   3.456 -1.1332 -2.1283 -1.1043
 8982SOL     OW38407   2.591   0.013   1.989  0.7874 -0.6213  0.4221
 8982SOL    HW138408   2.510   0.028   2.038  0.7823 -2.2923  0.9077
 8982SOL    HW238409   2.639   0.093   2.011  2.0868 -1.9866  2.6064
 8983SOL     OW38410   2.721   1.758   5.508  0.2845  0.3308  0.1452
 8983SOL    HW138411   2.798   1.806   5.537  0.5821 -0.8805  1.3503
 8983SOL    HW238412   2.736   1.771   5.414 -2.2597  0.4070 -0.2434
 8984SOL     OW38413   3.487   3.979   0.087 -0.5077  0.6191  0.2651
 8984SOL    HW138414   3.477   3.997  17.696 -0.6722 -0.0530  0.1528
 8984SOL    HW238415   3.485   4.066   0.126  1.8042  1.5995 -1.7550
 8985SOL     OW38416   0.408   1.596   9.345 -0.8220  0.1652 -0.0977
 8985SOL    HW138417   0.328   1.550   9.323 -0.3737 -0.4459 -0.4453
 8985SOL    HW238418   0.384   1.645   9.423 -1.2244  0.3313 -0.3250
 8986SOL     OW38419   4.048   0.980   1.861  0.9965  0.1667 -0.1148
 8986SOL    HW138420   3.957   0.950   1.853  0.4288  1.8365  0.1414
 8986SOL    HW238421   4.048   1.054   1.921  0.5431  0.5522 -0.5912
 8987SOL     OW38422   3.462   3.961  17.499  0.1450 -0.3742 -0.1101
 8987SOL    HW138423   3.398   4.022  17.461 -0.5769 -0.5277  0.8365
 8987SOL    HW238424   3.454   3.887  17.438  1.1992 -1.5341  1.1699
 8988SOL     OW38425   4.445   0.341   8.118  0.0554  0.1250 -0.0725
 8988SOL    HW138426   4.410   0.279   8.183  0.5472  0.4002  0.4612
 8988SOL    HW238427   4.366   0.341   8.065 -0.3415  0.9833  0.5065
 8989SOL     OW38428   3.757   0.227  15.700 -0.6337  0.2470 -0.0268
 8989SOL    HW138429   3.789   0.317  15.696 -1.0128  0.3820  0.0297
 8989SOL    HW238430   3.833   0.168  15.695  0.0240  0.9279  1.7942
 8990SOL     OW38431   3.963   0.630   4.480 -0.2987  0.6705  0.7576
 8990SOL    HW138432   4.013   0.659   4.556 -0.2395 -0.0076  0.9788
 8990SOL    HW238433   3.884   0.684   4.487 -1.1645 -0.3450 -1.1569
 8991SOL     OW38434   3.810   1.464   1.932  0.2190 -0.3643 -0.4463
 8991SOL    HW138435   3.875   1.478   1.864 -1.0343 -1.6183 -1.8975
 8991SOL    HW238436   3.743   1.424   1.877  1.3446 -2.1720 -0.4987
 8992SOL     OW38437   0.739   3.523  14.365  0.6091  0.4611  0.0938
 8992SOL    HW138438   0.827   3.559  14.366 -0.2949  2.6176  0.4162
 8992SOL    HW238439   0.739   3.517  14.270 -0.6869  0.8167  0.0725
 8993SOL     OW38440   1.545   3.529   2.582  0.0256 -0.3399  0.2749
 8993SOL    HW138441   1.564   3.450   2.633  2.0152 -0.0589 -0.0296
 8993SOL    HW238442   1.610   3.517   2.512 -1.1836  0.4728 -0.9800
 8994SOL     OW38443   4.432   3.787   3.858  0.4559  0.6427  0.3643
 8994SOL    HW138444   4.345   3.794   3.897  0.4693  0.4354  0.4311
 8994SOL    HW238445   4.437   3.695   3.831  1.6282  0.7798  0.1204
 8995SOL     OW38446   3.966   3.053  17.359  0.0427  0.3664  0.0128
 8995SOL    HW138447   3.896   3.113  17.385  1.3102  1.9328 -0.1966
 8995SOL    HW238448   4.049   3.099  17.363 -0.1552  0.7999 -0.7381
 8996SOL     OW38449   3.621   3.667   2.290  0.2320  0.4089 -0.3824
 8996SOL    HW138450   3.610   3.694   2.381 -0.4144 -0.0117 -0.3397
 8996SOL    HW238451   3.683   3.729   2.251 -1.1573  2.4408  0.5767
 8997SOL     OW38452   1.209   1.897   4.091  0.1319  0.8214 -0.5497
 8997SOL    HW138453   1.262   1.817   4.096 -0.0769  0.7280  0.2716
 8997SOL    HW238454   1.277   1.958   4.121 -0.5696  0.5717  1.6099
 8998SOL     OW38455   2.962   0.530   3.349  0.0646 -0.3160 -0.3593
 8998SOL    HW138456   2.977   0.436   3.355  0.0765 -0.3097 -0.2955
 8998SOL    HW238457   2.892   0.530   3.284 -0.7936 -1.2197  0.5695
 8999SOL     OW38458   1.701   1.275  11.811 -0.4934  0.4278 -0.3181
 8999SOL    HW138459   1.672   1.184  11.801 -0.8042  0.1935  2.5850
 8999SOL    HW238460   1.795   1.262  11.818 -0.6201 -0.7128 -0.6587
 9000SOL     OW38461   1.997   2.239  12.427 -0.6154 -0.1224 -0.1181
 9000SOL    HW138462   2.042   2.155  12.424 -1.6152 -0.6174 -1.4130
 9000SOL    HW238463   1.978   2.235  12.521  0.2231  1.5935  0.1283
 9001SOL     OW38464   2.291   2.797  11.465  0.2510  0.5387 -0.0643
 9001SOL    HW138465   2.220   2.818  11.526  0.5516  0.3002  0.3657
 9001SOL    HW238466   2.355   2.866  11.481 -0.8968  2.1692 -2.5589
 9002SOL     OW38467   2.903   3.227  12.016  0.4785 -0.3729 -0.2221
 9002SOL    HW138468   2.986   3.251  12.057  0.6202 -0.0944 -0.6675
 9002SOL    HW238469   2.876   3.319  12.012  0.2158 -0.4376  0.0945
 9003SOL     OW38470   0.867   1.063  13.085  0.0148  0.1675 -0.8622
 9003SOL    HW138471   0.953   1.022  13.092 -0.6100 -0.4911  2.9821
 9003SOL    HW238472   0.816   0.984  13.066 -1.0343  0.7149 -0.3145
 9004SOL     OW38473   2.968   3.672   6.635 -0.4771 -0.7495  0.4628
 9004SOL    HW138474   2.928   3.591   6.603 -1.8690  0.4141 -0.7521
 9004SOL    HW238475   2.963   3.723   6.554  1.5783 -0.8008  0.2970
 9005SOL     OW38476   1.418   2.490   0.784 -0.1416 -0.1660 -0.4085
 9005SOL    HW138477   1.394   2.417   0.727  0.8513 -0.7823 -0.0480
 9005SOL    HW238478   1.345   2.549   0.766 -0.8062 -0.6269  0.7571
 9006SOL     OW38479   2.094   0.938   4.393 -0.0561  0.1116  0.2241
 9006SOL    HW138480   2.112   1.028   4.366  1.0187 -0.1960 -0.0735
 9006SOL    HW238481   2.118   0.956   4.483 -2.4427  2.7461  0.3531
 9007SOL     OW38482   3.428   1.164   0.526 -0.3632 -0.1002  0.4524
 9007SOL    HW138483   3.481   1.228   0.478 -0.3532 -2.0622 -2.2153
 9007SOL    HW238484   3.341   1.203   0.525  0.4645  1.7631  0.9235
 9008SOL     OW38485   1.421   3.393  10.087  0.4247  0.1960 -0.5280
 9008SOL    HW138486   1.425   3.463  10.021 -1.2634  0.8410  0.0446
 9008SOL    HW238487   1.511   3.388  10.118  0.7262 -2.0112 -1.7631
 9009SOL     OW38488   0.850   4.080  16.399  0.3940 -0.2611 -0.3274
 9009SOL    HW138489   0.832   3.987  16.414 -2.7142  0.3783 -0.0477
 9009SOL    HW238490   0.810   4.105  16.482  1.0993 -1.2354  0.3047
 9010SOL     OW38491   2.429   2.544  16.271 -0.4045  0.0866  0.0200
 9010SOL    HW138492   2.342   2.513  16.246 -0.7413  0.8808  0.1895
 9010SOL    HW238493   2.423   2.637  16.247  0.4779 -0.0312 -0.6328
 9011SOL     OW38494   0.551   3.653   4.654 -0.0709  0.2053  0.3686
 9011SOL    HW138495   0.468   3.699   4.643 -0.7417 -0.7458  1.4743
 9011SOL    HW238496   0.578   3.664   4.563 -0.5324  0.7922  0.3085
 9012SOL     OW38497   2.652   1.609   2.025  0.1100 -0.1270 -1.0315
 9012SOL    HW138498   2.565   1.647   2.042  1.3674  1.6790  1.4569
 9012SOL    HW238499   2.663   1.534   2.083 -0.5297  0.8066  0.3199
 9013SOL     OW38500   3.571   0.523   1.312 -0.0219  0.2982  0.1478
 9013SOL    HW138501   3.495   0.480   1.352  0.9862 -0.1202  1.6075
 9013SOL    HW238502   3.542   0.521   1.221  0.3123 -0.9317  0.0681
 9014SOL     OW38503   4.014   2.833   1.703  0.2640 -0.0374  0.3223
 9014SOL    HW138504   4.020   2.778   1.625 -2.7781  1.5507 -1.0152
 9014SOL    HW238505   4.046   2.773   1.770  0.6923 -0.6244 -0.4057
 9015SOL     OW38506   2.091   0.588  14.749  0.1144  0.1783 -0.2582
 9015SOL    HW138507   2.152   0.517  14.767  0.2733  0.3266 -0.2139
 9015SOL    HW238508   2.153   0.650  14.711  1.1863 -0.4268  0.4909
 9016SOL     OW38509   4.721   3.103  16.305 -0.0960  0.4738  0.6970
 9016SOL    HW138510   4.643   3.152  16.330  0.9241  2.5097 -0.0727
 9016SOL    HW238511   4.682   3.017  16.290  0.7990  0.0083  1.0599
 9017SOL     OW38512   2.517   0.062   5.953 -0.4601  0.4734 -0.4374
 9017SOL    HW138513   2.428   0.098   5.949 -0.4851  0.1186 -2.5765
 9017SOL    HW238514   2.549   0.101   5.872 -1.2176 -0.5564 -1.2259
 9018SOL     OW38515   2.782   2.015   4.734  0.2566  0.3935  0.3991
 9018SOL    HW138516   2.733   1.959   4.794  0.6815 -0.9106 -0.4639
 9018SOL    HW238517   2.870   1.995   4.765 -0.2464 -3.2173 -0.4025
 9019SOL     OW38518   3.495   0.906   8.598 -0.0383 -0.2581 -0.3993
 9019SOL    HW138519   3.564   0.923   8.534 -0.5862 -2.2762 -1.5337
 9019SOL    HW238520   3.534   0.839   8.654 -1.6969  0.2549  1.3942
 9020SOL     OW38521   0.937   2.800  15.888 -0.4905 -0.1502 -0.2799
 9020SOL    HW138522   0.966   2.860  15.820  1.3523  0.1838  0.7950
 9020SOL    HW238523   0.844   2.796  15.868 -0.3159 -0.3492 -1.0568
 9021SOL     OW38524   4.696   1.927   0.042 -0.5663  0.3200  0.1160
 9021SOL    HW138525   4.639   1.884  17.682 -3.0128 -1.4242  3.5786
 9021SOL    HW238526   0.023   1.848   0.053  0.9860  1.1159 -1.5155
 9022SOL     OW38527   3.973   3.494   6.106 -0.0593 -0.1426 -0.1094
 9022SOL    HW138528   3.917   3.489   6.184  0.0079 -0.3107 -0.0716
 9022SOL    HW238529   4.004   3.404   6.094  1.6193 -0.0011  3.0985
 9023SOL     OW38530   0.428   2.237   8.031  0.3669  0.3247  0.4251
 9023SOL    HW138531   0.468   2.191   7.957  1.6377 -0.4843  1.6110
 9023SOL    HW238532   0.491   2.308   8.036 -0.3984  1.1358 -1.6197
 9024SOL     OW38533   2.878   1.927   2.422  0.0907  0.2423  0.0498
 9024SOL    HW138534   2.831   1.865   2.366  0.8056 -0.0826 -0.1895
 9024SOL    HW238535   2.870   2.005   2.367 -2.0819  1.6086  2.3116
 9025SOL     OW38536   1.809   3.557  15.633 -0.2670  0.1315  0.5301
 9025SOL    HW138537   1.756   3.624  15.589  0.0877 -0.8366 -1.3848
 9025SOL    HW238538   1.832   3.503  15.558 -0.6804  0.7923 -0.0741
 9026SOL     OW38539   2.798   2.074   8.946  0.1840  0.4901 -0.4170
 9026SOL    HW138540   2.752   1.996   8.978 -2.5428  2.0866 -0.4982
 9026SOL    HW238541   2.847   2.106   9.021 -0.7063 -0.0379  0.3895
 9027SOL     OW38542   2.779   2.983  15.244  0.4580 -0.3943  0.4289
 9027SOL    HW138543   2.774   3.033  15.325  0.0131 -0.5533  0.4968
 9027SOL    HW238544   2.833   2.906  15.266  0.7547  0.3299  2.2170
 9028SOL     OW38545   1.430   4.073   7.216  0.6201  0.1946 -0.5085
 9028SOL    HW138546   1.434   4.063   7.121 -0.1611  0.6563 -0.5885
 9028SOL    HW238547   1.505   4.019   7.242  1.3104  1.1517 -0.5249
 9029SOL     OW38548   0.883   1.569   7.051 -0.0470 -0.3497 -0.1126
 9029SOL    HW138549   0.931   1.626   6.991 -0.9901 -0.4142 -0.9224
 9029SOL    HW238550   0.848   1.490   7.009 -3.4051  1.0979 -0.0012
 9030SOL     OW38551   4.481   3.490   4.906  0.3731 -0.3944 -0.0699
 9030SOL    HW138552   4.454   3.433   4.979 -1.2909  1.3626  0.6828
 9030SOL    HW238553   4.576   3.480   4.910  0.2663 -0.9492  1.3390
 9031SOL     OW38554   2.082   1.558   3.724 -0.2369  0.0145 -0.1177
 9031SOL    HW138555   2.025   1.535   3.797 -0.0753 -0.0812 -0.0198
 9031SOL    HW238556   2.150   1.491   3.734 -1.5052 -1.2556  0.0602
 9032SOL     OW38557   2.845   3.038   8.397 -0.1032 -0.2459  0.0728
 9032SOL    HW138558   2.844   2.945   8.419 -1.3113 -0.5719 -1.3481
 9032SOL    HW238559   2.932   3.070   8.421 -0.8944  2.5160 -0.7431
 9033SOL     OW38560   2.771   3.451   2.183  0.3220  0.2809 -0.2320
 9033SOL    HW138561   2.855   3.423   2.148  0.2181 -1.7855  1.1968
 9033SOL    HW238562   2.741   3.367   2.217 -1.2285  1.6751  1.8655
 9034SOL     OW38563   2.182   1.065   6.265 -0.0021 -0.3946  1.0487
 9034SOL    HW138564   2.171   1.095   6.175  0.0240 -3.2452  0.0892
 9034SOL    HW238565   2.181   1.149   6.310 -1.3046  0.3575 -0.3965
 9035SOL     OW38566   3.325   0.023   6.362  0.3690 -0.2004 -0.0392
 9035SOL    HW138567   3.419   0.017   6.374  0.2661 -1.6847 -0.0580
 9035SOL    HW238568   3.307   4.676   6.302 -0.3334 -0.9006  1.0033
 9036SOL     OW38569   2.592   2.273   3.042  0.8345 -0.3992 -1.0172
 9036SOL    HW138570   2.538   2.351   3.025 -0.8208 -1.4180 -0.4325
 9036SOL    HW238571   2.669   2.295   2.990  2.2869  0.3209  1.4379
 9037SOL     OW38572   0.017   0.076  14.079 -0.0793  0.8260 -0.0189
 9037SOL    HW138573   0.099   0.125  14.080  1.3095 -1.5369  2.1658
 9037SOL    HW238574   4.697   0.123  14.149 -1.0753  0.8233 -0.6613
 9038SOL     OW38575   4.127   0.173   5.176 -0.4953  0.0375  0.2277
 9038SOL    HW138576   4.041   0.199   5.145 -0.5563  0.4892  0.7776
 9038SOL    HW238577   4.142   0.238   5.245 -1.4428 -0.4022  0.8370
 9039SOL     OW38578   1.140   1.689   7.492 -0.8062 -0.0608 -0.3529
 9039SOL    HW138579   1.079   1.671   7.419  0.5692 -0.4611 -1.4034
 9039SOL    HW238580   1.172   1.602   7.515  2.1922  1.3067  0.6075
 9040SOL     OW38581   1.297   4.583   3.050  0.5607 -0.3322 -0.6626
 9040SOL    HW138582   1.242   4.532   2.991 -1.5436  0.1456  0.9138
 9040SOL    HW238583   1.230   4.617   3.109 -0.9115 -2.5494 -1.0753
 9041SOL     OW38584   1.703   4.369  14.033 -0.0892 -0.1445  0.0276
 9041SOL    HW138585   1.726   4.446  14.085  3.3762 -0.0731 -1.6207
 9041SOL    HW238586   1.766   4.391  13.965  0.8490 -0.9322  0.6432
 9042SOL     OW38587   3.383   4.262  12.892  0.1199  0.0022 -0.1326
 9042SOL    HW138588   3.336   4.342  12.869  0.5910  0.0233 -0.9976
 9042SOL    HW238589   3.367   4.201  12.820  1.1229  1.0237 -1.2180
 9043SOL     OW38590   2.257   2.622  13.124  0.4962  0.0121 -0.8711
 9043SOL    HW138591   2.165   2.607  13.146  0.5999 -0.1032 -0.5096
 9043SOL    HW238592   2.297   2.542  13.159  0.5371  0.0724 -0.7802
 9044SOL     OW38593   0.401   2.751   3.686 -0.0088  0.3543  0.0272
 9044SOL    HW138594   0.379   2.823   3.627  0.1498 -0.7203 -1.3594
 9044SOL    HW238595   0.443   2.691   3.625 -0.1647  0.7781 -0.4946
 9045SOL     OW38596   0.450   4.470   2.137  0.2242 -0.9810 -0.1257
 9045SOL    HW138597   0.545   4.484   2.136  0.0790  0.0030 -0.1366
 9045SOL    HW238598   0.435   4.452   2.045 -2.1381 -2.3617  0.5337
 9046SOL     OW38599   2.863   1.815  11.809  0.2371 -0.4701 -0.5460
 9046SOL    HW138600   2.780   1.844  11.769  0.9796 -0.6683 -2.2318
 9046SOL    HW238601   2.846   1.824  11.902  0.4569  1.2773 -0.6694
 9047SOL     OW38602   4.097   2.312   9.365  0.3659 -0.4236  0.3198
 9047SOL    HW138603   4.052   2.357   9.436 -0.5782 -1.9103  0.6793
 9047SOL    HW238604   4.116   2.229   9.410  0.4379 -0.8607 -0.5167
 9048SOL     OW38605   0.082   1.797   7.635 -0.1963 -0.6616 -0.2011
 9048SOL    HW138606   0.074   1.856   7.559  1.2652 -1.7984 -1.2244
 9048SOL    HW238607   0.147   1.843   7.688 -1.2404 -1.8062  2.0659
 9049SOL     OW38608   0.237   0.650   0.665  0.4798  0.2302  0.5459
 9049SOL    HW138609   0.310   0.712   0.656  0.9454 -0.4227 -0.1509
 9049SOL    HW238610   0.183   0.699   0.727 -1.3621 -1.6955  0.4394
 9050SOL     OW38611   1.214   0.303   2.294  0.1101  0.5115  0.0058
 9050SOL    HW138612   1.285   0.312   2.358  2.4331 -0.6053 -2.3879
 9050SOL    HW238613   1.162   0.381   2.312 -1.4597 -0.6944  0.7259
 9051SOL     OW38614   0.373   0.932   1.860  0.1416 -0.1850 -0.0568
 9051SOL    HW138615   0.333   0.913   1.775 -0.9350 -2.2310  0.8933
 9051SOL    HW238616   0.311   0.889   1.919  0.8305 -0.3514  0.5437
 9052SOL     OW38617   2.229   1.463   3.029  0.4481  0.8198 -0.3272
 9052SOL    HW138618   2.193   1.397   2.969  1.9090  1.3191 -1.7471
 9052SOL    HW238619   2.276   1.409   3.093  2.6580  0.5527 -2.1505
 9053SOL     OW38620   2.160   0.124   3.428 -0.5786  0.6216 -0.4313
 9053SOL    HW138621   2.077   0.163   3.401 -0.9797  0.9556  1.2767
 9053SOL    HW238622   2.137   0.031   3.431  0.5720  0.3343 -0.5965
 9054SOL     OW38623   2.412   2.303   4.469 -0.6089  0.2716  0.0155
 9054SOL    HW138624   2.441   2.394   4.465  0.9330 -0.2366 -0.5608
 9054SOL    HW238625   2.487   2.255   4.504  0.7423  4.0041  2.2260
 9055SOL     OW38626   2.486   3.811   0.960  0.0109 -0.9019  0.2256
 9055SOL    HW138627   2.562   3.834   0.906 -0.8199 -0.8904 -0.9430
 9055SOL    HW238628   2.439   3.894   0.950 -1.3769 -1.9029 -1.6412
 9056SOL     OW38629   3.377   1.773  10.755 -0.1570  0.1556 -0.2212
 9056SOL    HW138630   3.333   1.792  10.838 -0.2412  1.1405 -0.4858
 9056SOL    HW238631   3.401   1.681  10.760  1.4355  0.4553 -1.9514
 9057SOL     OW38632   0.601   0.992   7.808 -0.1712 -0.5674  0.5115
 9057SOL    HW138633   0.623   0.927   7.741  0.4935 -0.6080  0.7667
 9057SOL    HW238634   0.686   1.031   7.823  0.7619 -1.5949 -2.0719
 9058SOL     OW38635   0.971   0.706   7.765 -0.1627  0.1137 -0.4973
 9058SOL    HW138636   0.929   0.787   7.795 -2.3094 -0.6527 -1.4421
 9058SOL    HW238637   0.907   0.639   7.790  1.3988 -0.9215  0.6907
 9059SOL     OW38638   0.422   3.524   8.540 -0.2720  0.2395  0.6375
 9059SOL    HW138639   0.488   3.570   8.487  0.4000 -1.1958  0.2455
 9059SOL    HW238640   0.427   3.439   8.498  2.2810 -0.2108  1.8549
 9060SOL     OW38641   0.199   2.853  16.960 -0.2915 -0.5222 -0.7162
 9060SOL    HW138642   0.175   2.944  16.945  0.2096 -0.1153  0.9437
 9060SOL    HW238643   0.170   2.817  16.877  0.1514 -2.1478 -0.1714
 9061SOL     OW38644   4.288   2.432   0.900 -0.6943  0.0005 -0.1115
 9061SOL    HW138645   4.304   2.523   0.876 -0.4681  0.1408  0.5676
 9061SOL    HW238646   4.223   2.408   0.834  0.4129 -2.2091 -0.4189
 9062SOL     OW38647   1.759   1.361   5.761 -0.6188 -0.7144 -0.0076
 9062SOL    HW138648   1.807   1.427   5.710 -0.7318 -0.7099 -0.1088
 9062SOL    HW238649   1.722   1.410   5.834  3.8113  0.6415  1.3593
 9063SOL     OW38650   4.053   1.664  11.243 -0.3803 -0.0913 -0.1232
 9063SOL    HW138651   3.994   1.738  11.262  0.4983  0.6226 -0.1673
 9063SOL    HW238652   4.102   1.669  11.325  0.7417  1.2209 -0.8774
 9064SOL     OW38653   1.359   0.714  12.430  0.0799 -0.4036  0.3545
 9064SOL    HW138654   1.283   0.769  12.449 -1.0513 -1.8025 -0.0453
 9064SOL    HW238655   1.425   0.725  12.498  0.8493 -0.3004 -0.4159
 9065SOL     OW38656   3.103   1.733   2.297  0.2986 -0.0503  0.1261
 9065SOL    HW138657   3.114   1.801   2.230 -2.8923  0.6784  0.3737
 9065SOL    HW238658   3.008   1.739   2.306  0.1277 -0.7236 -1.1021
 9066SOL     OW38659   1.798   3.980   4.289  0.1268  1.4295 -0.0227
 9066SOL    HW138660   1.835   3.893   4.306  0.8111  1.5169 -1.1138
 9066SOL    HW238661   1.817   3.987   4.196 -1.1971  0.1886 -0.3802
 9067SOL     OW38662   0.443   2.450  13.150  0.0780 -0.1938 -0.0585
 9067SOL    HW138663   0.404   2.432  13.236  0.2335 -2.6636 -0.5103
 9067SOL    HW238664   0.519   2.505  13.169  0.0061 -0.1809  0.1866
 9068SOL     OW38665   1.156   0.704  15.380  0.6924 -0.5249  0.4854
 9068SOL    HW138666   1.221   0.662  15.324  0.0876 -1.7216  0.6762
 9068SOL    HW238667   1.106   0.764  15.325  1.7222 -0.5034 -0.4357
 9069SOL     OW38668   3.014   0.404   8.395  0.3331 -0.2154  0.0429
 9069SOL    HW138669   3.013   0.484   8.342 -0.5577  0.2608  0.7755
 9069SOL    HW238670   3.063   0.450   8.463  0.6406 -2.0079  1.0333
 9070SOL     OW38671   3.279   2.204   1.907 -0.1782 -0.4627  0.0722
 9070SOL    HW138672   3.366   2.188   1.870 -0.0904 -1.4401  0.7073
 9070SOL    HW238673   3.236   2.119   1.903 -0.4166 -0.3037 -0.7565
 9071SOL     OW38674   4.248   3.433   7.406  0.5846 -0.7317  0.4500
 9071SOL    HW138675   4.210   3.358   7.360 -0.3058 -0.6769  1.0937
 9071SOL    HW238676   4.332   3.397   7.433  1.3211 -0.2253 -1.1390
 9072SOL     OW38677   2.966   3.582   4.535  0.0807  0.0647 -0.8816
 9072SOL    HW138678   2.937   3.499   4.498 -2.5114 -0.1977  1.7582
 9072SOL    HW238679   2.885   3.622   4.567  1.2705  0.1958  2.0108
 9073SOL     OW38680   1.181   3.155   8.742  0.0491  0.3660 -0.5021
 9073SOL    HW138681   1.220   3.237   8.712 -0.4627  0.5765 -0.5911
 9073SOL    HW238682   1.203   3.144   8.834  1.1918 -3.3223 -1.2388
 9074SOL     OW38683   0.057   3.443   4.982  0.0219  0.0470  0.3904
 9074SOL    HW138684   0.071   3.368   5.040  0.8350 -0.5355 -0.5605
 9074SOL    HW238685   0.075   3.515   5.042 -2.2569  1.0672 -0.1307
 9075SOL     OW38686   3.056   4.372   4.945 -0.2400  0.9236 -0.5353
 9075SOL    HW138687   3.011   4.426   4.880  0.4145  1.3584 -0.6251
 9075SOL    HW238688   3.003   4.292   4.948 -0.6902  1.1457 -2.7166
 9076SOL     OW38689   1.580   2.267   4.246 -0.1305 -0.0389  0.1227
 9076SOL    HW138690   1.663   2.296   4.207 -0.7890  0.9694 -0.5559
 9076SOL    HW238691   1.607   2.199   4.307 -0.0045 -0.8612 -0.8457
 9077SOL     OW38692   2.592   0.481  16.331  0.1626  0.3811  0.0674
 9077SOL    HW138693   2.652   0.440  16.269 -0.9987 -1.2543  0.0198
 9077SOL    HW238694   2.537   0.518  16.261 -2.0117 -0.6452  1.2220
 9078SOL     OW38695   4.372   4.282  12.082 -0.6378 -0.3802 -0.3274
 9078SOL    HW138696   4.279   4.265  12.100 -0.1218 -2.0934  0.6713
 9078SOL    HW238697   4.361   4.374  12.058  2.2707  0.1723  0.5720
 9079SOL     OW38698   4.140   2.677  13.857 -0.0157 -0.1010 -0.2640
 9079SOL    HW138699   4.201   2.751  13.855  1.5903 -1.4273 -0.6849
 9079SOL    HW238700   4.053   2.716  13.855  0.1519  0.1690 -2.7470
 9080SOL     OW38701   1.467   0.763   4.367  0.1950 -0.3249 -0.5936
 9080SOL    HW138702   1.457   0.683   4.420  0.9180 -0.5257 -0.7656
 9080SOL    HW238703   1.379   0.795   4.387  0.8759  2.1025 -1.5502
 9081SOL     OW38704   0.767   3.213   1.824  0.4934  0.4019 -0.3510
 9081SOL    HW138705   0.672   3.210   1.839  0.6204 -0.6782  0.2486
 9081SOL    HW238706   0.779   3.121   1.801 -1.1698  0.4842 -1.5762
 9082SOL     OW38707   1.557   0.562   6.147 -0.1502 -0.1900 -0.2173
 9082SOL    HW138708   1.553   0.642   6.199  2.8526  0.5643 -1.1404
 9082SOL    HW238709   1.476   0.574   6.099  1.1167  1.5104 -1.9331
 9083SOL     OW38710   2.132   0.368   2.496 -0.1299 -0.4414 -0.2919
 9083SOL    HW138711   2.062   0.432   2.486  0.2725  0.0907  0.3278
 9083SOL    HW238712   2.182   0.399   2.572  1.0526  1.6926 -1.9239
 9084SOL     OW38713   1.394   3.582   2.799  0.0952  0.7157 -0.5231
 9084SOL    HW138714   1.408   3.677   2.803 -4.4849  1.2583  2.2676
 9084SOL    HW238715   1.447   3.557   2.723  1.0489  0.7079  0.1426
 9085SOL     OW38716   1.361   0.615   1.717 -0.1999 -0.1851 -0.0341
 9085SOL    HW138717   1.279   0.578   1.748 -1.1852  0.0044 -2.3850
 9085SOL    HW238718   1.410   0.633   1.797  0.3241  1.4475 -0.7133
 9086SOL     OW38719   3.079   4.089   4.094  0.4589 -0.3739 -0.1478
 9086SOL    HW138720   3.059   4.175   4.055 -2.7240  0.1276  2.5844
 9086SOL    HW238721   3.023   4.028   4.047 -1.5180  1.3983 -0.1095
 9087SOL     OW38722   3.615   4.452  13.241  0.8260 -0.1770  0.0810
 9087SOL    HW138723   3.645   4.459  13.151  0.9552 -0.2818  0.1162
 9087SOL    HW238724   3.606   4.356  13.242 -0.2391 -0.0674  1.2177
 9088SOL     OW38725   1.294   2.605   5.548 -0.1948  0.0205  0.1160
 9088SOL    HW138726   1.347   2.534   5.513 -1.4914 -0.9874  0.2161
 9088SOL    HW238727   1.253   2.632   5.465  0.7266  1.1682  0.0365
 9089SOL     OW38728   0.628   4.271   8.261 -0.4608  0.0174  0.0803
 9089SOL    HW138729   0.617   4.192   8.208  1.8080 -1.3469  1.6237
 9089SOL    HW238730   0.602   4.340   8.200  0.7736  1.2807  0.9871
 9090SOL     OW38731   3.840   0.865   5.097 -0.0798  0.6111  0.1412
 9090SOL    HW138732   3.777   0.877   5.027 -2.2666 -0.6270  1.8993
 9090SOL    HW238733   3.776   0.848   5.166  0.1884  2.1348  0.7685
 9091SOL     OW38734   2.557   2.928   5.717 -0.1151  0.5290 -0.4743
 9091SOL    HW138735   2.559   2.991   5.645 -1.3522 -0.3199 -1.2377
 9091SOL    HW238736   2.643   2.885   5.725  0.1710  0.9121 -1.4737
 9092SOL     OW38737   2.558   3.885   3.261 -0.2986  0.2950  0.0244
 9092SOL    HW138738   2.508   3.951   3.212 -0.2616  0.1334 -0.2313
 9092SOL    HW238739   2.613   3.857   3.188  1.7499  0.2231  1.5928
 9093SOL     OW38740   2.788   2.960  16.840 -0.1168 -0.1044 -0.5122
 9093SOL    HW138741   2.880   2.950  16.864 -0.3576 -1.0482 -0.0019
 9093SOL    HW238742   2.794   2.927  16.750  0.5570 -0.9101 -0.1792
 9094SOL     OW38743   0.565   4.616   5.188 -0.5344 -0.3264  0.1402
 9094SOL    HW138744   0.529   4.549   5.129  0.4678 -0.7886  0.0505
 9094SOL    HW238745   0.649   4.577   5.214  1.0325  2.5271 -0.6453
 9095SOL     OW38746   4.174   1.458   4.024 -0.2565  0.1499  0.3130
 9095SOL    HW138747   4.079   1.460   4.031 -0.1026 -1.1944  2.4449
 9095SOL    HW238748   4.186   1.482   3.932 -2.6297 -0.2373 -0.0978
 9096SOL     OW38749   4.528   3.473   4.443 -0.5885  0.2387 -0.1998
 9096SOL    HW138750   4.437   3.489   4.418 -1.0399 -0.5175  0.9192
 9096SOL    HW238751   4.563   3.430   4.365 -1.6191 -2.4793  0.8140
 9097SOL     OW38752   0.943   1.379   7.827 -0.2411  0.3423 -0.1747
 9097SOL    HW138753   0.975   1.425   7.749 -2.0517  1.9367  0.0068
 9097SOL    HW238754   0.990   1.296   7.830 -1.7332 -0.5425 -1.8520
 9098SOL     OW38755   3.540   4.045   7.458 -0.3834  0.4709  0.2080
 9098SOL    HW138756   3.466   4.011   7.510  0.4338 -0.4351  0.7783
 9098SOL    HW238757   3.531   4.138   7.480  0.7587  0.7993 -0.7389
 9099SOL     OW38758   1.480   3.064   6.572  0.2439 -0.7712  0.5773
 9099SOL    HW138759   1.466   3.155   6.547  2.1403 -0.2106  1.6497
 9099SOL    HW238760   1.518   3.039   6.488 -1.7319 -0.9225 -0.2884
 9100SOL     OW38761   0.307   3.727   8.243 -0.7875  0.0906 -0.4670
 9100SOL    HW138762   0.272   3.672   8.173 -0.0675 -0.8059 -0.1335
 9100SOL    HW238763   0.378   3.667   8.267 -2.1370 -0.7260  1.5346
 9101SOL     OW38764   1.595   3.085   4.488 -0.5225 -0.4273  0.0589
 9101SOL    HW138765   1.537   3.108   4.415  1.6278  2.9112 -0.5444
 9101SOL    HW238766   1.684   3.091   4.455 -1.2651 -2.0884 -2.3061
 9102SOL     OW38767   1.565   3.401   4.570 -0.0646  0.1445 -0.0898
 9102SOL    HW138768   1.637   3.340   4.555 -0.6268 -0.5773  0.1859
 9102SOL    HW238769   1.487   3.351   4.548 -0.6590  0.8230  0.5125
 9103SOL     OW38770   4.439   0.855   5.852  0.2167  0.0103  0.3787
 9103SOL    HW138771   4.446   0.822   5.762  2.9646  1.3899  0.0731
 9103SOL    HW238772   4.344   0.855   5.860  0.1809  1.9350  0.0818
 9104SOL     OW38773   3.060   3.832   7.200  0.3684  0.0972  0.7514
 9104SOL    HW138774   3.141   3.801   7.239  1.2785  0.5680 -0.7727
 9104SOL    HW238775   3.051   3.918   7.241 -4.2531  0.3124 -0.6844
 9105SOL     OW38776   2.625   4.403   3.189  0.0149 -0.2922 -0.3615
 9105SOL    HW138777   2.693   4.336   3.180  0.3461 -0.0141  0.0577
 9105SOL    HW238778   2.572   4.386   3.112  0.9294 -0.1373 -1.0273
 9106SOL     OW38779   0.586   2.648   0.957  0.1826 -0.1542 -0.3919
 9106SOL    HW138780   0.604   2.741   0.942 -2.4251  0.6565  1.5818
 9106SOL    HW238781   0.493   2.656   0.979  0.4103  1.6402 -0.0215
 9107SOL     OW38782   4.509   0.310   6.123  0.1619 -0.1353 -0.5959
 9107SOL    HW138783   4.548   0.290   6.209  1.3481 -2.3659 -1.6528
 9107SOL    HW238784   4.545   0.394   6.096  1.7850 -1.1255 -1.5251
 9108SOL     OW38785   2.221   1.913   5.199 -0.6563  0.0236 -0.4483
 9108SOL    HW138786   2.294   1.959   5.240 -2.1658  1.9275  0.1137
 9108SOL    HW238787   2.161   1.889   5.270 -0.2549  1.4810  0.3815
 9109SOL     OW38788   2.540   1.694  11.110 -0.1270  0.1555 -0.0324
 9109SOL    HW138789   2.561   1.698  11.017 -3.4873  0.7743 -0.7685
 9109SOL    HW238790   2.454   1.736  11.109  0.3553  1.1333 -0.0226
 9110SOL     OW38791   2.035   3.666   3.143 -0.1900 -0.2490 -0.2552
 9110SOL    HW138792   2.020   3.576   3.170 -2.5712 -0.3193 -1.8500
 9110SOL    HW238793   2.019   3.668   3.049  2.3048 -1.6162 -0.7197
 9111SOL     OW38794   4.605   0.041   2.437  0.2021  0.2533 -0.3620
 9111SOL    HW138795   4.527   0.092   2.416  0.5165  0.7680 -0.2961
 9111SOL    HW238796   4.681   0.075   2.390  0.6740  0.9567  0.9087
 9112SOL     OW38797   2.432   4.349   5.484 -0.0602  0.3556 -0.3545
 9112SOL    HW138798   2.338   4.366   5.474  0.4542  3.8909  1.1114
 9112SOL    HW238799   2.460   4.399   5.561 -1.1421  1.1711 -0.4920
 9113SOL     OW38800   3.236   2.789   7.892 -0.1033  0.3403 -0.1000
 9113SOL    HW138801   3.169   2.733   7.853  0.0562  0.0431  0.0434
 9113SOL    HW238802   3.321   2.745   7.883 -1.1789 -1.6005 -0.7855
 9114SOL     OW38803   4.359   3.853  17.492 -0.0708  0.2565 -0.5274
 9114SOL    HW138804   4.302   3.836  17.567 -0.1083  1.6033 -0.2473
 9114SOL    HW238805   4.426   3.914  17.525 -0.1351 -1.4479  2.7919
 9115SOL     OW38806   0.888   3.526   7.542 -0.3924 -0.0144 -0.4841
 9115SOL    HW138807   0.975   3.566   7.539 -1.4958  2.4084  0.6943
 9115SOL    HW238808   0.893   3.481   7.627 -0.3027  3.6236  1.4244
 9116SOL     OW38809   0.436   2.682  13.461 -0.0124  0.0657 -0.1438
 9116SOL    HW138810   0.504   2.689  13.528 -1.3435  2.9171  0.8780
 9116SOL    HW238811   0.383   2.758  13.480  0.1218 -0.5485  2.6304
 9117SOL     OW38812   0.234   1.173  13.017  0.2631 -0.1766 -0.2114
 9117SOL    HW138813   0.301   1.105  13.019  0.7560  0.3322  0.5004
 9117SOL    HW238814   0.278   1.239  12.963  0.7812 -0.6462 -0.3631
 9118SOL     OW38815   3.786   4.084  10.654 -0.0583  0.1661 -0.2676
 9118SOL    HW138816   3.832   4.166  10.669 -1.2459  0.9087 -0.6476
 9118SOL    HW238817   3.735   4.085  10.735  0.1419 -0.4457 -0.1288
 9119SOL     OW38818   3.483   3.169  15.627  0.4169 -0.1397 -0.5200
 9119SOL    HW138819   3.522   3.159  15.713 -0.5987  0.5201  0.0194
 9119SOL    HW238820   3.539   3.213  15.564 -0.4547 -1.0170 -1.9204
 9120SOL     OW38821   0.020   1.455   1.487  0.2372 -0.1049 -0.6014
 9120SOL    HW138822   0.060   1.494   1.564 -0.3464  1.4971 -1.1004
 9120SOL    HW238823   0.076   1.379   1.474  0.4800  0.1129 -0.8212
 9121SOL     OW38824   0.496   0.854   3.302  0.0054  0.3564  0.0571
 9121SOL    HW138825   0.522   0.866   3.211 -1.8196  1.6944 -0.2928
 9121SOL    HW238826   0.552   0.907   3.359 -0.1570 -0.9477  1.4449
 9122SOL     OW38827   2.896   3.957  13.583  0.0115  0.1778 -0.5640
 9122SOL    HW138828   2.934   4.044  13.588 -0.0319  0.0890  1.2721
 9122SOL    HW238829   2.815   3.987  13.541  0.9024  1.2141 -1.5218
 9123SOL     OW38830   0.823   1.378   4.016 -0.1171  0.3378 -0.5562
 9123SOL    HW138831   0.906   1.391   4.062 -0.2050 -2.9615  0.4826
 9123SOL    HW238832   0.773   1.414   4.089  0.0486  3.0587 -1.7669
 9124SOL     OW38833   2.048   3.687   7.718 -0.0131  0.0589 -0.4215
 9124SOL    HW138834   2.002   3.766   7.747 -0.8471  0.2209 -2.1543
 9124SOL    HW238835   1.996   3.657   7.643 -0.2285 -0.3644 -0.1045
 9125SOL     OW38836   3.302   0.196  16.327 -0.0942 -0.0275 -0.3485
 9125SOL    HW138837   3.250   0.163  16.254  1.5252 -0.4697 -1.3176
 9125SOL    HW238838   3.258   0.148  16.397  2.5233 -0.5136  0.9665
 9126SOL     OW38839   4.277   1.396   8.711  0.3174 -0.7189  0.0176
 9126SOL    HW138840   4.285   1.301   8.704 -0.0882 -0.6996 -0.6813
 9126SOL    HW238841   4.310   1.430   8.628 -0.1930  0.9505  0.4942
 9127SOL     OW38842   3.323   4.451   4.455 -0.0646  0.0196 -0.3815
 9127SOL    HW138843   3.412   4.424   4.477  0.1080  0.3696 -0.6554
 9127SOL    HW238844   3.266   4.407   4.518 -1.2921  1.5596 -0.4091
 9128SOL     OW38845   1.240   2.331   2.276 -0.0930  0.0005 -0.3958
 9128SOL    HW138846   1.216   2.283   2.197 -1.8989  0.5043 -0.1689
 9128SOL    HW238847   1.175   2.294   2.337  1.5052  0.0647  1.3521
 9129SOL     OW38848   3.718   1.303   8.998 -0.7294 -0.0598  0.3268
 9129SOL    HW138849   3.639   1.291   9.051 -0.1095 -1.0934  0.9954
 9129SOL    HW238850   3.762   1.367   9.054 -0.8366  0.6214 -0.3611
 9130SOL     OW38851   1.481   4.187   5.826 -0.2547 -0.3667  0.3712
 9130SOL    HW138852   1.440   4.102   5.837  1.4714 -1.2156  0.2501
 9130SOL    HW238853   1.569   4.174   5.791  0.0786  1.3441  0.5554
 9131SOL     OW38854   0.912   1.586   0.262 -0.1770 -0.3851 -0.0602
 9131SOL    HW138855   0.976   1.515   0.266  1.7316  1.4010  0.5270
 9131SOL    HW238856   0.973   1.653   0.232 -1.1017  1.1543  1.5236
 9132SOL     OW38857   2.564   4.554  15.854 -0.0042 -0.0476  0.3744
 9132SOL    HW138858   2.632   4.621  15.858  0.2864 -0.2862 -0.9155
 9132SOL    HW238859   2.613   4.479  15.888 -0.2474 -0.8498 -1.0424
 9133SOL     OW38860   1.849   0.016  10.802  0.4863 -1.0420 -0.0921
 9133SOL    HW138861   1.815   0.007  10.891 -1.4924 -0.7843 -0.8220
 9133SOL    HW238862   1.796   0.087  10.766 -1.3670 -1.3445  2.1288
 9134SOL     OW38863   0.468   0.963  15.479  0.5223  0.2483  0.3263
 9134SOL    HW138864   0.428   0.960  15.566  0.5497  0.4449  0.3464
 9134SOL    HW238865   0.401   0.928  15.421  1.8219 -1.0359 -0.4032
 9135SOL     OW38866   3.487   3.931  10.798 -0.1772 -0.2726 -0.1260
 9135SOL    HW138867   3.464   3.921  10.890  3.1404  0.0118  0.7260
 9135SOL    HW238868   3.571   3.886  10.786 -1.3158 -2.5525  0.5162
 9136SOL     OW38869   0.153   2.596   5.023  0.5576  0.3067  0.6902
 9136SOL    HW138870   0.232   2.620   5.072  1.3905 -1.5477  0.2821
 9136SOL    HW238871   0.146   2.503   5.047  1.2762  0.1496  0.3046
 9137SOL     OW38872   3.944   1.158   5.375 -1.0336  0.5530  0.2077
 9137SOL    HW138873   3.977   1.141   5.287 -2.7117 -0.0835 -0.2839
 9137SOL    HW238874   3.940   1.252   5.392 -0.6113  0.6594 -0.2905
 9138SOL     OW38875   1.542   3.315   6.899  0.3518 -0.3400 -0.7987
 9138SOL    HW138876   1.619   3.260   6.908  0.9639  0.4289 -1.3337
 9138SOL    HW238877   1.545   3.336   6.805 -2.0910 -0.7478 -0.9893
 9139SOL     OW38878   2.559   3.437   0.895  0.2844 -0.5276  0.0997
 9139SOL    HW138879   2.469   3.417   0.872  0.0347  0.9383 -0.2067
 9139SOL    HW238880   2.594   3.476   0.815  0.7956  1.2573  1.1830
 9140SOL     OW38881   3.433   2.207   4.262  0.3307  0.1850 -0.6325
 9140SOL    HW138882   3.351   2.230   4.218  0.5695  0.2184 -1.0490
 9140SOL    HW238883   3.489   2.163   4.199  2.3678  0.4888  0.9854
 9141SOL     OW38884   3.568   0.248   2.804  0.6759 -0.7182 -0.2346
 9141SOL    HW138885   3.587   0.167   2.756 -0.9804  0.2514 -2.4747
 9141SOL    HW238886   3.511   0.295   2.744  0.7174  1.9229  1.7802
 9142SOL     OW38887   2.301   0.232   5.973 -0.2620  0.4189 -1.0239
 9142SOL    HW138888   2.293   0.282   5.892  0.7477  0.3082 -1.1873
 9142SOL    HW238889   2.351   0.294   6.026  0.8056 -0.4325 -1.0312
 9143SOL     OW38890   1.637   0.404   9.137  1.0045 -0.4544 -0.4704
 9143SOL    HW138891   1.618   0.311   9.131  1.3167 -0.4319 -1.7614
 9143SOL    HW238892   1.606   0.433   9.051 -0.7374 -0.9256 -0.0066
 9144SOL     OW38893   3.203   0.785  12.066 -0.3633  0.7650 -0.0568
 9144SOL    HW138894   3.125   0.770  12.013 -1.1099  1.1256  0.9534
 9144SOL    HW238895   3.237   0.699  12.093  0.2941  1.0961  0.1590
 9145SOL     OW38896   0.061   4.149   6.174 -0.5751  0.1386  0.7130
 9145SOL    HW138897   0.152   4.130   6.151 -1.7145 -2.3058 -1.8644
 9145SOL    HW238898   0.023   4.062   6.188 -1.7410  0.5432  0.0162
 9146SOL     OW38899   0.308   4.308   5.549 -0.4466  0.1446 -0.2943
 9146SOL    HW138900   0.305   4.401   5.526 -2.6268  0.0750 -0.2910
 9146SOL    HW238901   0.353   4.322   5.631 -1.7081  0.2509  0.3857
 9147SOL     OW38902   3.345   2.757   3.521 -0.2960  0.3930  0.2208
 9147SOL    HW138903   3.368   2.665   3.530  0.3527  0.4741 -0.5407
 9147SOL    HW238904   3.374   2.759   3.429 -1.9089 -0.4710 -0.3172
 9148SOL     OW38905   2.665   0.081   0.595  0.5628  0.1864  0.4868
 9148SOL    HW138906   2.606   0.011   0.622  0.2076 -1.1242 -3.5418
 9148SOL    HW238907   2.698   0.118   0.677  1.2907  1.3379 -0.3229
 9149SOL     OW38908   4.262   2.920  12.962 -0.3346  0.0949 -0.4187
 9149SOL    HW138909   4.300   2.862  13.028  0.1824 -0.7786 -1.4934
 9149SOL    HW238910   4.224   2.860  12.897  1.2569 -1.3191 -0.0479
 9150SOL     OW38911   1.158   3.464   2.812 -0.3239 -0.4032 -0.5483
 9150SOL    HW138912   1.169   3.386   2.758  0.4068 -1.1986  0.7583
 9150SOL    HW238913   1.245   3.499   2.795 -1.6232  2.0557 -2.1624
 9151SOL     OW38914   2.697   2.365   1.007 -0.3333  0.4350  0.0942
 9151SOL    HW138915   2.663   2.446   1.045 -0.0103  1.2213 -1.2890
 9151SOL    HW238916   2.767   2.385   0.945 -1.5047  1.0781 -1.0385
 9152SOL     OW38917   0.271   1.864   3.657 -0.6602  0.5423  0.0768
 9152SOL    HW138918   0.340   1.801   3.635 -1.4903 -0.3498  0.0590
 9152SOL    HW238919   0.328   1.920   3.710  0.7419 -0.4561 -0.3556
 9153SOL     OW38920   3.972   0.283   2.094  0.0661 -0.3044 -0.5595
 9153SOL    HW138921   3.960   0.308   2.002 -0.8440 -1.6290 -0.7992
 9153SOL    HW238922   3.885   0.273   2.133 -1.3776  2.3984 -3.0303
 9154SOL     OW38923   1.715   4.072   0.621  0.3364  0.3819 -0.2633
 9154SOL    HW138924   1.664   4.053   0.700  0.7224  1.7463  0.3173
 9154SOL    HW238925   1.789   4.121   0.657  2.5528  0.1418 -4.5364
 9155SOL     OW38926   1.419   1.723   2.037 -0.8921 -0.1747  0.1402
 9155SOL    HW138927   1.392   1.632   2.020 -1.9649  0.1822 -0.0258
 9155SOL    HW238928   1.511   1.718   2.012 -1.1693 -0.5579 -0.8201
 9156SOL     OW38929   2.682   3.274   6.003 -0.4969 -0.1794 -0.3684
 9156SOL    HW138930   2.621   3.205   6.029  2.5313 -3.2376 -1.3145
 9156SOL    HW238931   2.767   3.234   6.024 -0.5925 -0.8059 -1.1840
 9157SOL     OW38932   2.669   4.128   5.853 -0.3226 -0.2975 -0.2694
 9157SOL    HW138933   2.686   4.049   5.802  0.2275 -1.7351  2.1401
 9157SOL    HW238934   2.578   4.107   5.875 -0.6823  2.0042  0.4253
 9158SOL     OW38935   3.531   2.482   4.648  0.5599  0.8350 -0.4495
 9158SOL    HW138936   3.600   2.548   4.648 -1.0661  2.5297 -0.5637
 9158SOL    HW238937   3.502   2.500   4.738  3.9203  4.7667 -0.1618
 9159SOL     OW38938   4.426   1.957  12.132  0.5521 -0.5021 -0.5096
 9159SOL    HW138939   4.466   1.937  12.048  1.1550 -2.6844  0.3034
 9159SOL    HW238940   4.502   1.933  12.185 -0.5071 -1.4428  0.5825
 9160SOL     OW38941   2.779   3.925   7.747  0.1422 -0.3465  0.1156
 9160SOL    HW138942   2.834   3.926   7.668  1.1412 -0.0301  0.8126
 9160SOL    HW238943   2.853   3.908   7.806  1.3009  0.0506 -1.2083
 9161SOL     OW38944   1.353   4.038   4.803  0.4815  0.8922  0.6885
 9161SOL    HW138945   1.345   4.029   4.898 -1.1215 -3.3794  0.1686
 9161SOL    HW238946   1.334   3.946   4.786  0.5698  0.5289  2.5525
 9162SOL     OW38947   4.401   3.204   7.768  0.1845  0.1811 -0.2698
 9162SOL    HW138948   4.373   3.148   7.840 -0.5198  1.4808  0.4698
 9162SOL    HW238949   4.453   3.271   7.813 -1.4823  0.8459  0.7033
 9163SOL     OW38950   4.064   4.556   3.038  0.0439  0.3400 -0.3734
 9163SOL    HW138951   4.154   4.556   3.003  0.2040 -2.1234  0.0243
 9163SOL    HW238952   4.072   4.628   3.100 -0.7241 -0.4020  0.5904
 9164SOL     OW38953   4.485   3.113   8.260 -1.0575  0.4290 -0.0607
 9164SOL    HW138954   4.577   3.107   8.236 -1.5719 -0.8535 -1.6688
 9164SOL    HW238955   4.483   3.055   8.337  0.0301  0.3595 -0.0897
 9165SOL     OW38956   0.410   2.144   8.346  0.3057 -0.2955  0.2124
 9165SOL    HW138957   0.443   2.067   8.299 -2.1685 -0.9514 -0.4304
 9165SOL    HW238958   0.491   2.179   8.384  0.3896 -1.4573  1.1073
 9166SOL     OW38959   0.638   3.636   4.927 -0.2183 -0.1756 -0.8562
 9166SOL    HW138960   0.602   3.640   4.838  3.6674  1.0921 -2.4068
 9166SOL    HW238961   0.631   3.726   4.959  0.1594 -0.2231 -0.6404
 9167SOL     OW38962   0.988   4.636   7.453  0.0629  0.0951 -0.0881
 9167SOL    HW138963   1.004   4.711   7.510 -3.2147  0.9970 -0.3452
 9167SOL    HW238964   0.892   4.632   7.447  0.0455  0.7822 -0.2178
 9168SOL     OW38965   3.151   3.899   6.099 -0.3223  0.0425  0.6423
 9168SOL    HW138966   3.212   3.973   6.092 -0.5703 -0.0201 -2.5662
 9168SOL    HW238967   3.095   3.900   6.021  1.2755 -0.2141 -0.5034
 9169SOL     OW38968   1.948   1.764   4.150 -0.0870  0.0546  0.5977
 9169SOL    HW138969   1.939   1.856   4.172  2.1561  0.6348 -0.9250
 9169SOL    HW238970   2.042   1.761   4.132 -0.2206  0.1386 -0.1164
 9170SOL     OW38971   0.923   3.261   2.830  0.0159  0.7338 -0.2444
 9170SOL    HW138972   1.013   3.295   2.829  0.8445 -1.5006 -0.5418
 9170SOL    HW238973   0.868   3.329   2.791  2.1652  1.8773 -1.2910
 9171SOL     OW38974   0.381   1.818   7.905  0.1959 -0.3689  0.7391
 9171SOL    HW138975   0.381   1.735   7.858  1.6320  0.3176 -0.4761
 9171SOL    HW238976   0.475   1.828   7.917 -0.1159  1.5318  1.5704
 9172SOL     OW38977   4.445   0.026   7.516  0.1990  0.7943  0.5391
 9172SOL    HW138978   4.394   4.681   7.559 -2.2739  1.6075 -1.0691
 9172SOL    HW238979   4.425   0.094   7.580 -0.4994  1.0818  0.0242
 9173SOL     OW38980   3.677   3.904  11.504  0.3400 -0.0614 -0.2125
 9173SOL    HW138981   3.611   3.846  11.465 -0.5728  1.3381 -0.7711
 9173SOL    HW238982   3.746   3.894  11.439  0.2571 -1.5429 -0.0713
 9174SOL     OW38983   0.157   1.544   4.746 -0.3454  0.3662  0.4911
 9174SOL    HW138984   0.181   1.504   4.829  0.7669 -1.4864 -0.7174
 9174SOL    HW238985   0.237   1.594   4.730 -1.5510  1.2909 -2.7180
 9175SOL     OW38986   0.694   0.324  16.038  0.3529 -0.5546  0.0691
 9175SOL    HW138987   0.743   0.379  15.977  2.3021 -1.9489  0.3689
 9175SOL    HW238988   0.752   0.321  16.115  0.5662 -0.1264 -0.0746
 9176SOL     OW38989   0.360   1.342   7.185  0.0297 -0.3889  0.1260
 9176SOL    HW138990   0.325   1.265   7.231 -4.3143  0.1486 -2.2799
 9176SOL    HW238991   0.327   1.411   7.243 -0.4798  0.0473 -0.6795
 9177SOL     OW38992   2.983   4.608   8.143  0.8046 -0.1998 -0.3753
 9177SOL    HW138993   2.893   4.636   8.162  0.8924  0.5831 -1.1155
 9177SOL    HW238994   2.987   4.611   8.047 -1.6369 -1.8756 -0.5279
 9178SOL     OW38995   2.478   3.006   3.950  0.4723  0.1157 -0.0693
 9178SOL    HW138996   2.496   2.950   3.874 -0.1125 -0.8043  0.4759
 9178SOL    HW238997   2.560   3.055   3.945 -0.6746  2.1576  1.4574
 9179SOL     OW38998   1.396   1.225  15.684  0.0779 -0.2836  0.1069
 9179SOL    HW138999   1.471   1.282  15.667  0.8143 -0.7944  1.5829
 9179SOL    HW239000   1.347   1.281  15.744  0.4721  1.5116 -1.2676
 9180SOL     OW39001   4.656   0.158   8.086  0.4978 -0.4575  0.2703
 9180SOL    HW139002   4.592   0.221   8.053  1.5450  1.7459  2.3976
 9180SOL    HW239003   0.007   0.191   8.039  0.1653 -4.9671 -3.3527
 9181SOL     OW39004   1.917   2.894   1.129  0.8862  0.1204  0.1673
 9181SOL    HW139005   1.924   2.966   1.191 -2.0084 -0.6796  1.4089
 9181SOL    HW239006   1.837   2.853   1.160  0.9835 -0.9400 -0.9550
 9182SOL     OW39007   4.276   1.273   6.675  0.0243  0.2716  0.0607
 9182SOL    HW139008   4.322   1.270   6.592  0.0406  1.3902  0.0254
 9182SOL    HW239009   4.333   1.210   6.719 -1.5050 -0.8182  0.4859
 9183SOL     OW39010   1.343   3.871   7.460  0.4781  0.4862 -0.2354
 9183SOL    HW139011   1.289   3.793   7.471 -0.6000  1.5209  1.8343
 9183SOL    HW239012   1.281   3.939   7.433 -0.2911  0.2625  0.9871
 9184SOL     OW39013   0.299   3.060   5.263 -0.7349  0.5185 -0.1756
 9184SOL    HW139014   0.323   3.124   5.197  1.1740 -0.2495 -0.2119
 9184SOL    HW239015   0.380   3.019   5.294 -0.0002  1.4450 -0.8777
 9185SOL     OW39016   4.098   4.309   5.270  0.4163  0.0801  0.1951
 9185SOL    HW139017   4.177   4.278   5.225  0.6493  0.7567  0.1356
 9185SOL    HW239018   4.133   4.389   5.308 -0.1487  1.3421 -1.9025
 9186SOL     OW39019   2.084   2.788   3.130 -0.4378 -0.3306 -0.7321
 9186SOL    HW139020   2.029   2.767   3.055  0.9976 -2.4228 -1.2042
 9186SOL    HW239021   2.116   2.873   3.099 -0.2011  0.5409  1.8479
 9187SOL     OW39022   2.794   2.904   3.588  0.0663  0.0020 -0.6085
 9187SOL    HW139023   2.752   2.908   3.501 -0.6606 -0.9314 -0.3088
 9187SOL    HW239024   2.881   2.900   3.549 -0.5214  1.8727 -2.1194
 9188SOL     OW39025   2.679   1.254   7.382 -0.4024  0.2326 -0.0356
 9188SOL    HW139026   2.677   1.159   7.384  4.5105  0.1745  0.5936
 9188SOL    HW239027   2.595   1.264   7.335  1.6078  0.8345 -3.5395
 9189SOL     OW39028   2.503   2.509  14.532  0.2018  0.5301  0.1232
 9189SOL    HW139029   2.470   2.585  14.579  0.0115 -0.2400  1.2143
 9189SOL    HW239030   2.588   2.498  14.574  1.1503 -1.6857 -2.3459
 9190SOL     OW39031   0.203   3.341   2.017 -0.2997  0.1026  0.4676
 9190SOL    HW139032   0.168   3.271   2.073  2.1698 -1.7387 -0.3177
 9190SOL    HW239033   0.273   3.384   2.066 -0.4389  0.0134  0.7466
 9191SOL     OW39034   3.547   4.684  12.487 -0.4340 -0.6316 -0.1244
 9191SOL    HW139035   3.484   4.613  12.497  0.2337 -1.0676  0.9564
 9191SOL    HW239036   3.587   4.675  12.573 -1.4365 -1.3506  0.2572
 9192SOL     OW39037   1.439   4.424  15.171 -0.2278  0.3901  0.1273
 9192SOL    HW139038   1.459   4.362  15.100  0.9858  2.2406 -1.1471
 9192SOL    HW239039   1.410   4.502  15.124  0.3898  1.3234  1.2860
 9193SOL     OW39040   3.499   1.442   3.788  0.2153 -0.3237  0.0032
 9193SOL    HW139041   3.579   1.403   3.823  0.9251  1.6968  0.6124
 9193SOL    HW239042   3.445   1.448   3.866  0.6877  3.8935  0.0358
 9194SOL     OW39043   0.277   1.019   3.841  0.0604  0.5120 -0.1987
 9194SOL    HW139044   0.259   0.941   3.893 -0.3180  0.9125  0.2774
 9194SOL    HW239045   0.327   0.984   3.767  0.1542 -0.6226  0.4005
 9195SOL     OW39046   3.325   2.639  15.608  0.3563  0.0145 -0.6164
 9195SOL    HW139047   3.265   2.661  15.679 -1.8509 -0.1683 -2.4341
 9195SOL    HW239048   3.386   2.713  15.608  1.0569 -0.5636  0.5575
 9196SOL     OW39049   0.380   0.014   6.318 -0.7969 -0.5251 -0.1752
 9196SOL    HW139050   0.456   4.681   6.316 -1.0858 -0.9237  0.4490
 9196SOL    HW239051   0.402   0.082   6.255 -1.7900 -0.0049  0.0414
 9197SOL     OW39052   2.276   2.882   5.987  0.0512 -0.3103 -0.7940
 9197SOL    HW139053   2.261   2.973   5.960 -0.1955 -0.2286 -0.3829
 9197SOL    HW239054   2.370   2.885   6.004 -0.4033  1.0963  1.4829
 9198SOL     OW39055   0.088   0.455  14.721  1.1446 -0.5975 -0.7247
 9198SOL    HW139056   0.028   0.424  14.654  0.9192 -1.5893 -0.0798
 9198SOL    HW239057   0.037   0.504  14.785  0.6244  0.0712 -1.6667
 9199SOL     OW39058   3.129   1.496   3.795 -0.0580 -0.0110  0.3534
 9199SOL    HW139059   3.164   1.529   3.712 -1.0919  0.7374  0.2163
 9199SOL    HW239060   3.049   1.457   3.761 -0.4568  0.6035  0.6039
 9200SOL     OW39061   2.831   2.493   1.334 -0.0763 -0.1411  0.0195
 9200SOL    HW139062   2.785   2.421   1.290  2.5697 -1.2902 -0.8621
 9200SOL    HW239063   2.917   2.488   1.292 -1.5599 -0.2798 -3.0661
 9201SOL     OW39064   2.330   4.161  10.101  0.1151 -0.4637 -0.2032
 9201SOL    HW139065   2.377   4.240  10.131  1.0056 -0.4387 -1.6883
 9201SOL    HW239066   2.350   4.160  10.008 -0.9807 -0.5330 -0.4380
 9202SOL     OW39067   0.333   4.633   9.455 -0.1633  0.2590  0.8364
 9202SOL    HW139068   0.262   4.663   9.511 -0.4330  0.5740  0.3264
 9202SOL    HW239069   0.399   4.649   9.522  0.7757 -0.3012  0.0428
 9203SOL     OW39070   4.464   0.033   6.572 -0.2960 -0.0033  0.3099
 9203SOL    HW139071   4.537   0.008   6.629 -0.0449  2.0166  0.8728
 9203SOL    HW239072   4.417   0.090   6.633  0.1472 -1.3023  1.8394
 9204SOL     OW39073   2.091   0.918  14.836 -0.0282  0.1782 -0.1517
 9204SOL    HW139074   2.152   0.859  14.879  0.3274  1.8130  1.6093
 9204SOL    HW239075   2.015   0.906  14.893  0.9741 -2.0270  0.6999
 9205SOL     OW39076   1.589   3.911  12.506 -0.3719 -0.2366 -0.5819
 9205SOL    HW139077   1.597   3.861  12.587 -1.3633  0.6698  0.0921
 9205SOL    HW239078   1.552   3.847  12.446  0.4354 -0.2137 -1.1016
 9206SOL     OW39079   2.137   0.804   6.354 -0.1262 -0.0031 -0.7502
 9206SOL    HW139080   2.206   0.761   6.303  0.3721 -0.6622  0.4699
 9206SOL    HW239081   2.140   0.891   6.315 -0.0110  0.4797  0.3563
 9207SOL     OW39082   1.541   0.232   4.026  0.2493 -0.3774  0.0781
 9207SOL    HW139083   1.537   0.242   4.122 -3.4246 -0.4616 -0.0383
 9207SOL    HW239084   1.634   0.249   4.013  0.1109  0.6237  0.3391
 9208SOL     OW39085   4.028   3.349   7.050 -0.3160 -0.5966 -0.3743
 9208SOL    HW139086   3.976   3.425   7.074 -0.5710 -0.3850 -1.6008
 9208SOL    HW239087   3.992   3.296   7.121  2.7807 -0.2253  1.4418
 9209SOL     OW39088   1.936   3.195  14.808  0.2704 -0.3358 -0.1815
 9209SOL    HW139089   1.856   3.241  14.836 -0.5690 -3.0880  1.9348
 9209SOL    HW239090   1.969   3.250  14.737 -0.2246 -0.0126 -0.1636
 9210SOL     OW39091   0.810   1.652   5.154  0.6417 -0.4516 -0.5532
 9210SOL    HW139092   0.768   1.642   5.239  0.4084 -2.5323 -0.9104
 9210SOL    HW239093   0.870   1.721   5.182 -2.8070  1.4440  2.1210
 9211SOL     OW39094   4.708   3.740   4.857 -0.1075 -0.0225 -0.4545
 9211SOL    HW139095   0.076   3.727   4.874 -0.2833 -2.9625 -1.7502
 9211SOL    HW239096   4.687   3.698   4.774  1.3475 -0.4686 -0.5859
 9212SOL     OW39097   3.569   2.856   5.629 -0.2499 -0.0792  0.3721
 9212SOL    HW139098   3.490   2.802   5.632  0.8052 -1.7261 -2.1877
 9212SOL    HW239099   3.635   2.799   5.590 -1.7490 -1.7196  0.2272
 9213SOL     OW39100   0.459   3.556  12.050  0.0469  0.4309 -0.0609
 9213SOL    HW139101   0.487   3.503  12.125  0.6495  0.2166 -0.4388
 9213SOL    HW239102   0.380   3.511  12.019 -1.1107  1.5209  1.3187
 9214SOL     OW39103   1.510   2.955   8.208  0.8255 -0.1423 -0.1434
 9214SOL    HW139104   1.572   3.025   8.223  2.1562 -0.9861 -1.6778
 9214SOL    HW239105   1.564   2.877   8.216  3.0870  1.7444  2.6147
 9215SOL     OW39106   2.194   3.993   9.239  0.4434 -0.2362 -0.3140
 9215SOL    HW139107   2.137   3.947   9.178 -2.1497  1.1580  1.0504
 9215SOL    HW239108   2.143   4.073   9.253  0.3517 -0.6830  1.8298
 9216SOL     OW39109   4.393   2.343  15.434  0.3112 -0.0115  0.0787
 9216SOL    HW139110   4.320   2.403  15.417 -0.4893 -1.0224 -0.0428
 9216SOL    HW239111   4.385   2.325  15.527 -0.4207  0.9801  0.2047
 9217SOL     OW39112   0.629   1.584   2.218 -0.8506  0.6507  0.0375
 9217SOL    HW139113   0.701   1.612   2.162 -0.5265 -0.5961 -0.1763
 9217SOL    HW239114   0.576   1.663   2.224 -2.2796 -0.4448  1.8508
 9218SOL     OW39115   0.029   2.004   5.966  0.1954 -0.7852 -0.1105
 9218SOL    HW139116   0.103   2.065   5.966 -0.1970 -0.3336  2.9826
 9218SOL    HW239117   4.710   2.011   6.051  1.4281  2.9076  0.2381
 9219SOL     OW39118   1.549   4.575   1.838 -0.1789 -0.9365  0.0798
 9219SOL    HW139119   1.597   4.628   1.775 -1.3514 -1.2456 -1.0593
 9219SOL    HW239120   1.458   4.600   1.828 -0.1562 -0.3180  1.3532
 9220SOL     OW39121   4.334   1.246   7.770 -0.4683  0.4003 -0.1068
 9220SOL    HW139122   4.388   1.290   7.836 -0.6000  0.5375 -0.0899
 9220SOL    HW239123   4.304   1.167   7.815  0.0784  1.0074  1.3231
 9221SOL     OW39124   0.244   2.242  15.147 -0.1951 -0.1137  0.3411
 9221SOL    HW139125   0.151   2.218  15.137 -0.3616  1.5509 -2.0893
 9221SOL    HW239126   0.239   2.260  15.241 -0.9502 -2.2117  0.7199
 9222SOL     OW39127   2.741   0.223  17.529 -0.2472 -0.0893  0.2624
 9222SOL    HW139128   2.750   0.315  17.555 -0.0862  0.4485 -1.6428
 9222SOL    HW239129   2.824   0.183  17.553 -0.3110  0.5267  1.5249
 9223SOL     OW39130   0.346   2.962   5.835  0.0913  0.5363  0.2468
 9223SOL    HW139131   0.310   2.884   5.793  0.2580  0.2135  0.6988
 9223SOL    HW239132   0.314   2.964   5.926 -0.3043 -2.2783  0.1801
 9224SOL     OW39133   4.155   1.361   6.296  0.6109 -0.3733  0.0641
 9224SOL    HW139134   4.229   1.367   6.356  0.2486 -0.0309  0.4813
 9224SOL    HW239135   4.115   1.282   6.334  2.7105 -1.1857  0.5975
 9225SOL     OW39136   2.862   3.771   6.035 -0.8001  0.1479  0.0379
 9225SOL    HW139137   2.805   3.818   5.974 -0.2575  0.1136 -0.4931
 9225SOL    HW239138   2.886   3.843   6.094 -1.9267  0.2766  0.3455
 9226SOL     OW39139   3.170   1.863   5.195  0.7903 -0.3148  0.6555
 9226SOL    HW139140   3.102   1.928   5.209  3.9211  3.1076 -0.2097
 9226SOL    HW239141   3.221   1.898   5.121 -1.4049  0.3777 -0.5163
 9227SOL     OW39142   0.670   3.678   7.473  0.1079 -0.0092  0.1512
 9227SOL    HW139143   0.751   3.631   7.494 -0.4869 -0.9499  0.3523
 9227SOL    HW239144   0.661   3.731   7.552  0.2332  0.6277 -0.2584
 9228SOL     OW39145   2.535   2.353  16.481 -0.3094  0.0059  0.1920
 9228SOL    HW139146   2.542   2.429  16.538 -1.6397  0.4375 -0.2149
 9228SOL    HW239147   2.501   2.404  16.407  0.8573 -1.1082 -1.0979
 9229SOL     OW39148   3.999   0.222  12.702  0.1236  0.0458 -0.5038
 9229SOL    HW139149   3.935   0.290  12.682 -0.0783  0.4224  1.4495
 9229SOL    HW239150   3.938   0.162  12.744 -0.4604  0.3019 -0.9944
 9230SOL     OW39151   4.227   0.061   4.522 -0.0161  0.2154  0.1262
 9230SOL    HW139152   4.211   4.698   4.489  2.5518 -1.4515  3.2975
 9230SOL    HW239153   4.199   0.040   4.611 -0.8969  0.6111 -0.0659
 9231SOL     OW39154   2.431   0.373   3.246 -0.3978  0.7428  0.3783
 9231SOL    HW139155   2.371   0.298   3.246 -0.2315  0.6102  0.9371
 9231SOL    HW239156   2.367   0.444   3.254  1.6671  2.4321  1.9947
 9232SOL     OW39157   0.568   3.924   3.836  0.6214  0.1036 -0.0902
 9232SOL    HW139158   0.662   3.928   3.855  0.5029 -2.4123  1.0437
 9232SOL    HW239159   0.557   4.011   3.797  0.7597  0.3444  0.4103
 9233SOL     OW39160   1.481   1.918   0.237 -0.5629 -0.5808 -0.2065
 9233SOL    HW139161   1.483   1.845   0.175  0.4110  1.0714 -2.1217
 9233SOL    HW239162   1.477   1.986   0.170 -3.0478 -0.9623 -0.4415
 9234SOL     OW39163   2.829   2.295  16.968  0.0313  0.6825 -0.0433
 9234SOL    HW139164   2.762   2.240  17.009 -0.2220  2.3969  1.8387
 9234SOL    HW239165   2.786   2.378  16.944 -0.5781 -0.0393 -1.4822
 9235SOL     OW39166   1.689   3.273   6.034 -0.2678  0.2036 -0.1953
 9235SOL    HW139167   1.771   3.274   6.084 -0.5774 -5.7110  0.3808
 9235SOL    HW239168   1.726   3.299   5.950  1.2761 -0.6749  0.2119
 9236SOL     OW39169   3.360   3.925   2.744 -0.5958  0.1618 -0.3309
 9236SOL    HW139170   3.273   3.962   2.730  0.0830  1.4426 -1.2067
 9236SOL    HW239171   3.414   3.986   2.693  0.8449 -3.2043 -2.8405
 9237SOL     OW39172   3.272   2.370   7.385 -0.2044 -0.1496  0.1254
 9237SOL    HW139173   3.257   2.277   7.367  0.7416 -0.3948  0.6332
 9237SOL    HW239174   3.333   2.392   7.314 -1.1676  0.1019 -0.6269
 9238SOL     OW39175   2.405   2.506   0.154  0.6902 -0.2496  0.1078
 9238SOL    HW139176   2.414   2.569   0.226 -1.8955  0.2793 -0.0283
 9238SOL    HW239177   2.316   2.536   0.133  0.9741 -0.1057 -0.8874
 9239SOL     OW39178   2.954   0.451   6.266 -0.2797 -0.2255  0.4721
 9239SOL    HW139179   3.032   0.447   6.211 -0.3726  2.7273  0.1419
 9239SOL    HW239180   2.986   0.518   6.327 -0.3045 -0.2558  0.5188
 9240SOL     OW39181   2.358   4.191   2.819 -0.1110 -0.2567  0.3741
 9240SOL    HW139182   2.393   4.146   2.742 -1.2214 -0.4605  0.0026
 9240SOL    HW239183   2.430   4.254   2.827  1.2169 -2.0687  2.7686
 9241SOL     OW39184   3.440   4.346   5.834 -0.0511  0.0925 -0.2900
 9241SOL    HW139185   3.491   4.268   5.852  0.5727  0.2975 -1.1459
 9241SOL    HW239186   3.401   4.330   5.748 -0.8065 -0.4038  0.1466
 9242SOL     OW39187   2.081   2.972   3.614 -0.0302  0.5757  0.0099
 9242SOL    HW139188   2.040   3.040   3.667  0.8352  1.1615 -0.0682
 9242SOL    HW239189   2.031   2.893   3.632  2.5652 -1.0907 -0.2345
 9243SOL     OW39190   2.566   1.606   5.257 -0.8514  0.4435  0.3050
 9243SOL    HW139191   2.615   1.687   5.275 -1.0205  0.5455  0.3048
 9243SOL    HW239192   2.508   1.633   5.186 -0.1139 -0.9636 -0.8171
 9244SOL     OW39193   4.115   0.145   2.824 -0.5308  0.8776  0.9256
 9244SOL    HW139194   4.070   0.169   2.905 -2.7180  0.1550 -0.0800
 9244SOL    HW239195   4.061   0.175   2.751  0.4212  1.4410  0.4582
 9245SOL     OW39196   2.502   1.534   1.207  0.4210 -0.0042 -0.0008
 9245SOL    HW139197   2.430   1.554   1.147  1.2312  1.8723 -0.3600
 9245SOL    HW239198   2.577   1.529   1.148  1.9011  1.7648  1.7283
 9246SOL     OW39199   4.333   3.391   6.262  0.5968 -0.3337 -0.3965
 9246SOL    HW139200   4.289   3.366   6.181  2.7757  0.6179 -1.8638
 9246SOL    HW239201   4.285   3.333   6.321 -1.5768  0.1125 -1.7359
 9247SOL     OW39202   1.014   0.785  16.872 -0.7598  0.5822 -0.3566
 9247SOL    HW139203   0.991   0.745  16.956  1.6745 -2.2020 -1.0468
 9247SOL    HW239204   1.087   0.838  16.902 -0.5446 -1.5534  2.9221
 9248SOL     OW39205   4.330   2.371   7.100 -0.0410  0.2291  0.3488
 9248SOL    HW139206   4.325   2.409   7.188 -0.1006 -0.9344  0.8539
 9248SOL    HW239207   4.246   2.330   7.080 -0.2294  1.2868 -1.0389
 9249SOL     OW39208   3.313   1.138  10.571  0.5720  0.2543  0.0161
 9249SOL    HW139209   3.390   1.144  10.514 -0.2218  0.6453 -1.0157
 9249SOL    HW239210   3.285   1.047  10.559 -1.6164  0.8025  0.9662
 9250SOL     OW39211   0.978   0.812   2.585 -0.1288 -0.4056  0.2430
 9250SOL    HW139212   1.013   0.831   2.672 -2.5045 -2.0239  1.5289
 9250SOL    HW239213   0.889   0.827   2.615 -0.1125 -0.4759  0.3247
 9251SOL     OW39214   4.614   3.794   5.257  0.6223  0.1117  0.0747
 9251SOL    HW139215   4.567   3.757   5.332 -2.4174  3.8463  0.0574
 9251SOL    HW239216   4.669   3.863   5.295 -0.9182  2.5894 -2.1645
 9252SOL     OW39217   2.332   3.006   9.428  0.2036 -0.1192 -0.4614
 9252SOL    HW139218   2.303   2.926   9.471  2.6129 -0.7686 -0.0321
 9252SOL    HW239219   2.427   3.004   9.443  0.1569  0.8836 -0.0325
 9253SOL     OW39220   3.518   0.682   8.383 -0.2025 -0.5219  0.2428
 9253SOL    HW139221   3.510   0.760   8.329  0.6129 -0.4943  0.1718
 9253SOL    HW239222   3.608   0.660   8.360 -0.3907  0.5145 -1.4243
 9254SOL     OW39223   2.439   2.755  14.633 -0.4248  0.2612  0.7758
 9254SOL    HW139224   2.352   2.769  14.670 -0.6178 -2.2415  1.2338
 9254SOL    HW239225   2.482   2.839  14.651 -0.8341  0.2847  1.6203
 9255SOL     OW39226   2.365   0.032  16.484  0.0838  0.8376  0.6376
 9255SOL    HW139227   2.314   0.085  16.422  0.8013  2.0955  1.1089
 9255SOL    HW239228   2.294   4.721  16.536 -0.1413 -0.8960 -0.8878
 9256SOL     OW39229   3.099   3.220   7.891 -0.2988 -0.0568 -0.0675
 9256SOL    HW139230   3.006   3.201   7.905 -0.5119  0.1373 -1.2761
 9256SOL    HW239231   3.108   3.188   7.802 -2.3882 -0.6081 -0.0824
 9257SOL     OW39232   4.228   0.687   2.990  0.2078 -0.2191  0.2296
 9257SOL    HW139233   4.232   0.653   2.901 -1.1414 -1.3787  0.6086
 9257SOL    HW239234   4.224   0.602   3.034 -0.4312  0.7618  2.1031
 9258SOL     OW39235   4.126   2.367   9.101  0.6559  0.1500  0.1292
 9258SOL    HW139236   4.218   2.378   9.079  1.1362 -0.1648  1.9660
 9258SOL    HW239237   4.129   2.366   9.197  2.3052 -2.1461  0.0485
 9259SOL     OW39238   1.194   1.361   2.551 -0.1249 -0.2064  0.0759
 9259SOL    HW139239   1.099   1.372   2.559 -0.5809 -1.8716 -3.1836
 9259SOL    HW239240   1.198   1.305   2.473 -1.3694 -0.2621  0.0542
 9260SOL     OW39241   0.180   1.399  14.465 -0.1247 -0.2097 -0.2117
 9260SOL    HW139242   0.098   1.387  14.417 -1.2098  0.8522  1.3559
 9260SOL    HW239243   0.215   1.470  14.412  1.2571 -1.6572 -1.2347
 9261SOL     OW39244   0.668   4.367   3.191  0.3192  0.1620  0.0678
 9261SOL    HW139245   0.579   4.347   3.160  0.9693  0.6211 -2.0810
 9261SOL    HW239246   0.725   4.337   3.120  0.8735  0.0410  0.5636
 9262SOL     OW39247   0.339   3.952   4.873 -0.0566 -0.0168 -0.1059
 9262SOL    HW139248   0.349   4.043   4.898  1.1651 -0.5890  1.5203
 9262SOL    HW239249   0.291   3.921   4.950 -1.2504  1.5029 -0.2491
 9263SOL     OW39250   0.800   4.391   8.857 -0.2212 -0.4804  0.8846
 9263SOL    HW139251   0.754   4.333   8.919 -0.7508 -3.0305 -1.8790
 9263SOL    HW239252   0.790   4.477   8.898  0.4794  0.2342 -0.4598
 9264SOL     OW39253   2.030   1.369   3.336  0.7179  0.4965 -0.0104
 9264SOL    HW139254   1.961   1.354   3.271  0.3760 -0.2706  0.5257
 9264SOL    HW239255   1.992   1.434   3.394  1.7248  1.2145 -0.1534
 9265SOL     OW39256   1.462   3.381   5.874  0.0469 -0.5937 -0.3016
 9265SOL    HW139257   1.537   3.385   5.934 -0.5624 -0.3051  0.4437
 9265SOL    HW239258   1.403   3.328   5.927 -0.5918 -0.4570 -0.8847
 9266SOL     OW39259   3.632   1.842  10.771 -0.1179  0.0926 -0.4984
 9266SOL    HW139260   3.665   1.756  10.743  1.3988  0.5410 -0.0791
 9266SOL    HW239261   3.539   1.830  10.750 -0.0002  0.7726 -1.3998
 9267SOL     OW39262   1.673   1.019   2.916 -0.5719  0.5872 -0.2043
 9267SOL    HW139263   1.695   1.094   2.972 -0.6359 -2.2282  3.6176
 9267SOL    HW239264   1.748   1.019   2.857  0.2609  0.4328  0.8581
 9268SOL     OW39265   1.834   1.880   9.612  0.6649  0.7752 -0.1197
 9268SOL    HW139266   1.917   1.852   9.650 -0.3191 -0.1614  1.3061
 9268SOL    HW239267   1.843   1.845   9.523 -0.2907  0.0517  0.0661
 9269SOL     OW39268   3.589   0.285  12.068 -0.4610  0.0796  0.3253
 9269SOL    HW139269   3.591   0.372  12.109 -0.8637  0.9332 -1.4514
 9269SOL    HW239270   3.497   0.277  12.042 -0.5665 -0.4929  0.8828
 9270SOL     OW39271   0.537   2.812   8.497 -0.0599 -0.6503 -1.0953
 9270SOL    HW139272   0.444   2.791   8.504  0.0861 -0.6589  0.9389
 9270SOL    HW239273   0.528   2.905   8.476 -2.1400  0.1135  3.2087
 9271SOL     OW39274   3.081   2.703  12.132 -1.3001  0.0561 -0.3608
 9271SOL    HW139275   3.020   2.774  12.151 -0.0606  1.4643 -1.6366
 9271SOL    HW239276   3.054   2.674  12.045  2.8697  0.2198 -1.7054
 9272SOL     OW39277   1.577   0.427   2.189  0.2682 -0.5647 -0.3057
 9272SOL    HW139278   1.579   0.397   2.280 -1.1259  0.4840  0.0715
 9272SOL    HW239279   1.582   0.345   2.140 -0.6989 -0.1688 -1.0810
 9273SOL     OW39280   1.847   1.619   4.379  0.0170 -0.5888 -0.1104
 9273SOL    HW139281   1.864   1.657   4.293  1.7557 -0.9344  0.0802
 9273SOL    HW239282   1.921   1.560   4.388 -0.8247 -1.8242 -1.2654
 9274SOL     OW39283   1.574   2.999   4.758 -0.2390  0.3443 -0.4763
 9274SOL    HW139284   1.493   2.948   4.757 -0.7296  1.1448 -1.0023
 9274SOL    HW239285   1.574   3.025   4.666 -2.9694  1.7271 -0.0864
 9275SOL     OW39286   2.258   1.061   7.778 -0.3031  0.0750  0.3546
 9275SOL    HW139287   2.199   1.126   7.740 -0.0145 -0.4790 -1.0349
 9275SOL    HW239288   2.250   0.994   7.711 -0.1503  1.6887 -1.2891
 9276SOL     OW39289   2.528   3.578   8.938  0.0607 -0.1467  0.6304
 9276SOL    HW139290   2.455   3.636   8.915  2.5311  2.7831  0.1941
 9276SOL    HW239291   2.524   3.581   9.033  1.3239  0.9291  0.6500
 9277SOL     OW39292   4.714   0.734   7.471  0.1897  0.1705  0.2666
 9277SOL    HW139293   4.703   0.652   7.422 -1.0848  0.9337 -0.7233
 9277SOL    HW239294   4.688   0.714   7.560 -0.4748 -0.0402  0.0212
 9278SOL     OW39295   2.674   2.610   4.986 -0.2213  0.1560  0.0580
 9278SOL    HW139296   2.627   2.685   5.025 -0.7690  0.5328 -1.3195
 9278SOL    HW239297   2.761   2.641   5.009 -0.3836  1.4907 -1.1071
 9279SOL     OW39298   1.917   0.494  16.120 -0.4574  0.5850 -0.7414
 9279SOL    HW139299   1.961   0.565  16.166  0.8990 -0.4029 -0.5229
 9279SOL    HW239300   1.906   0.527  16.031 -0.5777 -0.4392 -1.1032
 9280SOL     OW39301   4.163   4.499   9.140 -0.3649 -0.0354 -0.0554
 9280SOL    HW139302   4.223   4.518   9.212 -0.2494 -2.6414  0.5372
 9280SOL    HW239303   4.140   4.407   9.149  0.6955 -0.0674  2.2932
 9281SOL     OW39304   3.450   4.565   0.577 -0.4567 -0.5677 -0.0223
 9281SOL    HW139305   3.451   4.480   0.532  0.8844 -1.2693  1.3357
 9281SOL    HW239306   3.403   4.623   0.518 -2.7190 -1.3223  1.0014
 9282SOL     OW39307   3.535   0.023   5.621  0.1125 -0.3036  0.0352
 9282SOL    HW139308   3.571   4.699   5.547  1.0171  1.1209 -0.4582
 9282SOL    HW239309   3.564   4.688   5.690 -0.5777 -2.3953 -1.4704
 9283SOL     OW39310   0.382   1.107  12.450 -0.2235 -0.0673  0.4958
 9283SOL    HW139311   0.361   1.195  12.420 -1.4059 -1.3383 -2.3871
 9283SOL    HW239312   0.366   1.061  12.367  1.4537 -0.5683  0.4444
 9284SOL     OW39313   3.912   0.874   6.331 -0.2266 -0.0807 -0.3330
 9284SOL    HW139314   3.893   0.797   6.278 -0.6887 -0.8833  0.9952
 9284SOL    HW239315   4.005   0.856   6.346  0.0427  0.0523 -1.8878
 9285SOL     OW39316   3.136   3.428   4.914 -0.0981  0.4795  0.0006
 9285SOL    HW139317   3.216   3.378   4.927  0.2134  1.0317  0.2178
 9285SOL    HW239318   3.074   3.361   4.887 -0.2630  0.4935  0.3417
 9286SOL     OW39319   1.312   0.444   4.749  0.5743 -0.3505 -0.1817
 9286SOL    HW139320   1.317   0.373   4.813  0.6293  0.7777  1.0726
 9286SOL    HW239321   1.325   0.519   4.807  1.4839 -1.4455  1.0113
 9287SOL     OW39322   1.938   3.485   5.572 -0.0634 -0.2791  0.1994
 9287SOL    HW139323   1.859   3.515   5.616 -0.6141  1.3700 -1.9160
 9287SOL    HW239324   1.894   3.448   5.494  0.0841 -2.5521  1.1828
 9288SOL     OW39325   2.799   2.592   2.713  0.1549  0.0824 -0.4428
 9288SOL    HW139326   2.776   2.523   2.774  0.7117  0.2763 -0.0094
 9288SOL    HW239327   2.767   2.555   2.631 -1.6566 -0.2464  0.4222
 9289SOL     OW39328   2.647   4.619   3.739 -0.1306  0.1392  0.5756
 9289SOL    HW139329   2.668   4.531   3.768  3.0163 -0.2630 -2.8217
 9289SOL    HW239330   2.731   4.652   3.706 -0.4999  1.7990  1.2872
 9290SOL     OW39331   0.908   3.001   6.853 -0.3651 -0.1048 -0.3686
 9290SOL    HW139332   0.924   2.921   6.803 -0.6956 -0.9210  0.8305
 9290SOL    HW239333   0.890   3.063   6.783 -0.9971  0.4370  0.2697
 9291SOL     OW39334   3.214   0.955  16.128 -0.0911  0.2946 -0.1280
 9291SOL    HW139335   3.183   0.987  16.043 -1.4257  0.5810  0.4702
 9291SOL    HW239336   3.133   0.945  16.178  0.0225 -0.8802 -0.1759
 9292SOL     OW39337   0.812   1.071  15.371  0.0673  0.5532 -0.0204
 9292SOL    HW139338   0.802   1.021  15.290 -0.5248 -0.2906  0.5820
 9292SOL    HW239339   0.783   1.154  15.331  0.1313  0.4141 -0.3547
 9293SOL     OW39340   0.119   2.250  14.392 -0.4609  0.4165 -0.4239
 9293SOL    HW139341   0.034   2.292  14.408 -0.2276  0.4060  0.8404
 9293SOL    HW239342   0.175   2.299  14.451 -1.2314  1.2981 -0.4344
 9294SOL     OW39343   3.774   2.317  14.548 -0.0140 -0.2353 -0.2728
 9294SOL    HW139344   3.844   2.314  14.483  1.0779  0.7598  0.8606
 9294SOL    HW239345   3.701   2.274  14.504 -1.2713  1.7665 -0.1264
 9295SOL     OW39346   0.445   0.599   3.368 -0.8046  0.2205 -0.1289
 9295SOL    HW139347   0.447   0.694   3.365  0.1816  0.1666 -1.0572
 9295SOL    HW239348   0.465   0.569   3.279 -0.2545 -0.5631  0.2579
 9296SOL     OW39349   3.858   0.169   5.575  0.2063  0.2135 -0.2535
 9296SOL    HW139350   3.885   0.106   5.508  1.4368  0.8872 -0.3951
 9296SOL    HW239351   3.835   0.108   5.645 -0.3793  2.2946  1.3667
 9297SOL     OW39352   4.640   3.292   8.584  0.4054  0.6298  0.1716
 9297SOL    HW139353   0.009   3.276   8.571  0.4366  0.4953  0.5490
 9297SOL    HW239354   4.644   3.371   8.638 -0.9861 -0.7213  2.2250
 9298SOL     OW39355   2.179   3.505   4.958 -0.0131 -0.1087  0.6847
 9298SOL    HW139356   2.084   3.511   4.956  0.1052  1.4141 -0.4742
 9298SOL    HW239357   2.188   3.413   4.984 -2.7299 -0.9702 -1.4132
 9299SOL     OW39358   3.080   2.654   8.677 -0.0163  0.0776  0.1220
 9299SOL    HW139359   3.128   2.597   8.617  0.3158  0.9478 -0.4378
 9299SOL    HW239360   3.108   2.630   8.765  0.2405 -0.5098 -0.1247
 9300SOL     OW39361   3.177   3.362  11.418 -0.3077 -0.1073  0.9320
 9300SOL    HW139362   3.116   3.435  11.426  0.7220  0.8428  0.1634
 9300SOL    HW239363   3.158   3.313  11.498  1.0477  1.1001  1.9910
 9301SOL     OW39364   2.240   0.871  13.735  0.0841 -0.1166 -0.1723
 9301SOL    HW139365   2.168   0.809  13.726  1.1401 -1.2426 -0.8293
 9301SOL    HW239366   2.311   0.820  13.695  0.1805 -0.9910  1.1199
 9302SOL     OW39367   0.829   3.564  15.135 -0.2234  0.0045  0.6238
 9302SOL    HW139368   0.771   3.635  15.163  0.6728  0.7708  0.5532
 9302SOL    HW239369   0.888   3.601  15.069  0.7470 -0.9794  0.9312
 9303SOL     OW39370   3.972   0.688   3.586 -0.2835  0.1578 -1.0899
 9303SOL    HW139371   3.945   0.720   3.672 -1.2485  2.3967 -2.2157
 9303SOL    HW239372   3.979   0.596   3.610 -0.6170  0.5301  0.4315
 9304SOL     OW39373   0.546   0.196   1.504 -0.3745  0.0351 -0.4230
 9304SOL    HW139374   0.472   0.141   1.530  0.4005 -2.3313 -3.2308
 9304SOL    HW239375   0.496   0.277   1.496  1.2370  1.0990  0.2381
 9305SOL     OW39376   2.174   0.104  11.032  0.2771 -0.1868  0.5219
 9305SOL    HW139377   2.106   0.059  11.082  0.4889 -2.1288 -0.9297
 9305SOL    HW239378   2.179   0.177  11.093  0.6238 -0.0179  0.2873
 9306SOL     OW39379   0.737   1.008  13.466 -0.3607  0.0815 -0.2715
 9306SOL    HW139380   0.736   1.089  13.415 -0.2366 -0.4087 -1.0567
 9306SOL    HW239381   0.682   1.022  13.543 -2.1515 -0.2991 -1.4862
 9307SOL     OW39382   2.694   1.594  12.897 -0.1980 -0.2660  0.2221
 9307SOL    HW139383   2.741   1.527  12.848 -1.1262 -1.2419  0.6827
 9307SOL    HW239384   2.642   1.545  12.960  1.3577 -2.8625 -0.5454
 9308SOL     OW39385   4.398   1.701   7.579 -0.1591 -0.3654  0.0330
 9308SOL    HW139386   4.347   1.705   7.498 -0.7333  2.2452  0.5445
 9308SOL    HW239387   4.438   1.788   7.588  1.2415 -1.0347  0.3539
 9309SOL     OW39388   0.229   2.172   6.600 -0.2920  0.1946 -0.2261
 9309SOL    HW139389   0.228   2.102   6.666 -0.7684  0.5608  0.1547
 9309SOL    HW239390   0.170   2.231   6.646 -0.8440 -1.4934  1.2394
 9310SOL     OW39391   0.660   1.675   0.766  0.3003  0.1097 -0.2519
 9310SOL    HW139392   0.622   1.763   0.762  1.2136  0.5846  1.4666
 9310SOL    HW239393   0.690   1.656   0.677 -0.4860 -2.1314 -0.0562
 9311SOL     OW39394   3.114   3.725   4.300  0.8308 -0.3824 -0.0293
 9311SOL    HW139395   3.134   3.634   4.278  2.1790  0.1139 -0.8672
 9311SOL    HW239396   3.038   3.714   4.357 -0.3048  0.7308 -1.3197
 9312SOL     OW39397   2.597   2.392   7.184  1.0322  0.4164 -0.1187
 9312SOL    HW139398   2.553   2.376   7.267  0.1862  3.8594  0.0960
 9312SOL    HW239399   2.672   2.438   7.222  0.7618 -1.3443  2.5415
 9313SOL     OW39400   3.680   1.084   0.134 -0.1432 -0.5774  0.3439
 9313SOL    HW139401   3.713   1.053   0.050 -0.2071 -1.3565  0.6047
 9313SOL    HW239402   3.689   1.008   0.191 -1.5508 -1.7922 -1.0460
 9314SOL     OW39403   2.959   0.974   4.341 -0.6192  0.1263 -0.1297
 9314SOL    HW139404   3.008   0.912   4.286  3.0385  2.0163  0.9612
 9314SOL    HW239405   2.878   0.963   4.291  0.1482 -2.0912 -0.9118
 9315SOL     OW39406   1.470   4.129   6.942 -0.6457  0.4079 -0.8808
 9315SOL    HW139407   1.401   4.194   6.930 -0.3079  0.9061 -0.1164
 9315SOL    HW239408   1.536   4.174   6.887  0.3781 -0.6384 -0.5079
 9316SOL     OW39409   4.484   3.718   1.954 -0.0403 -0.2479 -0.1267
 9316SOL    HW139410   4.522   3.690   1.871 -2.1409 -1.0021 -0.8184
 9316SOL    HW239411   4.463   3.636   1.997 -0.6381 -0.8227 -1.5156
 9317SOL     OW39412   3.420   1.999   2.099 -0.4694  0.5423 -0.5674
 9317SOL    HW139413   3.373   1.934   2.047 -0.4201  0.5137 -0.5763
 9317SOL    HW239414   3.508   1.986   2.064 -1.4818 -2.0271 -2.0989
 9318SOL     OW39415   0.594   1.397   7.254  0.3525  0.2271  0.0454
 9318SOL    HW139416   0.646   1.368   7.179 -3.0065 -1.6224 -1.5418
 9318SOL    HW239417   0.507   1.389   7.216  1.3075  0.7183 -2.2316
 9319SOL     OW39418   3.837   0.125   5.957 -0.5184  0.3074  0.6574
 9319SOL    HW139419   3.932   0.110   5.956 -0.3785  1.2555 -1.5910
 9319SOL    HW239420   3.818   0.083   6.041  1.1957  1.5744  1.6774
 9320SOL     OW39421   2.122   0.106   6.136  0.2351  0.6683  0.0747
 9320SOL    HW139422   2.181   0.151   6.076 -1.1132 -0.7247 -2.2947
 9320SOL    HW239423   2.171   0.102   6.218 -0.7461 -0.5002  0.6065
 9321SOL     OW39424   3.189   0.123  16.101  0.5299 -0.0710  0.0891
 9321SOL    HW139425   3.221   0.048  16.050 -0.1974 -1.1238  1.1894
 9321SOL    HW239426   3.128   0.163  16.039  0.5947 -0.5895 -0.3169
 9322SOL     OW39427   1.823   0.912   1.965  0.5626 -0.1458 -0.1308
 9322SOL    HW139428   1.766   0.963   2.022  0.9809 -0.1887  0.3170
 9322SOL    HW239429   1.774   0.832   1.946  0.5224  0.3629 -2.2819
 9323SOL     OW39430   3.980   3.576   7.975  0.0153  0.5850  0.3214
 9323SOL    HW139431   4.001   3.559   7.883 -0.0336  0.0008  0.4152
 9323SOL    HW239432   3.986   3.670   7.987 -1.6402  0.7405 -0.0490
 9324SOL     OW39433   1.163   0.461  17.448 -0.2400  0.2838  0.4004
 9324SOL    HW139434   1.171   0.464  17.544  1.8431  2.1808  0.1808
 9324SOL    HW239435   1.128   0.549  17.431 -0.6979  0.5566  2.7394
 9325SOL     OW39436   1.112   4.622   6.159  0.0414  0.0122  0.2760
 9325SOL    HW139437   1.086   4.537   6.195 -0.5283  0.1123  0.1006
 9325SOL    HW239438   1.114   4.605   6.065  0.6746 -1.1268  0.5045
 9326SOL     OW39439   2.194   4.215   0.115 -0.2728 -0.2713  0.2900
 9326SOL    HW139440   2.121   4.246   0.062  0.4236 -1.3317 -1.2824
 9326SOL    HW239441   2.222   4.301   0.145 -0.3217 -0.8838  2.1101
 9327SOL     OW39442   3.073   1.435  15.607 -0.3149 -0.9722 -0.1682
 9327SOL    HW139443   3.063   1.377  15.682 -0.4183  0.2707  0.7931
 9327SOL    HW239444   3.142   1.389  15.560 -0.3194 -0.6366 -0.5045
 9328SOL     OW39445   0.802   2.468   6.057  0.3142 -0.8251 -0.0736
 9328SOL    HW139446   0.749   2.502   5.986  1.9767  0.2866 -0.7680
 9328SOL    HW239447   0.733   2.459   6.123 -2.6386  3.0155 -2.6568
 9329SOL     OW39448   1.504   1.220   4.436  0.3106 -0.2374  0.1792
 9329SOL    HW139449   1.537   1.287   4.376 -0.1046  0.4736  0.7435
 9329SOL    HW239450   1.538   1.142   4.391  0.7573  0.6699 -1.0588
 9330SOL     OW39451   3.335   1.709   4.060 -0.3239 -0.2202  0.1870
 9330SOL    HW139452   3.256   1.656   4.047 -0.7885  0.2632  1.0374
 9330SOL    HW239453   3.332   1.698   4.155 -0.6575 -1.1022  0.0749
 9331SOL     OW39454   0.321   3.999   4.581 -0.1615 -0.5726 -0.3854
 9331SOL    HW139455   0.325   3.913   4.623 -0.3409 -0.3851  0.0123
 9331SOL    HW239456   0.398   4.042   4.619 -2.5540  3.9343 -0.7101
 9332SOL     OW39457   3.539   1.317   4.319  0.4796 -0.4867 -0.3592
 9332SOL    HW139458   3.464   1.266   4.290  1.0542 -1.4309 -0.2276
 9332SOL    HW239459   3.559   1.281   4.406  1.5922  1.4362  0.1836
 9333SOL     OW39460   0.310   0.056   7.994 -0.1073 -0.0782 -0.0423
 9333SOL    HW139461   0.394   0.050   8.039  0.7995 -0.3772 -1.7579
 9333SOL    HW239462   0.262   4.716   8.044 -0.5153 -0.7832 -1.3323
 9334SOL     OW39463   4.364   3.703  12.301 -0.4937 -0.3822  0.1956
 9334SOL    HW139464   4.311   3.626  12.280 -1.2979  0.0547  0.6201
 9334SOL    HW239465   4.343   3.722  12.393  0.6987  1.3787  0.1140
 9335SOL     OW39466   2.309   1.632   4.769  0.0404  0.0428 -0.3216
 9335SOL    HW139467   2.334   1.696   4.836 -0.7855 -0.5475  0.5526
 9335SOL    HW239468   2.235   1.676   4.727 -1.0411 -1.2946  0.2190
 9336SOL     OW39469   3.628   1.382   6.535  0.2383  0.5623  0.2533
 9336SOL    HW139470   3.558   1.442   6.508  0.5955  0.9880  0.2793
 9336SOL    HW239471   3.650   1.412   6.624  1.7867  1.3183 -0.3926
 9337SOL     OW39472   1.152   0.066   5.315 -0.1206 -0.5008 -0.0097
 9337SOL    HW139473   1.142   0.157   5.288 -2.3514 -0.6905  0.1760
 9337SOL    HW239474   1.150   0.084   5.409  1.4040  3.8951 -0.7863
 9338SOL     OW39475   4.614   0.774   6.198  0.0883 -0.1566 -0.0230
 9338SOL    HW139476   4.649   0.774   6.287  1.0798  2.2517 -0.4234
 9338SOL    HW239477   4.690   0.741   6.150  1.2882  2.0131  0.4195
 9339SOL     OW39478   0.653   1.967   7.952 -0.4043  0.0232  0.7790
 9339SOL    HW139479   0.686   2.033   7.891 -0.1669 -1.5361 -0.7958
 9339SOL    HW239480   0.688   1.882   7.924  0.3522  0.2673  0.9893
 9340SOL     OW39481   2.329   2.209   1.153 -0.5570 -0.0180  0.2081
 9340SOL    HW139482   2.250   2.166   1.122 -0.6007  0.9786 -1.0715
 9340SOL    HW239483   2.342   2.272   1.082 -0.2591  0.7256  0.9190
 9341SOL     OW39484   1.726   0.676   2.175  0.1619  0.2659  0.1529
 9341SOL    HW139485   1.689   0.738   2.239 -1.0716  1.3486 -1.6016
 9341SOL    HW239486   1.683   0.592   2.194 -0.3696  0.2578 -1.0726
 9342SOL     OW39487   1.880   2.533   9.512 -0.3114 -0.2097 -0.1187
 9342SOL    HW139488   1.917   2.462   9.461 -0.7969 -0.9778  0.5906
 9342SOL    HW239489   1.920   2.595   9.452 -0.2053  1.3677  1.5851
 9343SOL     OW39490   4.338   4.375   3.582  0.1100  0.4917 -0.3438
 9343SOL    HW139491   4.255   4.336   3.611  0.9846 -0.3175  1.0505
 9343SOL    HW239492   4.395   4.381   3.658 -0.4295 -0.1843  0.1078
 9344SOL     OW39493   0.616   0.294   1.104  0.0855 -0.3332 -0.4331
 9344SOL    HW139494   0.602   0.387   1.123 -0.9959 -0.5062 -0.4042
 9344SOL    HW239495   0.711   0.289   1.096  0.1608  0.4502 -0.0328
 9345SOL     OW39496   1.516   3.451  17.044  0.7240  0.3712 -0.1932
 9345SOL    HW139497   1.459   3.385  17.003 -0.2850  0.2490  1.3722
 9345SOL    HW239498   1.471   3.465  17.128  0.9243  0.9857 -0.1912
 9346SOL     OW39499   2.462   0.245   4.066 -0.7780 -0.3498  0.4736
 9346SOL    HW139500   2.469   0.333   4.103 -0.1594 -1.0475  1.9860
 9346SOL    HW239501   2.367   0.239   4.061 -0.7874  0.7008 -0.5910
 9347SOL     OW39502   2.061   1.690   4.641  0.2775  0.1288  0.2424
 9347SOL    HW139503   2.065   1.778   4.604  0.1542  1.1723  2.7835
 9347SOL    HW239504   2.029   1.637   4.567 -0.9851 -0.6093  1.3234
 9348SOL     OW39505   0.501   4.473   1.602  0.0094  0.2767 -0.4166
 9348SOL    HW139506   0.498   4.429   1.517  2.5951 -1.2721  0.3036
 9348SOL    HW239507   0.592   4.469   1.630 -0.2686  2.5005  0.8821
 9349SOL     OW39508   0.408   1.368  12.254 -0.4656  0.3154 -0.4403
 9349SOL    HW139509   0.418   1.346  12.161  0.1696  1.1491 -0.5687
 9349SOL    HW239510   0.501   1.378  12.271 -0.2808  0.1292 -1.3289
 9350SOL     OW39511   3.054   2.974   0.272 -0.0116  0.3850  0.2297
 9350SOL    HW139512   3.117   2.936   0.210 -3.2272 -1.5146 -1.8485
 9350SOL    HW239513   3.017   2.894   0.309  0.1461  1.6092  3.0368
 9351SOL     OW39514   1.156   4.626   8.669 -0.3737 -0.5753  0.6041
 9351SOL    HW139515   1.127   4.591   8.585 -1.0145 -1.2723  1.1160
 9351SOL    HW239516   1.178   4.715   8.641 -2.4029  0.5483  2.5342
 9352SOL     OW39517   1.044   0.347   5.765  0.1194 -0.4816  0.2215
 9352SOL    HW139518   1.130   0.389   5.760  1.0391 -2.2227  1.6009
 9352SOL    HW239519   0.998   0.426   5.793 -1.6837 -1.3103 -0.4269
 9353SOL     OW39520   3.395   0.026   0.331  0.3638  0.1751 -0.1496
 9353SOL    HW139521   3.388   0.106   0.278 -1.0266 -0.5102 -0.9942
 9353SOL    HW239522   3.473   4.703   0.304 -0.5537 -1.7227  0.5670
 9354SOL     OW39523   4.118   1.977   7.401  0.0556 -0.1478 -0.0644
 9354SOL    HW139524   4.177   2.045   7.431 -2.0064  1.3492  0.5901
 9354SOL    HW239525   4.177   1.902   7.415  1.4121  0.9466  0.0586
 9355SOL     OW39526   3.896   1.080  11.495 -0.3056 -0.1547 -0.2974
 9355SOL    HW139527   3.828   1.079  11.427 -0.5284  1.4843 -0.1043
 9355SOL    HW239528   3.852   1.131  11.564 -1.3310  3.1319 -3.3676
 9356SOL     OW39529   4.426   2.230   4.671 -0.3984 -0.0090 -0.2557
 9356SOL    HW139530   4.361   2.222   4.741  0.8160 -1.4262  0.7241
 9356SOL    HW239531   4.511   2.235   4.714 -0.8628  0.4183  0.6245
 9357SOL     OW39532   0.884   2.375   1.841 -0.9477  0.2312 -0.4301
 9357SOL    HW139533   0.976   2.390   1.821 -0.0872 -1.7418  2.0775
 9357SOL    HW239534   0.880   2.294   1.892  0.9770  0.2262 -0.2996
 9358SOL     OW39535   1.645   3.119   0.057 -0.1281 -0.2975  0.2130
 9358SOL    HW139536   1.726   3.122   0.007  1.0279 -0.9990  2.0335
 9358SOL    HW239537   1.616   3.029   0.044 -0.5853 -0.5182  2.6847
 9359SOL     OW39538   3.952   4.034   9.355 -0.0051 -0.0023  0.3782
 9359SOL    HW139539   3.858   4.029   9.341  0.0220 -1.9124  0.8625
 9359SOL    HW239540   3.957   4.067   9.445 -0.5760 -1.4242  0.9398
 9360SOL     OW39541   3.972   2.379   0.948 -0.0089  0.4289  0.2491
 9360SOL    HW139542   4.035   2.351   1.015 -1.5453  0.3509  1.6703
 9360SOL    HW239543   4.026   2.384   0.869  2.2500  1.4164  1.8294
 9361SOL     OW39544   2.633   1.056   3.831  0.3181 -0.3664 -0.1866
 9361SOL    HW139545   2.681   0.989   3.781  1.4361 -0.4313  0.9692
 9361SOL    HW239546   2.568   1.095   3.773  1.3375  1.7545  0.1151
 9362SOL     OW39547   3.996   4.160   5.470  0.0357  0.2771 -0.4504
 9362SOL    HW139548   4.016   4.252   5.484 -1.2245  0.5363 -0.3201
 9362SOL    HW239549   4.036   4.144   5.385 -0.7841  0.9612 -0.9651
 9363SOL     OW39550   1.071   1.869   8.705 -0.2628 -0.5403  0.5798
 9363SOL    HW139551   1.083   1.774   8.707 -0.8184 -0.6495 -1.4379
 9363SOL    HW239552   0.978   1.881   8.720 -0.1243  0.2999  0.7726
 9364SOL     OW39553   2.654   0.143  15.431 -0.2122 -0.0611 -0.1460
 9364SOL    HW139554   2.595   0.203  15.478  1.8460  0.2807  1.9902
 9364SOL    HW239555   2.651   0.071  15.494 -1.2798  0.2341  0.1566
 9365SOL     OW39556   1.798   2.888   5.978  0.1340  0.6665  0.1896
 9365SOL    HW139557   1.864   2.942   5.936 -0.5132  2.4414  1.4167
 9365SOL    HW239558   1.856   2.848   6.042  1.5921 -3.4695 -3.7616
 9366SOL     OW39559   3.380   0.353   8.295 -0.2994 -0.2653  0.4541
 9366SOL    HW139560   3.287   0.333   8.284  0.4811 -4.3242  1.3831
 9366SOL    HW239561   3.374   0.433   8.347 -0.2266 -0.1795  0.3305
 9367SOL     OW39562   4.107   0.770   3.373  0.3143  0.2899  0.1050
 9367SOL    HW139563   4.070   0.725   3.297  0.2265 -0.9792  0.9066
 9367SOL    HW239564   4.080   0.717   3.447  0.9021  1.3981  1.1272
 9368SOL     OW39565   1.660   0.137   5.093 -0.6156  0.3204 -0.5748
 9368SOL    HW139566   1.653   0.109   5.184 -0.9279 -3.5678 -1.7789
 9368SOL    HW239567   1.609   0.218   5.094  1.2140  1.4392  0.0433
 9369SOL     OW39568   2.844   3.966   4.528  0.6741 -0.5953  0.3400
 9369SOL    HW139569   2.844   4.001   4.439 -0.6239 -0.1908  0.4975
 9369SOL    HW239570   2.782   3.894   4.515 -1.2750  0.6765  2.6812
 9370SOL     OW39571   2.465   3.122   2.652  0.1099 -0.1167  0.5902
 9370SOL    HW139572   2.438   3.103   2.562  2.5402 -1.2975  0.1229
 9370SOL    HW239573   2.518   3.202   2.655  2.4060 -1.5933 -1.1530
 9371SOL     OW39574   2.680   0.185   0.343 -0.2119 -0.0107  0.0387
 9371SOL    HW139575   2.665   0.137   0.425  1.1457 -1.1520 -0.3911
 9371SOL    HW239576   2.615   0.139   0.290 -0.3093  1.3899 -1.0753
 9372SOL     OW39577   1.299   2.564   8.322 -0.4201 -0.2075  0.1753
 9372SOL    HW139578   1.216   2.592   8.285  0.3634  1.7827 -0.0699
 9372SOL    HW239579   1.314   2.476   8.285  0.5763 -0.2895  0.7621
 9373SOL     OW39580   4.682   1.980  16.060 -0.1726 -0.0670 -0.2630
 9373SOL    HW139581   4.626   1.929  16.002  0.2516 -1.9288  0.9851
 9373SOL    HW239582   0.031   1.923  16.078 -0.5326 -0.6405 -0.6122
 9374SOL     OW39583   1.391   4.436   7.748  0.1223 -0.4918 -0.4536
 9374SOL    HW139584   1.458   4.501   7.769 -2.4086  2.0740 -0.3388
 9374SOL    HW239585   1.439   4.380   7.687 -0.3649  0.5475 -1.7757
 9375SOL     OW39586   0.158   3.075  12.478 -0.2778 -0.4240 -0.7786
 9375SOL    HW139587   0.074   3.030  12.482  0.3646 -1.5223  0.3575
 9375SOL    HW239588   0.208   2.996  12.459 -0.1849 -0.8301  1.1671
 9376SOL     OW39589   1.517   4.698   5.883  0.3489  0.7968 -0.1270
 9376SOL    HW139590   1.553   4.720   5.969 -0.7107 -0.8120  0.7421
 9376SOL    HW239591   1.521   4.602   5.886 -0.5114  0.7502 -0.3681
 9377SOL     OW39592   3.582   2.253  10.483  0.1165 -0.2798  0.7712
 9377SOL    HW139593   3.535   2.328  10.446  0.3192 -0.6821 -0.3167
 9377SOL    HW239594   3.510   2.202  10.521 -0.9206  2.0900  1.9860
 9378SOL     OW39595   1.406   1.600  10.096  0.3388 -0.5178 -0.1251
 9378SOL    HW139596   1.399   1.506  10.110  1.4707 -0.5485  0.3101
 9378SOL    HW239597   1.378   1.599  10.005 -0.3079  2.0244  0.0362
 9379SOL     OW39598   3.535   1.824   3.559 -0.2697  0.1782  0.7652
 9379SOL    HW139599   3.627   1.800   3.562 -0.3607 -0.2617 -0.0293
 9379SOL    HW239600   3.495   1.780   3.633 -1.3874 -1.8030 -1.0217
 9380SOL     OW39601   1.679   3.653   3.793  0.4975 -0.3487  0.4276
 9380SOL    HW139602   1.750   3.706   3.831 -0.1742  1.1658 -0.4042
 9380SOL    HW239603   1.695   3.652   3.699 -0.8930 -1.0270  0.1925
 9381SOL     OW39604   2.512   3.248  16.229 -0.2638 -0.0947  0.3752
 9381SOL    HW139605   2.587   3.200  16.263  1.1669  2.0171  0.1692
 9381SOL    HW239606   2.532   3.330  16.275 -1.2590 -0.0281  0.6941
 9382SOL     OW39607   3.667   3.464   8.833  0.3175 -0.0704  0.3530
 9382SOL    HW139608   3.721   3.435   8.907  0.6598 -0.4798 -0.0541
 9382SOL    HW239609   3.585   3.431   8.869  0.0624  2.3872  2.0170
 9383SOL     OW39610   0.952   4.022  11.145 -0.3798  0.2943 -0.0886
 9383SOL    HW139611   0.857   4.010  11.141 -0.5150  1.2099  0.3293
 9383SOL    HW239612   0.988   3.941  11.110 -1.5298  0.1673 -0.9389
 9384SOL     OW39613   0.042   1.233   0.339 -0.3606 -0.0350 -0.4215
 9384SOL    HW139614   0.108   1.295   0.308  1.0723 -1.6697 -0.5902
 9384SOL    HW239615   0.047   1.162   0.276  0.1150 -0.7127  0.3919
 9385SOL     OW39616   0.868   4.216   6.944  0.1414  0.1331 -0.0151
 9385SOL    HW139617   0.820   4.146   6.989  0.7245  1.1433  2.1590
 9385SOL    HW239618   0.890   4.269   7.021 -0.8288  0.2481  0.1810
 9386SOL     OW39619   1.890   0.291   4.700 -0.4021 -0.2983  0.3421
 9386SOL    HW139620   1.972   0.263   4.741  1.2553  2.4634 -1.1550
 9386SOL    HW239621   1.861   0.360   4.758 -0.3613 -0.0842  0.1065
 9387SOL     OW39622   4.420   4.005   8.241 -0.0628  0.3860  0.1988
 9387SOL    HW139623   4.377   3.931   8.198  0.2305  0.4863 -0.2728
 9387SOL    HW239624   4.513   3.991   8.222  0.1999  1.5868  0.5646
 9388SOL     OW39625   4.658   2.662   3.422  0.0567 -0.2487 -0.1185
 9388SOL    HW139626   4.723   2.632   3.358 -0.7092 -3.5921  0.6310
 9388SOL    HW239627   4.636   2.576   3.458 -1.4060 -0.1386 -0.7210
 9389SOL     OW39628   0.204   2.161   1.300 -0.4185  0.5960  0.0932
 9389SOL    HW139629   0.191   2.157   1.205  0.0212 -1.9319  0.1547
 9389SOL    HW239630   0.135   2.102   1.330  1.5221 -0.7133  2.0636
 9390SOL     OW39631   1.984   0.066  10.569 -0.4219 -0.0061  0.3055
 9390SOL    HW139632   2.072   0.075  10.606 -0.2381  1.3021 -0.4677
 9390SOL    HW239633   1.931   0.045  10.647  0.5318  1.3813  1.3327
 9391SOL     OW39634   1.957   0.810  12.612 -0.6096  0.0317  0.2090
 9391SOL    HW139635   1.927   0.721  12.593 -2.9640  1.3189 -2.1108
 9391SOL    HW239636   1.943   0.851  12.527 -0.5681  0.3689  0.3631
 9392SOL     OW39637   4.284   0.484  11.883 -0.1820 -0.0846  0.2898
 9392SOL    HW139638   4.225   0.542  11.931 -0.5629 -0.9138  0.8268
 9392SOL    HW239639   4.293   0.414  11.949 -1.3225  0.8103  1.3869
 9393SOL     OW39640   2.727   4.383  15.639  0.1366  0.1231  0.0641
 9393SOL    HW139641   2.823   4.379  15.639  0.0856 -1.2007 -1.0654
 9393SOL    HW239642   2.708   4.374  15.732  4.8588  3.8777  1.3945
 9394SOL     OW39643   2.361   0.334   5.663 -0.2092 -0.1279  0.2820
 9394SOL    HW139644   2.417   0.355   5.588 -1.3698  5.0732  0.8750
 9394SOL    HW239645   2.283   0.293   5.625 -0.5304  1.7790 -1.1323
 9395SOL     OW39646   0.370   3.089   1.151  0.1558 -0.3087 -0.3244
 9395SOL    HW139647   0.461   3.117   1.149  0.7984 -2.4073 -1.3200
 9395SOL    HW239648   0.321   3.163   1.114  2.8092  1.1862 -0.8176
 9396SOL     OW39649   1.690   2.543  10.776 -0.2706 -1.3041  0.6761
 9396SOL    HW139650   1.666   2.461  10.734  0.3180 -2.0418  1.7969
 9396SOL    HW239651   1.626   2.553  10.846 -1.0184 -0.1637 -0.1495
 9397SOL     OW39652   3.251   0.695   5.644 -0.2587  0.0134 -0.9890
 9397SOL    HW139653   3.168   0.738   5.665 -0.3886 -1.3387  1.2849
 9397SOL    HW239654   3.254   0.623   5.707 -2.3103  1.5901  0.8859
 9398SOL     OW39655   2.546   0.841   2.013  0.6403  0.0941  0.3734
 9398SOL    HW139656   2.471   0.843   1.954  1.2554 -2.7601 -0.4884
 9398SOL    HW239657   2.513   0.846   2.103 -1.0963 -1.1581 -0.2032
 9399SOL     OW39658   4.350   3.681   4.748  0.0708 -0.2567  0.3071
 9399SOL    HW139659   4.321   3.747   4.811 -0.9709 -0.8469  0.4471
 9399SOL    HW239660   4.398   3.619   4.804  2.0850  0.3920 -0.6993
 9400SOL     OW39661   3.952   1.467   3.567  0.4667  0.5447  0.1189
 9400SOL    HW139662   4.008   1.447   3.492 -0.3843  1.1658 -0.6847
 9400SOL    HW239663   3.946   1.382   3.610 -1.0601  0.0561 -1.0917
 9401SOL     OW39664   1.242   0.828  15.611  0.0212 -0.4179 -0.5873
 9401SOL    HW139665   1.226   0.774  15.534  1.5209 -1.2028 -0.3490
 9401SOL    HW239666   1.319   0.778  15.639 -0.3615 -0.7068 -0.0555
 9402SOL     OW39667   3.222   0.255   5.169  0.3887  0.0442  0.1882
 9402SOL    HW139668   3.245   0.167   5.138  0.9783  0.0101  0.7208
 9402SOL    HW239669   3.215   0.296   5.083  0.2421  1.3807  0.8393
 9403SOL     OW39670   3.410   3.307   5.693 -0.0665  0.1565 -0.4801
 9403SOL    HW139671   3.422   3.341   5.605  0.5360  1.4595  0.1129
 9403SOL    HW239672   3.490   3.334   5.738 -0.5536  1.1549 -0.2288
 9404SOL     OW39673   3.098   2.760   3.675  0.0019  0.5463 -0.1122
 9404SOL    HW139674   3.035   2.731   3.609 -0.9510 -1.7909  1.7939
 9404SOL    HW239675   3.186   2.754   3.639 -0.1330 -1.8329 -0.0507
 9405SOL     OW39676   4.415   3.157  15.658 -0.5906 -0.4926  0.5206
 9405SOL    HW139677   4.417   3.103  15.737  1.6692  0.9376  1.4755
 9405SOL    HW239678   4.323   3.170  15.637 -0.6669 -0.3726  0.9287
 9406SOL     OW39679   0.028   2.920   3.201 -0.4682  0.2380 -0.5538
 9406SOL    HW139680   0.020   2.988   3.268 -1.0950 -0.1514 -0.2247
 9406SOL    HW239681   0.090   2.859   3.240  0.0313  0.9546 -0.2225
 9407SOL     OW39682   0.830   4.495   4.895  0.1548 -0.0125 -0.7355
 9407SOL    HW139683   0.855   4.545   4.973 -1.4467  0.4951 -0.5568
 9407SOL    HW239684   0.874   4.546   4.827 -1.3869  0.3325 -1.4557
 9408SOL     OW39685   0.853   2.640   4.736 -0.2778 -0.1881  0.1030
 9408SOL    HW139686   0.897   2.703   4.792  0.0006  0.3327 -0.7075
 9408SOL    HW239687   0.764   2.646   4.771  0.3477  1.3250  1.4256
 9409SOL     OW39688   0.296   2.528  17.293  0.4867 -0.5319 -0.3488
 9409SOL    HW139689   0.259   2.612  17.267 -0.9538 -0.9447  0.3115
 9409SOL    HW239690   0.239   2.469  17.243  0.3709 -0.7239  0.0103
 9410SOL     OW39691   2.037   2.306   5.107 -0.1012 -0.3621 -0.0910
 9410SOL    HW139692   2.076   2.358   5.177 -0.4615 -2.3633  1.6259
 9410SOL    HW239693   2.114   2.296   5.052  0.0019  1.7821 -0.3384
 9411SOL     OW39694   2.713   1.262   4.332  0.0773 -0.0662 -0.2784
 9411SOL    HW139695   2.698   1.344   4.285 -0.5037 -0.1201 -0.1868
 9411SOL    HW239696   2.631   1.223   4.301 -0.0069  0.1250 -0.2961
 9412SOL     OW39697   1.520   4.412  12.556 -0.3880 -0.4953 -0.0560
 9412SOL    HW139698   1.558   4.325  12.545 -1.0194 -0.8457  0.5439
 9412SOL    HW239699   1.557   4.448  12.476 -1.0948 -2.9092 -1.4541
 9413SOL     OW39700   2.797   0.893   1.923 -0.2823  0.0169  0.0660
 9413SOL    HW139701   2.826   0.803   1.911  0.3165  0.1810  0.3010
 9413SOL    HW239702   2.703   0.880   1.940 -0.5329 -0.4825 -1.7447
 9414SOL     OW39703   0.356   2.393   1.287  0.1110  0.1877 -0.1077
 9414SOL    HW139704   0.333   2.304   1.314  0.7218  0.9620  2.9121
 9414SOL    HW239705   0.314   2.447   1.354  1.0387  1.0243 -0.1966
 9415SOL     OW39706   2.997   2.674   6.710  0.1842 -0.5182 -0.3229
 9415SOL    HW139707   2.939   2.746   6.733  1.9215  1.3705 -1.8672
 9415SOL    HW239708   2.946   2.624   6.646  0.4398  1.6813 -2.2293
 9416SOL     OW39709   3.439   0.865   5.033  0.2599  0.5415  0.4394
 9416SOL    HW139710   3.432   0.780   5.075 -1.5007  0.7917  0.6640
 9416SOL    HW239711   3.346   0.876   5.011  0.6460  1.1521 -0.9235
 9417SOL     OW39712   2.434   0.056  17.696  0.1322 -0.1803  0.0303
 9417SOL    HW139713   2.425   0.151  17.691 -0.5534 -0.2449  0.0757
 9417SOL    HW239714   2.478   0.043   0.078 -0.3865  2.1903  0.6634
 9418SOL     OW39715   4.603   0.472   3.835 -0.8372 -0.6055  0.0369
 9418SOL    HW139716   4.521   0.425   3.853 -0.6430 -0.5032  1.1840
 9418SOL    HW239717   4.574   0.542   3.777 -1.0546 -0.3896  0.4060
 9419SOL     OW39718   0.883   4.631   8.667  0.1288 -0.5818  0.1237
 9419SOL    HW139719   0.831   4.669   8.738 -0.3539  1.8909 -1.5425
 9419SOL    HW239720   0.964   4.654   8.712 -0.2759  0.6381  0.2226
 9420SOL     OW39721   3.090   2.941   9.464 -0.8079 -0.0164 -0.1116
 9420SOL    HW139722   3.110   3.033   9.478  0.5515 -0.9155  3.8897
 9420SOL    HW239723   3.057   2.939   9.374 -1.5396  1.9987  0.1152
 9421SOL     OW39724   3.565   3.112  14.198  0.7054  0.6699 -0.1600
 9421SOL    HW139725   3.615   3.070  14.268 -2.8671 -0.6355  1.5651
 9421SOL    HW239726   3.494   3.149  14.250  0.9791  0.7994  0.1197
 9422SOL     OW39727   4.483   4.030  11.567 -0.1357  0.6512  0.5213
 9422SOL    HW139728   4.500   3.983  11.485 -2.2165  0.8667 -0.0410
 9422SOL    HW239729   4.559   4.033  11.624  0.5611 -2.0445 -0.2737
 9423SOL     OW39730   2.499   0.912  10.950  0.1476 -0.5550 -0.7937
 9423SOL    HW139731   2.525   0.821  10.935  0.7809  0.1410 -3.7550
 9423SOL    HW239732   2.549   0.956  10.881  0.7180  0.7233  0.4283
 9424SOL     OW39733   4.436   1.453   5.576 -0.7846  0.1151  0.1290
 9424SOL    HW139734   4.436   1.535   5.626 -0.8195 -1.2102  2.2914
 9424SOL    HW239735   4.353   1.419   5.609 -0.3987  0.8962  1.9653
 9425SOL     OW39736   0.119   2.194  12.752  0.1800 -0.5087  0.5557
 9425SOL    HW139737   0.079   2.108  12.762  0.2979 -0.4027  1.9247
 9425SOL    HW239738   0.042   2.245  12.777  0.4170 -0.8592  2.0186
 9426SOL     OW39739   2.200   2.182   4.600 -0.1923  0.0739 -0.1719
 9426SOL    HW139740   2.252   2.212   4.526 -0.3508  1.0446  0.0976
 9426SOL    HW239741   2.275   2.166   4.657 -0.9925  3.0040  1.7097
 9427SOL     OW39742   4.294   3.383  14.709 -0.0187 -0.8501  0.5763
 9427SOL    HW139743   4.245   3.453  14.665 -1.5208 -2.4919 -0.3109
 9427SOL    HW239744   4.371   3.380  14.652 -0.4067 -0.9154  0.0596
 9428SOL     OW39745   1.233   2.041   2.816  0.4456 -0.3027  0.0596
 9428SOL    HW139746   1.197   2.097   2.885 -0.0955 -2.4680  1.5198
 9428SOL    HW239747   1.219   2.100   2.742  2.5616  0.1793  0.0548
 9429SOL     OW39748   4.658   4.201   5.856  0.1450  0.4281  0.1862
 9429SOL    HW139749   4.677   4.284   5.901 -0.6974 -0.2205  1.7597
 9429SOL    HW239750   4.625   4.155   5.933 -1.6084  3.0723  1.0438
 9430SOL     OW39751   1.760   2.760   8.299  0.3458  0.1173  0.3105
 9430SOL    HW139752   1.820   2.781   8.227 -0.0165 -2.8957 -0.8693
 9430SOL    HW239753   1.742   2.668   8.277  0.9110  0.3744 -1.2638
 9431SOL     OW39754   0.623   0.563   1.835 -0.1275  1.0704  0.0224
 9431SOL    HW139755   0.609   0.635   1.896 -1.2509  0.2786  0.6916
 9431SOL    HW239756   0.705   0.584   1.789  0.6837 -1.6495  0.2499
 9432SOL     OW39757   3.260   3.174   1.316  0.8333 -0.1406 -0.8874
 9432SOL    HW139758   3.240   3.174   1.410 -0.6258  0.9036 -1.1959
 9432SOL    HW239759   3.173   3.186   1.278  0.9335 -1.2689 -1.4757
 9433SOL     OW39760   3.707   0.875  16.968 -0.0547  0.0693 -0.2672
 9433SOL    HW139761   3.623   0.833  16.952  0.8858 -1.7408 -0.4575
 9433SOL    HW239762   3.750   0.891  16.883  0.0233 -1.9533 -0.6002
 9434SOL     OW39763   2.202   0.093   6.391  0.2856  0.4214  0.4565
 9434SOL    HW139764   2.158   0.165   6.435  0.5212  0.7904  0.0822
 9434SOL    HW239765   2.255   0.048   6.458 -1.0147 -1.3248  0.3149
 9435SOL     OW39766   4.037   0.064  10.438  0.3598  0.0758  0.0297
 9435SOL    HW139767   3.982   0.056  10.360  1.3742  0.2986 -0.6995
 9435SOL    HW239768   4.065   4.698  10.450  0.0168  0.2205  2.0002
 9436SOL     OW39769   3.157   2.669   9.158  0.3625 -0.0947 -0.6094
 9436SOL    HW139770   3.110   2.607   9.213  2.1501 -1.1134 -0.2298
 9436SOL    HW239771   3.202   2.725   9.222  0.9661 -2.3194  0.9277
 9437SOL     OW39772   0.858   3.893   2.837  0.2073  0.3689 -0.3515
 9437SOL    HW139773   0.865   3.801   2.812  1.2133  0.2596  0.3115
 9437SOL    HW239774   0.946   3.929   2.821  0.1801  0.2745 -0.7031
 9438SOL     OW39775   2.100   1.145   7.038  0.1550 -0.3465 -0.0591
 9438SOL    HW139776   2.019   1.098   7.020 -0.0063 -0.6670  1.5257
 9438SOL    HW239777   2.094   1.166   7.131  0.1450 -0.2231 -0.0876
 9439SOL     OW39778   3.302   4.476   9.724  0.0035  0.0519  0.0094
 9439SOL    HW139779   3.352   4.510   9.650  0.9470 -1.3110  0.0116
 9439SOL    HW239780   3.366   4.465   9.794 -0.3291  2.5389  0.7031
 9440SOL     OW39781   0.445   3.443   2.116  0.5040  0.4953 -0.0559
 9440SOL    HW139782   0.469   3.501   2.043  1.1720  0.0098 -0.2200
 9440SOL    HW239783   0.500   3.490   2.179  1.4100  0.7235 -1.0109
 9441SOL     OW39784   2.976   3.177  11.318  0.3872  0.5021  0.4848
 9441SOL    HW139785   3.012   3.265  11.304  1.4481  0.0430  0.3381
 9441SOL    HW239786   3.035   3.126  11.263 -1.6471  0.0388 -1.2543
 9442SOL     OW39787   1.104   0.728  17.408 -0.0087 -0.5172  0.5137
 9442SOL    HW139788   1.147   0.812  17.422 -0.4407 -0.1737 -0.1996
 9442SOL    HW239789   1.014   0.746  17.436 -1.0835 -1.6055 -2.2707
 9443SOL     OW39790   0.717   2.428   1.055  0.0826  0.3859  0.2243
 9443SOL    HW139791   0.804   2.458   1.029 -0.5082  0.0238 -2.1243
 9443SOL    HW239792   0.663   2.491   1.008 -0.8214  0.2221  1.0476
 9444SOL     OW39793   0.021   3.896  17.046  0.0098  0.0815  1.1920
 9444SOL    HW139794   0.008   3.828  16.980  1.4628 -0.1064  1.0864
 9444SOL    HW239795   4.690   3.875  17.121 -1.4522 -2.6773 -0.7160
 9445SOL     OW39796   3.162   2.245  17.110 -0.1141 -0.0192 -0.1156
 9445SOL    HW139797   3.118   2.322  17.145 -1.8899 -1.2692  0.4373
 9445SOL    HW239798   3.214   2.224  17.188 -2.4102 -1.6243  1.0011
 9446SOL     OW39799   0.299   0.200   5.714  0.4771 -0.5052  0.2597
 9446SOL    HW139800   0.313   0.246   5.796 -3.7037 -1.1867  1.3762
 9446SOL    HW239801   0.350   0.253   5.653 -0.9802  0.1079 -0.4398
 9447SOL     OW39802   3.392   1.408  14.068  0.3248  0.2016 -0.6461
 9447SOL    HW139803   3.311   1.456  14.050 -0.9270 -1.8301 -0.3754
 9447SOL    HW239804   3.404   1.341  14.001  0.5936  0.5431 -0.9391
 9448SOL     OW39805   2.632   3.314  15.572 -0.5630 -0.2183 -0.1364
 9448SOL    HW139806   2.687   3.269  15.508  0.3189 -1.0211  1.1970
 9448SOL    HW239807   2.695   3.378  15.606 -0.0923 -1.1766  0.8061
 9449SOL     OW39808   0.647   2.570   7.331 -0.0578  0.2720  0.8831
 9449SOL    HW139809   0.647   2.488   7.381 -0.2127  0.5289  1.3103
 9449SOL    HW239810   0.718   2.560   7.268 -1.1786 -2.3268  0.0347
 9450SOL     OW39811   0.191   0.052   9.618 -0.0351 -0.1044 -0.0727
 9450SOL    HW139812   0.180   0.029   9.710  0.1115  0.0475 -0.0159
 9450SOL    HW239813   0.259   0.120   9.620 -0.3683  0.2965 -2.3570
 9451SOL     OW39814   1.641   3.410   6.618  0.0272  0.2332  0.2720
 9451SOL    HW139815   1.674   3.441   6.534 -1.5718 -0.3173 -0.5596
 9451SOL    HW239816   1.611   3.490   6.661 -3.1364 -1.0483  0.4548
 9452SOL     OW39817   4.304   3.394   5.434 -0.2231  0.0618  0.0985
 9452SOL    HW139818   4.323   3.349   5.352 -2.2792 -1.8051  0.6559
 9452SOL    HW239819   4.209   3.385   5.439 -0.3120  1.2666  0.5991
 9453SOL     OW39820   3.801   2.117   0.762  0.8090 -0.5906  0.2280
 9453SOL    HW139821   3.737   2.106   0.692  0.9193  0.3008 -0.0126
 9453SOL    HW239822   3.757   2.197   0.791 -0.7602 -0.7332 -1.8130
 9454SOL     OW39823   1.779   1.269   6.338 -0.3732 -0.5471  0.4307
 9454SOL    HW139824   1.819   1.231   6.260  0.7013 -0.6403  1.0184
 9454SOL    HW239825   1.818   1.357   6.335  0.2389 -0.8916 -1.4845
 9455SOL     OW39826   1.137   3.711  17.334 -0.1261 -0.2305 -0.3466
 9455SOL    HW139827   1.089   3.753  17.405  0.2986 -0.8515  0.3104
 9455SOL    HW239828   1.152   3.620  17.361  0.6799  0.2434  0.8005
 9456SOL     OW39829   3.302   0.023  15.873  0.0408  0.0032 -0.1129
 9456SOL    HW139830   3.394   0.040  15.890  0.7516 -2.4364 -1.5428
 9456SOL    HW239831   3.304   4.670  15.818 -0.2638  1.1138 -1.7129
 9457SOL     OW39832   2.559   3.914   7.088  0.4025  0.3469  0.1210
 9457SOL    HW139833   2.583   3.916   6.996 -1.6565 -1.1408 -0.4512
 9457SOL    HW239834   2.603   3.833   7.114 -2.7528 -0.1955  3.8408
 9458SOL     OW39835   2.262   2.278   7.687 -0.4035  0.3432 -0.1344
 9458SOL    HW139836   2.337   2.334   7.705  1.7167 -2.0322 -1.6384
 9458SOL    HW239837   2.219   2.293   7.772  0.5003  0.2997  0.3324
 9459SOL     OW39838   0.734   1.995   4.645  0.5293  0.3512 -0.7952
 9459SOL    HW139839   0.701   2.065   4.702 -1.0352 -1.2967  0.3375
 9459SOL    HW239840   0.829   2.002   4.645  0.6457 -1.1257 -0.2042
 9460SOL     OW39841   0.905   1.397   2.685  0.8209  0.5351  0.5391
 9460SOL    HW139842   0.857   1.421   2.605  2.0524  1.6905  0.1500
 9460SOL    HW239843   0.903   1.485   2.725  1.1157  0.5426  0.5365
 9461SOL     OW39844   2.834   0.033  10.472  0.5059  0.5721 -0.6848
 9461SOL    HW139845   2.788   0.028  10.556 -0.2743 -0.3877 -1.1785
 9461SOL    HW239846   2.887   4.678  10.469  1.1042  0.7764  3.3924
 9462SOL     OW39847   1.509   2.973   6.839  0.4252  0.4711  0.1261
 9462SOL    HW139848   1.435   2.913   6.850  1.4393 -0.9212 -0.6595
 9462SOL    HW239849   1.490   3.022   6.759 -0.1365 -0.2918 -0.2171
 9463SOL     OW39850   2.388   2.798   7.084 -0.4218 -0.1206  0.0499
 9463SOL    HW139851   2.414   2.849   7.007  0.0066 -0.1276  0.1923
 9463SOL    HW239852   2.424   2.854   7.153  1.0854  2.0460 -2.4684
 9464SOL     OW39853   3.767   0.783  10.763  0.1434  0.2723 -0.1148
 9464SOL    HW139854   3.844   0.792  10.707 -0.1922  2.0032 -0.2772
 9464SOL    HW239855   3.734   0.698  10.733 -0.3218  0.5623 -0.4211
 9465SOL     OW39856   2.788   4.438   4.414  0.3895  0.2118  0.0298
 9465SOL    HW139857   2.738   4.431   4.333 -1.2517 -0.4651  1.0980
 9465SOL    HW239858   2.790   4.534   4.422 -1.3340  0.3119 -0.6128
 9466SOL     OW39859   2.895   3.022   7.886 -0.1496 -0.4499  0.1971
 9466SOL    HW139860   2.818   3.051   7.936 -0.5179 -2.9293  1.0907
 9466SOL    HW239861   2.947   2.977   7.953 -2.2886 -0.8649  1.5813
 9467SOL     OW39862   2.585   2.303   3.961  0.0156 -0.2144 -0.1116
 9467SOL    HW139863   2.541   2.277   4.042 -1.1066  1.2531 -0.2511
 9467SOL    HW239864   2.546   2.242   3.899 -0.6580 -0.2133  0.3135
 9468SOL     OW39865   0.622   4.721   8.494 -0.3465  0.1041  0.0663
 9468SOL    HW139866   0.695   4.685   8.443  0.1369 -0.7273  1.3444
 9468SOL    HW239867   0.606   4.635   8.533  0.6074  1.4492  3.4255
 9469SOL     OW39868   4.338   1.049  15.160 -0.1089  0.1503 -0.1234
 9469SOL    HW139869   4.394   1.084  15.091 -0.6591 -0.3344 -0.8076
 9469SOL    HW239870   4.254   1.069  15.119 -0.2613  1.2602  0.7169
 9470SOL     OW39871   1.632   4.134  12.757 -0.0178 -0.1067  0.5285
 9470SOL    HW139872   1.597   4.098  12.676  0.9230  0.8701 -0.3078
 9470SOL    HW239873   1.707   4.188  12.733 -0.7789  0.9424  0.5109
 9471SOL     OW39874   3.284   2.269   2.524  0.0033 -0.6795  0.0406
 9471SOL    HW139875   3.226   2.318   2.582 -1.3110 -1.8772 -0.2712
 9471SOL    HW239876   3.233   2.225   2.456 -0.4147 -0.2524  0.0829
 9472SOL     OW39877   1.070   2.522  14.049  0.3449 -0.4217 -0.2118
 9472SOL    HW139878   1.061   2.608  14.091  1.2228 -0.8287  0.8051
 9472SOL    HW239879   1.115   2.469  14.115 -1.6474 -1.0584  0.6647
 9473SOL     OW39880   0.990   3.934   3.663 -0.2756 -0.5590  0.8888
 9473SOL    HW139881   1.017   3.889   3.583 -0.1354  1.6426 -0.2900
 9473SOL    HW239882   1.069   3.947   3.715  0.3276 -0.6001 -0.0247
 9474SOL     OW39883   1.705   2.072  14.767 -0.2312 -0.3293  0.4833
 9474SOL    HW139884   1.668   2.005  14.708 -1.2410 -1.6522  2.6348
 9474SOL    HW239885   1.676   2.032  14.849 -0.0021 -2.1151 -0.3060
 9475SOL     OW39886   0.159   2.450   0.486 -0.6341  0.7111  0.2570
 9475SOL    HW139887   0.252   2.427   0.496 -1.1279 -1.3670  0.0860
 9475SOL    HW239888   0.126   2.425   0.399 -1.2280  0.6752  0.4983
 9476SOL     OW39889   0.179   2.043   3.454  0.0022  0.4375  0.0656
 9476SOL    HW139890   0.227   1.968   3.488  0.5517  1.6263  1.8827
 9476SOL    HW239891   0.196   2.102   3.527 -2.8430  0.7138  0.5047
 9477SOL     OW39892   2.809   3.859  10.069  0.1993  0.6908 -0.0153
 9477SOL    HW139893   2.892   3.831  10.108 -0.4731  0.3334  1.1375
 9477SOL    HW239894   2.754   3.793  10.110  1.3328 -0.2191  0.0586
 9478SOL     OW39895   1.146   0.101  10.803 -0.0449 -0.4171  0.4170
 9478SOL    HW139896   1.158   0.127  10.895  1.8049 -1.4978  0.4809
 9478SOL    HW239897   1.221   0.044  10.787  1.6053  1.2500  2.1412
 9479SOL     OW39898   4.312   3.913   9.681  0.2213 -0.1338 -0.2952
 9479SOL    HW139899   4.358   3.887   9.760  1.0105 -1.0271 -1.0549
 9479SOL    HW239900   4.295   3.827   9.643 -0.1874 -1.0370  1.9788
 9480SOL     OW39901   1.073   1.869  10.897 -0.6829  0.8839 -0.5478
 9480SOL    HW139902   1.101   1.798  10.839 -1.0947 -1.2732  1.8714
 9480SOL    HW239903   1.124   1.940  10.859  0.4846  0.7137  0.6846
 9481SOL     OW39904   2.155   2.458  11.031  0.2044 -0.4015  0.5867
 9481SOL    HW139905   2.234   2.457  11.084 -0.4876  1.0573  1.6212
 9481SOL    HW239906   2.110   2.534  11.067 -2.1328 -1.0464 -0.8910
 9482SOL     OW39907   4.457   3.922   7.498  0.6901 -0.2994  0.1442
 9482SOL    HW139908   4.494   3.866   7.430  0.7238 -1.9504  1.5014
 9482SOL    HW239909   4.363   3.915   7.486  0.6534  0.3925  0.0661
 9483SOL     OW39910   0.859   4.596   2.926 -0.2233  0.2063 -0.2959
 9483SOL    HW139911   0.921   4.668   2.924  1.1609 -1.0475 -1.7710
 9483SOL    HW239912   0.786   4.642   2.886 -0.6842 -0.5903 -0.3855
 9484SOL     OW39913   1.203   1.358   8.214 -0.0829 -0.1401  0.4010
 9484SOL    HW139914   1.187   1.434   8.157  2.1470 -0.2896 -0.4152
 9484SOL    HW239915   1.118   1.327   8.243 -1.3617  0.9712 -2.0742
 9485SOL     OW39916   0.739   4.188   4.411 -0.4178  0.3373 -0.0084
 9485SOL    HW139917   0.801   4.169   4.480  1.1322  0.0565 -1.4730
 9485SOL    HW239918   0.772   4.136   4.337  0.0108 -1.3203  1.3473
 9486SOL     OW39919   1.430   2.032  17.660  0.3891 -0.9019 -0.5304
 9486SOL    HW139920   1.413   2.110  17.607  2.0156  1.5312  2.5566
 9486SOL    HW239921   1.343   2.016  17.697  1.2947 -1.7525  1.2378
 9487SOL     OW39922   4.199   4.375  15.360 -0.0980 -0.2418 -0.3542
 9487SOL    HW139923   4.199   4.442  15.292  2.3220  0.7791  0.6398
 9487SOL    HW239924   4.278   4.397  15.410  0.1432 -0.4826 -0.6310
 9488SOL     OW39925   1.435   0.174   4.871  0.0662  0.4555 -0.1673
 9488SOL    HW139926   1.478   0.220   4.799  0.1457  2.5318  1.1835
 9488SOL    HW239927   1.444   0.082   4.849 -0.4539  0.2341  0.5237
 9489SOL     OW39928   4.545   0.639   6.435 -0.5344 -0.0924  0.3627
 9489SOL    HW139929   4.467   0.658   6.487 -2.2404  1.0465 -2.6265
 9489SOL    HW239930   4.501   0.649   6.351 -2.5310 -1.7882  1.2220
 9490SOL     OW39931   2.852   3.798   8.803 -0.1041  0.3216 -0.3190
 9490SOL    HW139932   2.876   3.878   8.850 -1.3679  1.1284 -1.0409
 9490SOL    HW239933   2.896   3.814   8.720 -0.9620 -0.2215 -0.8733
 9491SOL     OW39934   3.824   4.599   9.947  0.2409  0.3818  0.2690
 9491SOL    HW139935   3.803   4.556  10.030  2.6729 -3.8508 -1.3193
 9491SOL    HW239936   3.814   4.528   9.883  1.0777  0.7506 -0.2654
 9492SOL     OW39937   2.348   1.300   9.231  0.1043 -0.4123  0.3844
 9492SOL    HW139938   2.302   1.219   9.208  0.8730 -0.7521  0.0413
 9492SOL    HW239939   2.298   1.339   9.302 -1.0563 -0.2049 -0.5432
 9493SOL     OW39940   3.870   0.102   0.365  0.0953  0.3499 -0.3093
 9493SOL    HW139941   3.798   0.135   0.312 -0.6835  1.0840  1.2117
 9493SOL    HW239942   3.830   0.089   0.451 -0.3912  0.0075 -0.5937
 9494SOL     OW39943   3.493   3.999   5.090 -0.5792  0.2347  0.2968
 9494SOL    HW139944   3.447   4.049   5.023 -0.6963  0.1035  0.2816
 9494SOL    HW239945   3.539   4.073   5.131  0.6497 -0.0186 -0.6079
 9495SOL     OW39946   1.316   2.763  17.113 -0.1233 -0.3115  0.5103
 9495SOL    HW139947   1.383   2.830  17.122 -0.1089 -0.0478 -1.6018
 9495SOL    HW239948   1.374   2.687  17.100  1.5084  1.0262  0.0042
 9496SOL     OW39949   2.642   0.518  12.585  0.1374 -0.4114 -0.3292
 9496SOL    HW139950   2.735   0.542  12.584  0.4048 -1.4962 -1.1365
 9496SOL    HW239951   2.635   0.493  12.493  0.2738  0.7027 -0.6434
 9497SOL     OW39952   1.255   3.005   4.403 -0.3656  0.0726 -0.0549
 9497SOL    HW139953   1.161   3.020   4.389 -0.5466  2.3688  3.6438
 9497SOL    HW239954   1.286   3.090   4.433  0.5169  0.0294 -0.8397
 9498SOL     OW39955   4.467   0.467   1.478  0.1745  0.3669  0.1108
 9498SOL    HW139956   4.535   0.420   1.526  0.5160  1.3621  0.6094
 9498SOL    HW239957   4.523   0.527   1.429  0.6424 -0.1751 -0.0223
 9499SOL     OW39958   4.349   1.473   8.028 -0.1636 -0.1187  0.0750
 9499SOL    HW139959   4.343   1.553   8.080 -0.7800 -0.1155 -0.0063
 9499SOL    HW239960   4.417   1.497   7.966 -0.9214 -2.3144 -1.6242
 9500SOL     OW39961   1.682   2.123   4.770  0.1562 -0.2668  0.2542
 9500SOL    HW139962   1.767   2.150   4.735  0.0702  1.5303  1.4295
 9500SOL    HW239963   1.630   2.202   4.786  1.8847  1.0675 -0.8217
 9501SOL     OW39964   2.612   4.368   8.926  0.3189  0.5470  0.1960
 9501SOL    HW139965   2.666   4.404   8.997  0.8777 -2.4532  1.2738
 9501SOL    HW239966   2.591   4.450   8.882 -0.1040 -0.0328 -0.6692
 9502SOL     OW39967   4.083   3.430   1.285 -0.0663  0.3118  0.0302
 9502SOL    HW139968   4.035   3.424   1.202 -1.7650  0.4611  1.0100
 9502SOL    HW239969   4.054   3.355   1.336 -0.5446  1.3115  1.2139
 9503SOL     OW39970   4.216   1.431   1.680  0.1240 -0.1450  0.2427
 9503SOL    HW139971   4.176   1.428   1.593  0.2692  0.7513  0.1376
 9503SOL    HW239972   4.250   1.520   1.685  0.0854 -0.1280  0.2063
 9504SOL     OW39973   0.956   2.748   6.464  0.1320 -0.2931  0.4714
 9504SOL    HW139974   0.981   2.665   6.422 -0.8266  0.1330 -0.9464
 9504SOL    HW239975   0.933   2.800   6.387  1.9719 -0.5959 -0.2791
 9505SOL     OW39976   1.825   3.604  14.539  0.2075 -0.0039 -0.5457
 9505SOL    HW139977   1.812   3.648  14.455 -0.1601 -0.4116 -0.6974
 9505SOL    HW239978   1.914   3.635  14.557 -0.3009  1.1663  0.0036
 9506SOL     OW39979   0.523   1.886   8.673 -0.8447 -0.9808 -1.2887
 9506SOL    HW139980   0.443   1.929   8.704 -0.5286 -2.0273  0.9745
 9506SOL    HW239981   0.482   1.826   8.611 -0.0868 -2.6969 -0.1374
 9507SOL     OW39982   1.778   0.039   7.898  0.4658 -0.2141 -0.0090
 9507SOL    HW139983   1.814   4.710   7.968  0.2427 -1.1309 -0.5954
 9507SOL    HW239984   1.824   0.121   7.915 -0.5817  0.3149  0.2678
 9508SOL     OW39985   3.935   2.236  10.165 -0.0537 -0.6566 -0.3119
 9508SOL    HW139986   3.873   2.193  10.223  1.8914 -0.5591  1.8665
 9508SOL    HW239987   3.983   2.274  10.239  0.2068  0.3377 -0.9806
 9509SOL     OW39988   0.469   3.495   7.378  0.0812 -0.2786  0.3776
 9509SOL    HW139989   0.472   3.509   7.283  4.4104 -1.7555  0.3218
 9509SOL    HW239990   0.521   3.570   7.407  0.8080 -0.7275  0.2189
 9510SOL     OW39991   2.196   4.493   2.854  0.0122 -0.2786  0.3509
 9510SOL    HW139992   2.234   4.443   2.782 -1.1596 -0.8154  0.1094
 9510SOL    HW239993   2.106   4.460   2.848 -0.0787 -0.2691  1.7388
 9511SOL     OW39994   0.287   1.455  10.591 -0.3768 -0.1319  0.1666
 9511SOL    HW139995   0.296   1.548  10.613  0.9101 -0.9418  2.9824
 9511SOL    HW239996   0.196   1.450  10.563  0.2083 -1.6819 -1.4892
 9512SOL     OW39997   1.508   0.306   6.751 -0.2628 -0.0505  0.4677
 9512SOL    HW139998   1.458   0.388   6.745 -3.7009 -2.1613  0.1509
 9512SOL    HW239999   1.443   0.267   6.692 -0.6678  1.4139 -0.0430
 9513SOL     OW40000   0.823   0.775  15.555  0.3354  0.8222 -0.5060
 9513SOL    HW140001   0.856   0.761  15.644 -2.0350 -0.8160  0.1217
 9513SOL    HW240002   0.907   0.786  15.511  1.2672  0.7659  1.2579
 9514SOL     OW40003   0.457   0.851   6.126 -0.3736 -0.3910  0.2926
 9514SOL    HW140004   0.379   0.813   6.166  0.8728 -1.5619  1.6173
 9514SOL    HW240005   0.420   0.931   6.090 -1.2520 -0.5388  0.8651
 9515SOL     OW40006   2.746   1.206   5.210  0.9238  0.0545  0.0106
 9515SOL    HW140007   2.776   1.171   5.294 -0.1635 -1.5720 -0.2839
 9515SOL    HW240008   2.705   1.123   5.185  2.3698 -1.1095  1.4970
 9516SOL     OW40009   1.877   1.535   8.780 -0.2772 -0.6085 -0.0434
 9516SOL    HW140010   1.836   1.548   8.695  1.0265 -2.3792 -0.9433
 9516SOL    HW240011   1.836   1.454   8.810  0.1999 -0.5849  0.6629
 9517SOL     OW40012   0.052   0.040  13.129 -0.2116  0.6907  0.8887
 9517SOL    HW140013   0.080   4.702  13.196  0.9778  0.1091 -0.1411
 9517SOL    HW240014   4.686   0.033  13.157 -0.2890  1.3141  0.7941
 9518SOL     OW40015   3.256   3.652   3.320  0.1436 -0.4569 -0.2724
 9518SOL    HW140016   3.288   3.612   3.239 -0.0826 -0.5962 -0.2904
 9518SOL    HW240017   3.327   3.711   3.348 -0.2492 -0.7379  1.2799
 9519SOL     OW40018   1.061   1.328   3.667  0.0221  0.2774 -0.1859
 9519SOL    HW140019   1.121   1.285   3.608  0.7992  2.0916 -0.7212
 9519SOL    HW240020   1.054   1.256   3.730 -1.4663  0.2146 -0.4140
 9520SOL     OW40021   3.786   4.465   7.624 -0.7546 -0.5794 -0.2429
 9520SOL    HW140022   3.880   4.453   7.609 -0.8375  0.2228 -1.3685
 9520SOL    HW240023   3.792   4.529   7.694  0.6703 -1.7812  0.7247
 9521SOL     OW40024   2.786   2.356   6.106 -0.6516  0.9698  0.3288
 9521SOL    HW140025   2.705   2.315   6.137  0.1595 -1.4677 -0.7488
 9521SOL    HW240026   2.762   2.445   6.131  0.5677  1.3213  0.2166
 9522SOL     OW40027   2.515   1.321   8.793 -0.2009  0.0689  0.2040
 9522SOL    HW140028   2.447   1.388   8.787  0.1935  0.5869  1.5127
 9522SOL    HW240029   2.529   1.321   8.888 -1.7098 -0.0573  0.4251
 9523SOL     OW40030   3.495   3.535   4.483  0.2895  0.2379  0.1252
 9523SOL    HW140031   3.517   3.520   4.575  0.8976 -1.9986 -0.3851
 9523SOL    HW240032   3.402   3.555   4.489  0.2688 -0.0763  0.9051
 9524SOL     OW40033   3.833   1.227   8.427  0.3744 -0.4708  0.2196
 9524SOL    HW140034   3.916   1.228   8.475  1.6423 -0.5587 -1.9792
 9524SOL    HW240035   3.768   1.171   8.469  0.5362  0.3462  1.5707
 9525SOL     OW40036   2.960   2.867   8.868 -0.4196 -0.3969 -0.5136
 9525SOL    HW140037   2.966   2.807   8.794 -0.7188  1.0935 -1.7258
 9525SOL    HW240038   2.868   2.892   8.865 -0.1593  0.7825  1.2710
 9526SOL     OW40039   2.974   2.803   5.581  0.3094  0.2011  0.0809
 9526SOL    HW140040   2.893   2.800   5.632  0.3474 -2.5482 -0.0199
 9526SOL    HW240041   2.995   2.895   5.591  0.5158  0.2988 -1.2833
 9527SOL     OW40042   1.055   3.987  13.042 -0.0991  0.3331  0.8061
 9527SOL    HW140043   0.976   3.980  12.988  0.7922 -1.7132 -0.2445
 9527SOL    HW240044   1.114   4.035  12.983 -1.3083 -1.6334 -1.9796
 9528SOL     OW40045   1.278   4.142   1.481 -0.8294 -0.1886  0.0959
 9528SOL    HW140046   1.344   4.127   1.414 -2.0264 -0.5557 -0.9938
 9528SOL    HW240047   1.274   4.236   1.463 -2.0364 -0.3588 -0.5265
 9529SOL     OW40048   0.997   3.540   4.860  0.0133 -0.0833  0.0793
 9529SOL    HW140049   1.026   3.546   4.950  0.1980 -1.4155  0.1106
 9529SOL    HW240050   0.951   3.623   4.853  0.1706  0.0801  1.0631
 9530SOL     OW40051   3.902   1.624   8.690  0.5589  0.2364 -0.1858
 9530SOL    HW140052   3.833   1.598   8.629 -1.2594  3.5837  0.4850
 9530SOL    HW240053   3.851   1.645   8.768 -1.1201  0.4565 -1.3479
 9531SOL     OW40054   4.520   4.195   7.519  0.0141  0.7283  0.7181
 9531SOL    HW140055   4.458   4.225   7.585 -2.4837 -0.5372 -1.0910
 9531SOL    HW240056   4.492   4.103   7.511  1.8860  0.2815 -0.5988
 9532SOL     OW40057   3.420   3.744   5.147  0.2378 -0.0718 -0.0628
 9532SOL    HW140058   3.428   3.835   5.121 -2.9183  0.5988  1.3403
 9532SOL    HW240059   3.334   3.723   5.110  0.6553  2.0351 -2.2000
 9533SOL     OW40060   1.170   2.794  11.567  0.1881  0.5034 -0.1067
 9533SOL    HW140061   1.087   2.842  11.558 -1.4775 -2.8265 -2.4330
 9533SOL    HW240062   1.154   2.749  11.650 -1.0091  1.1847  0.0351
 9534SOL     OW40063   3.851   1.513  11.173 -0.3503  0.1508 -0.3295
 9534SOL    HW140064   3.943   1.537  11.184 -0.9416  2.3083 -0.0032
 9534SOL    HW240065   3.822   1.594  11.130 -1.1209  0.4914  0.8345
 9535SOL     OW40066   4.580   1.960   3.001  0.3432  0.0067  0.4989
 9535SOL    HW140067   4.671   1.984   2.982  0.3817 -1.3181 -1.0156
 9535SOL    HW240068   4.596   1.900   3.074  0.5870  1.5407  1.7142
 9536SOL     OW40069   4.395   3.850   6.316  0.0464 -0.4660 -0.1633
 9536SOL    HW140070   4.393   3.931   6.367  0.1531 -0.7248  0.2516
 9536SOL    HW240071   4.334   3.798   6.369  0.4790 -0.2897  0.5173
 9537SOL     OW40072   3.719   3.634  15.119  0.2504 -0.5446 -0.5106
 9537SOL    HW140073   3.696   3.713  15.069 -1.4455 -0.5640  0.2494
 9537SOL    HW240074   3.793   3.671  15.168 -2.0205  1.5137  1.3825
 9538SOL     OW40075   4.019   3.724   3.476 -0.0554  0.1653 -0.3109
 9538SOL    HW140076   4.043   3.693   3.389  1.0812  0.5435 -0.1314
 9538SOL    HW240077   4.074   3.801   3.488 -1.1502  1.2255 -2.2270
 9539SOL     OW40078   2.569   4.065   8.402 -0.4508  0.0673  0.2961
 9539SOL    HW140079   2.607   4.007   8.335 -1.5391 -1.9630  1.4671
 9539SOL    HW240080   2.622   4.033   8.475  1.7257  1.4754 -0.6546
 9540SOL     OW40081   3.431   0.092   8.992 -0.2748 -0.3943 -0.2638
 9540SOL    HW140082   3.486   0.050   8.925 -0.7268  0.4837 -1.1908
 9540SOL    HW240083   3.345   0.100   8.952  0.8075 -1.7101 -2.8524
 9541SOL     OW40084   2.870   4.152   4.919 -0.1368  0.6842 -0.6479
 9541SOL    HW140085   2.810   4.139   4.993  0.2943 -4.3439 -1.1461
 9541SOL    HW240086   2.811   4.126   4.848 -0.0678  0.0885 -0.4885
 9542SOL     OW40087   0.470   1.453   6.787  0.4415 -0.2390 -0.4099
 9542SOL    HW140088   0.384   1.428   6.822  0.1094  0.6240 -0.6159
 9542SOL    HW240089   0.517   1.378   6.823  1.2725 -0.2378 -1.5152
 9543SOL     OW40090   2.672   2.658   5.512  0.0198 -0.5351  0.1679
 9543SOL    HW140091   2.719   2.690   5.435  0.2476  0.4046  0.6974
 9543SOL    HW240092   2.590   2.702   5.489 -0.6059 -2.1886 -0.7261
 9544SOL     OW40093   1.741   4.561   1.288 -0.1092 -0.7234 -0.0496
 9544SOL    HW140094   1.702   4.642   1.320 -0.8187 -0.0374 -2.6807
 9544SOL    HW240095   1.834   4.581   1.293  0.3243 -2.4607 -1.0863
 9545SOL     OW40096   3.240   2.260   4.802  0.2238  0.0446 -0.1364
 9545SOL    HW140097   3.194   2.286   4.882  0.6946 -0.2043  0.2109
 9545SOL    HW240098   3.193   2.323   4.748 -0.4383  0.0050  0.3873
 9546SOL     OW40099   3.456   0.514   7.808  0.2087 -0.4621  0.4597
 9546SOL    HW140100   3.502   0.593   7.780  1.5978 -0.6933  2.0959
 9546SOL    HW240101   3.445   0.456   7.732  0.5088 -0.6802  0.5856
 9547SOL     OW40102   4.112   4.414   5.565 -0.4899 -0.2066 -0.0833
 9547SOL    HW140103   4.155   4.495   5.537  0.1895 -0.3034  0.6801
 9547SOL    HW240104   4.113   4.435   5.658 -0.0518 -1.5607  0.2136
 9548SOL     OW40105   0.803   2.889   8.647  0.3966  0.1398  0.0623
 9548SOL    HW140106   0.890   2.903   8.611  0.4834 -1.6050 -0.3971
 9548SOL    HW240107   0.742   2.854   8.582  1.0479 -0.4635 -0.2280
 9549SOL     OW40108   0.261   1.466   8.096  0.3180 -0.0689 -0.3058
 9549SOL    HW140109   0.232   1.557   8.084 -0.3066  0.1718  3.2703
 9549SOL    HW240110   0.344   1.479   8.142  0.2146  0.8284 -0.3781
 9550SOL     OW40111   0.716   3.933  10.903 -0.4975 -0.0486 -0.6254
 9550SOL    HW140112   0.699   3.931  10.809 -2.2753  0.8071 -0.3188
 9550SOL    HW240113   0.750   3.847  10.928  1.7250  0.7947 -0.7317
 9551SOL     OW40114   0.315   2.974   6.125 -0.3748 -0.7401  0.2911
 9551SOL    HW140115   0.291   2.942   6.213  0.8568 -0.8478  0.5787
 9551SOL    HW240116   0.348   3.057   6.158 -0.8050 -0.8262  0.9500
 9552SOL     OW40117   4.126   4.552   7.915 -0.0953 -0.5294 -0.2218
 9552SOL    HW140118   4.193   4.612   7.882 -0.4034 -0.0403  0.0587
 9552SOL    HW240119   4.147   4.539   8.007  0.6666 -0.7603 -0.4212
 9553SOL     OW40120   4.657   2.678   7.350 -0.2909 -0.3579 -0.5024
 9553SOL    HW140121   4.562   2.684   7.355 -0.2597 -1.2354  1.4677
 9553SOL    HW240122   4.665   2.767   7.384  1.0510 -0.7936  0.3477
 9554SOL     OW40123   0.576   3.901   4.987 -0.4420 -0.0281  0.6807
 9554SOL    HW140124   0.497   3.925   4.938  0.9974  3.1104 -0.1187
 9554SOL    HW240125   0.644   3.942   4.934 -0.1727  0.8492  1.7191
 9555SOL     OW40126   4.177   1.001   2.690 -0.3840 -0.4773  0.2176
 9555SOL    HW140127   4.095   0.986   2.738  0.6352  1.2734  2.4892
 9555SOL    HW240128   4.205   1.089   2.714 -0.8916 -0.1714 -0.2814
 9556SOL     OW40129   1.205   1.431   3.123  0.0231 -0.2141  0.0804
 9556SOL    HW140130   1.186   1.423   3.217 -3.1778  0.8143 -0.4766
 9556SOL    HW240131   1.157   1.358   3.086  2.1453 -1.8741  0.5603
 9557SOL     OW40132   1.993   3.261   0.211  0.2260 -0.4016  0.5999
 9557SOL    HW140133   2.085   3.245   0.193  0.5567  2.0400  0.0952
 9557SOL    HW240134   1.972   3.269   0.118 -1.9013  0.2395  1.1232
 9558SOL     OW40135   4.025   2.237  12.325  0.1705 -0.0994  0.7127
 9558SOL    HW140136   3.938   2.200  12.341  0.2402 -0.4833  0.2039
 9558SOL    HW240137   4.051   2.226  12.416  0.1509 -2.5886  0.4282
 9559SOL     OW40138   3.025   2.947  14.970 -0.1624  0.5464 -0.1449
 9559SOL    HW140139   3.024   3.015  15.038  2.1774  0.1685  0.2894
 9559SOL    HW240140   2.942   2.956  14.924 -0.7144 -2.6436  0.2174
 9560SOL     OW40141   2.878   0.399  11.688 -0.4922  0.5676  0.3706
 9560SOL    HW140142   2.826   0.465  11.733  1.3221  2.8468 -0.8838
 9560SOL    HW240143   2.814   0.357  11.630  0.2656 -2.1090  1.4690
 9561SOL     OW40144   1.305   0.466   9.095 -0.3816 -0.2903 -0.6622
 9561SOL    HW140145   1.278   0.513   9.174 -1.4501  0.1369 -1.2859
 9561SOL    HW240146   1.341   0.389   9.139  1.2309  0.2485 -1.0157
 9562SOL     OW40147   1.988   4.637   1.252 -0.3137  0.1805  0.2921
 9562SOL    HW140148   2.017   4.656   1.162  0.7356 -0.5992  0.4493
 9562SOL    HW240149   2.025   4.710   1.301  1.0234 -1.2859  1.4775
 9563SOL     OW40150   0.333   0.879   5.289 -0.5165  0.3334  0.2190
 9563SOL    HW140151   0.387   0.806   5.260  0.3853  1.5048 -1.0307
 9563SOL    HW240152   0.281   0.847   5.363 -1.8868  2.2074  0.0679
 9564SOL     OW40153   2.648   2.949   7.126 -0.0610  0.0969  0.2966
 9564SOL    HW140154   2.579   2.996   7.174 -1.4049 -1.0002 -0.5610
 9564SOL    HW240155   2.725   2.969   7.179 -0.9473  1.5979  1.0246
 9565SOL     OW40156   4.392   2.547   3.914  0.5533 -0.7986  0.2146
 9565SOL    HW140157   4.367   2.473   3.858  1.9353 -1.6206  0.7056
 9565SOL    HW240158   4.467   2.521   3.967  1.6562  3.8920  1.0188
 9566SOL     OW40159   0.883   4.242   1.370  0.2419 -0.3769 -0.0284
 9566SOL    HW140160   0.808   4.252   1.311  1.1078 -0.5086 -1.1377
 9566SOL    HW240161   0.892   4.147   1.363 -3.3122 -0.7296  0.0842
 9567SOL     OW40162   4.679   0.276   4.047  0.2563  0.4239 -0.0853
 9567SOL    HW140163   0.042   0.268   4.083 -0.3437  2.2563  1.7658
 9567SOL    HW240164   4.652   0.184   4.052  1.4262  0.0340 -0.9779
 9568SOL     OW40165   3.264   0.447   1.263 -0.1416 -0.3837  0.2919
 9568SOL    HW140166   3.203   0.373   1.269  1.2545 -1.5144  0.5303
 9568SOL    HW240167   3.292   0.422   1.175  1.8979  2.6274  0.0999
   4.72524   4.72524  17.70229
