Membrane in water
40167
    1TCq1    O1    1   0.625   4.450  11.014  0.3906 -0.7495 -0.0218
    1TCq1    C1    2   0.524   4.469  10.925  0.3818 -0.2628  0.8285
    1TCq1    O2    3   0.515   4.557  10.844 -0.4809 -0.2353  0.5582
    1TCq1    C2    4   0.461   4.340  10.905 -1.0995  0.4188 -0.6581
    1TCq1    C3    5   0.477   4.290  10.782 -0.3181 -0.3342  0.0766
    1TCq1    C4    6   0.449   4.159  10.767 -0.0472  0.0043  0.1133
    1TCq1    C5    7   0.409   4.074  10.866  0.2422 -0.2984  0.0140
    1TCq1    C6    8   0.399   4.135  10.987 -0.2300 -0.5206 -0.0583
    1TCq1    C7    9   0.422   4.268  11.012  0.1378 -0.4592 -0.1391
    1TCq1    C8   10   0.360   4.058  11.112 -0.3035  0.0232  0.3342
    1TCq1    O4   11   0.310   4.129  11.195 -0.4159 -0.3348 -0.2944
    1TCq1    C9   12   0.488   4.096  10.648  0.4595 -0.3108 -0.0316
    1TCq1    O5   13   0.465   3.973  10.629  0.0632 -0.3386  0.8541
    1TCq1    O6   14   0.529   4.174  10.561 -0.4577 -0.1367  0.2253
    1TCq1    H1   15   0.637   4.353  11.023 -0.0142 -1.1070 -3.3855
    1TCq1    H2   16   0.510   4.351  10.699  0.7786 -2.9396 -1.4162
    1TCq1    H3   17   0.398   3.968  10.848 -1.5780 -0.1005 -0.0165
    1TCq1    H4   18   0.424   4.309  11.112 -3.1203  1.9191 -1.0671
    2MPD2     C   19   0.403   3.655  11.414 -0.0883 -0.1572 -0.2138
    2MPD2    C1   20   0.354   3.784  11.442 -0.2338 -0.3202 -0.3389
    2MPD2    C2   21   0.350   3.874  11.340  0.1976 -0.0342 -0.1380
    2MPD2    C3   22   0.406   3.844  11.217 -0.3053  0.0042 -0.7315
    2MPD2    C4   23   0.452   3.718  11.196 -0.1990 -0.5572  0.1962
    2MPD2    C5   24   0.452   3.626  11.290  0.2326 -0.2494  0.3139
    2MPD2     H   25   0.323   3.978  11.356 -0.2681 -0.1597 -0.0964
    2MPD2    H1   26   0.494   3.688  11.100 -0.5728  1.5419 -0.6412
    2MPD2    H2   27   0.406   3.577  11.489  0.3488  2.7651  2.8124
    2MPD2    H3   28   0.468   3.521  11.267  0.5390  0.1244 -1.1967
    2MPD2     N   29   0.404   3.925  11.103  0.1482  0.1567 -0.0328
    2MPD2    H5   30   0.448   3.890  11.019 -0.8036 -3.6171  1.0624
    2MPD2    N1   31   0.298   3.816  11.563  0.1930  0.3038 -0.3931
    2MPD2    H7   32   0.249   3.905  11.570  0.2880  0.3852 -0.7828
    3TCq1    O1   33   0.573   0.595  10.683  0.0161 -0.2282 -0.1178
    3TCq1    C1   34   0.519   0.512  10.589  0.2474 -0.6470  0.5560
    3TCq1    O2   35   0.556   0.398  10.567 -0.3495  0.1689  0.3431
    3TCq1    C2   36   0.380   0.544  10.603 -0.4689  0.2216 -0.0468
    3TCq1    C3   37   0.331   0.661  10.550 -0.0290  0.2773  0.1179
    3TCq1    C4   38   0.195   0.682  10.540  0.2963  0.2681 -0.6215
    3TCq1    C5   39   0.109   0.577  10.561  0.6147  0.3567 -0.0808
    3TCq1    C6   40   0.159   0.458  10.600  0.8471 -0.0267  0.6322
    3TCq1    C7   41   0.294   0.434  10.619  0.3532 -0.3472 -0.3285
    3TCq1    C8   42   0.078   0.345  10.639  0.6495  0.2348  0.2611
    3TCq1    O4   43   0.115   0.235  10.601  0.0289 -0.1517  0.4014
    3TCq1    C9   44   0.133   0.808  10.511 -1.1748  0.1136  0.6324
    3TCq1    O5   45   0.198   0.902  10.451 -0.0621 -0.6468 -0.0509
    3TCq1    O6   46   0.017   0.813  10.563 -0.5497  0.0947 -0.7470
    3TCq1    H1   47   0.524   0.679  10.687  1.4635  0.7072 -1.6942
    3TCq1    H2   48   0.404   0.738  10.526  3.0404 -2.4290  0.8769
    3TCq1    H3   49   0.001   0.589  10.555  0.1887 -2.7667  0.8565
    3TCq1    H4   50   0.326   0.332  10.635 -3.7578 -1.1760  2.5403
    4MPD2     C   51   4.404   0.148  10.917 -0.3813 -1.1458 -0.0704
    4MPD2    C1   52   4.407   0.281  10.943  0.3346 -0.0404 -0.0498
    4MPD2    C2   53   4.507   0.356  10.884  0.5959 -0.6952  0.5639
    4MPD2    C3   54   4.601   0.300  10.801 -0.0007  0.4087  0.2562
    4MPD2    C4   55   4.602   0.164  10.789  0.5259  0.4285 -1.1065
    4MPD2    C5   56   4.506   0.090  10.845 -0.1820  0.3886 -0.1994
    4MPD2     H   57   4.496   0.461  10.910 -2.2165 -1.0584  0.8449
    4MPD2    H1   58   4.665   0.111  10.719 -1.2358  0.0481 -2.4169
    4MPD2    H2   59   4.317   0.088  10.943 -0.9575 -0.2364  0.1016
    4MPD2    H3   60   4.500   4.708  10.829  1.1232  0.3534 -0.4406
    4MPD2     N   61   4.702   0.383  10.730  0.1373  0.0611 -0.4252
    4MPD2    H5   62   4.708   0.481  10.753 -0.8608 -0.2052  0.9475
    4MPD2    N1   63   4.322   0.351  11.026  0.1720  0.0322 -0.1167
    4MPD2    H7   64   4.325   0.452  11.037  0.7457 -0.1337  1.2409
    5TCq1    O1   65   1.462   1.716  12.373 -0.1156 -0.2383  0.4084
    5TCq1    C1   66   1.418   1.739  12.250 -0.3887  0.5270 -0.5059
    5TCq1    O2   67   1.469   1.702  12.145 -0.3357 -0.1799  0.0787
    5TCq1    C2   68   1.278   1.761  12.267 -0.5441 -0.3190  0.4336
    5TCq1    C3   69   1.237   1.839  12.369 -0.0156  0.4824 -0.3847
    5TCq1    C4   70   1.109   1.866  12.379  0.8119 -0.1473 -0.5988
    5TCq1    C5   71   1.015   1.812  12.301  0.4761 -0.0837  0.0109
    5TCq1    C6   72   1.063   1.746  12.187  0.0238  0.0172 -0.0466
    5TCq1    C7   73   1.197   1.724  12.168 -0.4733  0.0752 -0.5095
    5TCq1    C8   74   0.971   1.699  12.082  0.6830  0.3950 -0.1028
    5TCq1    O4   75   1.018   1.633  11.988  0.3399  0.9922 -0.3957
    5TCq1    C9   76   1.061   1.930  12.495 -0.0404  0.0210 -0.5256
    5TCq1    O5   77   1.139   1.948  12.592 -0.0624  0.1409  0.1216
    5TCq1    O6   78   0.938   1.962  12.496 -0.0971 -0.2807  0.3547
    5TCq1    H1   79   1.386   1.702  12.433  0.2277 -1.6523  0.5065
    5TCq1    H2   80   1.300   1.885  12.444 -2.1519  0.7549  1.2446
    5TCq1    H3   81   0.908   1.823  12.315  0.9865  2.8072  1.5951
    5TCq1    H4   82   1.244   1.674  12.083 -0.2493 -0.7007  0.0677
    6MPD2     C   83   0.618   1.767  12.080  0.4075  0.0598 -0.5848
    6MPD2    C1   84   0.733   1.713  12.025  0.1945 -0.2452 -0.4733
    6MPD2    C2   85   0.730   1.620  11.920  0.0510  0.0393  0.6333
    6MPD2    C3   86   0.604   1.582  11.876 -0.4078 -0.1020 -0.3521
    6MPD2    C4   87   0.492   1.647  11.917 -0.0611 -0.0549 -0.1169
    6MPD2    C5   88   0.497   1.737  12.023 -0.0845 -0.2663 -0.6034
    6MPD2     H   89   0.820   1.574  11.881 -0.5908 -1.0411  0.4328
    6MPD2    H1   90   0.395   1.632  11.870 -0.2292  1.3074 -0.2093
    6MPD2    H2   91   0.619   1.823  12.173  0.4107  1.6746 -1.5546
    6MPD2    H3   92   0.408   1.769  12.075  0.0606 -1.6860  0.5282
    6MPD2     N   93   0.608   1.480  11.778  0.4129  0.3239 -0.2301
    6MPD2    H5   94   0.698   1.444  11.749  0.6467 -0.6863  1.7491
    6MPD2    N1   95   0.847   1.752  12.094 -0.2460  0.0193  0.3128
    6MPD2    H7   96   0.838   1.827  12.161  1.1607  0.5741 -0.1261
    7TCq1    O1   97   2.263   0.794  12.850 -0.1992 -0.1296  0.5874
    7TCq1    C1   98   2.273   0.766  12.982 -0.8328  1.0845 -0.2823
    7TCq1    O2   99   2.258   0.659  13.037 -0.0603 -0.1640  0.3006
    7TCq1    C2  100   2.252   0.884  13.061 -0.4687 -0.1330  0.0983
    7TCq1    C3  101   2.236   1.007  13.003 -0.0748 -0.0318  0.0882
    7TCq1    C4  102   2.250   1.113  13.078  0.8400 -0.3882 -1.0087
    7TCq1    C5  103   2.293   1.107  13.208 -0.1395  0.5283  0.2838
    7TCq1    C6  104   2.316   0.988  13.262  0.9796  0.6256 -0.2018
    7TCq1    C7  105   2.286   0.877  13.192  0.6472 -0.4655  0.0525
    7TCq1    C8  106   2.372   0.977  13.403 -0.1003 -0.3924 -0.0669
    7TCq1    O4  107   2.417   0.869  13.433  0.2293  0.2180 -0.0384
    7TCq1    C9  108   2.249   1.251  13.014 -0.1546 -0.9167 -0.4055
    7TCq1    O5  109   2.252   1.252  12.887  0.1005 -0.3065 -0.1044
    7TCq1    O6  110   2.279   1.352  13.077  0.9345  0.4931 -0.5214
    7TCq1    H1  111   2.291   0.884  12.821 -0.5724 -0.2621 -0.1903
    7TCq1    H2  112   2.211   1.013  12.898  0.5873 -1.3800 -0.1503
    7TCq1    H3  113   2.316   1.197  13.264  2.1957 -0.7059  1.3027
    7TCq1    H4  114   2.312   0.777  13.224  1.6300 -0.1089  0.3728
    8MPD2     C  115   2.499   1.157  13.869  0.3770 -0.1978 -0.0095
    8MPD2    C1  116   2.526   1.033  13.812 -0.6487 -0.0840  0.2386
    8MPD2    C2  117   2.480   1.007  13.683  0.7388 -0.0433  0.4605
    8MPD2    C3  118   2.420   1.105  13.607  1.0265 -0.2594  0.1782
    8MPD2    C4  119   2.402   1.226  13.663 -0.2647 -0.4290  0.4999
    8MPD2    C5  120   2.437   1.257  13.792  0.1241 -0.1513  0.1777
    8MPD2     H  121   2.495   0.904  13.651  0.7130  0.3648 -0.8467
    8MPD2    H1  122   2.344   1.300  13.610 -1.0167 -0.4817  1.2458
    8MPD2    H2  123   2.518   1.187  13.972 -1.0541 -1.5029  0.6397
    8MPD2    H3  124   2.418   1.353  13.838  1.9453 -0.6689  1.9891
    8MPD2     N  125   2.365   1.093  13.477 -1.1646 -0.5726  0.1192
    8MPD2    H5  126   2.345   1.183  13.436  2.1872  0.0187 -0.2491
    8MPD2    N1  127   2.591   0.946  13.893 -0.1871  0.2604  0.3698
    8MPD2    H7  128   2.620   0.988  13.980 -0.7763 -0.6482  0.9985
    9TCq1    O1  129   1.206   4.274  10.758  0.0333 -0.1156 -0.5362
    9TCq1    C1  130   1.178   4.335  10.870  0.0642  0.0228 -0.0688
    9TCq1    O2  131   1.217   4.308  10.981 -0.7174 -0.5266 -0.5163
    9TCq1    C2  132   1.063   4.423  10.853  0.1348 -0.8603 -0.1420
    9TCq1    C3  133   0.991   4.425  10.736 -0.7202  0.2159  0.0505
    9TCq1    C4  134   0.879   4.508  10.726 -0.0739  0.3063  0.1131
    9TCq1    C5  135   0.838   4.585  10.825  0.1703 -0.0482 -0.1405
    9TCq1    C6  136   0.913   4.577  10.938 -0.4920  0.0041 -0.5266
    9TCq1    C7  137   1.021   4.499  10.958  0.3269 -0.2897  0.0139
    9TCq1    C8  138   0.897   4.679  11.035  0.1321 -0.3995 -0.2000
    9TCq1    O4  139   0.993   0.005  11.093 -0.6417 -0.5008  0.1682
    9TCq1    C9  140   0.799   4.517  10.610 -1.3252 -0.7707  0.6377
    9TCq1    O5  141   0.696   4.591  10.618 -0.6189  0.1432  0.5106
    9TCq1    O6  142   0.846   4.485  10.493 -1.0238  0.2256 -0.4473
    9TCq1    H1  143   1.182   4.335  10.686 -2.6544 -2.0554 -1.2737
    9TCq1    H2  144   1.001   4.343  10.667  2.1737  1.2498 -0.7507
    9TCq1    H3  145   0.751   4.651  10.827  2.0849  2.5369 -2.0935
    9TCq1    H4  146   1.082   4.487  11.047 -0.7288 -1.1686  0.6206
   10MPD2     C  147   0.800   0.164  11.213 -0.4872 -0.7273  0.8310
   10MPD2    C1  148   0.719   0.061  11.168 -0.4177  0.4285  0.2707
   10MPD2    C2  149   0.592   0.047  11.233  0.3446 -0.1618  0.0073
   10MPD2    C3  150   0.557   0.137  11.337  0.1029  0.1801 -0.3867
   10MPD2    C4  151   0.651   0.225  11.378  0.0140 -0.1646  0.1909
   10MPD2    C5  152   0.770   0.244  11.318 -0.2683 -0.2416  0.3279
   10MPD2     H  153   0.529   4.691  11.198  0.2348 -0.1604  0.1987
   10MPD2    H1  154   0.632   0.295  11.458  0.4919 -0.1980  0.3318
   10MPD2    H2  155   0.891   0.199  11.166 -1.8568  1.2333 -0.3750
   10MPD2    H3  156   0.827   0.330  11.352  0.3906  0.2278 -1.9344
   10MPD2     N  157   0.432   0.131  11.405  0.5037 -0.2107 -0.2685
   10MPD2    H5  158   0.421   0.197  11.481 -0.6549 -0.5096 -0.1654
   10MPD2    N1  159   0.767   4.691  11.077  0.1088  0.0732 -0.5094
   10MPD2    H7  160   0.708   4.620  11.034  2.3689 -1.5775 -0.8719
   11TCq1    O1  161   1.126   0.387  14.061  0.7569  0.1700  0.1599
   11TCq1    C1  162   1.104   0.273  14.132 -0.1908 -0.4900  0.2608
   11TCq1    O2  163   1.082   0.162  14.082  0.0473  0.1868 -0.5202
   11TCq1    C2  164   1.054   0.314  14.259 -0.4679 -0.0052 -0.0817
   11TCq1    C3  165   1.107   0.430  14.313 -0.4514  0.1748  0.0123
   11TCq1    C4  166   1.033   0.493  14.404 -0.8383  0.0228  0.0749
   11TCq1    C5  167   0.910   0.450  14.446  0.7551 -0.1927  0.5103
   11TCq1    C6  168   0.857   0.346  14.373 -0.3311  0.3884 -0.2050
   11TCq1    C7  169   0.926   0.269  14.284  0.0319  0.4151 -0.1509
   11TCq1    C8  170   0.715   0.312  14.389 -0.4049  0.3791  0.7973
   11TCq1    O4  171   0.644   0.392  14.452 -0.2583 -0.1248 -0.2710
   11TCq1    C9  172   1.075   0.620  14.449 -0.4076  0.3456 -0.4312
   11TCq1    O5  173   1.005   0.688  14.526  0.1850 -0.0855 -0.3916
   11TCq1    O6  174   1.183   0.654  14.404  0.4047 -0.7488 -0.7567
   11TCq1    H1  175   1.082   0.463  14.105 -1.1950 -0.7594 -0.1718
   11TCq1    H2  176   1.207   0.462  14.288 -0.5782  0.6341  0.0996
   11TCq1    H3  177   0.847   0.518  14.501 -0.7610  0.9639 -2.6649
   11TCq1    H4  178   0.885   0.189  14.223  1.2341 -0.1021 -0.2736
   12MPD2     C  179   0.443   0.210  14.335  0.6936 -0.4177 -0.1281
   12MPD2    C1  180   0.558   0.151  14.291  0.0891  0.3268  0.1048
   12MPD2    C2  181   0.550   0.038  14.217 -0.0466 -0.0917  0.0827
   12MPD2    C3  182   0.432   4.712  14.166  0.1007 -0.2714 -0.1919
   12MPD2    C4  183   0.318   0.052  14.209 -0.4018  0.5681 -0.1718
   12MPD2    C5  184   0.325   0.164  14.292 -0.2408 -0.7492  0.4241
   12MPD2     H  185   0.640   4.713  14.185  0.9095  1.7183 -0.0877
   12MPD2    H1  186   0.219   0.027  14.173 -1.1446  1.2347  1.4019
   12MPD2    H2  187   0.446   0.304  14.389 -1.4838  0.3019 -1.2875
   12MPD2    H3  188   0.233   0.213  14.323 -1.1964 -2.6461  0.5841
   12MPD2     N  189   0.431   4.600  14.081 -0.1526  0.0409 -0.1286
   12MPD2    H5  190   0.514   4.543  14.079 -1.3311 -1.7149  1.0060
   12MPD2    N1  191   0.685   0.197  14.317 -0.3605 -0.2276  0.0381
   12MPD2    H7  192   0.767   0.145  14.286  0.2202 -0.2646  1.6150
   13TCq1    O1  193   0.271   2.884  11.305  0.1963  0.5012 -0.4968
   13TCq1    C1  194   0.194   2.984  11.282  0.1242  0.4737  0.1316
   13TCq1    O2  195   0.105   3.026  11.361 -0.4090 -0.0402  0.1027
   13TCq1    C2  196   0.250   3.063  11.168 -0.6261  0.4091  0.4602
   13TCq1    C3  197   0.320   3.007  11.065 -0.1952  0.1125  1.1365
   13TCq1    C4  198   0.379   3.087  10.974 -0.0800  0.9115  0.7548
   13TCq1    C5  199   0.360   3.223  10.987  0.2697  0.1341 -0.3263
   13TCq1    C6  200   0.275   3.277  11.086  0.1254  0.6200 -0.0165
   13TCq1    C7  201   0.229   3.199  11.185 -0.6944  0.8763 -0.4763
   13TCq1    C8  202   0.235   3.416  11.086  0.2458 -0.4614 -0.4400
   13TCq1    O4  203   0.164   3.447  11.177 -0.4987  0.4402  0.0615
   13TCq1    C9  204   0.447   3.045  10.850 -0.0297  0.2059  0.4081
   13TCq1    O5  205   0.428   2.923  10.828 -0.4133  0.6647  0.4476
   13TCq1    O6  206   0.528   3.123  10.798 -0.6395  0.9023 -0.5101
   13TCq1    H1  207   0.337   2.849  11.241  1.1861 -0.1294  0.8722
   13TCq1    H2  208   0.311   2.903  11.036 -0.6878  0.4165  0.2154
   13TCq1    H3  209   0.411   3.291  10.920  0.5877  1.5422  1.3199
   13TCq1    H4  210   0.167   3.240  11.264  2.3649  3.5243  0.5412
   14MPD2     C  211   0.233   3.628  10.794 -0.0108 -0.1166  0.2506
   14MPD2    C1  212   0.221   3.600  10.926 -0.0152  0.3622  0.0580
   14MPD2    C2  213   0.173   3.703  11.007  0.0467 -0.0686 -0.1237
   14MPD2    C3  214   0.123   3.820  10.954 -0.1671 -0.6466 -0.0397
   14MPD2    C4  215   0.137   3.844  10.814  0.5003 -0.1056 -0.9171
   14MPD2    C5  216   0.188   3.744  10.743 -0.0078 -0.0236 -0.0071
   14MPD2     H  217   0.176   3.690  11.114  1.6221 -1.2389 -0.3020
   14MPD2    H1  218   0.116   3.943  10.775 -0.0405 -0.1400 -0.7027
   14MPD2    H2  219   0.288   3.561  10.729 -1.0567  0.1771 -0.9420
   14MPD2    H3  220   0.202   3.756  10.637 -0.7693  1.0843  0.0175
   14MPD2     N  221   0.073   3.916  11.045  0.0832 -0.2610  0.4871
   14MPD2    H5  222   0.084   3.895  11.144  2.9636  1.8825  0.6252
   14MPD2    N1  223   0.263   3.476  10.965 -0.6113  0.3250 -0.0309
   14MPD2    H7  224   0.316   3.418  10.901  0.5923  0.1950  1.0793
   15TCq1    O1  225   1.829   3.781   2.595 -0.2957 -0.1901  0.2206
   15TCq1    C1  226   1.917   3.792   2.489  0.4056  0.5158 -0.4570
   15TCq1    O2  227   2.031   3.746   2.473  0.4367  0.2503  0.3452
   15TCq1    C2  228   1.826   3.803   2.376  0.5760  1.1402 -0.2311
   15TCq1    C3  229   1.739   3.904   2.367 -1.0756 -0.5981 -0.4589
   15TCq1    C4  230   1.664   3.914   2.252 -0.5505 -0.2788  0.3792
   15TCq1    C5  231   1.678   3.820   2.146 -0.2314  1.0341  0.1893
   15TCq1    C6  232   1.778   3.733   2.151 -0.2689 -0.3342 -0.6859
   15TCq1    C7  233   1.852   3.728   2.266  0.2708 -0.2495  0.2237
   15TCq1    C8  234   1.840   3.679   2.025  0.0304 -0.3977  0.1775
   15TCq1    O4  235   1.930   3.596   2.037 -0.0038  1.0663  0.8039
   15TCq1    C9  236   1.556   4.011   2.247  0.3525  0.5117 -0.1210
   15TCq1    O5  237   1.515   4.041   2.133 -0.5858  0.0337  0.1855
   15TCq1    O6  238   1.536   4.074   2.351  0.5927  1.2718 -0.0368
   15TCq1    H1  239   1.737   3.781   2.561 -0.5427  2.5221  0.9423
   15TCq1    H2  240   1.740   3.977   2.447  0.2220 -1.5422  0.3938
   15TCq1    H3  241   1.618   3.842   2.059  0.1762  4.4610  0.8015
   15TCq1    H4  242   1.944   3.670   2.266 -0.8032 -1.9710  0.6179
   16MPD2     C  243   1.738   3.763   1.680  0.2461  0.4212 -0.0609
   16MPD2    C1  244   1.800   3.684   1.774  0.1177 -0.4437 -0.2399
   16MPD2    C2  245   1.891   3.592   1.734 -0.3061  0.1965  0.1185
   16MPD2    C3  246   1.913   3.564   1.604 -0.4702 -0.2039  0.3982
   16MPD2    C4  247   1.834   3.624   1.506 -0.2930 -0.1760 -0.0179
   16MPD2    C5  248   1.750   3.726   1.548  0.0709  0.2703  0.4565
   16MPD2     H  249   1.949   3.555   1.819 -0.0561  0.0800 -0.1031
   16MPD2    H1  250   1.845   3.601   1.400  2.3833  1.8058 -0.1617
   16MPD2    H2  251   1.669   3.840   1.711  1.1418  0.8951  0.7674
   16MPD2    H3  252   1.693   3.774   1.469 -0.7090 -0.2760  0.6895
   16MPD2     N  253   2.005   3.463   1.570 -0.0479  0.1476  0.1211
   16MPD2    H5  254   2.050   3.416   1.648 -0.7601  2.0449  1.6685
   16MPD2    N1  255   1.780   3.726   1.908  0.1501 -0.4264  0.4821
   16MPD2    H7  256   1.709   3.798   1.920 -0.8052 -0.9522 -2.0298
   17TCq1    O1  257   4.244   3.688  11.180 -0.7605  0.1911  0.5324
   17TCq1    C1  258   4.196   3.732  11.054  0.3643  0.4191 -0.4882
   17TCq1    O2  259   4.098   3.798  11.032 -0.0964 -0.1391  0.1486
   17TCq1    C2  260   4.317   3.744  10.975 -0.4182  0.2631 -0.3871
   17TCq1    C3  261   4.346   3.848  10.892  0.0606 -0.1206 -0.2533
   17TCq1    C4  262   4.432   3.846  10.787  0.2591 -0.4895  0.1389
   17TCq1    C5  263   4.495   3.726  10.767 -0.0500  1.2263  0.2522
   17TCq1    C6  264   4.460   3.622  10.845  0.3807 -0.2758 -0.2519
   17TCq1    C7  265   4.375   3.628  10.953  0.2289 -0.1604 -0.4225
   17TCq1    C8  266   4.535   3.500  10.820 -0.1498 -0.1800  0.5884
   17TCq1    O4  267   4.513   3.408  10.898  0.2923 -0.0965 -0.2971
   17TCq1    C9  268   4.445   3.958  10.699 -0.0504 -0.2769  0.8696
   17TCq1    O5  269   4.378   4.065  10.719 -0.4205  0.7516 -0.2531
   17TCq1    O6  270   4.522   3.943  10.600 -0.5551 -0.3503 -0.1855
   17TCq1    H1  271   4.330   3.641  11.185 -1.4546 -1.5595 -3.8423
   17TCq1    H2  272   4.285   3.936  10.908  1.5570  0.3313  2.8096
   17TCq1    H3  273   4.577   3.734  10.696 -2.5633 -0.4094 -2.7895
   17TCq1    H4  274   4.353   3.534  11.001  0.9127 -0.2576 -0.3049
   18MPD2     C  275   0.008   3.279  10.778 -0.2439  0.3717 -0.5005
   18MPD2    C1  276   0.005   3.397  10.711  0.4584 -0.2213  0.4126
   18MPD2    C2  277   0.095   3.416  10.608 -0.2536 -0.0741  0.8475
   18MPD2    C3  278   0.190   3.320  10.575  0.6821  0.1295  0.1227
   18MPD2    C4  279   0.199   3.206  10.653 -0.0908  0.8439  0.7868
   18MPD2    C5  280   0.107   3.187  10.754  0.2634 -0.3119 -0.2679
   18MPD2     H  281   0.093   3.510  10.555 -3.0755  1.1168  3.0188
   18MPD2    H1  282   0.264   3.122  10.636 -0.6251  1.1182 -2.6289
   18MPD2    H2  283   4.672   3.267  10.867 -2.1231 -1.8029 -2.0584
   18MPD2    H3  284   0.116   3.093  10.808  2.3777  0.2359  0.3340
   18MPD2     N  285   0.281   3.329  10.466  0.6594 -0.6656 -0.3078
   18MPD2    H5  286   0.355   3.259  10.462  1.1376 -0.2929  2.1367
   18MPD2    N1  287   4.640   3.505  10.732 -0.5739 -0.0225 -0.9183
   18MPD2    H7  288   4.656   3.593  10.685  0.3959 -1.3931 -3.1472
   19TMC2    C1  289   1.555   4.612  13.667  0.0480 -0.4944  0.4607
   19TMC2    C2  290   1.569   4.639  13.532 -0.4627 -0.9343  0.2260
   19TMC2    C3  291   1.519   4.552  13.442  0.6688  0.6640 -0.4548
   19TMC2    C4  292   1.493   4.502  13.709 -0.2228 -0.6487  0.4671
   19TMC2    C5  293   1.453   4.408  13.618 -0.2810 -0.2542 -1.0369
   19TMC2    C6  294   1.480   4.427  13.484  0.1321 -0.5707 -0.3593
   19TMC2     C  295   1.557   0.004  13.749 -0.3444  0.6735 -0.6932
   19TMC2     O  296   1.544   0.113  13.696 -0.0713 -0.0786  0.6670
   19TMC2     H  297   1.594   0.013  13.497 -0.3663 -0.4340  1.7265
   19TMC2    H1  298   1.475   4.484  13.814 -3.6694  0.9992  0.1270
   19TMC2    H2  299   1.437   4.364  13.408  0.1886 -1.2966  0.2160
   19TMC2    C7  300   1.404   4.278  13.672 -0.1624 -0.1631  0.2032
   19TMC2    C8  301   1.541   4.575  13.302  0.2947  0.0763 -0.5509
   19TMC2    O1  302   1.419   4.264  13.789  0.5505 -0.7077  0.4356
   19TMC2    O2  303   1.496   4.495  13.217 -0.0382 -0.2860  0.3858
   19TMC2    O5  304   1.657   4.632  13.286 -0.5545 -0.1047 -0.1726
   19TMC2    H5  305   1.678   4.691  13.362 -0.0070  1.1320 -1.2866
   20MPD2     C  306   1.495   0.178  13.973 -0.5076  0.1204  0.3272
   20MPD2    C1  307   1.575   0.065  13.981 -0.5020  0.0221 -0.3919
   20MPD2    C2  308   1.648   0.039  14.096  0.6245 -0.2146  0.1225
   20MPD2    C3  309   1.636   0.129  14.199 -0.6952  0.7811  0.4859
   20MPD2    C4  310   1.556   0.238  14.192  0.5112  0.2908 -0.9356
   20MPD2    C5  311   1.473   0.261  14.081  0.6012  0.7520  0.0729
   20MPD2     H  312   1.717   4.682  14.095  2.2741  1.1618  0.2595
   20MPD2    H1  313   1.546   0.310  14.273  0.3622 -0.8509  0.0734
   20MPD2    H2  314   1.441   0.195  13.881 -0.5729 -0.6564  0.2177
   20MPD2    H3  315   1.407   0.347  14.079  2.9370  2.4915 -2.4039
   20MPD2     N  316   1.701   0.117  14.318  1.0488  0.4227  0.3436
   20MPD2    H5  317   1.710   0.200  14.376  2.7977  0.7579 -0.4057
   20MPD2    N1  318   1.598   4.703  13.873 -0.1900 -0.1972  0.4359
   20MPD2    H7  319   1.644   4.614  13.888  1.5984  0.5102 -0.8550
   21MPD2     C  320   0.146   0.090  14.616  0.0299 -0.3923 -0.2502
   21MPD2    C1  321   0.026   0.072  14.549 -0.2339  0.5292 -0.5787
   21MPD2    C2  322   4.641   0.149  14.580  1.0749  0.3864 -0.0438
   21MPD2    C3  323   4.647   0.249  14.677  0.5809 -0.3102  0.9203
   21MPD2    C4  324   0.029   0.252  14.758  0.2033  0.2186  0.1630
   21MPD2    C5  325   0.141   0.176  14.724 -0.2492  0.3807 -0.2608
   21MPD2     H  326   4.550   0.132  14.523  0.4184 -0.1478  1.1509
   21MPD2    H1  327   0.032   0.323  14.840  0.6793  0.9640 -0.5016
   21MPD2    H2  328   0.238   0.036  14.599  1.5321  1.5222  1.7787
   21MPD2    H3  329   0.228   0.172  14.789 -1.0652  1.8348  0.9095
   21MPD2     N  330   4.555   0.352  14.693 -0.1552  0.1757  0.3507
   21MPD2    H5  331   4.573   0.418  14.768 -1.3483 -0.0438  0.8381
   21MPD2    N1  332   4.721   4.689  14.466 -0.2156 -0.1961  0.6466
   21MPD2    H7  333   4.627   4.688  14.427 -0.6523 -2.0523  1.7538
   22TCq2    C1  334   4.473   0.388  14.588  0.6428  0.0874  0.4875
   22TCq2    O2  335   4.463   0.339  14.474  0.0858 -0.2122 -0.1242
   22TCq2    C2  336   4.383   0.504  14.618 -0.4759 -0.4098  0.8341
   22TCq2    C3  337   4.336   0.529  14.741 -0.0929  1.1389 -0.3579
   22TCq2    C4  338   4.232   0.620  14.753 -0.4239  0.1007  0.1485
   22TCq2    C5  339   4.186   0.697  14.654 -0.5259 -0.1617  0.7050
   22TCq2    C6  340   4.236   0.673  14.528  0.4127 -0.3993  0.0015
   22TCq2    C7  341   4.334   0.581  14.511 -0.0386  0.4435 -0.2220
   22TCq2    C8  342   4.153   0.708  14.411  0.1775 -0.2414 -0.5007
   22TCq2    O4  343   4.205   0.683  14.306  0.0760 -0.2017  0.2285
   22TCq2    C9  344   4.182   0.642  14.890  0.8676  0.5038  0.2478
   22TCq2    O5  345   4.096   0.730  14.909  0.0590 -0.1012 -0.3325
   22TCq2    O6  346   4.209   0.548  14.973  0.6415  0.0306 -0.2020
   22TCq2    H2  347   4.355   0.457  14.820  0.0107  0.9088 -0.5941
   22TCq2    H3  348   4.115   0.776  14.678 -0.3825  0.1683  0.0317
   22TCq2    H4  349   4.372   0.556  14.412  0.7970  0.9545 -0.0309
   23MPD2     C  350   1.369   1.465  14.832  0.3359 -0.5287 -0.2163
   23MPD2    C1  351   1.295   1.367  14.895  0.0886 -0.2485  0.7791
   23MPD2    C2  352   1.158   1.351  14.862 -0.2463  0.2680  0.2459
   23MPD2    C3  353   1.105   1.444  14.772  0.1486  0.2266 -0.3784
   23MPD2    C4  354   1.177   1.550  14.720  0.2081  0.3153 -0.8612
   23MPD2    C5  355   1.309   1.565  14.755  0.0272  0.4126  0.3689
   23MPD2     H  356   1.102   1.279  14.920  0.5106  0.4013  1.1488
   23MPD2    H1  357   1.142   1.624  14.649 -0.0933  1.0359  0.0386
   23MPD2    H2  358   1.476   1.462  14.847  0.3997  2.3654 -0.2837
   23MPD2    H3  359   1.368   1.639  14.702  3.4786 -0.5975  2.8501
   23MPD2     N  360   0.970   1.432  14.718  0.1090  0.3136 -0.4101
   23MPD2    H5  361   0.937   1.502  14.653 -0.5833  0.6233  0.2748
   23MPD2    N1  362   1.353   1.281  14.992 -0.9737  0.5559 -0.1064
   23MPD2    H7  363   1.285   1.227  15.045 -2.2055  2.0966 -0.1331
   24TCq2    C1  364   0.879   1.328  14.748 -0.8015 -0.6055  0.1232
   24TCq2    O2  365   0.885   1.250  14.841 -0.1658  0.5252  0.1816
   24TCq2    C2  366   0.751   1.344  14.685 -0.0305 -0.0072  0.0395
   24TCq2    C3  367   0.747   1.419  14.566 -0.1407 -0.5386  0.0936
   24TCq2    C4  368   0.620   1.466  14.526  0.7980  0.4230 -0.6602
   24TCq2    C5  369   0.507   1.445  14.602  0.0311 -0.4004 -0.0546
   24TCq2    C6  370   0.521   1.372  14.721 -0.1559 -0.2508 -0.5365
   24TCq2    C7  371   0.644   1.322  14.756  0.4990 -0.0074  0.4443
   24TCq2    C8  372   0.408   1.319  14.788 -0.7316 -0.0714 -0.0102
   24TCq2    O4  373   0.435   1.222  14.862  0.1632  0.5159  0.4715
   24TCq2    C9  374   0.610   1.542  14.403 -0.2492 -0.7582 -0.4221
   24TCq2    O5  375   0.509   1.607  14.382  0.5363 -0.1742 -1.0434
   24TCq2    O6  376   0.718   1.576  14.343 -0.8087 -0.0560 -0.2787
   24TCq2    H2  377   0.835   1.433  14.504 -0.7582  2.9608  0.0410
   24TCq2    H3  378   0.411   1.482  14.568 -1.5423 -1.1940  3.6263
   24TCq2    H4  379   0.655   1.257  14.842  0.3735  1.5327  1.6315
   25TMC2    C1  380   4.552   3.111  11.224 -0.1186 -0.5267  0.9485
   25TMC2    C2  381   4.560   3.232  11.172  0.1018  0.5438  0.6728
   25TMC2    C3  382   4.560   3.340  11.255  0.4301 -0.4295  0.6122
   25TMC2    C4  383   4.512   3.085  11.352  0.0281  0.2069  0.1744
   25TMC2    C5  384   4.490   3.194  11.427  0.1156  0.6682  0.0614
   25TMC2    C6  385   4.515   3.322  11.384  0.2278 -0.5186  0.1258
   25TMC2     C  386   4.596   3.008  11.136 -0.0147 -0.1372  0.2532
   25TMC2     O  387   4.672   3.029  11.041 -0.0091 -0.0751  0.6379
   25TMC2     H  388   4.579   3.244  11.066  1.3998 -2.0925  0.6005
   25TMC2    H1  389   4.525   2.989  11.400 -1.2342 -0.9249 -1.7709
   25TMC2    H2  390   4.515   3.407  11.451  0.2037  1.1734 -2.0270
   25TMC2    C7  391   4.411   3.181  11.550 -0.5606  0.0272 -0.3637
   25TMC2    C8  392   4.541   3.472  11.198  0.2143  0.2921 -0.0355
   25TMC2    O1  393   4.404   3.288  11.618  0.9937 -0.9448  0.0265
   25TMC2    O2  394   4.436   3.526  11.235  0.9952  0.2299 -0.0687
   25TMC2    O5  395   4.652   3.540  11.183 -0.5861  0.5874 -0.4002
   25TMC2    H5  396   0.009   3.488  11.194  0.6818  2.3980 -1.2840
   26MPD2     C  397   4.715   2.521  11.112 -0.6350  0.7985  0.4864
   26MPD2    C1  398   4.592   2.529  11.173 -0.1267 -0.3439 -0.3153
   26MPD2    C2  399   4.542   2.654  11.189  0.0346  0.4391  0.1662
   26MPD2    C3  400   4.603   2.770  11.149 -0.1337 -0.3921  0.2548
   26MPD2    C4  401   4.720   2.757  11.072 -0.3823 -0.5643 -0.4304
   26MPD2    C5  402   0.047   2.634  11.059 -0.1328  0.0474  0.5845
   26MPD2     H  403   4.445   2.676  11.231 -0.8382 -0.0455 -1.6216
   26MPD2    H1  404   0.048   2.833  11.015  0.6048 -0.9454 -0.0133
   26MPD2    H2  405   0.035   2.423  11.096 -0.6484  0.5160  2.2148
   26MPD2    H3  406   0.146   2.622  11.016 -1.4413 -2.0794 -1.8929
   26MPD2     N  407   4.541   2.890  11.178 -0.1202  0.5388 -0.3370
   26MPD2    H5  408   4.464   2.896  11.244  0.0488  3.5929 -0.3966
   26MPD2    N1  409   4.520   2.412  11.199 -0.1236  0.2028  0.2487
   26MPD2    H7  410   4.563   2.327  11.165 -1.6302 -0.7504  0.6978
   27TMC2    C1  411   3.722   0.411  13.092 -0.2173  0.5293 -0.9838
   27TMC2    C2  412   3.706   0.490  13.201  0.3724  0.4401  0.3134
   27TMC2    C3  413   3.819   0.551  13.246  1.0525 -0.1208 -0.1889
   27TMC2    C4  414   3.840   0.413  13.016 -0.7804  0.2181  0.3629
   27TMC2    C5  415   3.942   0.491  13.059  0.1180  0.9227 -0.2179
   27TMC2    C6  416   3.941   0.557  13.180 -0.4755  0.3600  0.2305
   27TMC2     C  417   3.632   0.294  13.066  0.6246 -0.8663  0.3385
   27TMC2     O  418   3.678   0.185  13.030  0.1245  0.2919 -0.2431
   27TMC2     H  419   3.617   0.492  13.263  0.8569 -0.6336  1.0427
   27TMC2    H1  420   3.837   0.358  12.922  1.8714 -0.1726  0.5237
   27TMC2    H2  421   4.029   0.611  13.212 -0.0419 -0.3742  0.2796
   27TMC2    C7  422   4.065   0.454  12.991  0.4429 -0.4768  0.0021
   27TMC2    C8  423   3.797   0.656  13.347  0.7907  0.3519  0.0971
   27TMC2    O1  424   4.064   0.393  12.882  0.3541 -0.9003 -0.0168
   27TMC2    O2  425   3.687   0.685  13.389 -0.4447  0.4069  0.2960
   27TMC2    O5  426   3.908   0.660  13.416  1.0996 -0.1818  0.1698
   27TMC2    H5  427   3.989   0.628  13.370  0.9700  1.1271 -0.9641
   28MPD2     C  428   3.184   0.022  13.047  0.0766  1.2054 -0.6864
   28MPD2    C1  429   3.164   0.157  13.030 -0.4232 -0.0656 -0.4511
   28MPD2    C2  430   3.270   0.249  13.043  0.1050  0.2206  0.0791
   28MPD2    C3  431   3.402   0.206  13.063  0.3873 -0.2817 -0.4296
   28MPD2    C4  432   3.423   0.071  13.086 -0.6025 -0.7758 -0.2305
   28MPD2    C5  433   3.317   4.709  13.075 -0.4720  0.7960  0.0670
   28MPD2     H  434   3.249   0.355  13.041 -1.2881 -0.0430  0.8976
   28MPD2    H1  435   3.520   0.030  13.116 -0.1103 -0.2480 -1.1255
   28MPD2    H2  436   3.098   4.682  13.038  1.7914 -0.7745 -2.7580
   28MPD2    H3  437   3.346   4.605  13.090 -0.3557  0.7185 -0.6488
   28MPD2     N  438   3.499   0.314  13.070 -0.3629  0.0264  0.6672
   28MPD2    H5  439   3.464   0.409  13.063  0.5343  0.3291  0.2322
   28MPD2    N1  440   3.030   0.201  13.030 -0.3955  0.0602 -0.1010
   28MPD2    H7  441   2.958   0.131  13.046  0.0717 -0.8333 -1.7978
   29MPD2     C  442   2.886   3.161  14.178  0.3792 -0.3164  0.4140
   29MPD2    C1  443   2.933   3.140  14.304  0.0764 -0.4385  0.2217
   29MPD2    C2  444   2.906   3.233  14.400  0.4824 -0.6765  0.1183
   29MPD2    C3  445   2.831   3.346  14.376  1.1168 -0.0044 -0.1320
   29MPD2    C4  446   2.790   3.367  14.251  0.1124 -0.0037 -0.1485
   29MPD2    C5  447   2.811   3.279  14.149  0.4276 -0.9073 -0.0303
   29MPD2     H  448   2.957   3.225  14.496  0.0696  0.5101  0.4469
   29MPD2    H1  449   2.710   3.437  14.230  0.2322  0.2997  0.3950
   29MPD2    H2  450   2.901   3.099  14.090  3.8798  1.0913  0.0111
   29MPD2    H3  451   2.782   3.307  14.049 -0.7730  0.4474  0.6822
   29MPD2     N  452   2.816   3.459  14.467 -0.2586  0.1060  0.6535
   29MPD2    H5  453   2.779   3.545  14.430  1.6358  0.9836  0.7683
   29MPD2    N1  454   3.015   3.025  14.324  0.4923  0.8011 -0.2399
   29MPD2    H7  455   2.996   2.944  14.266  2.6557 -1.7441  2.5657
   30TCq2    C1  456   2.836   3.451  14.601 -0.1883 -0.0240 -0.0403
   30TCq2    O2  457   2.843   3.355  14.672 -0.3732 -0.0470 -0.0400
   30TCq2    C2  458   2.777   3.569  14.674  0.7762 -0.0175 -0.5447
   30TCq2    C3  459   2.795   3.577  14.808  0.0143  0.0814 -0.3025
   30TCq2    C4  460   2.741   3.685  14.876 -0.0167 -0.5356 -0.0958
   30TCq2    C5  461   2.663   3.775  14.813 -0.0515  0.1961  0.2484
   30TCq2    C6  462   2.644   3.763  14.677  0.0959  0.6419 -0.3695
   30TCq2    C7  463   2.700   3.665  14.605  0.6908  0.1815  0.0612
   30TCq2    C8  464   2.610   3.888  14.612  0.2449 -0.0945  0.0011
   30TCq2    O4  465   2.545   3.889  14.507 -0.6589 -0.6653  0.6274
   30TCq2    C9  466   2.778   3.718  15.012 -0.3770 -0.4992  0.4580
   30TCq2    O5  467   2.860   3.648  15.075  0.3177 -0.0231  0.0672
   30TCq2    O6  468   2.706   3.806  15.065  0.5787  0.1594 -0.0847
   30TCq2    H2  469   2.856   3.515  14.872 -0.7736 -0.4487 -0.0760
   30TCq2    H3  470   2.619   3.865  14.856 -1.7422 -0.8748  0.7808
   30TCq2    H4  471   2.682   3.662  14.498 -2.9113 -1.7207  0.7025
   31MPD2     C  472   0.849   2.375  14.470 -0.6560 -1.0486 -0.0973
   31MPD2    C1  473   0.715   2.340  14.487 -0.4264  0.2200  0.1349
   31MPD2    C2  474   0.669   2.255  14.591 -0.8215 -0.0402  0.3082
   31MPD2    C3  475   0.761   2.216  14.690  0.2136  0.5159  0.2683
   31MPD2    C4  476   0.897   2.253  14.668  0.0133 -0.3619 -0.6960
   31MPD2    C5  477   0.942   2.321  14.557 -0.0723  0.2912  0.7644
   31MPD2     H  478   0.563   2.235  14.602 -1.4528  2.1437 -1.8304
   31MPD2    H1  479   0.974   2.227  14.739 -0.8478 -2.0532 -0.3750
   31MPD2    H2  480   0.894   2.433  14.391  4.3984 -4.0100  0.6699
   31MPD2    H3  481   1.047   2.342  14.539  0.4347 -1.9365  1.1848
   31MPD2     N  482   0.738   2.140  14.812  0.4318  0.1148  0.2582
   31MPD2    H5  483   0.819   2.123  14.871  0.2108 -1.4394  0.1137
   31MPD2    N1  484   0.630   2.398  14.391  0.3445 -0.0014 -0.7460
   31MPD2    H7  485   0.668   2.468  14.327 -0.5848  1.6784  0.5336
   32TCq2    C1  486   0.614   2.083  14.850  1.0450  0.1254 -0.4279
   32TCq2    O2  487   0.504   2.101  14.799 -0.1194 -0.4245 -0.2854
   32TCq2    C2  488   0.627   2.012  14.979  0.7313 -0.1475  0.4613
   32TCq2    C3  489   0.512   1.995  15.047 -0.3510 -1.0868 -0.2223
   32TCq2    C4  490   0.515   1.931  15.166  0.2435  0.8083  0.0341
   32TCq2    C5  491   0.629   1.873  15.209 -0.9043 -0.7518 -0.3248
   32TCq2    C6  492   0.739   1.874  15.133 -0.6109 -0.1722 -0.3611
   32TCq2    C7  493   0.744   1.950  15.019 -0.3805  0.1861 -0.3454
   32TCq2    C8  494   0.849   1.791  15.171  0.2736 -0.0019  0.2593
   32TCq2    O4  495   0.826   1.696  15.249  0.4690 -0.0147  0.3590
   32TCq2    C9  496   0.388   1.930  15.246  0.7876 -0.6991  0.6127
   32TCq2    O5  497   0.385   1.877  15.358  0.2362 -0.7805  0.2249
   32TCq2    O6  498   0.288   1.978  15.186 -0.1070  0.5066  0.3180
   32TCq2    H2  499   0.426   2.059  15.030 -1.1198 -1.3436  2.6773
   32TCq2    H3  500   0.624   1.818  15.302 -0.7195 -1.6597 -0.8552
   32TCq2    H4  501   0.813   1.945  14.936 -1.1529  1.1657 -1.0473
   33MPD2     C  502   0.062   3.852  10.054 -0.3285  0.2805  0.6178
   33MPD2    C1  503   0.189   3.843  10.008 -0.0816  0.1628 -1.0487
   33MPD2    C2  504   0.231   3.919   9.905  0.8228  0.4862  0.6606
   33MPD2    C3  505   0.144   4.012   9.847 -0.0637  0.1103 -0.0318
   33MPD2    C4  506   0.008   4.009   9.886 -0.6462 -0.0528 -0.4827
   33MPD2    C5  507   4.696   3.933   9.991 -0.5355  0.0954  0.0562
   33MPD2     H  508   0.329   3.894   9.864 -0.6221 -1.1038 -1.8274
   33MPD2    H1  509   4.664   4.070   9.829 -0.1794  1.1285  0.2121
   33MPD2    H2  510   0.024   3.790  10.134 -0.3413  1.3429  1.4445
   33MPD2    H3  511   4.589   3.935  10.011 -0.4947 -1.2039  0.3719
   33MPD2     N  512   0.180   4.100   9.737 -0.4229  0.3747 -0.1293
   33MPD2    H5  513   0.103   4.158   9.705  2.2474  4.2720  0.4802
   33MPD2    N1  514   0.271   3.749  10.071 -0.3951 -0.0858  0.3001
   33MPD2    H7  515   0.224   3.714  10.153  0.6722 -0.8103  0.6075
   34TCq2    C1  516   0.300   4.097   9.682 -0.2290 -0.2436 -0.3435
   34TCq2    O2  517   0.402   4.037   9.709 -0.4796  0.3290  0.2229
   34TCq2    C2  518   0.309   4.196   9.578  0.2971 -0.0770 -0.4447
   34TCq2    C3  519   0.205   4.209   9.488  1.0557 -0.3032 -0.5943
   34TCq2    C4  520   0.179   4.318   9.411 -0.1085  0.0194 -0.0828
   34TCq2    C5  521   0.275   4.412   9.413 -0.8561  0.1037 -0.1332
   34TCq2    C6  522   0.385   4.411   9.499  0.3622  0.6192  0.9482
   34TCq2    C7  523   0.397   4.300   9.586 -0.7976 -0.8740  0.1693
   34TCq2    C8  524   0.481   4.513   9.527 -0.0613  0.1008  0.3239
   34TCq2    O4  525   0.561   4.488   9.614 -0.4124  0.2311  0.3668
   34TCq2    C9  526   0.075   4.309   9.309  0.8842 -0.3130 -0.3393
   34TCq2    O5  527   0.070   4.406   9.227  0.1329 -0.1497 -0.1048
   34TCq2    O6  528   4.713   4.218   9.313  0.5627  0.4771 -0.2707
   34TCq2    H2  529   0.135   4.127   9.485 -1.2020  1.6297 -0.2150
   34TCq2    H3  530   0.265   4.497   9.347  0.1686 -0.8259 -1.4836
   34TCq2    H4  531   0.484   4.286   9.649 -0.9480  1.1546  0.8357
   35MPD2     C  532   1.886   0.986  12.273 -0.1187 -0.1368 -0.0421
   35MPD2    C1  533   1.915   0.850  12.270 -0.1583 -0.1062  0.4238
   35MPD2    C2  534   1.850   0.766  12.181  0.4274  0.2207  0.3188
   35MPD2    C3  535   1.763   0.818  12.092 -0.2088 -0.2526  0.2747
   35MPD2    C4  536   1.744   0.957  12.086 -0.3703 -0.1066 -0.3710
   35MPD2    C5  537   1.815   1.038  12.172  0.0007 -0.3482  0.3163
   35MPD2     H  538   1.850   0.660  12.199 -0.7924 -0.1152 -1.5862
   35MPD2    H1  539   1.670   1.001  12.020  0.2667  0.4375 -0.7263
   35MPD2    H2  540   1.911   1.049  12.357  0.3439 -0.0417 -0.2544
   35MPD2    H3  541   1.791   1.144  12.178 -0.9873 -0.5168 -0.5767
   35MPD2     N  542   1.697   0.719  12.012 -0.2153 -0.1349 -0.7639
   35MPD2    H5  543   1.735   0.624  12.018 -0.1610  0.0192  1.2300
   35MPD2    N1  544   2.001   0.798  12.371  0.0957 -0.2257  0.2738
   35MPD2    H7  545   2.039   0.859  12.443  1.4911  0.5652 -1.1149
   36TCq2    C1  546   1.596   0.748  11.924  0.5382 -0.3714  0.2874
   36TCq2    O2  547   1.552   0.855  11.892 -0.0630  0.1979  0.4589
   36TCq2    C2  548   1.546   0.633  11.852  0.6424 -0.3502 -0.1562
   36TCq2    C3  549   1.490   0.650  11.728  0.5611 -0.2037  0.2101
   36TCq2    C4  550   1.410   0.554  11.677  0.2670  0.5416  0.7681
   36TCq2    C5  551   1.412   0.432  11.729 -0.1156  0.3559 -0.9319
   36TCq2    C6  552   1.469   0.414  11.849  0.5670  0.3535 -0.2787
   36TCq2    C7  553   1.551   0.510  11.912 -0.0366 -0.1306 -0.4001
   36TCq2    C8  554   1.505   0.271  11.869  0.3530  0.0049 -0.3399
   36TCq2    O4  555   1.427   0.188  11.828 -0.1335 -0.0006  0.2740
   36TCq2    C9  556   1.341   0.577  11.550  0.4913  0.2746 -0.4807
   36TCq2    O5  557   1.255   0.486  11.524 -0.1041  0.3921 -0.1000
   36TCq2    O6  558   1.360   0.675  11.473  0.1464 -0.2351  0.3963
   36TCq2    H2  559   1.510   0.745  11.680 -0.3179 -0.7005 -1.1443
   36TCq2    H3  560   1.371   0.343  11.682  2.2514 -1.4135  0.3784
   36TCq2    H4  561   1.574   0.500  12.018 -1.0612 -2.3077 -0.3927
   37TMC2    C1  562   4.369   0.690  11.864  0.5031 -0.7407  0.0447
   37TMC2    C2  563   4.336   0.578  11.796  0.0522  0.8448  0.4881
   37TMC2    C3  564   4.404   0.567  11.679 -0.4350  0.0880  0.6460
   37TMC2    C4  565   4.474   0.782  11.832 -0.5261  0.8719  0.4287
   37TMC2    C5  566   4.554   0.741  11.728  0.7069  0.0783  0.1023
   37TMC2    C6  567   4.527   0.629  11.658 -0.1266 -0.2331 -0.5228
   37TMC2     C  568   4.329   0.674  12.000 -0.0623 -0.6195 -0.0483
   37TMC2     O  569   4.228   0.605  12.024 -0.4354 -0.0990 -0.6607
   37TMC2     H  570   4.270   0.496  11.821 -0.3822  1.4539  1.3244
   37TMC2    H1  571   4.506   0.865  11.894  1.9558  1.1568 -1.2463
   37TMC2    H2  572   4.589   0.605  11.572  1.0287 -1.3327  0.6152
   37TMC2    C7  573   4.690   0.791  11.736  0.3932 -0.1574  0.1680
   37TMC2    C8  574   4.372   0.446  11.612  0.1299  0.7552  0.4456
   37TMC2    O1  575   4.722   0.853  11.836  0.4447 -0.3056 -0.3611
   37TMC2    O2  576   4.345   0.341  11.661 -0.5543 -0.3705  0.1894
   37TMC2    O5  577   4.407   0.460  11.482  0.2213 -0.0798 -0.8253
   37TMC2    H5  578   4.385   0.552  11.457 -2.5142 -0.3141  0.6903
   38MPD2     C  579   4.436   0.798  12.501  0.4651  0.9814 -0.8871
   38MPD2    C1  580   4.540   0.841  12.416 -0.9094 -0.3524  0.4650
   38MPD2    C2  581   4.535   0.808  12.282  0.5443  0.3847  0.0426
   38MPD2    C3  582   4.424   0.750  12.222 -1.1099  0.3542  0.1767
   38MPD2    C4  583   4.325   0.707  12.305  0.1603  0.3150  0.6613
   38MPD2    C5  584   4.329   0.729  12.441  0.1659 -0.3413 -0.1952
   38MPD2     H  585   4.604   0.852  12.211  1.5592  0.5571  1.1343
   38MPD2    H1  586   4.234   0.663  12.266  1.2170 -2.8689  1.8104
   38MPD2    H2  587   4.427   0.830  12.604 -2.5048  0.7286 -1.0636
   38MPD2    H3  588   4.240   0.706  12.499  0.8496 -0.9495  0.6098
   38MPD2     N  589   4.427   0.728  12.081 -0.2676  0.1066  0.9021
   38MPD2    H5  590   4.509   0.753  12.026 -0.5770  0.0062  0.4000
   38MPD2    N1  591   4.654   0.909  12.469  0.0353  0.1451  0.2454
   38MPD2    H7  592   4.725   0.936  12.402 -0.1988 -1.3735 -0.6244
   39MPD2     C  593   2.059   2.924   1.638  0.1166  0.5984 -0.0655
   39MPD2    C1  594   1.997   3.035   1.685  0.1511  0.1784 -0.2390
   39MPD2    C2  595   1.912   3.105   1.605  1.1618  0.4057  0.0023
   39MPD2    C3  596   1.887   3.061   1.476 -0.4598 -0.0634  0.4144
   39MPD2    C4  597   1.959   2.957   1.421  0.5645 -1.1555  0.7799
   39MPD2    C5  598   2.032   2.885   1.508 -0.6746  0.9001  0.7790
   39MPD2     H  599   1.860   3.191   1.647 -1.0990 -0.3062 -1.3576
   39MPD2    H1  600   1.941   2.911   1.325  0.8649 -1.8725  1.0692
   39MPD2    H2  601   2.117   2.861   1.704 -3.7463  1.1006  3.7748
   39MPD2    H3  602   2.097   2.806   1.471 -1.3672  1.8596 -2.5253
   39MPD2     N  603   1.795   3.111   1.384 -0.4232 -0.3269  0.2887
   39MPD2    H5  604   1.791   3.066   1.293 -0.2255 -0.6292  0.4290
   39MPD2    N1  605   2.006   3.062   1.827 -0.0965 -0.3436 -0.0852
   39MPD2    H7  606   2.039   2.991   1.892 -1.1922 -2.1402 -1.4882
   40TCq2    C1  607   1.950   3.171   1.890  0.4923  0.6025 -0.0146
   40TCq2    O2  608   1.919   3.280   1.841  0.4041 -0.4113 -0.0457
   40TCq2    C2  609   1.942   3.157   2.035 -0.1401  0.2190  0.2519
   40TCq2    C3  610   1.903   3.039   2.092 -0.7732  0.2323 -0.0773
   40TCq2    C4  611   1.898   3.040   2.228  0.2998 -0.7865 -0.7271
   40TCq2    C5  612   1.945   3.144   2.303  0.0453 -0.2248  0.4049
   40TCq2    C6  613   1.990   3.254   2.241 -0.7929  0.1542  0.6005
   40TCq2    C7  614   1.987   3.275   2.105  0.0405 -0.3490 -0.5323
   40TCq2    C8  615   2.058   3.361   2.313 -0.8071  0.5911 -0.0865
   40TCq2    O4  616   2.041   3.368   2.433  0.5258  0.3747 -0.0866
   40TCq2    C9  617   1.854   2.923   2.293  0.1196  0.7423 -0.5222
   40TCq2    O5  618   1.804   2.829   2.222 -0.2313 -0.5428  0.4755
   40TCq2    O6  619   1.845   2.933   2.415 -0.4328 -0.0309 -0.0929
   40TCq2    H2  620   1.842   2.970   2.035 -0.0044 -1.0507  0.6495
   40TCq2    H3  621   1.928   3.155   2.409 -1.9789  0.4701 -0.0011
   40TCq2    H4  622   2.018   3.365   2.053  2.0731 -1.5961 -1.4546
   41TMC2    C1  623   2.000   0.887  13.383  0.4113 -0.5362  0.9638
   41TMC2    C2  624   1.992   1.023  13.420 -0.0052 -0.1259  0.3419
   41TMC2    C3  625   1.955   1.115  13.328  0.7584  0.3475  0.2318
   41TMC2    C4  626   1.974   0.842  13.253  0.1912  0.4761  0.4104
   41TMC2    C5  627   1.919   0.940  13.170  0.1764 -0.6964 -0.6246
   41TMC2    C6  628   1.908   1.069  13.206  0.1881 -0.1964  0.1291
   41TMC2     C  629   2.005   0.778  13.481  0.1509 -0.5980 -0.1291
   41TMC2     O  630   2.054   0.674  13.438 -0.2980 -0.1364  0.0252
   41TMC2     H  631   2.028   1.064  13.514 -1.0919  1.1210  0.2080
   41TMC2    H1  632   1.991   0.738  13.229  2.1169  0.8539  0.1442
   41TMC2    H2  633   1.860   1.141  13.140  1.3311 -1.5760 -2.2275
   41TMC2    C7  634   1.884   0.910  13.030 -0.5400  0.0422 -0.3790
   41TMC2    C8  635   1.874   1.226  13.386  0.4955 -0.3927 -0.3298
   41TMC2    O1  636   1.881   1.008  12.954  0.7996  0.3681 -0.0073
   41TMC2    O2  637   1.913   1.270  13.491  0.0639 -0.1798 -0.2261
   41TMC2    O5  638   1.749   1.195  13.357 -0.1263 -0.1529  0.2384
   41TMC2    H5  639   1.735   1.143  13.275  0.1145  0.3968 -0.1512
   42MPD2     C  640   2.068   0.622  13.725  0.3666  0.4684 -0.3779
   42MPD2    C1  641   2.029   0.757  13.723  0.3772  0.2612  0.1767
   42MPD2    C2  642   2.011   0.812  13.849 -0.1862 -0.6329 -0.6900
   42MPD2    C3  643   2.017   0.740  13.966  0.9254 -0.8887  0.7436
   42MPD2    C4  644   2.064   0.610  13.962 -0.1903 -0.8626 -0.2356
   42MPD2    C5  645   2.100   0.556  13.841  0.3328 -0.6651 -0.6717
   42MPD2     H  646   1.985   0.917  13.858 -0.1081 -0.5444 -1.5066
   42MPD2    H1  647   2.085   0.551  14.050 -1.3245 -0.0753  0.5691
   42MPD2    H2  648   2.091   0.567  13.634 -0.1956  1.9685 -1.4167
   42MPD2    H3  649   2.141   0.456  13.844 -2.7601 -2.0648 -4.9559
   42MPD2     N  650   1.976   0.797  14.098  0.0075 -1.2706  0.0842
   42MPD2    H5  651   1.982   0.734  14.178 -1.5251  0.6218  1.6754
   42MPD2    N1  652   1.997   0.822  13.607 -1.3089 -0.5345  0.6009
   42MPD2    H7  653   1.961   0.917  13.614 -0.2169 -0.0172 -0.6231
   43MPD2     C  654   2.446   3.924   1.025 -0.2284  0.2764 -0.3211
   43MPD2    C1  655   2.578   3.910   1.074  0.2553  0.0540  0.2068
   43MPD2    C2  656   2.594   3.915   1.213 -0.9120 -0.0743  0.0397
   43MPD2    C3  657   2.490   3.934   1.298 -0.2252 -0.0616  0.3812
   43MPD2    C4  658   2.366   3.950   1.252  0.1921 -0.3687 -0.3965
   43MPD2    C5  659   2.344   3.952   1.111 -0.3759 -0.2268  0.2512
   43MPD2     H  660   2.694   3.897   1.252 -1.6975 -0.5366  1.8318
   43MPD2    H1  661   2.282   3.953   1.321  0.4724  0.0034 -0.0669
   43MPD2    H2  662   2.414   3.928   0.922 -1.9123 -0.1278  0.1844
   43MPD2    H3  663   2.243   3.967   1.074  0.3865  1.3222 -1.1836
   43MPD2     N  664   2.509   3.952   1.439  0.7076 -0.4409 -0.5624
   43MPD2    H5  665   2.435   3.990   1.498  0.5531 -0.1929 -0.9137
   43MPD2    N1  666   2.687   3.895   0.983  0.5118  0.0107 -0.3206
   43MPD2    H7  667   2.772   3.860   1.027  0.4336 -0.0950 -0.2554
   44TCq2    C1  668   2.695   3.858   1.981 -0.2543  0.1068 -0.0578
   44TCq2    O2  669   2.812   3.827   1.944 -0.3063  0.1598 -0.6649
   44TCq2    C2  670   2.603   3.905   1.882 -0.0659 -0.3325  0.1592
   44TCq2    C3  671   2.512   4.001   1.911  0.2420  0.5139 -0.1669
   44TCq2    C4  672   2.450   4.072   1.809 -0.0084  0.9222  0.4095
   44TCq2    C5  673   2.495   4.058   1.681 -0.3728  0.3067  0.1626
   44TCq2    C6  674   2.580   3.956   1.654  0.7153  0.6916 -0.1137
   44TCq2    C7  675   2.640   3.883   1.751 -0.3197  0.6129  0.1465
   44TCq2    C8  676   2.617   3.937   1.514  0.7293 -0.3092 -0.4928
   44TCq2    O4  677   2.723   3.891   1.483  0.1256 -0.3301  0.0335
   44TCq2    C9  678   2.357   4.176   1.837 -0.0710  0.7088  0.5148
   44TCq2    O5  679   2.363   4.224   1.954  0.6139  0.2616  0.6017
   44TCq2    O6  680   2.287   4.216   1.743 -0.3001  0.5015  0.0008
   44TCq2    H2  681   2.484   4.030   2.011  1.7034 -0.6172  0.5627
   44TCq2    H3  682   2.458   4.126   1.605 -0.4749 -0.5678 -0.5811
   44TCq2    H4  683   2.718   3.812   1.727  0.1423  0.7291  1.3131
   45TMC2    C1  684   3.969   0.800   9.493  0.0055 -0.1428  0.1160
   45TMC2    C2  685   4.103   0.786   9.456 -0.3962  0.0841  0.2613
   45TMC2    C3  686   4.192   0.871   9.509 -0.4034 -0.2388  0.7387
   45TMC2    C4  687   3.933   0.910   9.565  0.1412 -0.0016 -0.0478
   45TMC2    C5  688   4.029   0.990   9.621 -0.4379 -0.2624 -0.3691
   45TMC2    C6  689   4.163   0.975   9.595 -0.4256  0.0127  0.6177
   45TMC2     C  690   3.875   0.695   9.457  0.1607  0.4611 -0.5787
   45TMC2     O  691   3.924   0.593   9.407  0.1385 -0.2328 -0.1343
   45TMC2     H  692   4.138   0.700   9.400 -0.8932 -0.7061  1.1618
   45TMC2    H1  693   3.836   0.911   9.614  0.3222  2.5197  0.2137
   45TMC2    H2  694   4.232   1.044   9.640 -1.1981  2.2442 -1.6220
   45TMC2    C7  695   3.983   1.090   9.717  0.5753  0.1351  0.2782
   45TMC2    C8  696   4.303   0.887   9.418 -0.2141  1.4237 -0.5344
   45TMC2    O1  697   4.068   1.137   9.787 -0.0865  0.3655 -0.0411
   45TMC2    O2  698   4.287   0.873   9.299 -0.0694  0.0469 -0.2804
   45TMC2    O5  699   4.407   0.932   9.480 -0.3485  0.3465 -0.1613
   45TMC2    H5  700   4.386   0.912   9.574  1.2370 -3.2167 -0.5698
   46MPD2     C  701   3.655   0.503   9.438  0.7391  0.2505 -0.0216
   46MPD2    C1  702   3.636   0.635   9.443  0.2300  0.1635 -1.1210
   46MPD2    C2  703   3.508   0.683   9.430 -0.3975  0.3779 -0.2157
   46MPD2    C3  704   3.396   0.601   9.396 -0.2881  0.1331  0.0371
   46MPD2    C4  705   3.425   0.468   9.383 -0.1571  0.0346  0.1114
   46MPD2    C5  706   3.550   0.419   9.401 -0.6505  0.4674 -0.2121
   46MPD2     H  707   3.492   0.788   9.450  1.5479  1.3288 -3.8258
   46MPD2    H1  708   3.345   0.402   9.351 -0.9068  0.4640  1.1324
   46MPD2    H2  709   3.750   0.457   9.466  0.6138  0.3560  0.5787
   46MPD2    H3  710   3.564   0.312   9.405 -1.4617  0.3962  0.7667
   46MPD2     N  711   3.269   0.661   9.392 -0.5308 -0.0922  0.2759
   46MPD2    H5  712   3.262   0.759   9.418  0.2620 -0.3064  1.2706
   46MPD2    N1  713   3.741   0.725   9.472 -0.4483 -0.2627 -0.7850
   46MPD2    H7  714   3.717   0.821   9.495  0.6921  0.2128 -1.5895
   47TMC2    C1  715   1.388   1.640   9.943  0.3214 -0.0661  0.1497
   47TMC2    C2  716   1.442   1.629   9.824  0.4856 -0.7780  0.5153
   47TMC2    C3  717   1.404   1.711   9.726  0.1505  0.0392 -0.3131
   47TMC2    C4  718   1.295   1.738   9.969  0.3132 -0.5117 -0.1167
   47TMC2    C5  719   1.264   1.825   9.867 -0.9123  0.5778 -0.8511
   47TMC2    C6  720   1.308   1.814   9.738  0.3389 -0.9108 -0.2783
   47TMC2     C  721   1.475   1.620  10.064  0.7017 -0.3180 -0.0591
   47TMC2     O  722   1.464   1.695  10.163 -0.3666 -0.0080 -0.1845
   47TMC2     H  723   1.520   1.555   9.805 -0.8148 -1.5185 -1.9012
   47TMC2    H1  724   1.248   1.735  10.067 -0.1264 -0.1751 -0.3132
   47TMC2    H2  725   1.293   1.888   9.661  1.1446 -0.5410 -0.0811
   47TMC2    C7  726   1.165   1.927   9.893  0.1733  0.5576 -0.1472
   47TMC2    C8  727   1.446   1.682   9.590 -0.2347  0.4341  0.6156
   47TMC2    O1  728   1.121   1.990   9.800  0.4771 -0.3288  0.2690
   47TMC2    O2  729   1.540   1.611   9.562 -0.5408 -0.2983 -0.5840
   47TMC2    O5  730   1.330   1.661   9.528  0.1004  0.3110  0.5009
   47TMC2    H5  731   1.258   1.712   9.571  0.7086 -0.9574  3.0153
   48MPD2     C  732   1.724   1.586  10.227 -0.4445 -0.4997 -0.1368
   48MPD2    C1  733   1.672   1.498  10.140  0.1368  0.7624 -0.4022
   48MPD2    C2  734   1.716   1.367  10.152 -1.1035 -0.1384  0.2846
   48MPD2    C3  735   1.824   1.336  10.240  0.4743  0.9073  0.1913
   48MPD2    C4  736   1.878   1.432  10.324  0.3036  0.7042  0.0751
   48MPD2    C5  737   1.818   1.551  10.314 -0.0281 -0.0561  0.2516
   48MPD2     H  738   1.677   1.292  10.085 -0.7398  2.3534 -2.7004
   48MPD2    H1  739   1.963   1.409  10.387  0.8481 -1.2870 -1.3993
   48MPD2    H2  740   1.683   1.686  10.221 -0.1096 -0.3378  0.1954
   48MPD2    H3  741   1.859   1.627  10.379  0.0851 -0.6820  0.9155
   48MPD2     N  742   1.867   1.206  10.254  0.2411  0.0763  0.0290
   48MPD2    H5  743   1.818   1.141  10.194  0.0235 -0.8521  1.2294
   48MPD2    N1  744   1.569   1.522  10.045 -0.9362  0.3302  0.2560
   48MPD2    H7  745   1.559   1.461   9.964  2.2576  0.2476 -0.0686
   49MPD2     C  746   4.686   3.172  10.252 -0.2956  0.2610 -0.5509
   49MPD2    C1  747   4.601   3.265  10.300  0.4147 -0.1652 -0.3486
   49MPD2    C2  748   4.533   3.254  10.416 -0.0824  0.0478  0.4308
   49MPD2    C3  749   4.552   3.137  10.488 -0.3577 -0.1376 -0.0807
   49MPD2    C4  750   4.652   3.049  10.456  0.3101  0.0806 -0.3510
   49MPD2    C5  751   4.721   3.074  10.339  0.7590  0.4166  0.0006
   49MPD2     H  752   4.486   3.346  10.449 -1.1671  0.4331 -2.2044
   49MPD2    H1  753   4.687   2.966  10.517  0.5703 -1.0065 -1.9763
   49MPD2    H2  754   0.016   3.198  10.162 -1.4576 -1.0576 -1.6530
   49MPD2    H3  755   0.067   3.000  10.306  1.1683  0.2428  1.2844
   49MPD2     N  756   4.481   3.108  10.607 -0.1219  0.5146  0.2669
   49MPD2    H5  757   4.519   3.030  10.659  0.9818  1.1978  0.4622
   49MPD2    N1  758   4.569   3.377  10.220  0.0416 -0.5914 -0.7167
   49MPD2    H7  759   4.503   3.447  10.253 -0.5826 -1.0009 -1.0993
   50TCq2    C1  760   4.614   3.414  10.097  0.1399  0.1602 -0.5338
   50TCq2    O2  761   4.678   3.348  10.015 -0.1151 -0.1270  0.3071
   50TCq2    C2  762   4.555   3.538  10.060  0.1208  0.0416  0.4733
   50TCq2    C3  763   4.513   3.622  10.159 -0.0619 -0.0465  0.0105
   50TCq2    C4  764   4.416   3.715  10.132  0.7319 -0.3755  0.0676
   50TCq2    C5  765   4.365   3.734  10.010 -0.4096 -0.4454  0.5079
   50TCq2    C6  766   4.407   3.649   9.913  0.0464  0.4583  0.2508
   50TCq2    C7  767   4.499   3.550   9.937 -0.5185  0.2152  0.1141
   50TCq2    C8  768   4.319   3.639   9.795 -0.4495  0.2117 -0.1645
   50TCq2    O4  769   4.337   3.546   9.718 -0.3336  0.4217  0.1312
   50TCq2    C9  770   4.376   3.802  10.233 -0.0690 -0.6439 -0.0919
   50TCq2    O5  771   4.276   3.878  10.209  1.1213 -0.1008  0.3051
   50TCq2    O6  772   4.452   3.803  10.333  0.3235 -0.1560  0.5588
   50TCq2    H2  773   4.558   3.615  10.257 -1.1823 -1.3059  0.4436
   50TCq2    H3  774   4.295   3.814   9.992 -1.8215 -1.1082  3.1735
   50TCq2    H4  775   4.524   3.479   9.859 -0.9788 -1.0321  1.0966
   51MPD2     C  776   0.222   2.711   1.302  0.4007  0.3650 -0.1333
   51MPD2    C1  777   0.347   2.650   1.296 -0.3084  0.1428 -0.3283
   51MPD2    C2  778   0.442   2.681   1.394  0.1875 -0.4234 -0.1559
   51MPD2    C3  779   0.407   2.762   1.499 -0.4933  0.7885  0.6806
   51MPD2    C4  780   0.291   2.829   1.503  0.6249 -0.2398  0.5624
   51MPD2    C5  781   0.200   2.800   1.403  0.3306 -0.3740 -0.1973
   51MPD2     H  782   0.542   2.642   1.378  0.7743  0.2836  1.7429
   51MPD2    H1  783   0.256   2.882   1.591  0.0093  0.0068  0.1674
   51MPD2    H2  784   0.140   2.670   1.244  0.2037 -0.0565  0.4344
   51MPD2    H3  785   0.101   2.845   1.411 -0.1521 -1.3960 -0.3441
   51MPD2     N  786   0.503   2.800   1.593  0.0777  0.8012  0.2053
   51MPD2    H5  787   0.480   2.876   1.656 -0.6251  1.5705 -0.9800
   51MPD2    N1  788   0.382   2.558   1.195  0.6011 -0.2886 -0.2410
   51MPD2    H7  789   0.474   2.516   1.209  1.8745  2.3411 -0.6285
   52TCq2    C1  790   0.617   2.732   1.621 -0.8554 -0.6934  0.2896
   52TCq2    O2  791   0.657   2.621   1.586  0.6881 -0.2733 -0.1249
   52TCq2    C2  792   0.701   2.795   1.718 -0.1461 -0.5255 -0.1322
   52TCq2    C3  793   0.824   2.745   1.739  0.3364 -0.3830  0.0049
   52TCq2    C4  794   0.909   2.806   1.822  0.4385 -0.2001 -0.5221
   52TCq2    C5  795   0.859   2.898   1.910  0.4926 -0.3370 -0.2845
   52TCq2    C6  796   0.736   2.948   1.897 -0.1185 -0.3502 -0.3852
   52TCq2    C7  797   0.652   2.895   1.805 -0.1518 -0.0658  0.8327
   52TCq2    C8  798   0.702   3.082   1.940 -0.1541  0.5407  0.0672
   52TCq2    O4  799   0.582   3.108   1.960 -0.1726  0.5220 -0.1411
   52TCq2    C9  800   1.052   2.764   1.821  0.2842  0.2770 -0.2948
   52TCq2    O5  801   1.122   2.814   1.914  0.6232  0.0800  0.0108
   52TCq2    O6  802   1.093   2.697   1.723  0.0485  0.6692 -0.7162
   52TCq2    H2  803   0.859   2.671   1.668  0.1946  1.1471 -1.6390
   52TCq2    H3  804   0.930   2.937   1.982 -0.8433  0.0383  0.8214
   52TCq2    H4  805   0.547   2.922   1.814 -0.6444 -2.4985  2.3847
   53TMC2    C1  806   0.610   0.985  11.996 -0.1359 -0.2224 -0.5903
   53TMC2    C2  807   0.743   0.987  12.042 -0.1774  0.2632  1.4091
   53TMC2    C3  808   0.770   1.047  12.153  0.7643  0.2676 -0.2099
   53TMC2    C4  809   0.521   1.060  12.060  0.4056  0.2163 -0.3792
   53TMC2    C5  810   0.549   1.127  12.176  0.4394 -0.0818  0.3312
   53TMC2    C6  811   0.675   1.117  12.230  0.2295  0.4469  0.7674
   53TMC2     C  812   0.588   0.928  11.864 -0.7316  0.4393  0.0164
   53TMC2     O  813   0.678   0.907  11.788  0.0029  0.4678 -0.1797
   53TMC2     H  814   0.812   0.924  11.987 -2.6805 -2.5256  1.4541
   53TMC2    H1  815   0.424   1.069  12.013 -0.2346  3.8900  1.7022
   53TMC2    H2  816   0.709   1.183  12.309 -1.3747  0.0359  1.7756
   53TMC2    C7  817   0.436   1.183  12.240  0.0511  0.1571 -0.2010
   53TMC2    C8  818   0.904   1.039  12.206 -0.3270  0.0070 -0.5677
   53TMC2    O1  819   0.336   1.204  12.175  0.3212 -0.3811  0.3422
   53TMC2    O2  820   0.991   1.026  12.124 -0.0543  0.1745  0.4651
   53TMC2    O5  821   0.909   0.994  12.337  0.4036  0.3652 -0.0854
   53TMC2    H5  822   0.826   1.021  12.382 -0.6238  0.7359 -2.1889
   54MPD2     C  823   0.469   0.818  11.598  0.1508  0.0813  0.2346
   54MPD2    C1  824   0.400   0.854  11.713  0.1625  0.5019  0.6616
   54MPD2    C2  825   0.269   0.838  11.722 -0.3226  0.5131 -0.4142
   54MPD2    C3  826   0.190   0.786  11.618 -0.2273 -0.5548  0.3541
   54MPD2    C4  827   0.257   0.751  11.499 -0.9290 -0.5775  0.2165
   54MPD2    C5  828   0.389   0.773  11.493 -0.0474 -0.5232  0.2287
   54MPD2     H  829   0.215   0.857  11.814  1.0097  1.9739  0.0560
   54MPD2    H1  830   0.202   0.724  11.409 -0.9428  0.0564  0.0399
   54MPD2    H2  831   0.575   0.836  11.583  0.0039 -1.1849 -2.3013
   54MPD2    H3  832   0.436   0.744  11.400 -0.4135 -0.4548  0.0246
   54MPD2     N  833   0.050   0.756  11.630 -0.0595  0.7001 -0.3515
   54MPD2    H5  834   0.002   0.712  11.553 -0.7542  1.6464 -0.4579
   54MPD2    N1  835   0.456   0.897  11.835 -0.2888 -0.3022 -0.4244
   54MPD2    H7  836   0.392   0.909  11.913 -1.6982  1.0174 -1.7706
   55MPD2     C  837   0.606   3.663  17.428  0.5247  0.3369 -0.2481
   55MPD2    C1  838   0.629   3.615  17.551  0.6662 -0.1702  0.1873
   55MPD2    C2  839   0.538   3.631  17.656  0.0497 -0.1890 -0.3451
   55MPD2    C3  840   0.415   3.684  17.629  0.3886 -0.3516  0.0789
   55MPD2    C4  841   0.386   3.716  17.495 -0.2442  0.0930 -0.4317
   55MPD2    C5  842   0.484   3.713  17.402 -0.2910  0.0491 -0.3516
   55MPD2     H  843   0.550   3.585   0.051  2.0978  0.6619 -0.1919
   55MPD2    H1  844   0.290   3.753  17.462 -1.7686 -2.6078  0.8722
   55MPD2    H2  845   0.676   3.652  17.346  0.5540  2.9302 -0.5609
   55MPD2    H3  846   0.461   3.732  17.298 -0.8249 -1.5487 -0.5294
   55MPD2     N  847   0.328   3.689   0.041 -0.1062 -0.7276 -0.1179
   55MPD2    H5  848   0.376   3.669   0.129 -1.5565  1.8077  1.2302
   55MPD2    N1  849   0.756   3.552  17.576  0.1325  0.0254 -0.3427
   55MPD2    H7  850   0.824   3.548  17.501 -0.7634 -0.4400 -1.1190
   56TCq2    C1  851   0.803   3.514  17.699 -0.4028 -0.0668  0.2310
   56TCq2    O2  852   0.756   3.556   0.104 -0.3009  0.2737  0.4214
   56TCq2    C2  853   0.936   3.457   0.001  0.6909  0.8221 -0.6078
   56TCq2    C3  854   0.977   3.379  17.594  1.0559  0.1659 -0.0304
   56TCq2    C4  855   1.080   3.291  17.605 -0.5981  0.5633  0.2474
   56TCq2    C5  856   1.138   3.268   0.022 -0.4226 -0.5619  0.0576
   56TCq2    C6  857   1.103   3.344   0.130 -0.2625  0.4694  0.3668
   56TCq2    C7  858   1.001   3.438   0.120  0.1057  0.1352 -0.3635
   56TCq2    C8  859   1.145   3.301   0.262  0.2150 -0.3886  0.3532
   56TCq2    O4  860   1.249   3.232   0.273 -0.2983  0.1730 -0.0643
   56TCq2    C9  861   1.106   3.194  17.503  0.9604 -0.4092  0.1922
   56TCq2    O5  862   1.168   3.091  17.545 -0.3798 -0.5959  0.0204
   56TCq2    O6  863   1.087   3.209  17.385 -0.4901  0.1190  0.1872
   56TCq2    H2  864   0.924   3.370  17.500  1.3235  0.0498 -0.1693
   56TCq2    H3  865   1.215   3.195   0.044  1.0116 -0.0519 -3.2651
   56TCq2    H4  866   0.973   3.498   0.206 -0.3070 -0.3344 -0.1703
   57TMC2    C1  867   3.937   4.491  13.580  0.1351 -0.1717 -0.1256
   57TMC2    C2  868   3.850   4.568  13.503 -0.1132  0.2811  0.2862
   57TMC2    C3  869   3.858   4.548  13.371  0.0102  0.5468 -0.3525
   57TMC2    C4  870   4.017   4.399  13.525 -0.4294  0.3156 -0.2070
   57TMC2    C5  871   4.025   4.395  13.388 -0.6716 -0.4626 -0.3717
   57TMC2    C6  872   3.948   4.471  13.310 -0.0320 -0.1436 -0.1222
   57TMC2     C  873   3.942   4.512  13.725 -0.3786  0.9250  0.4329
   57TMC2     O  874   3.901   4.620  13.769 -0.1927 -0.4515 -0.7427
   57TMC2     H  875   3.782   4.644  13.538 -0.6802 -0.0469 -0.1072
   57TMC2    H1  876   4.095   4.348  13.580 -0.5747  2.2379  1.8126
   57TMC2    H2  877   3.947   4.465  13.201 -2.8502  0.0029 -0.0846
   57TMC2    C7  878   4.086   4.287  13.325  0.2634  0.6517  0.1844
   57TMC2    C8  879   3.737   4.593  13.302  0.5631 -0.2647  0.4176
   57TMC2    O1  880   4.063   4.181  13.380  0.1695 -0.5950 -0.9444
   57TMC2    O2  881   3.730   4.614  13.180  0.3881  0.4834  0.2686
   57TMC2    O5  882   3.643   4.519  13.366  0.0686  0.2911 -0.3726
   57TMC2    H5  883   3.671   4.477  13.450  0.9833  3.1731  0.7673
   58MPD2     C  884   4.191   4.428  14.164 -0.0007  0.6969 -0.6300
   58MPD2    C1  885   4.130   4.543  14.124  0.2356 -0.0502 -0.1477
   58MPD2    C2  886   4.051   4.537  14.009  0.5450  0.6734 -0.8871
   58MPD2    C3  887   4.052   4.424  13.923  0.3562  0.4648  0.1720
   58MPD2    C4  888   4.124   4.319  13.963  0.7603 -0.4040  0.0003
   58MPD2    C5  889   4.194   4.319  14.082 -1.1454 -0.4532 -0.0420
   58MPD2     H  890   4.011   4.627  13.964  2.1167  2.2266  0.8522
   58MPD2    H1  891   4.148   4.232  13.902  0.6063 -1.3222  1.2381
   58MPD2    H2  892   4.243   4.430  14.259  2.6174 -1.1825 -2.0384
   58MPD2    H3  893   4.245   4.226  14.104  1.5555  1.8289  3.2757
   58MPD2     N  894   4.012   4.416  13.792  0.1826 -0.6970 -0.1736
   58MPD2    H5  895   4.039   4.334  13.740  0.6989  0.0564 -1.0909
   58MPD2    N1  896   4.130   4.665  14.188 -0.5079 -0.6899 -0.4517
   58MPD2    H7  897   4.056   0.004  14.164  0.2638  0.6821  0.8398
   59MPD2     C  898   2.695   4.655  13.648  0.0697 -0.5020 -0.4165
   59MPD2    C1  899   2.712   4.718  13.527  0.2061 -0.5365 -0.0487
   59MPD2    C2  900   2.745   0.123  13.516  0.1438 -0.5087  0.7147
   59MPD2    C3  901   2.756   0.200  13.633  0.1531 -0.7344  0.0681
   59MPD2    C4  902   2.737   0.138  13.759 -0.4295 -0.2531  0.5389
   59MPD2    C5  903   2.701   4.725  13.763  0.0268  0.3290 -0.2430
   59MPD2     H  904   2.770   0.170  13.422 -0.0102 -0.5049  0.6758
   59MPD2    H1  905   2.739   0.180  13.859  1.9951  1.7399 -0.3530
   59MPD2    H2  906   2.662   4.552  13.653 -0.7965 -0.3134 -2.2265
   59MPD2    H3  907   2.674   4.686  13.860  0.1895 -0.2537 -0.4329
   59MPD2     N  908   2.801   0.335  13.640 -0.1146  0.4587 -0.4947
   59MPD2    H5  909   2.857   0.357  13.722 -0.6890  0.9527 -0.2402
   59MPD2    N1  910   2.697   4.648  13.403 -0.0504  0.3324  0.1648
   59MPD2    H7  911   2.711   4.707  13.322 -1.5630 -1.1225 -1.1568
   60TCq2    C1  912   2.655   4.515  13.386  0.2693 -0.1048  0.0237
   60TCq2    O2  913   2.598   4.440  13.466  0.7368  0.6043  0.1816
   60TCq2    C2  914   2.654   4.478  13.248  0.3049  0.4508 -0.2226
   60TCq2    C3  915   2.561   4.396  13.210 -1.0467 -0.5961 -0.0050
   60TCq2    C4  916   2.515   4.405  13.082  0.4778  0.4392 -0.4417
   60TCq2    C5  917   2.554   4.509  12.996  0.3239 -0.1751 -0.1802
   60TCq2    C6  918   2.656   4.587  13.040 -0.2773  0.2062 -0.1297
   60TCq2    C7  919   2.714   4.564  13.163 -0.3043  0.1210 -0.8914
   60TCq2    C8  920   2.724   4.690  12.958  0.4757  0.0383 -0.2853
   60TCq2    O4  921   2.827   0.008  13.006 -0.1828  0.1402  0.0379
   60TCq2    C9  922   2.412   4.307  13.043 -0.5391  0.1592 -0.5185
   60TCq2    O5  923   2.395   4.213  13.125  0.0747  0.0166  0.5309
   60TCq2    O6  924   2.359   4.329  12.929 -0.7730  0.0824  0.0238
   60TCq2    H2  925   2.509   4.328  13.277 -1.1228 -1.1286 -0.6004
   60TCq2    H3  926   2.499   4.524  12.904  1.4515 -0.8097 -0.9545
   60TCq2    H4  927   2.809   4.615  13.179  0.5916 -1.4619 -1.1235
   61MPD2     C  928   1.837   1.629  15.383 -0.2569  0.2772 -0.4384
   61MPD2    C1  929   1.951   1.710  15.409 -0.8036  0.5593  0.0263
   61MPD2    C2  930   2.057   1.704  15.323 -0.9244 -0.0020  0.1980
   61MPD2    C3  931   2.042   1.635  15.202 -0.0453 -0.0388 -1.5280
   61MPD2    C4  932   1.936   1.548  15.181 -0.3466  0.3440  0.3028
   61MPD2    C5  933   1.839   1.539  15.277  0.2645 -0.1016  0.9468
   61MPD2     H  934   2.142   1.771  15.331 -0.3464 -0.8288  0.9637
   61MPD2    H1  935   1.935   1.479  15.098 -0.6898  1.0758 -0.2936
   61MPD2    H2  936   1.748   1.616  15.443 -1.0771  2.9200 -1.0763
   61MPD2    H3  937   1.752   1.477  15.261 -0.3067  0.9979 -0.2434
   61MPD2     N  938   2.134   1.656  15.096 -0.7699 -0.1430 -0.6794
   61MPD2    H5  939   2.112   1.604  15.011  0.4741 -1.3910 -0.2372
   61MPD2    N1  940   1.947   1.812  15.509 -0.3394 -0.0632  0.7582
   61MPD2    H7  941   2.026   1.875  15.516 -0.3942  0.3269 -2.0729
   62TCq2    C1  942   1.836   1.817  15.592  0.1230  0.6590 -0.4307
   62TCq2    O2  943   1.759   1.728  15.630 -0.2618 -0.1097  0.5524
   62TCq2    C2  944   1.839   1.938  15.678  0.0364  0.1211  0.6071
   62TCq2    C3  945   1.787   1.934  15.801 -0.1252 -0.4370  0.1230
   62TCq2    C4  946   1.789   2.048  15.878 -0.2234 -0.1682 -0.2758
   62TCq2    C5  947   1.838   2.168  15.828 -0.1384  0.3227 -0.8652
   62TCq2    C6  948   1.885   2.162  15.704 -0.0408  0.5829 -0.2576
   62TCq2    C7  949   1.892   2.051  15.624  0.8480 -0.5290  0.5394
   62TCq2    C8  950   1.960   2.268  15.648  0.0144 -0.1449 -0.2156
   62TCq2    O4  951   1.969   2.280  15.528  0.0144  0.3619 -0.2702
   62TCq2    C9  952   1.746   2.047  16.015  0.3466 -0.5025 -1.3385
   62TCq2    O5  953   1.693   2.151  16.061  0.2310 -0.1957  0.1815
   62TCq2    O6  954   1.712   1.934  16.060 -0.2237  0.4047  0.8090
   62TCq2    H2  955   1.749   1.840  15.840  0.0528 -1.5965 -2.5063
   62TCq2    H3  956   1.835   2.252  15.896 -0.1811  0.8419 -1.5195
   62TCq2    H4  957   1.917   2.062  15.519  2.8683  1.3590  1.2193
   63TMC2    C1  958   0.815   1.575  10.477 -0.4003  0.1480  0.3119
   63TMC2    C2  959   0.903   1.543  10.372 -0.2529  0.1717 -0.0635
   63TMC2    C3  960   0.873   1.595  10.249  0.2240  0.2077  0.0270
   63TMC2    C4  961   0.711   1.662  10.457  0.2012  0.0256 -0.0783
   63TMC2    C5  962   0.681   1.706  10.329  0.0622 -0.0092  0.5741
   63TMC2    C6  963   0.759   1.670  10.224  1.0704  0.1762 -0.1304
   63TMC2     C  964   0.831   1.507  10.606 -0.5346  0.0239  0.5606
   63TMC2     O  965   0.758   1.553  10.695  0.2093 -0.8583 -0.2412
   63TMC2     H  966   0.991   1.481  10.382 -0.2432  0.4571  1.5787
   63TMC2    H1  967   0.653   1.694  10.543 -1.2521  2.2746 -1.9339
   63TMC2    H2  968   0.755   1.704  10.121  0.2237  1.1599  0.2272
   63TMC2    C7  969   0.564   1.783  10.318  0.0204 -0.2037 -0.6844
   63TMC2    C8  970   0.960   1.561  10.136 -0.0128 -0.2957 -0.0945
   63TMC2    O1  971   0.497   1.804  10.416  0.0810 -0.1704 -0.3104
   63TMC2    O2  972   0.929   1.578  10.019  0.4074  0.1944  0.0643
   63TMC2    O5  973   1.083   1.599  10.179  0.2745 -0.0761  0.3298
   63TMC2    H5  974   1.089   1.629  10.272 -0.3502  0.5756  0.1600
   64MPD2     C  975   1.007   1.169  10.940 -0.2607 -0.5465  0.0279
   64MPD2    C1  976   1.052   1.135  10.816  0.0483  1.0809  0.6418
   64MPD2    C2  977   1.012   1.207  10.698  0.5674 -0.3095 -0.2478
   64MPD2    C3  978   0.939   1.323  10.715  0.6882 -0.1378 -0.1893
   64MPD2    C4  979   0.886   1.347  10.842  0.0329 -0.1823  0.7035
   64MPD2    C5  980   0.927   1.274  10.949  0.5576 -0.5453  0.3303
   64MPD2     H  981   1.064   1.182  10.606  0.4085 -0.3000 -0.3387
   64MPD2    H1  982   0.816   1.429  10.856 -1.6784 -0.9358 -3.3761
   64MPD2    H2  983   1.022   1.108  11.029 -3.6796 -2.0532 -0.4393
   64MPD2    H3  984   0.894   1.296  11.050 -3.3597  1.1237 -1.3164
   64MPD2     N  985   0.904   1.395  10.601  0.0084 -0.4005  0.3617
   64MPD2    H5  986   0.939   1.350  10.517 -1.0324  0.8228 -0.7143
   64MPD2    N1  987   1.143   1.024  10.793  0.0645 -0.9336  0.0365
   64MPD2    H7  988   1.165   0.986  10.701 -1.2244 -0.5268 -0.4546
   65MPD2     C  989   2.516   1.141  16.131 -0.2819  0.1799  0.4648
   65MPD2    C1  990   2.470   1.204  16.016  0.0339 -0.3762 -0.3398
   65MPD2    C2  991   2.422   1.136  15.906 -0.0717 -1.0503 -0.3747
   65MPD2    C3  992   2.449   1.001  15.893  0.8405  0.3335  0.4162
   65MPD2    C4  993   2.509   0.939  16.006 -0.2304 -0.1360 -0.2886
   65MPD2    C5  994   2.533   1.007  16.120  0.7896 -0.3200 -0.4518
   65MPD2     H  995   2.371   1.198  15.834  2.2932 -1.0092 -2.0187
   65MPD2    H1  996   2.533   0.834  15.991  2.1816  0.4797 -0.7220
   65MPD2    H2  997   2.524   1.192  16.226 -0.2509 -1.5210  1.3575
   65MPD2    H3  998   2.579   0.949  16.199 -0.0527  0.9720  0.9879
   65MPD2     N  999   2.404   0.932  15.782 -0.0916  0.5538  0.3886
   65MPD2    H5 1000   2.407   0.830  15.784  2.5391  0.6063 -0.2921
   65MPD2    N1 1001   2.436   1.342  16.021 -0.1962 -0.4459 -0.1309
   65MPD2    H7 1002   2.384   1.374  15.940 -0.4490  0.2286  0.3005
   66TCq2    C1 1003   2.470   1.426  16.122  0.4472  0.2700 -0.1242
   66TCq2    O2 1004   2.574   1.431  16.184  0.2718  0.3113 -0.0163
   66TCq2    C2 1005   2.373   1.540  16.135  0.4589  0.2836 -0.1651
   66TCq2    C3 1006   2.247   1.529  16.079 -0.1623  0.0173  0.1522
   66TCq2    C4 1007   2.154   1.625  16.105 -0.8731 -0.1534 -0.5690
   66TCq2    C5 1008   2.179   1.726  16.194  0.5027 -0.0790 -0.3786
   66TCq2    C6 1009   2.309   1.745  16.243 -0.0042  0.3223 -0.2792
   66TCq2    C7 1010   2.407   1.652  16.207 -0.1151 -0.2014 -0.0203
   66TCq2    C8 1011   2.338   1.863  16.330 -0.2445  0.4242 -0.4112
   66TCq2    O4 1012   2.440   1.868  16.396 -0.4724 -0.8187  0.4446
   66TCq2    C9 1013   2.020   1.609  16.057 -0.4112  0.1418 -0.3655
   66TCq2    O5 1014   1.937   1.689  16.105 -0.0026  0.0272  0.2842
   66TCq2    O6 1015   1.988   1.521  15.974 -0.2543 -0.3715  0.5132
   66TCq2    H2 1016   2.211   1.444  16.022 -1.9994  1.2313 -0.5171
   66TCq2    H3 1017   2.093   1.780  16.231  0.0359 -1.7995  1.0315
   66TCq2    H4 1018   2.509   1.666  16.239  0.3423  0.8824 -1.9432
   67MPD2     C 1019   2.188   0.076  14.227 -0.3255  0.6605 -0.2513
   67MPD2    C1 1020   2.175   0.206  14.263 -0.4056 -0.8825  0.3316
   67MPD2    C2 1021   2.063   0.279  14.220  0.7993  0.2047  0.6790
   67MPD2    C3 1022   1.967   0.231  14.135 -0.0506  0.0498 -0.0431
   67MPD2    C4 1023   2.002   0.106  14.085  1.0989 -0.1939  0.0566
   67MPD2    C5 1024   2.105   0.027  14.133  0.2809  0.5800 -0.3496
   67MPD2     H 1025   2.069   0.383  14.248  1.5843  0.6710 -1.2228
   67MPD2    H1 1026   1.935   0.066  14.009  1.1748 -1.5178  0.6869
   67MPD2    H2 1027   2.282   0.025  14.242 -0.3191  0.6493 -0.3310
   67MPD2    H3 1028   2.116   4.650  14.096  0.8051  0.3639  0.4051
   67MPD2     N 1029   1.864   0.310  14.081  0.2533 -0.4603  0.0457
   67MPD2    H5 1030   1.817   0.277  13.997 -1.7639  0.1079  0.9547
   67MPD2    N1 1031   2.268   0.270  14.345 -0.1316 -0.0289 -0.4789
   67MPD2    H7 1032   2.251   0.368  14.368 -1.3460  0.2938 -2.7412
   68TCq2    C1 1033   2.395   0.232  14.383  1.5038  0.3253 -0.6085
   68TCq2    O2 1034   2.432   0.115  14.407 -0.2816 -0.4293 -0.4911
   68TCq2    C2 1035   2.484   0.351  14.408  0.1112 -0.4620  0.1993
   68TCq2    C3 1036   2.426   0.477  14.387 -0.1457  1.1078 -0.4424
   68TCq2    C4 1037   2.502   0.589  14.418  0.1826  0.3104 -0.4430
   68TCq2    C5 1038   2.628   0.579  14.478 -0.3247 -0.3847  0.0533
   68TCq2    C6 1039   2.676   0.454  14.503 -0.0029 -0.5408 -0.3372
   68TCq2    C7 1040   2.610   0.336  14.465  0.3226  0.2676  0.4451
   68TCq2    C8 1041   2.801   0.438  14.573 -0.1361 -0.3255  0.1760
   68TCq2    O4 1042   2.862   0.329  14.571  0.2883 -0.2630  0.5698
   68TCq2    C9 1043   2.476   0.722  14.358 -0.8124 -0.0101 -0.0259
   68TCq2    O5 1044   2.374   0.736  14.285  0.9938 -0.6482 -0.2205
   68TCq2    O6 1045   2.527   0.823  14.411  0.0779  0.2528  0.0188
   68TCq2    H2 1046   2.335   0.485  14.328 -0.1697  0.5603 -0.4754
   68TCq2    H3 1047   2.690   0.667  14.494  1.6583 -2.3193  3.1405
   68TCq2    H4 1048   2.649   0.236  14.479  0.1673  0.2824  1.0086
   69TMC2    C1 1049   0.638   1.689  12.828 -0.6209 -0.1399 -0.0780
   69TMC2    C2 1050   0.675   1.818  12.864 -0.1880 -0.1249 -0.0065
   69TMC2    C3 1051   0.790   1.867  12.815  0.4376  0.3342  0.2260
   69TMC2    C4 1052   0.720   1.613  12.752  0.0667 -0.0867  0.5474
   69TMC2    C5 1053   0.829   1.675  12.709  0.2279  0.3199  0.1668
   69TMC2    C6 1054   0.870   1.796  12.740 -1.0355  0.2008 -0.4262
   69TMC2     C 1055   0.522   1.613  12.882  0.1744  0.2295 -0.6559
   69TMC2     O 1056   0.545   1.490  12.888 -0.5491 -0.1024  0.4651
   69TMC2     H 1057   0.610   1.880  12.925  0.6851  1.7364 -0.9931
   69TMC2    H1 1058   0.697   1.511  12.722  0.8605 -0.2768  0.5918
   69TMC2    H2 1059   0.971   1.825  12.712 -0.3691 -1.2856  0.4498
   69TMC2    C7 1060   0.896   1.611  12.597 -0.4447  0.8993 -0.6812
   69TMC2    C8 1061   0.809   2.013  12.845 -0.0583 -0.2616  0.4701
   69TMC2    O1 1062   1.020   1.614  12.594 -0.3200 -0.2243 -0.1567
   69TMC2    O2 1063   0.768   2.066  12.951  0.4256  0.2928  0.2782
   69TMC2    O5 1064   0.833   2.084  12.732 -0.4353  0.0365  0.3031
   69TMC2    H5 1065   0.866   2.031  12.656  0.8284 -0.6044  1.3057
   70MPD2     C 1066   0.169   1.713  12.927 -0.1980 -0.2495  0.0189
   70MPD2    C1 1067   0.278   1.626  12.937  0.0245 -0.1424 -0.9585
   70MPD2    C2 1068   0.260   1.498  12.972  0.8468  0.4091 -0.0158
   70MPD2    C3 1069   0.135   1.446  13.007  0.1803  0.7155 -0.0569
   70MPD2    C4 1070   0.028   1.534  13.016  1.4815 -0.1140  0.3296
   70MPD2    C5 1071   0.043   1.664  12.968  0.1770 -0.3532  1.1564
   70MPD2     H 1072   0.348   1.436  12.980  0.0555 -0.7339 -0.1459
   70MPD2    H1 1073   4.659   1.489  13.044  1.1863  0.5331  0.3511
   70MPD2    H2 1074   0.171   1.808  12.874  2.5158  0.0317  0.6468
   70MPD2    H3 1075   4.684   1.731  12.967  1.9029  1.8710  3.2103
   70MPD2     N 1076   0.114   1.315  13.062 -0.7416  0.0282  0.5795
   70MPD2    H5 1077   0.019   1.284  13.076  0.2951 -4.0820 -1.6126
   70MPD2    N1 1078   0.405   1.682  12.897 -0.4233 -0.4766  0.2258
   70MPD2    H7 1079   0.398   1.777  12.862 -0.5205 -0.4791  0.2398
   71TMC2    C1 1080   1.461   2.926   1.503 -0.3181  0.3568 -0.3650
   71TMC2    C2 1081   1.562   2.929   1.603 -0.8237 -0.6226  0.2082
   71TMC2    C3 1082   1.540   2.990   1.722 -0.0230  0.3027  0.2624
   71TMC2    C4 1083   1.334   2.966   1.532 -0.1301 -0.4355  0.1127
   71TMC2    C5 1084   1.309   3.015   1.657 -0.1462  0.0843 -1.5699
   71TMC2    C6 1085   1.410   3.032   1.751 -0.7865 -0.6465 -0.0821
   71TMC2     C 1086   1.494   2.900   1.371  0.0036  0.6640 -0.4867
   71TMC2     O 1087   1.615   2.873   1.345  0.1705 -0.0492 -0.4774
   71TMC2     H 1088   1.654   2.879   1.578  0.8109  1.2871  2.3999
   71TMC2    H1 1089   1.265   2.995   1.454  0.7260 -1.1189 -0.8968
   71TMC2    H2 1090   1.384   3.054   1.854 -3.0884  0.0510 -0.8111
   71TMC2    C7 1091   1.176   3.067   1.689  0.2751  0.5821  0.3924
   71TMC2    C8 1092   1.651   2.988   1.810  0.6916  0.0425  0.1174
   71TMC2    O1 1093   1.166   3.153   1.777 -0.0065  0.0742  0.2152
   71TMC2    O2 1094   1.670   2.872   1.848  0.4052  0.1142  0.2242
   71TMC2    O5 1095   1.606   3.080   1.900 -0.3013  0.0461 -0.3186
   71TMC2    H5 1096   1.598   3.168   1.856  2.0441  0.5970  0.3778
   72MPD2     C 1097   1.340   2.688   0.923  0.7431 -0.7781 -0.0341
   72MPD2    C1 1098   1.465   2.734   0.957  0.8728  0.5878 -0.0012
   72MPD2    C2 1099   1.479   2.794   1.083 -0.0454  0.2101 -0.1890
   72MPD2    C3 1100   1.372   2.804   1.170 -1.1187 -0.5789 -0.5053
   72MPD2    C4 1101   1.247   2.766   1.133 -0.2278  1.7054  0.0643
   72MPD2    C5 1102   1.235   2.705   1.011 -0.0461  0.2620 -0.4732
   72MPD2     H 1103   1.576   2.817   1.126  0.8761  0.7796 -2.5978
   72MPD2    H1 1104   1.161   2.774   1.199 -0.9762 -0.4669 -0.6415
   72MPD2    H2 1105   1.311   2.643   0.829 -2.6634  0.4646  0.4155
   72MPD2    H3 1106   1.132   2.675   0.999 -0.3045  0.9915 -0.1159
   72MPD2     N 1107   1.382   2.853   1.299 -0.1677  0.9115  0.0182
   72MPD2    H5 1108   1.294   2.861   1.348 -0.2126  0.7919 -0.0462
   72MPD2    N1 1109   1.576   2.712   0.873 -0.1098  0.2191 -0.5907
   72MPD2    H7 1110   1.661   2.759   0.902 -0.3482 -0.3972  1.0877
   73TMC2    C1 1111   1.639   4.020  13.971  0.6525  0.3300  0.4416
   73TMC2    C2 1112   1.511   4.054  14.009  0.7856 -0.1822 -0.3576
   73TMC2    C3 1113   1.507   4.174  14.071 -0.2078  0.4245 -0.4277
   73TMC2    C4 1114   1.745   4.106  13.968 -1.1995 -0.1826 -0.2497
   73TMC2    C5 1115   1.727   4.235  14.013 -0.6389 -0.6017 -0.4352
   73TMC2    C6 1116   1.614   4.268  14.077 -0.7457 -0.0123  0.2922
   73TMC2     C 1117   1.642   3.945  13.849 -0.3109 -0.0873  0.7178
   73TMC2     O 1118   1.707   4.000  13.763  0.0132  0.3708 -0.4510
   73TMC2     H 1119   1.423   3.991  14.016  0.1629  0.8130  0.8014
   73TMC2    H1 1120   1.841   4.069  13.933 -1.0047  0.4707 -0.3898
   73TMC2    H2 1121   1.589   4.372  14.089  2.2080  0.8918 -1.4783
   73TMC2    C7 1122   1.749   4.326  13.904  0.2386  0.1610  0.0239
   73TMC2    C8 1123   1.379   4.224  14.113 -0.2031 -0.1925  0.6418
   73TMC2    O1 1124   1.757   4.449  13.928 -0.1992  0.3832 -0.3810
   73TMC2    O2 1125   1.349   4.220  14.234  0.2401 -0.2034 -0.1972
   73TMC2    O5 1126   1.327   4.300  14.012  0.6285 -0.3873  0.2861
   73TMC2    H5 1127   1.369   4.286  13.925  0.3240  0.3058  0.0222
   74MPD2     C 1128   1.524   3.585  13.499 -0.9233  0.0667  0.2070
   74MPD2    C1 1129   1.596   3.699  13.490 -0.5687  0.2013  0.1533
   74MPD2    C2 1130   1.612   3.779  13.604 -0.1182  0.6389  0.8478
   74MPD2    C3 1131   1.563   3.741  13.727  0.5509  1.1193 -0.2020
   74MPD2    C4 1132   1.512   3.614  13.732 -0.3606 -0.6868  0.2493
   74MPD2    C5 1133   1.485   3.540  13.623  1.5966 -0.5158 -0.3759
   74MPD2     H 1134   1.659   3.875  13.588  1.0408  0.1024  0.9893
   74MPD2    H1 1135   1.479   3.575  13.827  3.0073 -1.1755  1.2136
   74MPD2    H2 1136   1.510   3.525  13.410  0.7723  0.8860 -0.5946
   74MPD2    H3 1137   1.457   3.435  13.629  0.1028 -0.1777 -1.4478
   74MPD2     N 1138   1.582   3.816  13.851  0.5894 -0.4529  0.7163
   74MPD2    H5 1139   1.537   3.789  13.938  1.9570  0.8755  1.8442
   74MPD2    N1 1140   1.639   3.739  13.361  0.5895 -0.1599 -0.1404
   74MPD2    H7 1141   1.627   3.662  13.295  0.5720 -0.2418 -0.0414
   75TCq2    C1 1142   1.837   0.438  14.126 -0.2269  0.3422 -0.0435
   75TCq2    O2 1143   1.857   0.494  14.235 -0.1551 -0.5028 -0.0790
   75TCq2    C2 1144   1.731   0.497  14.047 -0.6947 -0.4455  0.5450
   75TCq2    C3 1145   1.631   0.565  14.110  0.9207 -0.4495  0.1508
   75TCq2    C4 1146   1.548   0.650  14.039 -0.6534  0.5452 -0.6286
   75TCq2    C5 1147   1.559   0.665  13.901  0.6937  0.5366 -0.1108
   75TCq2    C6 1148   1.662   0.590  13.843  0.6397 -0.3381  0.3446
   75TCq2    C7 1149   1.742   0.504  13.914  0.0817  0.1098 -1.3304
   75TCq2    C8 1150   1.659   0.578  13.694  0.1688 -0.0603  0.2496
   75TCq2    O4 1151   1.694   0.470  13.640 -0.3233 -0.5413 -0.1243
   75TCq2    C9 1152   1.435   0.698  14.108  0.7217  0.5678 -0.0626
   75TCq2    O5 1153   1.420   0.666  14.228  0.1684 -0.0541 -0.2271
   75TCq2    O6 1154   1.342   0.756  14.041 -0.5904  0.1173 -0.0910
   75TCq2    H2 1155   1.625   0.561  14.218 -0.4386 -0.7434  0.0555
   75TCq2    H3 1156   1.481   0.722  13.853 -0.8401 -1.2241  0.3042
   75TCq2    H4 1157   1.820   0.446  13.866  2.6822  2.4573  0.0987
   76MPD2     C 1158   1.547   0.635  12.331  0.7099 -0.0133 -0.2988
   76MPD2    C1 1159   1.427   0.645  12.265  0.4127 -0.1288 -0.2286
   76MPD2    C2 1160   1.361   0.531  12.229  0.6270 -0.0420 -0.2091
   76MPD2    C3 1161   1.410   0.409  12.264 -0.8243  0.0425 -0.5386
   76MPD2    C4 1162   1.536   0.397  12.327 -0.1351 -0.1385 -0.3663
   76MPD2    C5 1163   1.605   0.511  12.354  0.3937 -0.0774  0.0196
   76MPD2     H 1164   1.269   0.547  12.173 -0.0386  2.3561  1.5594
   76MPD2    H1 1165   1.575   0.297  12.342  3.5663  1.4911  1.0118
   76MPD2    H2 1166   1.605   0.722  12.360 -0.9344  0.3821  1.8032
   76MPD2    H3 1167   1.703   0.501  12.399 -0.0080  0.0110  0.9283
   76MPD2     N 1168   1.348   0.286  12.220 -0.3211  0.7467 -0.3007
   76MPD2    H5 1169   1.396   0.205  12.258 -0.2011  1.6051  1.3723
   76MPD2    N1 1170   1.361   0.771  12.251 -0.0393 -0.6652  0.5368
   76MPD2    H7 1171   1.277   0.766  12.195 -0.7887  0.3258  1.5673
   77TCq2    C1 1172   1.240   0.269  12.142  0.7731  0.2264  0.0154
   77TCq2    O2 1173   1.164   0.356  12.099  0.5882  0.0552 -0.0775
   77TCq2    C2 1174   1.221   0.128  12.100  0.5181 -1.0742 -0.1808
   77TCq2    C3 1175   1.127   0.100  12.004  0.4898 -0.6915 -0.7841
   77TCq2    C4 1176   1.113   4.693  11.972 -0.3606 -0.3859 -0.5185
   77TCq2    C5 1177   1.177   4.592  12.038  0.0554 -0.1794 -0.3422
   77TCq2    C6 1178   1.267   4.624  12.136 -0.2752 -0.1879 -0.1186
   77TCq2    C7 1179   1.301   0.028  12.157 -0.7234  0.4892  0.0939
   77TCq2    C8 1180   1.319   4.510  12.217  0.2299 -0.4038 -0.0387
   77TCq2    O4 1181   1.263   4.402  12.203 -0.1026 -0.0973  0.4467
   77TCq2    C9 1182   1.016   4.667  11.872  0.5132  0.2353 -0.3376
   77TCq2    O5 1183   0.992   4.553  11.833 -0.3146 -0.0285  0.2367
   77TCq2    O6 1184   0.954   0.041  11.833 -0.5379  0.1937 -0.1168
   77TCq2    H2 1185   1.074   0.175  11.947 -0.6977 -1.5991 -0.8804
   77TCq2    H3 1186   1.169   4.491  11.999 -0.5673  0.0565 -0.8356
   77TCq2    H4 1187   1.387   0.057  12.217 -1.2983  3.3734 -0.4475
   78MPD1     C 1188   1.894   1.215   2.636  0.3417 -1.1249  0.0479
   78MPD1    C1 1189   1.903   1.207   2.503 -0.6871 -0.7937 -0.7553
   78MPD1    C2 1190   2.032   1.239   2.458 -0.3832 -0.2194 -0.1100
   78MPD1    C3 1191   2.139   1.264   2.541 -0.2890 -0.2153 -0.9132
   78MPD1    C4 1192   2.118   1.248   2.677 -0.2943  0.5111  0.2801
   78MPD1    C5 1193   1.996   1.219   2.727 -0.2848 -0.9161  0.0437
   78MPD1     H 1194   2.061   1.237   2.354  2.8929  2.1397  0.7628
   78MPD1    H1 1195   2.204   1.259   2.741 -0.5413 -2.5382  1.1362
   78MPD1    H2 1196   1.796   1.215   2.681 -0.2523  0.6474 -1.2677
   78MPD1    H3 1197   1.971   1.218   2.832  1.1019  2.2618  0.4198
   78MPD1     N 1198   2.267   1.302   2.495  0.0306 -0.4907 -0.7411
   78MPD1    H5 1199   2.333   1.307   2.572 -1.2311 -1.1662  0.3961
   78MPD1    N1 1200   1.789   1.195   2.425  0.1009 -0.2506  0.1601
   78MPD1    H6 1201   1.718   1.131   2.461 -1.9544  0.9703 -1.7226
   78MPD1    H7 1202   1.800   1.163   2.329 -2.7343  0.0099 -0.2583
   79TCq2    C1 1203   2.300   1.335   2.368 -0.4951  0.5509 -0.6760
   79TCq2    O2 1204   2.227   1.377   2.282 -0.5819 -0.2110  0.5949
   79TCq2    C2 1205   2.436   1.353   2.350 -0.7441  0.8213  0.1444
   79TCq2    C3 1206   2.514   1.288   2.444  0.3856  1.0767 -0.1170
   79TCq2    C4 1207   2.648   1.311   2.433  0.1345 -0.2342 -0.0861
   79TCq2    C5 1208   2.700   1.395   2.339 -0.3566  0.2209 -0.6668
   79TCq2    C6 1209   2.619   1.455   2.245 -0.4369  0.6616  0.3333
   79TCq2    C7 1210   2.486   1.428   2.253 -0.4070 -0.2958  0.5171
   79TCq2    C8 1211   2.682   1.528   2.135  0.5349  0.3658 -0.1424
   79TCq2    O4 1212   2.807   1.532   2.135  1.1334  0.6915  0.1719
   79TCq2    C9 1213   2.742   1.229   2.508 -0.0300 -1.1028  0.0744
   79TCq2    O5 1214   2.856   1.275   2.527  0.5017 -0.5592  0.4142
   79TCq2    O6 1215   2.709   1.110   2.535  0.2046 -0.4968 -0.2552
   79TCq2    H2 1216   2.480   1.218   2.521  0.0624  0.8518 -0.4651
   79TCq2    H3 1217   2.807   1.401   2.328 -0.1218 -2.6151  0.0269
   79TCq2    H4 1218   2.411   1.483   2.198 -0.0071 -1.2961 -1.0406
   80MPD2     C 1219   0.845   0.652  12.295  0.3573 -0.1235  0.4777
   80MPD2    C1 1220   0.730   0.686  12.226 -0.0560  0.2817  0.2883
   80MPD2    C2 1221   0.633   0.750  12.294 -0.6896 -0.2490  0.3788
   80MPD2    C3 1222   0.645   0.785  12.430 -0.1041  0.2320  0.2352
   80MPD2    C4 1223   0.764   0.760  12.495 -0.2256  0.1111  0.3054
   80MPD2    C5 1224   0.870   0.700  12.427 -0.1969  0.0196 -0.2147
   80MPD2     H 1225   0.540   0.775  12.245 -1.3305  3.4877  3.4561
   80MPD2    H1 1226   0.785   0.777  12.600  1.2564 -0.8138  0.1503
   80MPD2    H2 1227   0.929   0.601  12.249 -1.4597 -2.6609 -0.0176
   80MPD2    H3 1228   0.958   0.679  12.487  0.6098 -1.8212 -2.0259
   80MPD2     N 1229   0.535   0.850  12.501 -0.1687 -0.1741 -0.3709
   80MPD2    H5 1230   0.551   0.863  12.600  1.1090 -0.1409 -0.5794
   80MPD2    N1 1231   0.710   0.657  12.087 -0.6012 -0.6384  0.1002
   80MPD2    H7 1232   0.616   0.660  12.047  0.0191 -0.5087 -1.3299
   81TCq2    C1 1233   0.809   0.614  12.002  0.5074 -0.7880 -0.7071
   81TCq2    O2 1234   0.934   0.617  12.014 -0.6462 -0.2473 -0.0421
   81TCq2    C2 1235   0.760   0.550  11.879 -0.0394 -0.3270 -0.5199
   81TCq2    C3 1236   0.825   0.576  11.765  0.3043  0.8244 -0.2954
   81TCq2    C4 1237   0.760   0.546  11.642 -1.1177 -0.2684  0.3406
   81TCq2    C5 1238   0.637   0.501  11.633  0.6848  0.0935 -0.5510
   81TCq2    C6 1239   0.571   0.484  11.748  0.0109 -0.0405 -0.4430
   81TCq2    C7 1240   0.625   0.509  11.875 -0.7583 -0.1974  0.5862
   81TCq2    C8 1241   0.427   0.454  11.732  0.6582 -0.0692 -0.4372
   81TCq2    O4 1242   0.401   0.393  11.629  0.4743  0.3251  0.0214
   81TCq2    C9 1243   0.831   0.559  11.518  0.1933  0.3538 -0.5107
   81TCq2    O5 1244   0.954   0.551  11.529 -0.0178 -0.6161  0.3266
   81TCq2    O6 1245   0.768   0.551  11.408 -0.6214  0.3459 -0.4495
   81TCq2    H2 1246   0.929   0.607  11.758  0.6009  0.1988  1.4155
   81TCq2    H3 1247   0.601   0.470  11.536  0.3907  1.5565 -0.9183
   81TCq2    H4 1248   0.568   0.490  11.965 -0.0214 -2.1380  0.6275
   82MPD2     C 1249   3.309   4.710  10.869  0.5484 -0.3282  0.5314
   82MPD2    C1 1250   3.217   4.611  10.870  0.2239 -0.0503  0.2807
   82MPD2    C2 1251   3.244   4.504  10.958  0.4044 -0.5212  0.1827
   82MPD2    C3 1252   3.361   4.494  11.034 -0.5409  0.5551  0.3078
   82MPD2    C4 1253   3.451   4.600  11.026 -0.9386  0.6599  0.4469
   82MPD2    C5 1254   3.418   4.709  10.945  0.1446  0.5564 -0.5212
   82MPD2     H 1255   3.169   4.426  10.954  0.7517 -0.8353 -0.3467
   82MPD2    H1 1256   3.546   4.595  11.078 -0.2262 -0.5624 -0.9904
   82MPD2    H2 1257   3.297   0.070  10.803 -2.6857 -2.6577 -1.9296
   82MPD2    H3 1258   3.483   0.070  10.944 -0.4090  0.9538 -1.7569
   82MPD2     N 1259   3.401   4.375  11.100  0.5488  0.5675  0.1330
   82MPD2    H5 1260   3.501   4.361  11.106  0.3386 -1.0640 -0.2604
   82MPD2    N1 1261   3.097   4.618  10.797  0.3120  0.1925 -1.1208
   82MPD2    H7 1262   3.082   4.711  10.759  1.3740  0.4178 -0.9866
   83TCq2    C1 1263   3.318   4.272  11.127  1.1679  0.7523  0.2872
   83TCq2    O2 1264   3.196   4.280  11.141 -0.1537 -0.0710  0.0931
   83TCq2    C2 1265   3.377   4.138  11.151 -0.0527 -0.5469 -0.3136
   83TCq2    C3 1266   3.501   4.101  11.102  0.9241 -0.4702 -0.4217
   83TCq2    C4 1267   3.536   3.965  11.102 -0.8038  0.7033  0.0873
   83TCq2    C5 1268   3.452   3.872  11.146  0.4391  0.1253  0.2078
   83TCq2    C6 1269   3.325   3.907  11.188 -0.8011  0.2942 -0.1106
   83TCq2    C7 1270   3.290   4.040  11.193 -0.0702  0.0634  0.1278
   83TCq2    C8 1271   3.236   3.807  11.238  0.7391  0.4284 -0.1482
   83TCq2    O4 1272   3.161   3.831  11.332  0.2915  0.2137  0.3866
   83TCq2    C9 1273   3.672   3.940  11.061  0.4338 -0.4889 -0.6858
   83TCq2    O5 1274   3.707   3.821  11.041  0.3077 -0.2961  0.1878
   83TCq2    O6 1275   3.748   4.041  11.050  0.7055 -0.1636 -0.4800
   83TCq2    H2 1276   3.570   4.171  11.057  0.5575  0.7975  1.0262
   83TCq2    H3 1277   3.491   3.771  11.142  0.7393  0.3112 -1.4831
   83TCq2    H4 1278   3.191   4.065  11.227 -1.0273 -0.9183 -1.9044
   84TCq2    C1 1279   4.379   3.184  10.660  0.0218  0.0842 -0.2737
   84TCq2    O2 1280   4.298   3.261  10.607 -0.3445  0.1876  0.3530
   84TCq2    C2 1281   4.337   3.133  10.789  0.2345  0.5983  0.4469
   84TCq2    C3 1282   4.351   3.004  10.828  0.3894  0.4590 -0.8449
   84TCq2    C4 1283   4.279   2.963  10.946  0.4990  0.4707  0.5341
   84TCq2    C5 1284   4.224   3.056  11.030  0.3620 -0.0001 -0.1365
   84TCq2    C6 1285   4.220   3.183  10.989  0.0080 -0.1795 -0.3853
   84TCq2    C7 1286   4.265   3.225  10.865  0.5232 -0.2177 -0.7273
   84TCq2    C8 1287   4.150   3.278  11.077  0.9230  0.4892 -0.1665
   84TCq2    O4 1288   4.115   3.383  11.019 -0.5200 -0.3566  0.2134
   84TCq2    C9 1289   4.258   2.822  10.968  0.8845  0.2583 -0.2857
   84TCq2    O5 1290   4.196   2.793  11.074 -0.3540  0.9209  0.1982
   84TCq2    O6 1291   4.277   2.748  10.863 -0.6035  0.2375 -0.2579
   84TCq2    H2 1292   4.373   2.928  10.754  0.0311  1.5291 -2.0546
   84TCq2    H3 1293   4.153   3.021  11.104 -0.8429  3.6237  0.4136
   84TCq2    H4 1294   4.249   3.324  10.824 -3.7774 -1.1077 -1.2022
   85MPD2     C 1295   4.701   2.133  16.464 -0.1483 -0.7396  0.5951
   85MPD2    C1 1296   4.610   2.102  16.367 -0.0772  0.0978  0.0553
   85MPD2    C2 1297   4.556   2.211  16.297 -0.3010 -0.3612  0.0652
   85MPD2    C3 1298   4.607   2.335  16.318  0.3816 -0.2120  1.2945
   85MPD2    C4 1299   4.701   2.364  16.410 -0.9363 -0.4648 -0.1086
   85MPD2    C5 1300   0.033   2.260  16.478  0.1009  0.5437  0.4896
   85MPD2     H 1301   4.478   2.200  16.222 -0.6502  0.3592  0.3282
   85MPD2    H1 1302   0.014   2.463  16.432 -0.5639 -0.6406  0.0231
   85MPD2    H2 1303   0.018   2.057  16.529  0.0502 -0.9050  0.2694
   85MPD2    H3 1304   0.107   2.274  16.556 -0.1680 -0.4170  0.9246
   85MPD2     N 1305   4.569   2.436  16.230  0.0918 -0.0234 -0.3914
   85MPD2    H5 1306   4.497   2.411  16.162 -2.1162 -0.5150  2.1000
   85MPD2    N1 1307   4.566   1.969  16.351  0.1364 -0.3116  0.3487
   85MPD2    H7 1308   4.509   1.943  16.271  0.7587  0.4977 -0.3713
   86TCq2    C1 1309   4.630   2.556  16.208  0.7494 -0.3856  0.4241
   86TCq2    O2 1310   0.004   2.610  16.260 -0.6383 -0.4527  0.1043
   86TCq2    C2 1311   4.563   2.631  16.102 -0.1584  0.8646  0.3763
   86TCq2    C3 1312   4.438   2.606  16.054  0.6702  1.0191  0.0503
   86TCq2    C4 1313   4.406   2.661  15.927 -0.2601 -0.5325 -0.6295
   86TCq2    C5 1314   4.495   2.749  15.866 -0.3274  0.0351  0.3965
   86TCq2    C6 1315   4.615   2.778  15.927  0.1577  0.0831 -0.1007
   86TCq2    C7 1316   4.649   2.721  16.042  0.0637 -0.1844  0.0672
   86TCq2    C8 1317   4.723   2.840  15.836  0.5273 -0.1759 -0.2957
   86TCq2    O4 1318   0.108   2.836  15.888  0.3303  0.1045 -0.2707
   86TCq2    C9 1319   4.280   2.626  15.872  0.2598  0.1720 -0.0642
   86TCq2    O5 1320   4.243   2.700  15.779 -0.9785 -0.6726  0.0166
   86TCq2    O6 1321   4.228   2.518  15.913  0.0438 -0.1041  0.6287
   86TCq2    H2 1322   4.371   2.534  16.100 -0.9467  2.3576 -0.2423
   86TCq2    H3 1323   4.459   2.798  15.777  1.0095  0.9160  0.3332
   86TCq2    H4 1324   0.021   2.745  16.085  1.2239 -1.3315 -1.9179
   87MPD2     C 1325   1.994   1.610   1.171 -0.4830  0.1232  0.2089
   87MPD2    C1 1326   1.892   1.571   1.097  0.3952  0.9887 -0.2698
   87MPD2    C2 1327   1.778   1.652   1.092 -0.1168  0.5889 -0.1582
   87MPD2    C3 1328   1.777   1.774   1.161 -0.3420 -0.4587  0.3939
   87MPD2    C4 1329   1.884   1.812   1.235  0.0498  0.2455 -0.2009
   87MPD2    C5 1330   1.995   1.725   1.240  0.9719  0.1216 -0.4763
   87MPD2     H 1331   1.702   1.626   1.020  0.2237 -2.3689  0.5577
   87MPD2    H1 1332   1.894   1.909   1.282 -2.7722 -0.3507  1.6178
   87MPD2    H2 1333   2.088   1.557   1.177 -0.1291  0.6727 -0.4888
   87MPD2    H3 1334   2.086   1.747   1.295  1.0306 -0.1661 -0.4627
   87MPD2     N 1335   1.687   1.877   1.135 -0.7046  0.0656  0.3086
   87MPD2    H5 1336   1.709   1.962   1.185  0.5509  0.4502 -0.8905
   87MPD2    N1 1337   1.917   1.460   1.018  0.1789  0.4405 -0.5804
   87MPD2    H7 1338   2.002   1.410   1.041 -0.1794 -0.4767 -1.2907
   88TCq2    C1 1339   1.831   1.406   0.935  0.1547 -0.5483 -0.4437
   88TCq2    O2 1340   1.709   1.434   0.916 -0.0600  0.6034  0.0300
   88TCq2    C2 1341   1.884   1.283   0.868  0.5674  0.3592 -0.5768
   88TCq2    C3 1342   1.780   1.208   0.813  0.8693 -0.2858 -0.6246
   88TCq2    C4 1343   1.811   1.125   0.710 -0.4391  0.2025  0.1860
   88TCq2    C5 1344   1.939   1.129   0.660 -0.2505 -0.1590  0.1556
   88TCq2    C6 1345   2.034   1.207   0.706  0.2039  0.4435 -0.8899
   88TCq2    C7 1346   2.002   1.289   0.812  0.5643  0.3622  0.2625
   88TCq2    C8 1347   2.174   1.166   0.706 -0.0196  0.3389  0.1202
   88TCq2    O4 1348   2.266   1.240   0.740 -0.4013 -0.2100  0.1868
   88TCq2    C9 1349   1.713   1.031   0.662 -0.4021 -0.6007  0.3534
   88TCq2    O5 1350   1.766   0.951   0.578  0.2536  0.4567  0.0917
   88TCq2    O6 1351   1.597   1.023   0.703 -0.1687  0.0767 -0.3952
   88TCq2    H2 1352   1.682   1.201   0.858  0.6034  2.5501 -0.7586
   88TCq2    H3 1353   1.958   1.067   0.573  0.1140 -1.2036  0.9753
   88TCq2    H4 1354   2.073   1.368   0.834  0.8056 -0.5428  2.6825
   89MPD2     C 1355   2.283   3.529   2.407  0.6033 -0.5657  0.7103
   89MPD2    C1 1356   2.289   3.455   2.291 -0.5016 -0.2893 -0.3214
   89MPD2    C2 1357   2.407   3.439   2.224 -0.6934  0.2394  0.2070
   89MPD2    C3 1358   2.525   3.498   2.268 -0.2400  0.5559 -0.0229
   89MPD2    C4 1359   2.523   3.571   2.383  0.2085  0.0994  0.0030
   89MPD2    C5 1360   2.400   3.581   2.451 -0.0289 -0.1334 -0.1572
   89MPD2     H 1361   2.409   3.383   2.131  0.9637 -0.3747  0.6083
   89MPD2    H1 1362   2.614   3.611   2.426  0.0310  0.7636 -0.2411
   89MPD2    H2 1363   2.194   3.554   2.463  0.6122  0.3342  0.3282
   89MPD2    H3 1364   2.412   3.639   2.542  1.3817  1.9610 -1.6963
   89MPD2     N 1365   2.648   3.485   2.189 -1.0517 -0.0571  0.4306
   89MPD2    H5 1366   2.636   3.446   2.096  0.3035  0.6953 -0.0776
   89MPD2    N1 1367   2.174   3.386   2.246  0.0270 -0.1914 -0.6614
   89MPD2    H7 1368   2.176   3.340   2.156 -0.8032 -1.1989 -0.1688
   90TCq2    C1 1369   2.777   3.503   2.234  0.7619  0.9555 -0.1774
   90TCq2    O2 1370   2.822   3.502   2.349  0.0314  0.0428  0.0716
   90TCq2    C2 1371   2.870   3.479   2.128 -0.2453 -0.3470 -0.7445
   90TCq2    C3 1372   2.984   3.412   2.158  0.5143 -0.0709 -0.5122
   90TCq2    C4 1373   3.079   3.384   2.066 -0.5211 -0.5983  0.3785
   90TCq2    C5 1374   3.058   3.418   1.936 -0.4195  0.8796 -0.5719
   90TCq2    C6 1375   2.939   3.493   1.915  0.0530  0.1621 -0.7267
   90TCq2    C7 1376   2.834   3.504   2.001 -0.0652 -0.4973 -0.2126
   90TCq2    C8 1377   2.900   3.502   1.775  0.4557  0.1779 -0.2993
   90TCq2    O4 1378   2.783   3.489   1.736  0.4146 -0.1882 -0.5457
   90TCq2    C9 1379   3.209   3.330   2.112 -0.2391  0.1752 -0.0292
   90TCq2    O5 1380   3.292   3.297   2.027 -0.4531  0.3683 -0.0230
   90TCq2    O6 1381   3.218   3.304   2.232 -0.2213 -0.0901  0.0124
   90TCq2    H2 1382   3.008   3.390   2.261 -1.6382  3.0779  0.6688
   90TCq2    H3 1383   3.127   3.400   1.854 -1.0867 -0.5599 -0.8190
   90TCq2    H4 1384   2.746   3.562   1.976 -2.3880 -3.9536 -0.0434
   91TMC2    C1 1385   0.069   3.453  16.305 -0.2115  0.1410 -0.0283
   91TMC2    C2 1386   0.108   3.561  16.235  0.1052 -0.2881  0.1717
   91TMC2    C3 1387   0.017   3.629  16.155 -0.0266  0.5203 -0.1841
   91TMC2    C4 1388   4.664   3.421  16.316 -0.1855 -0.3214 -0.4533
   91TMC2    C5 1389   4.576   3.485  16.230 -0.4589 -0.0174 -0.1735
   91TMC2    C6 1390   4.610   3.596  16.157  0.1413 -0.0035 -0.6080
   91TMC2     C 1391   0.161   3.381  16.388 -0.5498  0.9543  0.7162
   91TMC2     O 1392   0.125   3.274  16.440 -0.4904  0.8188  0.7328
   91TMC2     H 1393   0.213   3.579  16.216 -0.2290  2.8581  1.3628
   91TMC2    H1 1394   4.627   3.344  16.382 -0.1195  0.4883  0.5238
   91TMC2    H2 1395   4.542   3.656  16.098  1.4791  1.5137 -0.6108
   91TMC2    C7 1396   4.438   3.494  16.274  0.1877  0.3860 -0.3497
   91TMC2    C8 1397   0.052   3.756  16.094  0.7547 -0.0991  0.0628
   91TMC2    O1 1398   4.416   3.488  16.396 -0.2298  0.2641  0.2974
   91TMC2    O2 1399   4.698   3.815  16.019  0.2994  0.3490  0.3161
   91TMC2    O5 1400   0.179   3.800  16.111 -0.1166  0.2161 -0.1530
   91TMC2    H5 1401   0.235   3.755  16.178 -0.5842 -3.1067 -2.0365
   92MPD2     C 1402   0.395   3.285  16.541 -0.3681 -0.2641 -0.0388
   92MPD2    C1 1403   0.383   3.413  16.491 -0.1759  0.2827 -0.4555
   92MPD2    C2 1404   0.478   3.508  16.526  0.1141 -0.1531  0.9676
   92MPD2    C3 1405   0.587   3.474  16.609 -0.2893  0.3859  0.0830
   92MPD2    C4 1406   0.598   3.340  16.651 -0.1262 -0.9804  0.1390
   92MPD2    C5 1407   0.512   3.249  16.603 -0.4428  0.7043 -0.1192
   92MPD2     H 1408   0.468   3.609  16.488 -0.3855  0.2353  2.1391
   92MPD2    H1 1409   0.678   3.311  16.719  2.2403  0.5999 -1.9563
   92MPD2    H2 1410   0.328   3.203  16.521  2.3544 -2.1565 -1.4141
   92MPD2    H3 1411   0.530   3.146  16.630 -0.8296  0.9547  1.0835
   92MPD2     N 1412   0.656   3.583  16.657 -0.1374  0.0489 -0.0845
   92MPD2    H5 1413   0.621   3.674  16.629  0.0844  0.8267  2.1865
   92MPD2    N1 1414   0.275   3.457  16.420  0.1777 -0.4369 -0.0678
   92MPD2    H7 1415   0.285   3.555  16.399 -2.4752 -0.1174  0.1793
   93MPD2     C 1416   1.969   3.049  13.933  0.4584  0.0985  0.0971
   93MPD2    C1 1417   1.911   3.172  13.952  0.1440 -0.1306  0.0259
   93MPD2    C2 1418   1.769   3.179  13.951  0.1734 -0.3189  0.0247
   93MPD2    C3 1419   1.691   3.072  13.929 -0.9642  0.4787  0.6619
   93MPD2    C4 1420   1.749   2.948  13.921 -0.8723 -0.7423  0.5965
   93MPD2    C5 1421   1.884   2.944  13.913 -0.5807 -0.7039 -0.3726
   93MPD2     H 1422   1.726   3.276  13.974  0.7669  0.6663 -3.0510
   93MPD2    H1 1423   1.686   2.865  13.893  0.0106 -1.9101  2.0777
   93MPD2    H2 1424   2.076   3.031  13.923  0.6090  1.7103 -1.2326
   93MPD2    H3 1425   1.930   2.850  13.885  3.1566  1.0207 -0.0632
   93MPD2     N 1426   1.548   3.076  13.908  0.1884 -0.0342  0.3417
   93MPD2    H5 1427   1.512   2.983  13.924  3.3796 -1.1780  0.9040
   93MPD2    N1 1428   1.988   3.291  13.976 -0.2583  0.1268  0.1189
   93MPD2    H7 1429   1.930   3.372  13.996 -0.1786  0.7213 -2.1062
   94TCq2    C1 1430   2.124   3.296  13.984  0.3815  0.1895 -0.5356
   94TCq2    O2 1431   2.207   3.216  13.945 -0.5998  0.2197  0.2695
   94TCq2    C2 1432   2.173   3.427  14.027 -0.7229  0.6512  0.1223
   94TCq2    C3 1433   2.108   3.487  14.131  0.6499  0.6496 -0.5010
   94TCq2    C4 1434   2.165   3.600  14.181  0.2249  0.5937 -0.0280
   94TCq2    C5 1435   2.294   3.642  14.158  0.2245 -0.4914 -0.1182
   94TCq2    C6 1436   2.354   3.569  14.060  0.1731 -0.0231  0.1431
   94TCq2    C7 1437   2.297   3.476  13.983  0.9665  0.7698  0.0643
   94TCq2    C8 1438   2.502   3.558  14.063 -0.2439 -0.7503  0.3396
   94TCq2    O4 1439   2.548   3.454  14.012 -0.1114  0.2713 -0.1458
   94TCq2    C9 1440   2.090   3.658  14.288  1.3700  0.0180  0.4658
   94TCq2    O5 1441   1.964   3.635  14.282  0.6635  0.4175 -0.2173
   94TCq2    O6 1442   2.143   3.737  14.366  0.1995  0.4835  0.1795
   94TCq2    H2 1443   2.009   3.452  14.161 -0.2126  2.3440 -1.3674
   94TCq2    H3 1444   2.341   3.718  14.219 -1.9156  0.0950  0.7927
   94TCq2    H4 1445   2.340   3.425  13.898  0.3066 -1.3426  0.9885
   95TMC2    C1 1446   2.069   0.022  15.957 -0.6695 -0.6090  0.3386
   95TMC2    C2 1447   2.167   0.003  16.047 -0.1275  0.1262 -0.0915
   95TMC2    C3 1448   2.149   4.655  16.160 -0.7385 -0.6830  0.1460
   95TMC2    C4 1449   1.947   4.689  15.985  0.2041  0.4325 -0.7328
   95TMC2    C5 1450   1.926   4.632  16.106 -0.2705  0.1281 -0.1399
   95TMC2    C6 1451   2.025   4.614  16.199  0.6694  0.3058  0.1649
   95TMC2     C 1452   2.098   0.107  15.842  0.5128  0.2578 -0.3859
   95TMC2     O 1453   2.185   0.191  15.863 -0.0468  0.4654  0.5915
   95TMC2     H 1454   2.266   0.008  16.003  1.2144 -2.5687  2.6218
   95TMC2    H1 1455   1.861   0.001  15.931 -0.2122  0.0121 -0.3525
   95TMC2    H2 1456   2.002   4.562  16.291 -2.0290 -1.5964 -1.5849
   95TMC2    C7 1457   1.795   4.594  16.146 -0.3790  0.5184 -0.6870
   95TMC2    C8 1458   2.255   4.652  16.262 -0.7085 -0.1822  0.3716
   95TMC2    O1 1459   1.795   4.558  16.263 -0.1603 -0.2118  0.6547
   95TMC2    O2 1460   2.272   4.557  16.332 -0.0085  0.1427 -0.0667
   95TMC2    O5 1461   2.323   0.044  16.259 -0.3430 -0.3023 -0.0567
   95TMC2    H5 1462   2.267   0.112  16.218 -0.1287 -0.0818  0.0142
   96MPD2     C 1463   1.996   0.323  15.380 -0.0346 -0.3278  0.2762
   96MPD2    C1 1464   2.066   0.367  15.492  0.6551 -0.4282 -0.5833
   96MPD2    C2 1465   2.079   0.289  15.607 -0.3341 -0.0637 -0.0855
   96MPD2    C3 1466   2.018   0.165  15.612 -0.0505 -0.1516 -0.9063
   96MPD2    C4 1467   1.945   0.126  15.502  0.0814  0.1569  0.4842
   96MPD2    C5 1468   1.933   0.203  15.399 -0.3012  0.1300 -0.2225
   96MPD2     H 1469   2.145   0.328  15.683  0.5555 -2.0591  0.1618
   96MPD2    H1 1470   1.885   0.036  15.511  0.4582 -0.5091 -3.5205
   96MPD2    H2 1471   1.972   0.380  15.291  3.4220  0.4935 -0.1323
   96MPD2    H3 1472   1.870   0.163  15.320 -1.4434 -0.1938  0.8427
   96MPD2     N 1473   2.020   0.086  15.729 -0.2920 -0.2362 -0.1797
   96MPD2    H5 1474   1.965   0.001  15.727 -2.4072  1.0848  1.4436
   96MPD2    N1 1475   2.112   0.501  15.478 -0.0348 -0.1034 -0.0986
   96MPD2    H7 1476   2.114   0.540  15.384  1.9069  0.1616  0.0507
   97MPD2     C 1477   4.296   2.207   0.781  0.1646 -0.5432 -0.3610
   97MPD2    C1 1478   4.218   2.316   0.813 -0.1704  0.1416  0.3144
   97MPD2    C2 1479   4.169   2.402   0.713  0.2378 -0.0731 -0.3936
   97MPD2    C3 1480   4.213   2.384   0.586 -0.4830 -0.3360  0.0152
   97MPD2    C4 1481   4.284   2.274   0.553  0.4262  0.3175  0.0161
   97MPD2    C5 1482   4.324   2.184   0.651  0.7142  0.6540  0.1136
   97MPD2     H 1483   4.106   2.482   0.748 -0.1359 -1.1855  1.4929
   97MPD2    H1 1484   4.323   2.262   0.453  3.7534  0.2568  1.3414
   97MPD2    H2 1485   4.341   2.149   0.861  0.7265  0.7251  0.2412
   97MPD2    H3 1486   4.389   2.102   0.622  0.0148  0.6958 -1.5763
   97MPD2     N 1487   4.188   2.470   0.487  0.3345 -0.5556 -0.6278
   97MPD2    H5 1488   4.223   2.446   0.395 -0.0740 -0.6567 -0.7595
   97MPD2    N1 1489   4.173   2.332   0.947 -0.6883 -0.5312 -0.3749
   97MPD2    H7 1490   4.205   2.265   1.016 -2.4896 -1.3584 -0.3258
   98TCq2    C1 1491   4.110   2.586   0.500 -0.4410  0.4712  0.2346
   98TCq2    O2 1492   4.070   2.644   0.597 -0.1082 -0.2894  0.3658
   98TCq2    C2 1493   4.088   2.657   0.374  0.4653  0.1232 -0.8096
   98TCq2    C3 1494   4.153   2.613   0.262  0.2667 -0.0555  0.3201
   98TCq2    C4 1495   4.151   2.690   0.146  0.6984 -1.0080 -0.5879
   98TCq2    C5 1496   4.086   2.813   0.148 -0.7551  0.1405 -0.7474
   98TCq2    C6 1497   4.027   2.851   0.265 -0.5806  0.0120  0.8420
   98TCq2    C7 1498   4.023   2.777   0.379 -0.8805  0.4487  0.3243
   98TCq2    C8 1499   3.955   2.974   0.278 -0.1971  0.0480  0.3339
   98TCq2    O4 1500   3.943   3.029   0.389 -0.0826 -0.4767  0.5270
   98TCq2    C9 1501   4.214   2.634   0.028  0.3905  0.8918 -0.2072
   98TCq2    O5 1502   4.241   2.509   0.012 -0.4201 -0.6370  0.0508
   98TCq2    O6 1503   4.224   2.716  17.634 -0.4565 -0.5228 -0.0241
   98TCq2    H2 1504   4.193   2.512   0.259 -0.4625 -0.3228 -0.3289
   98TCq2    H3 1505   4.088   2.884   0.066 -1.2394 -1.3761 -2.0820
   98TCq2    H4 1506   3.984   2.813   0.474  1.7055  4.3856 -0.1007
   99MPD2     C 1507   2.793   3.886   2.477  0.0976  1.1859 -0.2017
   99MPD2    C1 1508   2.655   3.892   2.460  0.6233  0.2166 -0.1401
   99MPD2    C2 1509   2.613   3.876   2.329 -0.5631 -0.5784 -0.2783
   99MPD2    C3 1510   2.693   3.862   2.221  0.0037 -0.3580  0.5855
   99MPD2    C4 1511   2.831   3.860   2.243  0.1708 -0.0854  0.2113
   99MPD2    C5 1512   2.873   3.870   2.370  0.3705  0.4741 -0.7014
   99MPD2     H 1513   2.506   3.885   2.313 -0.5589  0.0511  0.0407
   99MPD2    H1 1514   2.905   3.855   2.164 -0.9346  2.7446 -0.9773
   99MPD2    H2 1515   2.844   3.902   2.572 -0.4282 -0.5368  0.3730
   99MPD2    H3 1516   2.980   3.864   2.390  0.3891  1.7423 -0.4230
   99MPD2     N 1517   2.630   3.855   2.100  0.0352  0.4987  0.1411
   99MPD2    H5 1518   2.530   3.873   2.098 -0.0227  0.1475 -0.1234
   99MPD2    N1 1519   2.559   3.902   2.561  0.6713  0.0276 -0.1130
   99MPD2    H7 1520   2.462   3.907   2.532 -0.6106  0.7357  4.3391
  100TCq2    C1 1521   2.586   3.909   2.690 -0.0753  0.1508 -0.0184
  100TCq2    O2 1522   2.696   3.900   2.744 -0.1700  0.5023 -0.2362
  100TCq2    C2 1523   2.463   3.928   2.774 -0.5071  0.1064 -0.5585
  100TCq2    C3 1524   2.457   3.877   2.900 -0.1942 -0.2976  0.3914
  100TCq2    C4 1525   2.344   3.902   2.968  0.0570 -0.1150  0.8430
  100TCq2    C5 1526   2.229   3.948   2.912 -0.4410  0.0070  0.6275
  100TCq2    C6 1527   2.233   3.982   2.781 -0.0414  0.0020 -0.0828
  100TCq2    C7 1528   2.359   3.987   2.713 -0.1359 -0.1853  0.4944
  100TCq2    C8 1529   2.117   4.053   2.735  1.2032 -0.3126  0.1875
  100TCq2    O4 1530   2.019   4.059   2.804 -0.3582 -0.1732 -0.1076
  100TCq2    C9 1531   2.339   3.874   3.105  0.0472 -0.6059  0.4726
  100TCq2    O5 1532   2.451   3.836   3.158  0.3926 -0.4366 -0.1304
  100TCq2    O6 1533   2.226   3.877   3.157 -0.3845  0.3679 -0.4956
  100TCq2    H2 1534   2.545   3.842   2.953  0.3817 -1.0102 -1.0290
  100TCq2    H3 1535   2.143   3.972   2.973 -0.4994  2.4281 -0.4180
  100TCq2    H4 1536   2.367   4.038   2.617  0.9644 -0.5268  0.4044
  101MPD2     C 1537   3.047   1.225  13.070 -0.4208 -0.7731  0.4233
  101MPD2    C1 1538   3.146   1.219  13.163  0.1574  0.3415  0.1810
  101MPD2    C2 1539   3.152   1.114  13.255  0.2439 -0.6152  0.1246
  101MPD2    C3 1540   3.060   1.011  13.242  0.1077 -0.2122 -0.1769
  101MPD2    C4 1541   2.969   1.010  13.132 -0.6838  0.4639 -0.1779
  101MPD2    C5 1542   2.965   1.122  13.056  0.6120 -0.0044  0.9449
  101MPD2     H 1543   3.229   1.120  13.332 -0.5860 -0.1768  0.9259
  101MPD2    H1 1544   2.894   0.936  13.109  1.5130 -1.8790  0.1848
  101MPD2    H2 1545   3.027   1.312  13.007  1.5394 -0.3538  0.3985
  101MPD2    H3 1546   2.885   1.128  12.983  0.2046  1.4068  1.5042
  101MPD2     N 1547   3.064   0.907  13.332 -0.1529  0.5671  0.2336
  101MPD2    H5 1548   3.133   0.920  13.405  0.7392 -0.0459 -0.5003
  101MPD2    N1 1549   3.236   1.324  13.171 -0.1061  0.4913  0.2890
  101MPD2    H7 1550   3.213   1.408  13.118 -2.5545 -0.9024 -0.8662
  102TCq2    C1 1551   3.762   1.510  13.063 -0.2879 -0.0870  0.6976
  102TCq2    O2 1552   3.844   1.421  13.087  0.4971  0.2005 -0.2005
  102TCq2    C2 1553   3.649   1.526  13.153  0.5945  0.1653 -0.4240
  102TCq2    C3 1554   3.586   1.651  13.133 -0.4332 -0.8755  0.3001
  102TCq2    C4 1555   3.451   1.653  13.160  0.5782 -0.5451 -0.2303
  102TCq2    C5 1556   3.378   1.542  13.190 -0.1038 -0.0741  0.3855
  102TCq2    C6 1557   3.443   1.427  13.198  0.5106 -0.0339 -0.4982
  102TCq2    C7 1558   3.575   1.413  13.170 -0.0834 -0.0402 -1.5659
  102TCq2    C8 1559   3.362   1.308  13.209 -0.2183  0.6953  0.5196
  102TCq2    O4 1560   3.418   1.204  13.237  0.3664 -0.1488  0.1554
  102TCq2    C9 1561   3.395   1.781  13.164  0.6887 -0.5377  0.0935
  102TCq2    O5 1562   3.284   1.799  13.222 -0.2730  0.6632 -0.3121
  102TCq2    O6 1563   3.462   1.877  13.116 -0.3287 -0.4918 -0.1122
  102TCq2    H2 1564   3.646   1.739  13.111 -0.4959 -0.3725  2.1431
  102TCq2    H3 1565   3.273   1.555  13.216 -0.3917 -0.0656 -0.7681
  102TCq2    H4 1566   3.625   1.318  13.175 -0.9184 -0.3376  1.4399
  103TMC2    C1 1567   1.902   4.720  12.695  0.4307  0.1363  0.4072
  103TMC2    C2 1568   2.002   4.632  12.719  0.1189 -0.1290 -0.5796
  103TMC2    C3 1569   2.116   4.700  12.763 -0.0650  0.2924  0.0801
  103TMC2    C4 1570   1.916   0.131  12.668  0.6266 -0.3557 -0.1615
  103TMC2    C5 1571   2.037   0.188  12.703  0.5937 -0.2271 -0.4712
  103TMC2    C6 1572   2.129   0.110  12.755  0.5724 -0.2404  0.5585
  103TMC2     C 1573   1.782   4.672  12.638 -0.4565  0.7831 -0.2812
  103TMC2     O 1574   1.693   0.025  12.615  0.0551 -0.4016  1.0073
  103TMC2     H 1575   1.994   4.524  12.729 -1.5599 -0.3077 -3.7749
  103TMC2    H1 1576   1.826   0.191  12.659 -0.3687 -2.2115 -2.7532
  103TMC2    H2 1577   2.219   0.162  12.787  2.1264 -2.1078 -0.7669
  103TMC2    C7 1578   2.030   0.323  12.752 -0.6976  0.6982  0.7840
  103TMC2    C8 1579   2.236   4.624  12.799  0.4546  0.2200 -0.3133
  103TMC2    O1 1580   2.091   0.359  12.849 -0.3260 -0.3626 -0.3638
  103TMC2    O2 1581   2.352   4.662  12.785  0.0269 -0.6135 -0.4076
  103TMC2    O5 1582   2.191   4.505  12.844 -0.0949  0.2467  0.4936
  103TMC2    H5 1583   2.256   4.440  12.878 -0.4106 -0.3699 -0.0967
  104MPD2     C 1584   1.668   4.332  12.553 -0.0895  0.5534  1.0570
  104MPD2    C1 1585   1.672   4.472  12.552  0.3663 -0.0116 -0.6410
  104MPD2    C2 1586   1.587   4.537  12.468  0.0306  0.5006  0.2923
  104MPD2    C3 1587   1.489   4.471  12.402 -0.2246 -0.0185 -0.5278
  104MPD2    C4 1588   1.473   4.338  12.413 -0.3426  0.1487 -0.0631
  104MPD2    C5 1589   1.566   4.270  12.483 -0.1374 -0.6898 -0.6132
  104MPD2     H 1590   1.590   4.645  12.457  0.9328  0.4467  0.0107
  104MPD2    H1 1591   1.402   4.286  12.350  1.5005 -1.8807 -0.4743
  104MPD2    H2 1592   1.740   4.270  12.606  0.0437 -0.7751 -0.7075
  104MPD2    H3 1593   1.567   4.161  12.487  0.6253 -0.7478 -2.2805
  104MPD2     N 1594   1.414   4.550  12.305  0.0560  0.2606 -0.4012
  104MPD2    H5 1595   1.439   4.648  12.297  0.1364  0.5681  3.7224
  104MPD2    N1 1596   1.776   4.536  12.621  0.0833  0.9497 -0.8629
  104MPD2    H7 1597   1.855   4.482  12.655 -1.1935 -0.8094 -0.6603
  105MPD2     C 1598   3.536   1.004   0.074 -0.0068  0.0717 -0.1145
  105MPD2    C1 1599   3.408   1.000   0.035  0.8158  0.3950  0.3792
  105MPD2    C2 1600   3.310   1.009   0.139 -0.9945 -0.1978 -0.0487
  105MPD2    C3 1601   3.348   1.017   0.269 -0.2152 -1.0731 -0.2199
  105MPD2    C4 1602   3.480   1.028   0.300 -0.8651  0.3653 -0.2086
  105MPD2    C5 1603   3.573   1.038   0.204  0.5104 -0.4578  0.3936
  105MPD2     H 1604   3.205   1.002   0.115 -1.0564 -2.7492  1.0156
  105MPD2    H1 1605   3.521   1.038   0.399  0.3238  0.3925 -0.7055
  105MPD2    H2 1606   3.622   1.003   0.008  0.9608  0.3359  1.1425
  105MPD2    H3 1607   3.678   1.034   0.230  1.4671  3.5983 -3.0936
  105MPD2     N 1608   3.242   1.025   0.364  0.5059  0.0419 -0.0686
  105MPD2    H5 1609   3.151   1.040   0.322  1.0552 -1.2254 -1.7105
  105MPD2    N1 1610   3.363   0.983  17.602  0.4713  0.2333  0.0207
  105MPD2    H7 1611   3.265   1.005  17.588  0.2606 -1.9795 -2.0245
  106TCq2    C1 1612   3.248   1.039   0.503 -0.2109 -0.3849 -0.4301
  106TCq2    O2 1613   3.344   1.032   0.580  0.1826 -0.1458  0.7284
  106TCq2    C2 1614   3.118   1.057   0.562 -0.6547  0.5562 -0.0127
  106TCq2    C3 1615   3.126   1.109   0.690 -0.0526 -0.0047  0.9117
  106TCq2    C4 1616   3.009   1.126   0.755  0.4327  1.1089 -0.6442
  106TCq2    C5 1617   2.885   1.091   0.704 -0.3812  0.8981  0.0189
  106TCq2    C6 1618   2.887   1.036   0.579  0.6953 -0.1489 -0.9736
  106TCq2    C7 1619   3.000   1.017   0.503 -0.1185 -0.5821 -0.1388
  106TCq2    C8 1620   2.771   0.971   0.526 -0.3130  0.2815 -0.2220
  106TCq2    O4 1621   2.790   0.873   0.454  0.0967  0.1430 -0.2427
  106TCq2    C9 1622   3.014   1.199   0.880 -0.2524  0.0651  0.3940
  106TCq2    O5 1623   2.904   1.208   0.942 -0.3110  0.8918 -0.2592
  106TCq2    O6 1624   3.127   1.237   0.921  0.1013  0.0103 -0.5839
  106TCq2    H2 1625   3.209   1.172   0.723 -0.2117  1.7663 -1.9659
  106TCq2    H3 1626   2.798   1.096   0.767  0.3429 -1.2992  1.1928
  106TCq2    H4 1627   2.990   0.982   0.401  1.7190  1.0058 -0.8707
  107TMC2    C1 1628   3.759   4.046  11.452  0.7007 -0.7629 -0.2165
  107TMC2    C2 1629   3.817   4.091  11.336 -0.6684 -0.2223 -0.3498
  107TMC2    C3 1630   3.925   4.016  11.287 -0.5567  0.7040 -0.6166
  107TMC2    C4 1631   3.797   3.934  11.519 -0.2910  0.7471 -0.3748
  107TMC2    C5 1632   3.904   3.867  11.468 -0.3544 -0.0497 -0.8406
  107TMC2    C6 1633   3.969   3.914  11.364  0.3597 -1.6195 -0.4733
  107TMC2     C 1634   3.668   4.130  11.521  0.2403 -0.9321  0.7148
  107TMC2     O 1635   3.637   4.078  11.627  0.3863  0.0070  0.0658
  107TMC2     H 1636   3.788   4.186  11.293 -3.0706 -0.9728 -0.3959
  107TMC2    H1 1637   3.759   3.903  11.616  3.9331 -0.3062  0.9149
  107TMC2    H2 1638   4.061   3.873  11.324  1.1683  1.2184 -1.4961
  107TMC2    C7 1639   3.941   3.735  11.518  0.8354 -0.0388 -0.7000
  107TMC2    C8 1640   4.023   4.087  11.210  0.3078 -0.0969 -0.5399
  107TMC2    O1 1641   3.922   3.708  11.635  0.3525  0.3359  0.2528
  107TMC2    O2 1642   4.128   4.115  11.256  0.2727  0.7112 -0.3032
  107TMC2    O5 1643   3.949   4.162  11.128 -0.2819 -0.2559 -0.1214
  107TMC2    H5 1644   3.874   4.103  11.104 -1.0297 -0.0170  1.6604
  108MPD2     C 1645   3.495   4.438  11.438 -0.9202 -0.1779  0.0655
  108MPD2    C1 1646   3.530   4.333  11.509  0.4040 -0.3785 -0.4634
  108MPD2    C2 1647   3.467   4.322  11.633  0.4531 -0.1758  0.3987
  108MPD2    C3 1648   3.355   4.398  11.667 -0.4059 -0.0885  0.9321
  108MPD2    C4 1649   3.319   4.503  11.587 -0.1805 -0.4344  0.2301
  108MPD2    C5 1650   3.392   4.522  11.473 -0.4855  0.4982 -0.1916
  108MPD2     H 1651   3.508   4.252  11.704  2.0846  2.3676  1.9723
  108MPD2    H1 1652   3.244   4.578  11.609 -0.1457 -0.5161  0.6270
  108MPD2    H2 1653   3.552   4.467  11.350 -1.5093 -0.1992 -0.3251
  108MPD2    H3 1654   3.353   4.597  11.406 -2.8802 -0.9222 -0.3856
  108MPD2     N 1655   3.276   4.381  11.781  0.2513 -0.0743 -0.0111
  108MPD2    H5 1656   3.184   4.422  11.768  0.2269 -0.5682 -1.4637
  108MPD2    N1 1657   3.626   4.245  11.456 -0.8664  0.0192  0.0209
  108MPD2    H7 1658   3.674   4.271  11.370  2.0610 -0.3580  1.5253
  109MPD2     C 1659   3.586   1.442   1.971  0.1585 -0.1759  0.1697
  109MPD2    C1 1660   3.614   1.524   1.866 -0.0941  0.0107 -0.3503
  109MPD2    C2 1661   3.745   1.525   1.814  0.0228  0.1983  1.0431
  109MPD2    C3 1662   3.846   1.469   1.893  0.0346 -0.0049  0.0681
  109MPD2    C4 1663   3.810   1.382   1.986 -0.2768 -0.2529  0.3251
  109MPD2    C5 1664   3.681   1.363   2.020  0.0205  1.2052 -0.2259
  109MPD2     H 1665   3.785   1.598   1.744 -1.0842  0.5461  0.7750
  109MPD2    H1 1666   3.883   1.323   2.040 -2.6307 -2.1423  1.4658
  109MPD2    H2 1667   3.487   1.437   2.015 -0.5710  1.0355 -1.3432
  109MPD2    H3 1668   3.656   1.301   2.105 -0.5711 -0.5807 -1.7029
  109MPD2     N 1669   3.983   1.507   1.862  1.1185 -1.1807 -0.2739
  109MPD2    H5 1670   4.006   1.574   1.790 -4.2010  0.2346 -0.6841
  109MPD2    N1 1671   3.503   1.599   1.812 -0.0374  0.3133 -0.3891
  109MPD2    H7 1672   3.419   1.603   1.869  0.5105  1.5363  0.3624
  110TCq2    C1 1673   4.094   1.459   1.926 -0.2306 -0.4244  0.4049
  110TCq2    O2 1674   4.110   1.387   2.021  0.2371 -1.0094  0.4864
  110TCq2    C2 1675   4.227   1.506   1.878 -0.3583 -0.3245 -0.1653
  110TCq2    C3 1676   4.343   1.446   1.931 -0.3823 -0.3417 -0.5346
  110TCq2    C4 1677   4.461   1.494   1.889  0.1368  0.8993 -0.0975
  110TCq2    C5 1678   4.468   1.608   1.806  0.0691 -0.1235  0.5549
  110TCq2    C6 1679   4.354   1.666   1.767 -0.0024 -0.3578 -0.3582
  110TCq2    C7 1680   4.232   1.621   1.803 -0.4118 -0.0372  0.1431
  110TCq2    C8 1681   4.363   1.787   1.687 -0.3754 -0.2400  0.0020
  110TCq2    O4 1682   4.257   1.841   1.672 -0.4851  0.7015 -0.1857
  110TCq2    C9 1683   4.594   1.441   1.941  0.9801  0.2322  0.1145
  110TCq2    O5 1684   4.696   1.516   1.917  0.0288 -0.1059  0.1488
  110TCq2    O6 1685   4.598   1.324   1.987  0.2474 -0.3734  0.2665
  110TCq2    H2 1686   4.344   1.362   1.999 -3.3924 -1.5852 -2.0292
  110TCq2    H3 1687   4.562   1.655   1.779 -0.0176 -0.5430 -0.4654
  110TCq2    H4 1688   4.147   1.684   1.778 -3.0200 -2.5083  2.8269
  111TMC2    C1 1689   3.708   0.888  11.792  0.3198  0.0862  0.3128
  111TMC2    C2 1690   3.717   0.764  11.742  0.5497  0.3338  0.2395
  111TMC2    C3 1691   3.839   0.707  11.727  0.1838 -0.3461 -0.3164
  111TMC2    C4 1692   3.822   0.955  11.837  0.4217  0.4546 -0.0291
  111TMC2    C5 1693   3.935   0.883  11.848 -0.8300 -0.2350 -0.0809
  111TMC2    C6 1694   3.951   0.763  11.786  0.0666 -0.0372  0.4406
  111TMC2     C 1695   3.615   0.970  11.731  0.3510 -0.0218 -0.3487
  111TMC2     O 1696   3.599   0.942  11.611 -0.3612 -0.2419 -0.2072
  111TMC2     H 1697   3.627   0.718  11.703  1.6456  0.2003 -2.1127
  111TMC2    H1 1698   3.824   1.055  11.878  0.2656  0.1753  0.6708
  111TMC2    H2 1699   4.047   0.718  11.808 -0.5931 -1.0342  1.3460
  111TMC2    C7 1700   4.037   0.932  11.943 -1.2547 -0.3249 -0.7438
  111TMC2    C8 1701   3.831   0.563  11.697 -0.8829  0.1377 -0.4555
  111TMC2    O1 1702   3.993   0.997  12.040 -0.4596 -0.2140 -0.0537
  111TMC2    O2 1703   3.744   0.502  11.757 -0.7667  0.1859 -0.5422
  111TMC2    O5 1704   3.962   0.543  11.694 -1.0178 -0.3763 -0.4598
  111TMC2    H5 1705   4.003   0.609  11.634 -2.8751 -0.9299 -2.3730
  112MPD2     C 1706   3.425   1.447  11.689 -0.4647 -0.7789  0.4715
  112MPD2    C1 1707   3.468   1.357  11.592  0.2251 -0.4777 -0.0188
  112MPD2    C2 1708   3.507   1.227  11.625  0.9793 -0.0128 -0.2450
  112MPD2    C3 1709   3.502   1.189  11.757 -0.5665  0.0617  0.8345
  112MPD2    C4 1710   3.457   1.278  11.848 -0.5972 -0.4192  0.5889
  112MPD2    C5 1711   3.414   1.401  11.818  0.6511  0.0984 -0.7529
  112MPD2     H 1712   3.547   1.163  11.548 -0.8513  0.3217 -1.4821
  112MPD2    H1 1713   3.452   1.252  11.953 -0.4281 -0.3524  0.6142
  112MPD2    H2 1714   3.406   1.553  11.676 -0.3080 -0.4522  2.9744
  112MPD2    H3 1715   3.384   1.468  11.897  0.9189  0.1934 -0.7311
  112MPD2     N 1716   3.561   1.071  11.807 -0.6670 -0.1598  0.0146
  112MPD2    H5 1717   3.573   1.070  11.908 -0.5403  2.6105  0.0201
  112MPD2    N1 1718   3.499   1.397  11.460 -0.1057  0.1362  0.3977
  112MPD2    H7 1719   3.535   1.331  11.391 -3.1079 -0.4318 -0.5875
  113MPD2     C 1720   1.587   4.459   0.748 -0.0836 -0.0094 -0.9781
  113MPD2    C1 1721   1.548   4.561   0.668  0.0491  0.5369  0.3888
  113MPD2    C2 1722   1.423   4.547   0.609 -0.2286  0.1658 -0.5340
  113MPD2    C3 1723   1.345   4.431   0.618 -0.9161 -0.9066 -0.7682
  113MPD2    C4 1724   1.392   4.332   0.703 -0.4920  0.1918  0.3919
  113MPD2    C5 1725   1.510   4.345   0.773 -0.2537 -0.1897  1.0087
  113MPD2     H 1726   1.412   4.627   0.536  1.5654  0.5452 -0.4128
  113MPD2    H1 1727   1.338   4.241   0.726 -1.4641  0.8266  0.6341
  113MPD2    H2 1728   1.690   4.462   0.782  0.2551  0.0334 -2.0017
  113MPD2    H3 1729   1.546   4.267   0.839  0.5317  0.3067  1.1752
  113MPD2     N 1730   1.230   4.409   0.544  0.0117  0.3207 -0.8308
  113MPD2    H5 1731   1.188   4.319   0.563  3.1618 -1.5384 -2.6813
  113MPD2    N1 1732   1.621   4.684   0.643  0.7121 -0.3154  0.5650
  113MPD2    H7 1733   1.589   0.027   0.576 -0.7758 -1.1450  0.4318
  114TCq2    C1 1734   1.196   4.479   0.433 -0.7466 -0.3108 -0.1046
  114TCq2    O2 1735   1.249   4.577   0.392 -0.9547  0.1622  0.1117
  114TCq2    C2 1736   1.100   4.416   0.351 -0.2066  0.2584  0.1740
  114TCq2    C3 1737   1.114   4.433   0.216  0.3647  0.3696 -0.0689
  114TCq2    C4 1738   1.018   4.382   0.136 -0.0833  0.7625 -0.2904
  114TCq2    C5 1739   0.919   4.314   0.192 -0.3298  0.3812 -0.1347
  114TCq2    C6 1740   0.906   4.294   0.328  0.1831 -0.5893  0.1853
  114TCq2    C7 1741   1.001   4.342   0.413  0.2751 -0.8930 -0.1634
  114TCq2    C8 1742   0.789   4.232   0.381  0.1192 -0.2377  0.1170
  114TCq2    O4 1743   0.710   4.194   0.297  0.3846  0.1660 -0.5549
  114TCq2    C9 1744   1.026   4.408  17.690 -0.3166  0.8451 -0.4422
  114TCq2    O5 1745   0.928   4.376  17.619  0.6908  0.1023 -0.0843
  114TCq2    O6 1746   1.127   4.468  17.656  0.3683  0.2760 -0.1661
  114TCq2    H2 1747   1.204   4.477   0.173  0.0733  0.7853 -0.2530
  114TCq2    H3 1748   0.847   4.270   0.123  0.7773 -0.7286 -0.5740
  114TCq2    H4 1749   0.991   4.342   0.521  2.4236 -0.2256  0.0411
  115TMC2    C1 1750   2.414   2.556  17.387 -0.2105 -0.2310 -0.6300
  115TMC2    C2 1751   2.504   2.543  17.484 -0.6212 -0.6925 -1.2484
  115TMC2    C3 1752   2.607   2.640  17.484  0.8589 -0.3273 -0.0430
  115TMC2    C4 1753   2.405   2.672  17.307 -0.4705 -0.8096 -0.6112
  115TMC2    C5 1754   2.501   2.771  17.320  0.2133 -0.3195  0.5508
  115TMC2    C6 1755   2.596   2.761  17.415  0.9786  0.0658 -0.0500
  115TMC2     C 1756   2.298   2.462  17.391  0.0083 -0.5570  0.5430
  115TMC2     O 1757   2.317   2.353  17.445  0.5324 -0.2771  0.0842
  115TMC2     H 1758   2.495   2.463  17.556 -0.1055  0.4273  0.0833
  115TMC2    H1 1759   2.331   2.681  17.229 -2.2263  1.0443  1.2648
  115TMC2    H2 1760   2.663   2.841  17.442  1.8910 -0.8585  0.4001
  115TMC2    C7 1761   2.458   2.902  17.279  0.2855 -0.7320  0.4239
  115TMC2    C8 1762   2.716   2.635  17.579 -0.5695 -0.0880  0.2894
  115TMC2    O1 1763   2.349   2.910  17.227  0.2376 -0.0303  0.4487
  115TMC2    O2 1764   2.793   2.724  17.600 -0.2320 -0.2916  0.3162
  115TMC2    O5 1765   2.741   2.505  17.590 -0.3589 -0.1619  0.7477
  115TMC2    H5 1766   2.671   2.443  17.562 -0.7464  0.1078  1.1140
  116MPD2     C 1767   1.849   2.287  17.204 -0.5128 -0.1271 -0.6214
  116MPD2    C1 1768   1.959   2.222  17.251  0.0608  0.2223  0.4590
  116MPD2    C2 1769   2.066   2.298  17.292  0.0316  0.1944 -0.3780
  116MPD2    C3 1770   2.068   2.436  17.290 -0.4810 -0.6034 -0.4593
  116MPD2    C4 1771   1.961   2.496  17.222  0.1992  0.5302 -0.2419
  116MPD2    C5 1772   1.853   2.422  17.189  0.6005  0.0820 -0.4647
  116MPD2     H 1773   2.151   2.242  17.330  0.5697 -0.5294 -2.6669
  116MPD2    H1 1774   1.961   2.604  17.215  1.1449  0.5213 -0.3478
  116MPD2    H2 1775   1.757   2.234  17.183 -1.3615 -0.1760  3.3049
  116MPD2    H3 1776   1.768   2.476  17.150  1.1249  0.4489 -1.0871
  116MPD2     N 1777   2.183   2.514  17.329  0.6379  0.0731 -0.1063
  116MPD2    H5 1778   2.185   2.615  17.322  3.6478  0.1051  1.4341
  116MPD2    N1 1779   1.943   2.087  17.267 -0.0123  0.0808  0.2087
  116MPD2    H7 1780   1.863   2.037  17.229 -0.4839 -0.4258  1.8522
  117TMC2    C1 1781   1.039   3.663  14.240  0.2671  0.4722 -0.8607
  117TMC2    C2 1782   1.093   3.536  14.227 -0.1767  0.6240  0.5250
  117TMC2    C3 1783   1.189   3.515  14.131  0.2874  0.1393  0.0048
  117TMC2    C4 1784   1.077   3.761  14.160 -0.4696 -0.0162 -0.1397
  117TMC2    C5 1785   1.163   3.738  14.054  0.0347  0.3588  0.5102
  117TMC2    C6 1786   1.220   3.616  14.048  0.0929 -0.0963 -0.2843
  117TMC2     C 1787   0.899   3.657  14.281 -0.7147  0.1273 -0.1585
  117TMC2     O 1788   0.848   3.550  14.297  0.1719 -0.0723  0.0892
  117TMC2     H 1789   1.036   3.452  14.264 -1.7323  1.3819 -0.1606
  117TMC2    H1 1790   1.043   3.863  14.165  1.8666  0.8503 -1.9872
  117TMC2    H2 1791   1.294   3.595  13.971 -0.2460  1.4173 -1.0327
  117TMC2    C7 1792   1.200   3.853  13.962 -0.1262 -0.2743  1.0687
  117TMC2    C8 1793   1.253   3.388  14.116 -1.0698  0.3784  0.2164
  117TMC2    O1 1794   1.196   3.966  14.008  0.6276  0.2955  0.0791
  117TMC2    O2 1795   1.191   3.288  14.148 -0.0586 -0.7657 -0.1926
  117TMC2    O5 1796   1.389   3.405  14.121 -0.4688 -0.0988 -0.8968
  117TMC2    H5 1797   1.419   3.496  14.138 -0.3601 -0.1053 -1.0532
  118MPD2     C 1798   1.247   3.791  13.598  0.6803 -0.0748  0.5845
  118MPD2    C1 1799   1.248   3.863  13.715  0.3856  0.3033  0.8337
  118MPD2    C2 1800   1.296   3.992  13.710  0.0578 -0.3278 -0.4077
  118MPD2    C3 1801   1.334   4.050  13.589 -0.5743  0.2657 -0.2252
  118MPD2    C4 1802   1.330   3.977  13.476  0.3255 -0.2043 -0.4029
  118MPD2    C5 1803   1.282   3.850  13.486  0.4466  0.3438 -0.1405
  118MPD2     H 1804   1.296   4.042  13.806  0.3474 -0.4599 -0.3418
  118MPD2    H1 1805   1.375   4.015  13.385 -2.5406  3.9708 -0.0390
  118MPD2    H2 1806   1.215   3.688  13.596  1.0582 -0.1957  0.8429
  118MPD2    H3 1807   1.277   3.801  13.389 -0.9419 -0.4282  0.3309
  118MPD2     N 1808   1.386   4.184  13.572  0.1984  0.8855  0.4529
  118MPD2    H5 1809   1.396   4.213  13.475 -0.3314 -2.4774 -0.6100
  118MPD2    N1 1810   1.208   3.805  13.834  0.3310 -0.1011 -0.2624
  118MPD2    H7 1811   1.179   3.709  13.820  1.3822 -0.5794  0.8052
  119MPD2     C 1812   4.700   0.251  13.900 -0.2833  0.1715  0.1786
  119MPD2    C1 1813   4.566   0.270  13.897  0.9563 -0.7984 -0.1055
  119MPD2    C2 1814   4.502   0.261  13.783 -0.4278 -0.2849 -0.5329
  119MPD2    C3 1815   4.562   0.225  13.664 -0.3260 -0.4004 -0.2768
  119MPD2    C4 1816   4.697   0.208  13.666 -0.1665  0.2674 -0.2627
  119MPD2    C5 1817   0.043   0.215  13.785  0.2407  0.4693  0.2258
  119MPD2     H 1818   4.394   0.267  13.793 -0.1665  3.0014  0.5546
  119MPD2    H1 1819   0.021   0.168  13.578 -0.7405 -1.5810  0.2446
  119MPD2    H2 1820   0.011   0.253  14.002  1.3036  0.7643 -0.3947
  119MPD2    H3 1821   0.151   0.203  13.787  0.2060  0.2148  0.6166
  119MPD2     N 1822   4.489   0.220  13.545  0.4200  0.0254 -0.5991
  119MPD2    H5 1823   4.533   0.178  13.464  0.3164  1.9334 -1.6447
  119MPD2    N1 1824   4.507   0.282  14.025  0.2427 -0.4544 -1.0102
  119MPD2    H7 1825   4.564   0.262  14.107 -0.3366  3.5130  0.3581
  120TCq2    C1 1826   4.361   0.267  13.527 -0.2343 -0.3784 -0.4169
  120TCq2    O2 1827   4.293   0.329  13.606  0.1783 -0.2336  0.2753
  120TCq2    C2 1828   4.290   0.207  13.414  1.3129 -0.5470 -0.6982
  120TCq2    C3 1829   4.335   0.091  13.350 -0.3897  0.1411 -0.2910
  120TCq2    C4 1830   4.240   0.028  13.274  0.2844  0.6569 -0.4812
  120TCq2    C5 1831   4.105   0.051  13.271 -0.4346 -0.0318  0.2743
  120TCq2    C6 1832   4.067   0.153  13.349 -0.2088 -0.1594  0.1486
  120TCq2    C7 1833   4.147   0.241  13.419 -0.4226  0.4867  0.2558
  120TCq2    C8 1834   3.927   0.172  13.342  0.7952 -0.2968  0.0573
  120TCq2    O4 1835   3.870   0.119  13.249 -0.0416  0.1551  0.5045
  120TCq2    C9 1836   4.288   4.650  13.187 -0.1282  0.3979 -0.0285
  120TCq2    O5 1837   4.416   4.631  13.185 -0.2654  0.2073 -0.2979
  120TCq2    O6 1838   4.202   4.573  13.141  0.2227 -0.4592 -0.0287
  120TCq2    H2 1839   4.441   0.073  13.340 -0.7160 -1.6787 -0.5267
  120TCq2    H3 1840   4.049   4.693  13.230 -0.8201 -0.3506  1.4423
  120TCq2    H4 1841   4.101   0.319  13.478  0.0408  0.7728  0.2358
  121TMC2    C1 1842   0.784   2.145  14.214  0.6567  0.0755 -0.9343
  121TMC2    C2 1843   0.705   2.052  14.266 -0.1259  0.1018  0.1465
  121TMC2    C3 1844   0.577   2.039  14.220  0.5606 -0.0880 -1.1498
  121TMC2    C4 1845   0.743   2.223  14.109 -0.2743 -0.3346 -0.9230
  121TMC2    C5 1846   0.617   2.197  14.061 -0.1705  0.3698  0.0043
  121TMC2    C6 1847   0.538   2.094  14.101 -0.2790  0.3528  1.1358
  121TMC2     C 1848   0.931   2.137  14.231  0.2473  0.5507 -0.5086
  121TMC2     O 1849   0.980   2.044  14.302 -0.0631  0.8847 -0.4554
  121TMC2     H 1850   0.739   2.000  14.355  1.6619  2.1272  0.6547
  121TMC2    H1 1851   0.802   2.309  14.081  0.4997 -0.5290  0.1347
  121TMC2    H2 1852   0.438   2.080  14.060 -0.4745  2.5453  0.8671
  121TMC2    C7 1853   0.581   2.281  13.945 -0.4075  0.2183 -0.8721
  121TMC2    C8 1854   0.504   1.914  14.249 -0.0864  0.2201  0.1371
  121TMC2    O1 1855   0.650   2.386  13.937 -0.9378  0.4293 -0.2481
  121TMC2    O2 1856   0.402   1.892  14.185 -0.5027  0.8249  0.5533
  121TMC2    O5 1857   0.563   1.862  14.357  0.3127  0.0313 -0.6424
  121TMC2    H5 1858   0.553   1.765  14.360  0.3534  0.0371 -0.3108
  122MPD2     C 1859   1.223   2.151  14.208 -0.3397 -0.9499 -0.4848
  122MPD2    C1 1860   1.137   2.188  14.102 -0.4513  0.3926  0.3615
  122MPD2    C2 1861   1.187   2.239  13.985  0.3805 -0.0870 -0.1193
  122MPD2    C3 1862   1.326   2.247  13.967 -0.2418 -0.1879 -1.2467
  122MPD2    C4 1863   1.404   2.238  14.081  0.1110  0.8238  0.7078
  122MPD2    C5 1864   1.358   2.186  14.192 -0.1486  0.3879  0.0106
  122MPD2     H 1865   1.115   2.257  13.907 -1.4726  2.8101  2.2650
  122MPD2    H1 1866   1.512   2.226  14.083 -0.3136 -2.8696  1.2365
  122MPD2    H2 1867   1.194   2.123  14.308  0.6363  1.2464  0.4149
  122MPD2    H3 1868   1.433   2.158  14.265  1.0462  0.5632 -1.1375
  122MPD2     N 1869   1.396   2.289  13.852 -0.6196  0.1866  0.3870
  122MPD2    H5 1870   1.495   2.304  13.866 -0.1129 -0.5507 -2.3292
  122MPD2    N1 1871   0.998   2.187  14.123 -1.0853  0.0493 -0.0405
  122MPD2    H7 1872   0.940   2.220  14.046 -0.7971  0.6268 -0.0090
  123MPD2     C 1873   3.275   3.825   9.360 -0.7135 -0.2559  0.0803
  123MPD2    C1 1874   3.282   3.958   9.390  0.4939  0.7642 -0.4075
  123MPD2    C2 1875   3.391   4.035   9.343  0.0306  0.5397  0.4636
  123MPD2    C3 1876   3.490   3.977   9.271 -0.2180 -0.0605  0.2182
  123MPD2    C4 1877   3.482   3.846   9.237 -0.3498 -0.0954 -0.0263
  123MPD2    C5 1878   3.372   3.770   9.284 -0.8183 -0.1608 -0.1878
  123MPD2     H 1879   3.403   4.138   9.374  0.1945  0.0085  2.1894
  123MPD2    H1 1880   3.564   3.795   9.189 -1.1899 -2.6886  1.2921
  123MPD2    H2 1881   3.188   3.766   9.385  0.1219 -0.8980  1.4646
  123MPD2    H3 1882   3.361   3.668   9.250  1.9220 -1.0314  1.4578
  123MPD2     N 1883   3.604   4.061   9.245 -0.1844 -0.0420  0.7428
  123MPD2    H5 1884   3.612   4.147   9.299 -0.4995 -0.2390  1.1005
  123MPD2    N1 1885   3.175   4.020   9.467 -0.3360  0.1014  0.6476
  123MPD2    H7 1886   3.103   3.960   9.506 -0.9480  1.3670  1.4711
  124TCq2    C1 1887   3.713   4.015   9.176  0.7083 -0.0714 -0.1071
  124TCq2    O2 1888   3.726   3.917   9.107  0.1272 -0.0822  0.6701
  124TCq2    C2 1889   3.822   4.107   9.186  0.1054  0.2351 -0.2229
  124TCq2    C3 1890   3.909   4.109   9.081  0.1053 -0.4967  0.4331
  124TCq2    C4 1891   4.026   4.174   9.089  0.0616  0.7161 -0.4532
  124TCq2    C5 1892   4.067   4.229   9.205  0.3157 -1.0038  0.0807
  124TCq2    C6 1893   3.970   4.228   9.312 -0.9036  0.0632 -0.1016
  124TCq2    C7 1894   3.848   4.163   9.309  0.0553 -0.3468  0.4488
  124TCq2    C8 1895   4.003   4.275   9.454  0.1949  0.5274  0.8222
  124TCq2    O4 1896   3.915   4.271   9.541  0.1694  0.0977  0.7542
  124TCq2    C9 1897   4.114   4.164   8.977 -0.0025 -1.0879 -0.3974
  124TCq2    O5 1898   4.199   4.261   8.975  0.1496 -0.0062 -0.1212
  124TCq2    O6 1899   4.087   4.098   8.874  0.6618 -0.6797  0.6987
  124TCq2    H2 1900   3.885   4.062   8.986 -0.2384 -0.6830  0.6125
  124TCq2    H3 1901   4.158   4.287   9.211 -0.2782 -0.0884  0.2312
  124TCq2    H4 1902   3.780   4.156   9.393 -0.6316 -0.7037 -0.1368
  125TMC2    C1 1903   0.431   2.319   9.736 -0.4370  0.5900  0.8612
  125TMC2    C2 1904   0.339   2.412   9.764 -0.0917  0.2308 -0.1154
  125TMC2    C3 1905   0.331   2.456   9.897 -0.1925 -0.0241 -0.0846
  125TMC2    C4 1906   0.519   2.273   9.830  0.6146  0.0074 -0.2220
  125TMC2    C5 1907   0.530   2.339   9.957  1.0495 -0.3134  0.2623
  125TMC2    C6 1908   0.424   2.420   9.991  0.1856  0.1963 -0.1536
  125TMC2     C 1909   0.429   2.275   9.606  0.3829  0.4988  0.4114
  125TMC2     O 1910   0.332   2.287   9.535 -0.2306 -0.4175  0.2228
  125TMC2     H 1911   0.265   2.444   9.692 -2.2794 -1.5547  1.3464
  125TMC2    H1 1912   0.580   2.184   9.815 -0.1935 -0.9871  2.5619
  125TMC2    H2 1913   0.415   2.457  10.093 -0.3375 -0.0231 -0.1237
  125TMC2    C7 1914   0.616   2.272  10.063  0.0213  0.3271  0.5207
  125TMC2    C8 1915   0.258   2.572   9.931 -0.2395 -0.5126  0.3599
  125TMC2    O1 1916   0.580   2.291  10.178 -0.2725  0.3702 -0.9324
  125TMC2    O2 1917   0.217   2.595  10.042 -0.5050 -0.1880 -0.2542
  125TMC2    O5 1918   0.333   2.668   9.864 -0.4530 -0.6465  0.0931
  125TMC2    H5 1919   0.391   2.648   9.787 -2.1874  1.0622 -1.6875
  126MPD1     C 1920   0.671   2.145   9.166 -0.3562  0.0310 -0.0212
  126MPD1    C1 1921   0.761   2.145   9.265  0.6776 -0.3601  0.5274
  126MPD1    C2 1922   0.708   2.156   9.390 -0.1842 -0.1654 -0.2094
  126MPD1    C3 1923   0.576   2.194   9.425  0.3399  0.1451  0.7766
  126MPD1    C4 1924   0.497   2.213   9.315 -0.2227 -0.2181  0.5057
  126MPD1    C5 1925   0.543   2.195   9.189 -0.2440 -0.1329 -0.1306
  126MPD1     H 1926   0.779   2.156   9.472  0.4211 -1.9157 -0.7472
  126MPD1    H1 1927   0.397   2.255   9.314 -0.7259 -1.4179 -1.0907
  126MPD1    H2 1928   0.697   2.129   9.062 -0.1266 -0.3365  0.0911
  126MPD1    H3 1929   0.472   2.209   9.109  1.8735  0.7740 -1.8290
  126MPD1     N 1930   0.546   2.223   9.556 -0.0333  0.5955 -0.0202
  126MPD1    H5 1931   0.627   2.212   9.616 -0.2498  0.0798  0.1739
  126MPD1    N1 1932   0.893   2.112   9.244 -0.6630  0.2973 -0.2492
  126MPD1    H6 1933   0.907   2.128   9.145  2.8848 -0.1973  0.1778
  126MPD1    H7 1934   0.953   2.155   9.314 -1.4973  0.0763  0.6099
  127MPD2     C 1935   1.275   0.744   9.827  0.4571 -0.6660  0.1618
  127MPD2    C1 1936   1.325   0.635   9.896  0.1451  0.6384 -0.1839
  127MPD2    C2 1937   1.435   0.649   9.980  0.3772  0.7985 -0.3785
  127MPD2    C3 1938   1.494   0.775   9.996 -0.6698 -0.9252  0.1900
  127MPD2    C4 1939   1.439   0.882   9.933 -0.3643 -0.2450  0.3394
  127MPD2    C5 1940   1.324   0.869   9.858  0.3489 -0.1742 -0.0073
  127MPD2     H 1941   1.472   0.561  10.032  1.0310  0.0990 -2.0371
  127MPD2    H1 1942   1.481   0.980   9.953  0.1913 -0.6729  1.3135
  127MPD2    H2 1943   1.188   0.735   9.763  1.4523  0.3232 -1.3281
  127MPD2    H3 1944   1.281   0.956   9.809  0.8360  1.2208  2.0615
  127MPD2     N 1945   1.609   0.778  10.082  0.4112 -0.3211  0.5055
  127MPD2    H5 1946   1.642   0.689  10.117  0.4608 -1.6500 -2.8985
  127MPD2    N1 1947   1.259   0.510   9.878  0.0982  0.0986 -0.4065
  127MPD2    H7 1948   1.162   0.520   9.847  0.4958 -1.4452 -2.1469
  128TCq2    C1 1949   1.298   0.384   9.914 -0.1069 -0.0617  0.6168
  128TCq2    O2 1950   1.397   0.355   9.982 -0.1357  0.5240  0.7126
  128TCq2    C2 1951   1.211   0.276   9.863 -0.3487  0.3104 -0.1948
  128TCq2    C3 1952   1.237   0.153   9.912  0.9140  0.0924 -0.2726
  128TCq2    C4 1953   1.163   0.057   9.861 -0.1724 -0.1877  0.4070
  128TCq2    C5 1954   1.065   0.079   9.769  0.2169 -0.4181  0.3647
  128TCq2    C6 1955   1.042   0.207   9.725  0.6346 -0.3535 -0.0091
  128TCq2    C7 1956   1.109   0.315   9.774 -0.5389  0.3977 -0.1160
  128TCq2    C8 1957   0.924   0.241   9.646 -0.5598  0.3139 -0.1365
  128TCq2    O4 1958   0.910   0.355   9.603 -0.1356  0.2945 -0.4088
  128TCq2    C9 1959   1.178   4.648   9.917 -0.6466 -0.4214  0.2185
  128TCq2    O5 1960   1.106   4.559   9.868 -0.0358  0.2902  0.1602
  128TCq2    O6 1961   1.263   4.627  10.006  0.0729 -0.2228 -0.2408
  128TCq2    H2 1962   1.307   0.132   9.992  1.0826 -1.8583 -0.9468
  128TCq2    H3 1963   1.020   4.715   9.726 -0.9281 -0.1347  0.9798
  128TCq2    H4 1964   1.079   0.412   9.736  0.7137  0.7675 -0.1402
  129MPD2     C 1965   0.166   1.705   1.173 -0.1952  0.2922 -0.1995
  129MPD2    C1 1966   0.084   1.812   1.151 -0.4124  0.1291  0.5978
  129MPD2    C2 1967   0.147   1.929   1.117  0.0150  0.7801  0.2849
  129MPD2    C3 1968   0.287   1.931   1.110  0.4297  0.0161 -0.7130
  129MPD2    C4 1969   0.363   1.820   1.131 -0.6125 -0.1768 -0.2030
  129MPD2    C5 1970   0.302   1.703   1.162  0.1117  0.4223 -0.5506
  129MPD2     H 1971   0.092   2.021   1.102 -3.6020 -1.3814  0.3899
  129MPD2    H1 1972   0.471   1.827   1.125 -0.9522  0.3229 -5.4141
  129MPD2    H2 1973   0.129   1.607   1.201 -0.0923  0.4993  0.6608
  129MPD2    H3 1974   0.346   1.607   1.188 -1.5064 -0.4281 -0.9746
  129MPD2     N 1975   0.340   2.058   1.072  0.4387 -0.1776  0.6372
  129MPD2    H5 1976   0.279   2.137   1.052  1.6653  0.9806  1.4394
  129MPD2    N1 1977   4.666   1.812   1.182  0.1509  0.5672 -0.5801
  129MPD2    H7 1978   4.617   1.901   1.178 -0.9734  0.0603  2.1973
  130TCq2    C1 1979   4.588   1.701   1.202 -0.5712  1.4477 -0.0608
  130TCq2    O2 1980   4.629   1.585   1.213 -0.1322  0.5892  0.1870
  130TCq2    C2 1981   4.452   1.731   1.226  0.8189  0.1326  0.4697
  130TCq2    C3 1982   4.398   1.851   1.191 -1.4015 -0.6345 -0.1516
  130TCq2    C4 1983   4.262   1.878   1.223  0.4091 -0.1686  0.3732
  130TCq2    C5 1984   4.188   1.792   1.303  0.4801  0.7046 -0.1729
  130TCq2    C6 1985   4.248   1.677   1.339 -0.7673  0.1049 -0.7928
  130TCq2    C7 1986   4.374   1.647   1.296 -0.0874  0.0783 -1.0615
  130TCq2    C8 1987   4.159   1.573   1.403  0.2332  0.3100 -0.9166
  130TCq2    O4 1988   4.039   1.602   1.398 -0.4753  0.8332 -0.5675
  130TCq2    C9 1989   4.199   2.000   1.172  0.2590 -0.3820 -0.4823
  130TCq2    O5 1990   4.089   2.024   1.224  0.4795  0.5263  0.3663
  130TCq2    O6 1991   4.268   2.087   1.101  0.0939 -0.0227 -0.2654
  130TCq2    H2 1992   4.446   1.916   1.118 -1.1901  2.1105  2.3976
  130TCq2    H3 1993   4.085   1.810   1.332  2.1570  1.6909  5.0458
  130TCq2    H4 1994   4.420   1.551   1.319 -0.5541  0.1367  0.0923
  131MPD2     C 1995   2.818   0.246   9.677 -0.5380  0.2827 -0.4302
  131MPD2    C1 1996   2.948   0.209   9.660 -0.1118  0.2459 -0.2318
  131MPD2    C2 1997   2.977   0.066   9.657 -0.1704 -0.0279  0.2695
  131MPD2    C3 1998   2.872   4.698   9.664  0.0701  0.3155 -0.1553
  131MPD2    C4 1999   2.751   0.021   9.682 -0.6271 -0.2617 -0.3678
  131MPD2    C5 2000   2.721   0.154   9.690  0.0574  0.5880  0.0983
  131MPD2     H 2001   3.075   0.021   9.650 -0.1968 -0.3116  1.6069
  131MPD2    H1 2002   2.668   4.678   9.669 -0.8879 -0.5021  2.4470
  131MPD2    H2 2003   2.792   0.351   9.682 -1.1593  0.2006 -1.8426
  131MPD2    H3 2004   2.619   0.187   9.703 -0.2958 -0.0113 -1.2400
  131MPD2     N 2005   2.910   4.562   9.656  0.0648  0.1721 -0.4404
  131MPD2    H5 2006   3.008   4.538   9.662 -0.0670  0.1515  1.7222
  131MPD2    N1 2007   3.048   0.303   9.677  0.4799 -0.0434  0.1860
  131MPD2    H7 2008   3.015   0.392   9.712  0.6702 -0.1279  0.5815
  132TCq2    C1 2009   3.628   0.416   9.770  0.4062 -0.1282 -0.0484
  132TCq2    O2 2010   3.660   0.308   9.725  0.0791  0.1697  0.8267
  132TCq2    C2 2011   3.487   0.451   9.773 -0.3428  0.2378 -0.1496
  132TCq2    C3 2012   3.451   0.584   9.766 -0.0251  0.2256 -0.1070
  132TCq2    C4 2013   3.324   0.616   9.726  0.3687 -0.5196  0.0190
  132TCq2    C5 2014   3.231   0.523   9.695  0.3895  0.5864  0.2755
  132TCq2    C6 2015   3.275   0.395   9.685  0.5855  0.5299 -0.0666
  132TCq2    C7 2016   3.403   0.362   9.721  0.2696 -0.6820 -0.2816
  132TCq2    C8 2017   3.187   0.281   9.673 -0.6548  0.1723 -0.3467
  132TCq2    O4 2018   3.240   0.172   9.657  0.1658  0.9067  0.2698
  132TCq2    C9 2019   3.292   0.758   9.731  0.1598  0.7618  0.3530
  132TCq2    O5 2020   3.204   0.795   9.652 -0.0003 -0.4406 -0.5556
  132TCq2    O6 2021   3.365   0.833   9.797 -0.1879 -0.7941 -0.3956
  132TCq2    H2 2022   3.519   0.668   9.781  0.7429 -0.9178  2.9074
  132TCq2    H3 2023   3.135   0.559   9.658 -0.3281  0.8415  2.4267
  132TCq2    H4 2024   3.428   0.257   9.722  0.3867 -0.6754 -2.1664
  133MPD2     C 2025   2.955   1.492   9.583  0.9740 -0.3787 -0.6775
  133MPD2    C1 2026   3.053   1.436   9.502 -0.4652  0.7724  0.1776
  133MPD2    C2 2027   3.021   1.311   9.456  0.3480 -0.1360  0.5680
  133MPD2    C3 2028   2.905   1.234   9.494 -0.1354 -0.2070  0.4223
  133MPD2    C4 2029   2.818   1.302   9.580  0.8427 -0.1492  0.1837
  133MPD2    C5 2030   2.838   1.431   9.616  0.8088  0.1497  0.3852
  133MPD2     H 2031   3.097   1.274   9.388 -0.5127 -3.7522  1.5761
  133MPD2    H1 2032   2.727   1.257   9.618  0.8721 -0.7361 -0.4336
  133MPD2    H2 2033   2.971   1.591   9.623  2.0753 -0.0436 -1.9531
  133MPD2    H3 2034   2.762   1.486   9.671  0.6688  0.0354  0.3061
  133MPD2     N 2035   2.874   1.099   9.457 -0.3886  0.0484  0.1414
  133MPD2    H5 2036   2.781   1.068   9.482 -0.0897 -0.6025  0.4593
  133MPD2    N1 2037   3.169   1.507   9.493  0.2377 -0.3801 -0.0157
  133MPD2    H7 2038   3.184   1.590   9.549 -2.2329 -0.3524  0.6123
  134TCq2    C1 2039   3.288   1.465   9.430 -0.6278  0.7005  0.4190
  134TCq2    O2 2040   3.318   1.366   9.364 -0.3546  0.2572  0.4973
  134TCq2    C2 2041   3.399   1.562   9.433  0.2405 -0.0376  0.1686
  134TCq2    C3 2042   3.360   1.693   9.438 -0.4867 -0.6179 -0.1229
  134TCq2    C4 2043   3.461   1.786   9.437 -0.9925 -0.1381  0.2694
  134TCq2    C5 2044   3.597   1.746   9.420 -0.3602 -0.5748  0.0929
  134TCq2    C6 2045   3.621   1.611   9.414 -0.2974 -0.4491  0.7700
  134TCq2    C7 2046   3.526   1.513   9.420 -0.3389 -0.5344  0.3674
  134TCq2    C8 2047   3.756   1.563   9.423 -0.2800  0.1264  0.2095
  134TCq2    O4 2048   3.834   1.624   9.493  0.1470  0.0811  0.6117
  134TCq2    C9 2049   3.427   1.917   9.465 -0.5812 -0.5483 -0.1113
  134TCq2    O5 2050   3.488   1.964   9.561  0.1721  0.1438 -0.2309
  134TCq2    O6 2051   3.320   1.960   9.415  0.5458  0.4665 -0.4708
  134TCq2    H2 2052   3.260   1.733   9.454 -1.0490 -2.0569 -0.0068
  134TCq2    H3 2053   3.675   1.820   9.434 -1.6482  0.1288  3.5964
  134TCq2    H4 2054   3.545   1.406   9.413 -1.3721 -0.8081  1.5973
  135MPD2     C 2055   0.735   2.556   9.648  0.3284 -0.1548  0.6986
  135MPD2    C1 2056   0.733   2.601   9.517  0.0979  0.9369 -0.2939
  135MPD2    C2 2057   0.856   2.615   9.448 -0.0773 -0.0412 -0.1756
  135MPD2    C3 2058   0.978   2.579   9.508 -0.0529 -0.4644  0.1921
  135MPD2    C4 2059   0.978   2.558   9.645 -0.0370  0.1377 -0.1383
  135MPD2    C5 2060   0.859   2.536   9.707  0.0430  0.4422 -0.5896
  135MPD2     H 2061   0.837   2.656   9.349  0.5125  1.0614  0.1777
  135MPD2    H1 2062   1.065   2.552   9.709  0.1704 -0.6873 -0.4927
  135MPD2    H2 2063   0.650   2.547   9.715  2.0472 -0.0904  2.8951
  135MPD2    H3 2064   0.863   2.504   9.810  1.1425 -2.2915 -1.4809
  135MPD2     N 2065   1.104   2.591   9.440 -0.8162  0.4538 -0.0521
  135MPD2    H5 2066   1.185   2.558   9.491  1.3748  0.9356 -3.2348
  135MPD2    N1 2067   0.618   2.626   9.448 -0.4816 -0.0551 -0.1636
  135MPD2    H7 2068   0.626   2.631   9.347  0.3727  0.6527 -0.0644
  136TCq2    C1 2069   0.494   2.640   9.504  0.0707  0.5425 -0.2089
  136TCq2    O2 2070   0.453   2.638   9.618  0.0884 -0.0998  0.2547
  136TCq2    C2 2071   0.403   2.662   9.402 -0.1102  0.8627 -0.3038
  136TCq2    C3 2072   0.448   2.726   9.284 -0.7190  0.4938  0.3032
  136TCq2    C4 2073   0.387   2.687   9.164  0.6159 -0.2424  0.8639
  136TCq2    C5 2074   0.286   2.599   9.161 -0.1862  0.5487  0.3812
  136TCq2    C6 2075   0.248   2.538   9.279 -0.3681  0.0628  0.3931
  136TCq2    C7 2076   0.295   2.580   9.398  0.3192 -0.1864  0.6832
  136TCq2    C8 2077   0.118   2.484   9.277 -0.0164  0.1671 -0.2198
  136TCq2    O4 2078   0.056   2.493   9.170 -0.5631  0.0723  0.3553
  136TCq2    C9 2079   0.439   2.749   9.042  0.5780  0.1625  0.4076
  136TCq2    O5 2080   0.548   2.816   9.049 -0.0691 -0.4493 -0.2971
  136TCq2    O6 2081   0.359   2.753   8.950  0.0387  0.0433  0.2934
  136TCq2    H2 2082   0.533   2.793   9.277 -0.1810  0.1580  3.3426
  136TCq2    H3 2083   0.241   2.580   9.064  0.5269  2.2645 -0.2850
  136TCq2    H4 2084   0.262   2.540   9.493  1.1830 -2.2018  0.1303
  137MPD2     C 2085   0.865   0.737  10.595 -0.0450 -0.7376 -0.2066
  137MPD2    C1 2086   0.828   0.807  10.480  0.4024 -0.1746 -0.4457
  137MPD2    C2 2087   0.779   0.934  10.473  0.1303  0.5728  0.1487
  137MPD2    C3 2088   0.757   0.992  10.598  0.3207  0.2716  0.8557
  137MPD2    C4 2089   0.800   0.937  10.716  0.0418  0.1040 -0.2980
  137MPD2    C5 2090   0.859   0.808  10.712 -0.4868  0.0165 -0.1751
  137MPD2     H 2091   0.750   0.984  10.381  1.9452  0.3951 -0.5226
  137MPD2    H1 2092   0.781   0.996  10.805 -0.5681  2.3017 -1.8602
  137MPD2    H2 2093   0.902   0.636  10.591  1.8649 -0.0798  0.5831
  137MPD2    H3 2094   0.896   0.755  10.798 -1.4355  0.3379  0.4273
  137MPD2     N 2095   0.685   1.110  10.590 -0.2829 -0.4975  0.2068
  137MPD2    H5 2096   0.670   1.157  10.502 -2.4734 -1.8121 -0.1047
  137MPD2    N1 2097   0.815   0.716  10.374  0.1074  0.2584  0.1199
  137MPD2    H7 2098   0.820   0.618  10.403  0.5050  0.1356 -0.3688
  138TCq2    C1 2099   0.793   0.752  10.242  0.0335  0.3743 -0.2538
  138TCq2    O2 2100   0.822   0.861  10.188 -0.0856  0.0253 -0.2491
  138TCq2    C2 2101   0.726   0.647  10.162  0.1539  0.4974  0.0577
  138TCq2    C3 2102   0.723   0.680  10.028  0.3534 -0.4840 -0.0437
  138TCq2    C4 2103   0.613   0.678   9.957  0.3949  0.5184 -0.8767
  138TCq2    C5 2104   0.496   0.650  10.018 -0.1241  0.0647  0.3797
  138TCq2    C6 2105   0.498   0.621  10.146  0.6322 -0.3942  0.2472
  138TCq2    C7 2106   0.613   0.610  10.224  0.6011  0.5479 -0.0716
  138TCq2    C8 2107   0.377   0.575  10.210  0.2512 -0.0258 -0.7628
  138TCq2    O4 2108   0.381   0.471  10.277 -0.3630  0.3218  0.1697
  138TCq2    C9 2109   0.611   0.690   9.812  0.5000  0.0237  0.2702
  138TCq2    O5 2110   0.723   0.698   9.753  0.5420  0.1371  0.0381
  138TCq2    O6 2111   0.494   0.682   9.756  0.0704 -0.1294  0.3181
  138TCq2    H2 2112   0.813   0.711   9.977 -0.8586 -0.1761 -1.9637
  138TCq2    H3 2113   0.411   0.629   9.954 -0.1889 -0.3784  0.6104
  138TCq2    H4 2114   0.605   0.590  10.331  0.6739  2.7475  0.3413
  139TMC2    C1 2115   0.955   0.260  13.385  0.2865 -0.1147 -0.2191
  139TMC2    C2 2116   0.929   0.275  13.254 -0.4906  0.5032 -0.5487
  139TMC2    C3 2117   0.805   0.323  13.220 -0.1839  0.1444 -0.7756
  139TMC2    C4 2118   0.864   0.251  13.490  0.0183  0.0022  0.2786
  139TMC2    C5 2119   0.735   0.289  13.447 -0.7503 -0.2464 -0.3251
  139TMC2    C6 2120   0.703   0.323  13.309  0.1227 -0.7661 -0.2278
  139TMC2     C 2121   1.074   0.183  13.404  0.2500  0.1147 -0.6013
  139TMC2     O 2122   1.108   0.112  13.308 -0.0517 -0.8621  0.2973
  139TMC2     H 2123   1.008   0.274  13.179  0.2034 -0.1370  0.1896
  139TMC2    H1 2124   0.906   0.226  13.586  1.5506 -0.6704 -0.5649
  139TMC2    H2 2125   0.605   0.357  13.277 -0.0190 -3.6198 -2.7893
  139TMC2    C7 2126   0.620   0.305  13.541  0.0892 -0.0506  0.0541
  139TMC2    C8 2127   0.776   0.383  13.096 -0.1099  0.0270 -0.5493
  139TMC2    O1 2128   0.517   0.340  13.482 -0.2407  0.2450  0.1871
  139TMC2    O2 2129   0.674   0.368  13.030 -0.0807  0.2678  0.2195
  139TMC2    O5 2130   0.875   0.463  13.056  0.6860 -0.6262  0.6881
  139TMC2    H5 2131   0.941   0.480  13.127  1.3370  1.8191 -0.5278
  140MPD2     C 2132   1.183   0.079  13.739 -0.5007  0.8619 -1.1120
  140MPD2    C1 2133   1.158   0.070  13.602 -0.5155  0.5528 -0.4413
  140MPD2    C2 2134   1.159   4.663  13.544  0.1379  0.1324  0.1104
  140MPD2    C3 2135   1.159   4.554  13.624 -0.4254 -0.1206 -0.3130
  140MPD2    C4 2136   1.182   4.569  13.762 -0.4873  0.0638  0.7550
  140MPD2    C5 2137   1.204   4.693  13.811  0.4065  0.6158 -0.2540
  140MPD2     H 2138   1.141   4.642  13.439  1.2736 -2.5396  0.4687
  140MPD2    H1 2139   1.177   4.484  13.828 -1.8609  0.5110  1.2288
  140MPD2    H2 2140   1.187   0.178  13.783  1.2687  0.2801  0.0292
  140MPD2    H3 2141   1.218   4.701  13.918  0.3166  1.5729 -0.3065
  140MPD2     N 2142   1.108   4.437  13.566  0.6395 -0.4377  0.3665
  140MPD2    H5 2143   1.074   4.437  13.471 -0.4555 -0.5101  0.7591
  140MPD2    N1 2144   1.128   0.185  13.534 -0.2415 -0.3946 -0.3222
  140MPD2    H7 2145   1.103   0.269  13.586 -1.2881 -0.0882 -1.3007
  141TCq2    C1 2146   1.915   0.923  14.127  0.8903  0.2165  0.1776
  141TCq2    O2 2147   1.905   1.023  14.059 -0.3585  0.2046  0.9525
  141TCq2    C2 2148   1.872   0.937  14.264  0.3132  0.1639 -0.2965
  141TCq2    C3 2149   1.787   0.842  14.321  0.0515  0.1213  0.0592
  141TCq2    C4 2150   1.724   0.875  14.437  0.2375 -0.1608  0.1228
  141TCq2    C5 2151   1.738   0.997  14.489  0.0496  0.1876 -0.6658
  141TCq2    C6 2152   1.813   1.088  14.425 -0.2844 -0.5124 -0.0108
  141TCq2    C7 2153   1.884   1.062  14.312 -0.2155 -0.4499 -0.2488
  141TCq2    C8 2154   1.812   1.217  14.487  0.4102 -0.1501  0.7361
  141TCq2    O4 2155   1.800   1.225  14.609 -0.1390  0.3666  0.1670
  141TCq2    C9 2156   1.629   0.785  14.489 -0.3907  0.2370  0.3328
  141TCq2    O5 2157   1.647   0.662  14.466 -0.1773  0.0153 -0.3686
  141TCq2    O6 2158   1.516   0.836  14.514  0.2020  0.8175 -0.1670
  141TCq2    H2 2159   1.771   0.749  14.268  1.7824 -2.1576  3.5203
  141TCq2    H3 2160   1.679   1.023  14.576 -0.0368 -1.8827 -0.1046
  141TCq2    H4 2161   1.940   1.139  14.260  0.6782 -0.6975  0.3666
  142MPD2     C 2162   3.536   3.706  10.424  0.2615 -0.7491  0.5840
  142MPD2    C1 2163   3.484   3.826  10.371  0.0924  0.0354 -0.4086
  142MPD2    C2 2164   3.576   3.933  10.348  0.2134 -0.2396 -0.7224
  142MPD2    C3 2165   3.711   3.911  10.366 -1.1887 -0.4048  0.1331
  142MPD2    C4 2166   3.757   3.793  10.415 -0.0083  0.6549  0.3704
  142MPD2    C5 2167   3.669   3.692  10.452 -0.4959  0.0730 -0.1077
  142MPD2     H 2168   3.543   4.034  10.328  0.7542  0.0411 -0.2101
  142MPD2    H1 2169   3.863   3.774  10.430 -0.5053 -0.3257  2.6545
  142MPD2    H2 2170   3.467   3.624  10.438  0.3342 -0.8913  0.1064
  142MPD2    H3 2171   3.705   3.600  10.498 -0.1612  0.4207  0.3281
  142MPD2     N 2172   3.808   4.012  10.340  1.2334  0.4256 -0.0126
  142MPD2    H5 2173   3.901   3.987  10.371  0.9753 -0.3019  0.1769
  142MPD2    N1 2174   3.351   3.830  10.329 -0.5657 -0.3691  0.1554
  142MPD2    H7 2175   3.296   3.745  10.339 -0.0515 -0.5627  1.3270
  143TCq2    C1 2176   3.793   4.122  10.257  0.0591  0.2246  0.2544
  143TCq2    O2 2177   3.698   4.148  10.183  0.8629 -0.2000 -0.4027
  143TCq2    C2 2178   3.908   4.213  10.253 -0.2429  0.3477 -0.0183
  143TCq2    C3 2179   4.008   4.187  10.338 -0.0993  0.0194 -0.6238
  143TCq2    C4 2180   4.129   4.238  10.304  0.5677 -0.3110  0.3891
  143TCq2    C5 2181   4.143   4.324  10.202  1.0774 -0.2318  1.0418
  143TCq2    C6 2182   4.041   4.348  10.122  0.2126  0.1463  0.0641
  143TCq2    C7 2183   3.917   4.298  10.151 -1.2585 -0.2268 -0.1219
  143TCq2    C8 2184   4.063   4.334   9.986 -0.6791 -0.3207  0.5106
  143TCq2    O4 2185   3.981   4.261   9.929  0.4530  0.0181 -0.2630
  143TCq2    C9 2186   4.247   4.186  10.372 -0.2083 -0.2022  0.8701
  143TCq2    O5 2187   4.231   4.091  10.457  0.0774  0.1245 -0.2947
  143TCq2    O6 2188   4.351   4.203  10.303  0.1950  0.4018 -0.3087
  143TCq2    H2 2189   4.009   4.124  10.426 -1.9025  0.3118 -0.3943
  143TCq2    H3 2190   4.240   4.368  10.186  0.4518  0.8437  0.2287
  143TCq2    H4 2191   3.835   4.307  10.081 -2.5982 -1.5300  1.2800
  144MPD2     C 2192   1.614   3.631   0.961  0.0247 -0.2489  0.3814
  144MPD2    C1 2193   1.663   3.537   0.873  0.5566 -0.6310 -0.7311
  144MPD2    C2 2194   1.781   3.472   0.898 -0.6870  0.0668 -0.0284
  144MPD2    C3 2195   1.858   3.509   1.006  0.1777 -0.3497  0.3605
  144MPD2    C4 2196   1.812   3.607   1.089 -0.0648 -0.0875  0.1116
  144MPD2    C5 2197   1.689   3.665   1.066 -0.4433 -0.6865 -0.0695
  144MPD2     H 2198   1.802   3.393   0.827  1.9452  0.2137  0.5825
  144MPD2    H1 2199   1.868   3.642   1.175  1.1186 -1.1470 -0.2430
  144MPD2    H2 2200   1.514   3.671   0.942 -0.5641 -1.4194  1.0467
  144MPD2    H3 2201   1.640   3.734   1.134  0.4290 -0.7224  0.5900
  144MPD2     N 2202   1.978   3.453   1.040 -1.1117 -0.3554 -0.1919
  144MPD2    H5 2203   2.012   3.491   1.128  1.8705 -1.4804 -0.8671
  144MPD2    N1 2204   1.601   3.519   0.750  0.0269 -0.0278 -0.1894
  144MPD2    H7 2205   1.658   3.469   0.683  0.1843 -1.3946  0.9598
  145TCq2    C1 2206   2.052   3.365   0.967 -1.0080  0.3847 -0.1918
  145TCq2    O2 2207   2.022   3.306   0.860 -0.1105 -0.3097  0.0784
  145TCq2    C2 2208   2.188   3.362   1.012  0.0302 -0.0306  0.0263
  145TCq2    C3 2209   2.275   3.300   0.928  0.4421 -0.0006 -0.1750
  145TCq2    C4 2210   2.407   3.337   0.930 -0.3137  0.0999 -0.0222
  145TCq2    C5 2211   2.458   3.423   1.025  0.5986 -0.2016 -0.4133
  145TCq2    C6 2212   2.365   3.481   1.114 -0.0294 -0.1309  0.2498
  145TCq2    C7 2213   2.229   3.460   1.099  0.6277 -0.4364 -0.0088
  145TCq2    C8 2214   2.426   3.524   1.242 -0.3169 -0.9942  0.1528
  145TCq2    O4 2215   2.525   3.462   1.273 -0.4140 -0.4768 -0.6920
  145TCq2    C9 2216   2.497   3.289   0.832 -0.1136 -0.0203  0.1985
  145TCq2    O5 2217   2.614   3.271   0.864  0.0592 -0.1760  0.5177
  145TCq2    O6 2218   2.452   3.280   0.712 -0.2991 -0.1127 -0.4046
  145TCq2    H2 2219   2.247   3.228   0.852  0.0732 -1.3562  1.2597
  145TCq2    H3 2220   2.562   3.457   1.027  0.1005  1.2935  0.6891
  145TCq2    H4 2221   2.161   3.496   1.176  0.6608  0.6743 -0.4941
  146TMC2    C1 2222   3.056   1.983  12.550  0.0443 -0.2686 -0.1144
  146TMC2    C2 2223   2.954   1.929  12.481 -0.0495 -0.3199  0.0549
  146TMC2    C3 2224   2.989   1.862  12.367  0.1223  0.0250  0.1748
  146TMC2    C4 2225   3.188   1.980  12.509 -0.2285 -0.2667 -0.2415
  146TMC2    C5 2226   3.211   1.934  12.378 -0.5735 -0.6693  0.4240
  146TMC2    C6 2227   3.115   1.871  12.308  0.1484 -0.1981  0.6821
  146TMC2     C 2228   3.021   2.050  12.675  0.1056  0.1687  0.2614
  146TMC2     O 2229   2.927   2.124  12.668 -0.6164  0.4152  0.1157
  146TMC2     H 2230   2.859   1.913  12.531 -0.0331  0.8820  0.4601
  146TMC2    H1 2231   3.270   2.020  12.568  2.2283 -1.3193 -2.9244
  146TMC2    H2 2232   3.131   1.835  12.207 -0.9045  1.4760 -0.0737
  146TMC2    C7 2233   3.345   1.943  12.322  0.0478 -0.1472 -0.7586
  146TMC2    C8 2234   2.884   1.840  12.275  0.5052 -0.5806 -0.0138
  146TMC2    O1 2235   3.352   1.929  12.198 -0.2723 -0.3923  0.1675
  146TMC2    O2 2236   2.889   1.883  12.163  0.3875 -0.5493 -0.0737
  146TMC2    O5 2237   2.852   1.713  12.303 -0.0662  0.1345 -0.0273
  146TMC2    H5 2238   2.875   1.686  12.394 -0.3193  0.7636  0.2203
  147MPD2     C 2239   3.868   1.900  12.340 -0.0761 -0.1107 -0.0950
  147MPD2    C1 2240   3.818   1.888  12.469  0.1071  0.1436 -0.1535
  147MPD2    C2 2241   3.682   1.912  12.493 -0.1350  0.0329 -0.3123
  147MPD2    C3 2242   3.591   1.934  12.387  0.0684 -0.0767  0.8533
  147MPD2    C4 2243   3.644   1.935  12.260  0.2453 -0.0807 -0.2231
  147MPD2    C5 2244   3.781   1.927  12.238  0.4209  0.7108  0.2171
  147MPD2     H 2245   3.649   1.892  12.594  0.3743 -0.8944 -0.3262
  147MPD2    H1 2246   3.590   1.961  12.170 -1.4489  0.5617  0.9632
  147MPD2    H2 2247   3.974   1.885  12.318  0.1505  2.0957 -0.5495
  147MPD2    H3 2248   3.815   1.930  12.135  0.9529 -0.3684  0.3653
  147MPD2     N 2249   3.448   1.948  12.413 -0.5861  0.3201 -0.4390
  147MPD2    H5 2250   3.420   1.955  12.510 -0.9237  1.7535 -0.6452
  147MPD2    N1 2251   3.915   1.853  12.569  0.5974  0.5352  0.4727
  147MPD2    H7 2252   4.008   1.817  12.549  0.3262 -0.7631  1.5944
  148MPD2     C 2253   3.379   0.888  10.801 -0.3052 -0.0755 -0.4839
  148MPD2    C1 2254   3.433   0.762  10.789  0.0951  0.0191 -0.1433
  148MPD2    C2 2255   3.351   0.661  10.736 -0.0940 -0.2970  0.8541
  148MPD2    C3 2256   3.227   0.690  10.685  0.4603 -0.0182 -0.3942
  148MPD2    C4 2257   3.179   0.819  10.700  0.5239  0.6255 -0.5185
  148MPD2    C5 2258   3.255   0.925  10.751  0.0635 -0.2288 -0.5278
  148MPD2     H 2259   3.406   0.571  10.711 -0.3150  0.0839 -1.0533
  148MPD2    H1 2260   3.083   0.848  10.661 -0.8241 -1.6779  1.0934
  148MPD2    H2 2261   3.432   0.965  10.855  0.8484 -1.8324  0.8870
  148MPD2    H3 2262   3.220   1.026  10.767 -1.8212 -0.7173 -1.5469
  148MPD2     N 2263   3.140   0.592  10.631 -0.7554  0.9022 -0.2276
  148MPD2    H5 2264   3.041   0.611  10.619 -0.7791  1.4588  0.8686
  148MPD2    N1 2265   3.566   0.723  10.819  0.3788  0.5604  0.8660
  148MPD2    H7 2266   3.590   0.629  10.788 -0.2923  0.3381  1.0324
  149TCq2    C1 2267   3.657   0.797  10.884  0.6886 -0.1096 -0.0463
  149TCq2    O2 2268   3.636   0.898  10.949 -0.0217  0.9363 -0.4184
  149TCq2    C2 2269   3.784   0.731  10.891  0.3822 -0.2661 -0.6080
  149TCq2    C3 2270   3.873   0.806  10.963  0.5816 -0.2753 -1.1302
  149TCq2    C4 2271   3.993   0.748  10.988 -0.1309 -0.2104 -0.5831
  149TCq2    C5 2272   4.034   0.633  10.926 -0.3105 -0.3533  0.4536
  149TCq2    C6 2273   3.940   0.562  10.851  0.9464  0.2911  0.3671
  149TCq2    C7 2274   3.811   0.609  10.842 -0.1473  0.3951  0.1257
  149TCq2    C8 2275   3.959   0.427  10.793  0.3441 -0.0702  1.1407
  149TCq2    O4 2276   3.857   0.359  10.796 -0.3051 -0.1712  0.1806
  149TCq2    C9 2277   4.097   0.838  11.049 -0.3609  0.0270 -0.4802
  149TCq2    O5 2278   4.211   0.785  11.049 -0.0895  0.0849 -0.0767
  149TCq2    O6 2279   4.065   0.962  11.046  0.0780  1.0586  0.2215
  149TCq2    H2 2280   3.853   0.909  10.991 -1.0331 -1.0833  0.6093
  149TCq2    H3 2281   4.138   0.607  10.941  0.2791  2.4460  1.2026
  149TCq2    H4 2282   3.739   0.567  10.773 -2.2959  1.3773  1.7818
  150MPD2     C 2283   0.181   0.162  12.191 -0.3670  0.0791 -0.4016
  150MPD2    C1 2284   0.263   0.104  12.095  0.3334 -0.0815 -0.4701
  150MPD2    C2 2285   0.389   0.054  12.133  0.1672 -0.3851 -0.2313
  150MPD2    C3 2286   0.436   0.071  12.260 -0.0234  0.2126 -0.1066
  150MPD2    C4 2287   0.351   0.138  12.353  0.4041  0.1442  0.4192
  150MPD2    C5 2288   0.226   0.188  12.322 -0.9934  0.1685 -0.3407
  150MPD2     H 2289   0.438   4.716  12.060 -0.0026  0.3326 -0.9745
  150MPD2    H1 2290   0.385   0.149  12.455 -0.5246  1.6488  0.5685
  150MPD2    H2 2291   0.086   0.206  12.162 -1.3827 -0.3845  2.2625
  150MPD2    H3 2292   0.166   0.244  12.392  0.3286  1.7802 -0.4977
  150MPD2     N 2293   0.565   0.030  12.288  0.0954 -0.5823  0.0220
  150MPD2    H5 2294   0.622   4.713  12.216  0.3454 -1.0385  0.4966
  150MPD2    N1 2295   0.215   0.104  11.965 -0.1717  0.5309 -0.1399
  150MPD2    H7 2296   0.114   0.092  11.953 -0.0398 -1.2090  0.5013
  151TCq2    C1 2297   0.639   0.069  12.394  0.2079  0.2314 -0.6544
  151TCq2    O2 2298   0.610   0.152  12.474 -0.5700 -0.1985 -0.1688
  151TCq2    C2 2299   0.768   4.724  12.390 -0.2534 -0.1491 -0.6356
  151TCq2    C3 2300   0.771   4.603  12.329  0.4168  0.6866 -0.1448
  151TCq2    C4 2301   0.891   4.529  12.335 -0.0832  0.1220 -0.0508
  151TCq2    C5 2302   0.994   4.569  12.410 -0.3132  0.2930  0.6531
  151TCq2    C6 2303   0.986   4.688  12.476 -0.4747  0.8186  0.0123
  151TCq2    C7 2304   0.869   0.037  12.478 -0.1067 -0.2589 -0.2809
  151TCq2    C8 2305   1.091   4.707  12.573  0.2385 -0.5604 -0.1251
  151TCq2    O4 2306   1.144   0.091  12.582 -0.1952 -0.4573  0.3035
  151TCq2    C9 2307   0.902   4.420  12.248 -0.1389 -0.3231  0.1800
  151TCq2    O5 2308   0.966   4.319  12.294 -0.6648 -0.0638 -0.0521
  151TCq2    O6 2309   0.843   4.435  12.141  0.2907 -0.1795  0.5450
  151TCq2    H2 2310   0.698   4.572  12.255  0.8411 -0.8989  0.1012
  151TCq2    H3 2311   1.085   4.513  12.393  0.8172  2.2851  0.2024
  151TCq2    H4 2312   0.864   0.140  12.513 -0.3212 -0.8492  1.4306
  152MPD2     C 2313   0.214   4.480  12.378  0.2930 -0.1226 -0.2815
  152MPD2    C1 2314   0.222   4.545  12.495 -0.4549 -0.3591  0.8171
  152MPD2    C2 2315   0.125   4.635  12.527  0.3210  0.3108 -0.4731
  152MPD2    C3 2316   0.024   4.664  12.436 -0.5847 -0.1294  0.5981
  152MPD2    C4 2317   0.010   4.586  12.324 -0.0936  1.0576 -0.1484
  152MPD2    C5 2318   0.102   4.492  12.297 -0.7884 -0.0773 -0.0198
  152MPD2     H 2319   0.123   4.680  12.625  0.3939  0.8025 -0.6994
  152MPD2    H1 2320   4.659   4.612  12.251  1.2952  3.3702 -0.7457
  152MPD2    H2 2321   0.295   4.413  12.351 -0.6240 -0.8682 -1.1398
  152MPD2    H3 2322   0.087   4.416  12.221 -1.2707  0.0898 -0.0908
  152MPD2     N 2323   4.674   0.055  12.461  0.1794 -0.2683  0.4669
  152MPD2    H5 2324   4.703   0.112  12.541 -0.5820  0.4779  0.2169
  152MPD2    N1 2325   0.350   4.546  12.560 -0.5924  0.2624 -0.2010
  152MPD2    H7 2326   0.416   4.491  12.505  0.2091  0.3428  0.6857
  153TCq2    C1 2327   0.384   4.623  12.665  1.0283 -1.0212  0.0850
  153TCq2    O2 2328   0.322   4.715  12.714 -0.6642 -0.5230  0.0217
  153TCq2    C2 2329   0.520   4.599  12.714  0.2031 -0.1080  0.6276
  153TCq2    C3 2330   0.587   4.483  12.682  0.0326 -0.1889  0.4161
  153TCq2    C4 2331   0.719   4.491  12.701  0.0569 -0.3865 -0.5712
  153TCq2    C5 2332   0.778   4.593  12.771 -0.3324  0.3743 -0.2388
  153TCq2    C6 2333   0.700   4.702  12.803 -0.1330  0.0803  0.3968
  153TCq2    C7 2334   0.572   4.712  12.772 -1.0354  0.1449 -0.5801
  153TCq2    C8 2335   0.757   0.108  12.818 -0.0607  0.0653 -0.5933
  153TCq2    O4 2336   0.691   0.183  12.755  0.1968 -0.2807 -0.2273
  153TCq2    C9 2337   0.806   4.394  12.638  0.3347 -0.2996  0.4081
  153TCq2    O5 2338   0.927   4.391  12.665  0.0446 -0.4538  0.0042
  153TCq2    O6 2339   0.754   4.315  12.558 -0.2627 -0.1500 -0.6445
  153TCq2    H2 2340   0.551   4.387  12.649 -0.8995  0.3288 -0.0618
  153TCq2    H3 2341   0.886   4.597  12.782 -0.5491  1.3024  1.4939
  153TCq2    H4 2342   0.508   0.059  12.820 -0.5840 -0.1883  0.5302
  154MPD2     C 2343   2.347   1.428   0.451 -0.2942  0.2710  0.7804
  154MPD2    C1 2344   2.313   1.322   0.365  0.1876  0.0269  0.1634
  154MPD2    C2 2345   2.183   1.300   0.330  0.3793 -0.0498  0.1165
  154MPD2    C3 2346   2.082   1.369   0.400 -0.6040 -0.6393 -0.0749
  154MPD2    C4 2347   2.113   1.469   0.483  0.3110 -0.0658  0.0721
  154MPD2    C5 2348   2.246   1.499   0.507  0.5415 -0.1205 -0.5993
  154MPD2     H 2349   2.174   1.216   0.262  0.7599  0.7983 -0.9962
  154MPD2    H1 2350   2.044   1.529   0.540  2.1406  1.5426  0.5862
  154MPD2    H2 2351   2.449   1.431   0.488  0.1136 -1.0655 -0.2295
  154MPD2    H3 2352   2.267   1.571   0.586 -1.7248 -0.9715  0.7873
  154MPD2     N 2353   1.945   1.330   0.374  0.1025 -0.6911 -0.0249
  154MPD2    H5 2354   1.931   1.253   0.309  0.0896 -1.0394  0.3870
  154MPD2    N1 2355   2.424   1.251   0.326  0.3424  0.2426 -0.4863
  154MPD2    H7 2356   2.514   1.287   0.357  0.5593  1.4765 -2.4995
  155TCq2    C1 2357   2.424   1.136   0.251  0.0834  0.6166  0.2155
  155TCq2    O2 2358   2.330   1.076   0.203  0.5056  0.2028 -0.0999
  155TCq2    C2 2359   2.559   1.104   0.214 -0.3154 -0.4710  0.8646
  155TCq2    C3 2360   2.571   1.019   0.109  0.1051  0.6838 -0.0697
  155TCq2    C4 2361   2.693   1.004   0.046 -0.2368  0.8004  0.2549
  155TCq2    C5 2362   2.804   1.071   0.092 -0.5071  0.5122  0.0384
  155TCq2    C6 2363   2.784   1.170   0.186 -0.3506 -0.0695 -0.1856
  155TCq2    C7 2364   2.662   1.184   0.252  0.9496  0.1382 -1.0750
  155TCq2    C8 2365   2.910   1.228   0.238  0.5501 -0.2173  0.4070
  155TCq2    O4 2366   3.008   1.165   0.218 -0.0312  0.4365  0.6811
  155TCq2    C9 2367   2.710   0.907  17.647  0.0137 -0.4890  0.7331
  155TCq2    O5 2368   2.640   0.805  17.661 -0.9269 -0.0139  0.4066
  155TCq2    O6 2369   2.810   0.922  17.576  0.6153 -0.2488 -0.2774
  155TCq2    H2 2370   2.484   0.960   0.081 -0.4571  1.9455 -0.9865
  155TCq2    H3 2371   2.902   1.035   0.064 -0.3971  1.7757 -1.1729
  155TCq2    H4 2372   2.657   1.243   0.343 -3.3473 -3.7033  1.1924
  156MPD2     C 2373   1.090   2.010  11.962  0.6951  0.0912  0.7878
  156MPD2    C1 2374   0.979   2.071  11.920 -0.3247  0.2404 -0.2094
  156MPD2    C2 2375   0.945   2.198  11.972  0.7986 -0.1666 -0.9365
  156MPD2    C3 2376   1.015   2.258  12.075 -0.4167 -0.1222 -0.1580
  156MPD2    C4 2377   1.129   2.192  12.117  0.1822  0.9302  0.3787
  156MPD2    C5 2378   1.169   2.077  12.054 -0.0695  0.6374  0.1299
  156MPD2     H 2379   0.862   2.258  11.935  0.8272 -0.5968 -1.6904
  156MPD2    H1 2380   1.185   2.243  12.195 -1.7754  1.5412  1.3732
  156MPD2    H2 2381   1.133   1.919  11.922 -0.2825 -0.0523  0.0622
  156MPD2    H3 2382   1.265   2.038  12.085 -1.4643 -3.0336 -0.1898
  156MPD2     N 2383   0.970   2.384  12.113 -0.1509 -0.4988  0.2940
  156MPD2    H5 2384   0.879   2.414  12.081  1.0428  1.7731 -0.8994
  156MPD2    N1 2385   0.899   2.009  11.819 -0.2718 -0.1273  0.3437
  156MPD2    H7 2386   0.940   1.933  11.765 -2.6562 -0.5184 -0.9213
  157TCq2    C1 2387   0.765   2.044  11.799  0.4016 -0.1219 -0.7592
  157TCq2    O2 2388   0.699   2.137  11.839  0.1354  0.1012 -0.3217
  157TCq2    C2 2389   0.703   1.975  11.689 -0.4004  0.1385 -0.2611
  157TCq2    C3 2390   0.759   1.858  11.648  0.0350  0.0967 -0.2379
  157TCq2    C4 2391   0.688   1.787  11.555  0.1587  0.2209  0.2384
  157TCq2    C5 2392   0.560   1.819  11.517 -0.3745 -0.5909  0.3645
  157TCq2    C6 2393   0.516   1.943  11.548 -0.1474 -0.3022  0.1487
  157TCq2    C7 2394   0.580   2.020  11.640 -0.1356 -0.2909 -0.0126
  157TCq2    C8 2395   0.453   2.020  11.447  0.6120  0.2325  0.2300
  157TCq2    O4 2396   0.343   1.980  11.416 -0.0498  0.0470 -0.1246
  157TCq2    C9 2397   0.747   1.665  11.512 -0.4715  0.2637 -0.6331
  157TCq2    O5 2398   0.672   1.596  11.437 -0.1098  0.3306 -0.2379
  157TCq2    O6 2399   0.857   1.630  11.565 -0.2961 -0.3867  0.1254
  157TCq2    H2 2400   0.851   1.818  11.689 -0.2483  0.0246  0.3391
  157TCq2    H3 2401   0.512   1.757  11.442 -2.2987  1.1463  0.1548
  157TCq2    H4 2402   0.544   2.121  11.658  0.8471 -0.0819  0.7477
  158TMC2    C1 2403   0.554   1.534  13.445  0.8134  0.1068 -0.3913
  158TMC2    C2 2404   0.576   1.636  13.354  0.6803 -0.0150  0.1172
  158TMC2    C3 2405   0.472   1.660  13.271  0.2992 -0.5612 -0.0371
  158TMC2    C4 2406   0.439   1.464  13.450  0.5143  0.3332 -0.1800
  158TMC2    C5 2407   0.340   1.497  13.362  0.0478  0.6006 -0.0711
  158TMC2    C6 2408   0.355   1.600  13.270  0.7726  0.1514 -0.1229
  158TMC2     C 2409   0.669   1.488  13.524  0.3788 -0.2654 -0.2521
  158TMC2     O 2410   0.772   1.500  13.462 -0.1396  1.0526  0.3852
  158TMC2     H 2411   0.662   1.701  13.360  1.6602 -1.4503  1.3433
  158TMC2    H1 2412   0.433   1.373  13.510  1.8284  0.3890  0.0258
  158TMC2    H2 2413   0.273   1.631  13.206 -0.8239  0.2453  1.9441
  158TMC2    C7 2414   0.200   1.450  13.392 -0.0323  0.3298  0.0901
  158TMC2    C8 2415   0.489   1.783  13.191  0.6102  0.1512 -0.0454
  158TMC2    O1 2416   0.110   1.492  13.324 -0.0470  0.2582 -0.7247
  158TMC2    O2 2417   0.598   1.835  13.174  0.4462  0.1595 -0.6126
  158TMC2    O5 2418   0.375   1.847  13.202  0.1474 -0.0551  0.4830
  158TMC2    H5 2419   0.314   1.815  13.272  0.8274  0.7614  1.4480
  159MPD2     C 2420   0.885   1.274  13.933 -0.1872 -0.3157 -0.3431
  159MPD2    C1 2421   0.754   1.293  13.965  0.5972 -0.3338  0.4334
  159MPD2    C2 2422   0.675   1.348  13.866 -0.2386  0.1952 -0.1714
  159MPD2    C3 2423   0.725   1.395  13.743 -0.0265  0.4967 -0.3313
  159MPD2    C4 2424   0.864   1.383  13.727  0.5813 -0.5636  0.3588
  159MPD2    C5 2425   0.940   1.321  13.821 -0.3175 -0.4368 -0.0131
  159MPD2     H 2426   0.568   1.357  13.874 -0.6134 -1.0809 -3.8152
  159MPD2    H1 2427   0.911   1.421  13.637  0.3220  0.2525  0.5625
  159MPD2    H2 2428   0.949   1.222  14.003  0.1517  2.6544  1.5946
  159MPD2    H3 2429   1.045   1.300  13.807 -0.4499 -0.3564 -1.1071
  159MPD2     N 2430   0.632   1.442  13.646  0.8767 -0.0389 -0.2263
  159MPD2    H5 2431   0.533   1.433  13.664  0.7776 -2.3674 -1.9983
  159MPD2    N1 2432   0.708   1.239  14.085 -0.5116 -0.5911  0.0509
  159MPD2    H7 2433   0.780   1.191  14.138 -0.7896  0.5393  1.4569
  160TMC2    C1 2434   0.398   4.466   1.637 -0.3144 -0.3722 -0.1338
  160TMC2    C2 2435   0.501   4.438   1.725  0.2659  0.5507  0.4962
  160TMC2    C3 2436   0.626   4.410   1.676  0.2908  0.3878 -0.7661
  160TMC2    C4 2437   0.416   4.448   1.499 -0.4921  0.5447  0.4110
  160TMC2    C5 2438   0.539   4.428   1.450 -0.3127 -0.6576  0.0127
  160TMC2    C6 2439   0.647   4.409   1.536  0.4694 -0.2126  1.1840
  160TMC2     C 2440   0.263   4.471   1.689 -0.1381  0.6472  0.1614
  160TMC2     O 2441   0.247   4.433   1.805  1.0190  0.5556  0.1071
  160TMC2     H 2442   0.485   4.454   1.831  1.3912  3.2326  0.2573
  160TMC2    H1 2443   0.339   4.459   1.424  0.3796 -0.1543 -0.5772
  160TMC2    H2 2444   0.748   4.387   1.504 -0.2574  0.0421 -1.2436
  160TMC2    C7 2445   0.557   4.449   1.307 -0.2788 -0.1589  0.4987
  160TMC2    C8 2446   0.736   4.352   1.760 -0.4759 -0.1392 -1.3035
  160TMC2    O1 2447   0.467   4.410   1.237  0.1258  0.1586 -0.0171
  160TMC2    O2 2448   0.842   4.334   1.699 -0.5795 -0.3513  0.1350
  160TMC2    O5 2449   0.714   4.389   1.886  0.0542 -0.3518  0.4599
  160TMC2    H5 2450   0.621   4.389   1.919  0.6999  1.4664  2.2443
  161MPD2     C 2451   4.684   4.460   1.696  0.1789 -0.0432 -0.5575
  161MPD2    C1 2452   0.041   4.508   1.597 -0.0864  0.1421 -0.4908
  161MPD2    C2 2453   4.704   4.576   1.489 -0.2188  0.1860 -0.0871
  161MPD2    C3 2454   4.567   4.574   1.479  0.3210 -0.0596 -0.3349
  161MPD2    C4 2455   4.493   4.519   1.578 -0.3242 -0.4284 -0.0526
  161MPD2    C5 2456   4.549   4.459   1.689 -0.4248 -0.3765  0.0572
  161MPD2     H 2457   0.039   4.611   1.407  2.6770 -2.5155  0.8860
  161MPD2    H1 2458   4.385   4.528   1.576 -0.3440 -0.9970 -1.6750
  161MPD2    H2 2459   0.006   4.428   1.788  2.0709  2.0469 -0.8013
  161MPD2    H3 2460   4.487   4.419   1.768 -2.6873 -1.0363 -2.0231
  161MPD2     N 2461   4.499   4.621   1.368 -0.0227  0.3855  0.4117
  161MPD2    H5 2462   4.398   4.630   1.360  0.3667  3.1154 -1.4469
  161MPD2    N1 2463   0.177   4.516   1.590 -0.9371 -0.3489 -0.0599
  161MPD2    H7 2464   0.220   4.565   1.513 -0.9220  0.0841  0.2212
  162TMC2    C1 2465   3.083   1.981   1.088  0.2129  0.0989  0.9092
  162TMC2    C2 2466   3.045   2.110   1.124 -0.0279 -0.3322  0.1600
  162TMC2    C3 2467   2.966   2.129   1.229 -0.1211 -0.6754 -0.2379
  162TMC2    C4 2468   3.039   1.877   1.165 -0.7868  0.0276 -0.8283
  162TMC2    C5 2469   2.961   1.899   1.278 -0.1327  0.3579  0.1417
  162TMC2    C6 2470   2.931   2.025   1.317  0.3739 -0.8702  0.3234
  162TMC2     C 2471   3.185   1.951   0.987  0.8799  0.4237  0.2106
  162TMC2     O 2472   3.219   1.833   0.984  0.4737  0.0674  0.1751
  162TMC2     H 2473   3.071   2.200   1.069  1.7924 -0.9545 -0.0061
  162TMC2    H1 2474   3.059   1.772   1.146  0.9526 -0.1867  2.2550
  162TMC2    H2 2475   2.885   2.044   1.414  2.9019  1.3254  1.0976
  162TMC2    C7 2476   2.923   1.796   1.379 -0.0622  0.3268  0.8134
  162TMC2    C8 2477   2.938   2.260   1.279 -0.1485  0.1401 -0.4042
  162TMC2    O1 2478   2.833   1.825   1.455  0.7217  0.6485  0.2793
  162TMC2    O2 2479   2.972   2.304   1.388  0.4667  0.0029  0.6347
  162TMC2    O5 2480   2.869   2.323   1.185  0.4737  0.2046 -0.0385
  162TMC2    H5 2481   2.857   2.274   1.101  3.4004  0.8961 -0.8634
  163MPD2     C 2482   3.502   2.046   0.593  0.0092  0.1121  0.3244
  163MPD2    C1 2483   3.457   1.929   0.646 -0.1825  0.2804  0.0385
  163MPD2    C2 2484   3.369   1.933   0.754  0.2916 -0.1644 -0.3280
  163MPD2    C3 2485   3.332   2.051   0.818 -0.2778 -0.0412 -0.0678
  163MPD2    C4 2486   3.376   2.166   0.764  0.6669 -0.0681  0.5631
  163MPD2    C5 2487   3.457   2.163   0.651  1.1217 -0.1799 -0.1329
  163MPD2     H 2488   3.321   1.841   0.786 -0.1366  0.0707 -0.2970
  163MPD2    H1 2489   3.337   2.262   0.795 -1.9975 -0.5845 -1.1527
  163MPD2    H2 2490   3.564   2.043   0.503  0.2835  0.5209  0.5033
  163MPD2    H3 2491   3.477   2.265   0.620  0.2035  0.7075  2.2061
  163MPD2     N 2492   3.231   2.059   0.921  0.5275  0.4865 -0.0901
  163MPD2    H5 2493   3.182   2.147   0.936  0.7389  0.4506  0.7989
  163MPD2    N1 2494   3.501   1.815   0.574  0.6470  0.3043 -0.6770
  163MPD2    H7 2495   3.567   1.836   0.499  0.2481  4.4911  0.1569
  164TCq2    C1 2496   4.216   0.297  11.100 -0.2120  0.1373 -0.0010
  164TCq2    O2 2497   4.169   0.185  11.089 -0.1008  0.0630  0.3806
  164TCq2    C2 2498   4.132   0.406  11.152 -0.1491  0.3743  0.9074
  164TCq2    C3 2499   4.189   0.504  11.232  0.1308  0.5642  0.1679
  164TCq2    C4 2500   4.103   0.560  11.322  0.3706  0.4979 -0.3314
  164TCq2    C5 2501   3.963   0.544  11.315 -0.0166  0.1350 -0.6501
  164TCq2    C6 2502   3.916   0.454  11.223  0.1618 -0.3278 -0.0547
  164TCq2    C7 2503   3.999   0.382  11.142 -0.6273 -0.0238  1.0850
  164TCq2    C8 2504   3.777   0.457  11.201  0.0924 -0.0283  0.0408
  164TCq2    O4 2505   3.707   0.508  11.292 -1.2606 -0.0370 -0.2370
  164TCq2    C9 2506   4.153   0.654  11.418 -0.7217 -0.4161  1.3586
  164TCq2    O5 2507   4.278   0.671  11.417 -0.0055  0.1962  0.3858
  164TCq2    O6 2508   4.078   0.687  11.513 -0.5240  0.0498 -0.2147
  164TCq2    H2 2509   4.296   0.511  11.247  0.2976 -0.8054 -0.3862
  164TCq2    H3 2510   3.896   0.596  11.382  0.2496  0.5076 -0.6794
  164TCq2    H4 2511   3.970   0.312  11.064 -2.3172  1.2251  0.5966
  165MPD2     C 2512   0.954   3.332   2.030 -0.2180 -0.0103  0.4518
  165MPD2    C1 2513   0.824   3.286   2.000  0.1610  1.0893  0.7294
  165MPD2    C2 2514   0.714   3.367   2.034 -1.1897 -0.0181 -0.5500
  165MPD2    C3 2515   0.735   3.491   2.100 -0.7154 -0.8731  0.2727
  165MPD2    C4 2516   0.864   3.525   2.134  0.3857 -0.5440 -0.2451
  165MPD2    C5 2517   0.968   3.453   2.085  0.5972  0.3378 -0.3295
  165MPD2     H 2518   0.616   3.326   2.011 -0.6857 -0.2120 -2.3739
  165MPD2    H1 2519   0.890   3.602   2.206 -0.6806 -2.8010  2.6044
  165MPD2    H2 2520   1.052   3.290   2.016 -0.9080 -1.4747  0.0991
  165MPD2    H3 2521   1.071   3.484   2.103  0.8140  0.5491 -1.9434
  165MPD2     N 2522   0.625   3.569   2.153 -0.0500 -1.1731 -0.0342
  165MPD2    H5 2523   0.652   3.635   2.225 -0.5377  2.7833 -3.4228
  165MPD2    N1 2524   0.815   3.159   1.951  0.4887  0.2939 -0.7400
  165MPD2    H7 2525   0.899   3.113   1.917  0.9310  1.2971 -1.0126
  166TCq2    C1 2526   0.489   3.542   2.123  0.3863  0.8714  0.8212
  166TCq2    O2 2527   0.444   3.452   2.050  0.2887 -0.3324  0.1353
  166TCq2    C2 2528   0.411   3.656   2.155 -0.1208  0.0982 -0.4323
  166TCq2    C3 2529   0.287   3.627   2.172 -0.3772 -0.0639 -0.8911
  166TCq2    C4 2530   0.199   3.731   2.191 -0.1711 -0.0368  0.7917
  166TCq2    C5 2531   0.226   3.862   2.189  0.6680 -0.1526  0.9935
  166TCq2    C6 2532   0.356   3.882   2.150 -0.7174  0.1183 -0.0259
  166TCq2    C7 2533   0.448   3.786   2.134 -0.0851  0.1899 -0.2604
  166TCq2    C8 2534   0.378   3.990   2.057 -0.1061 -0.4347 -0.3980
  166TCq2    O4 2535   0.490   4.004   2.011 -0.3496  0.4446 -0.1593
  166TCq2    C9 2536   0.060   3.693   2.212 -0.4208  0.0349 -0.0630
  166TCq2    O5 2537   4.695   3.779   2.203 -0.1828  0.2068 -0.1196
  166TCq2    O6 2538   0.040   3.568   2.230  0.8292 -0.8280  0.2192
  166TCq2    H2 2539   0.253   3.524   2.167  1.2048 -0.6891  1.4283
  166TCq2    H3 2540   0.155   3.942   2.206  0.8730 -0.0401  1.3237
  166TCq2    H4 2541   0.549   3.810   2.102  0.8528  0.0198  2.5279
  167TMC2    C1 2542   4.426   4.608  12.770  0.1204 -0.0214  0.7443
  167TMC2    C2 2543   4.503   4.552  12.670 -0.0238  0.1404 -0.1785
  167TMC2    C3 2544   4.453   4.467  12.577  0.3311 -0.5764  0.3389
  167TMC2    C4 2545   4.291   4.564  12.787 -0.1995  0.7592 -0.1404
  167TMC2    C5 2546   4.248   4.469  12.701  0.1272 -0.0111 -0.0794
  167TMC2    C6 2547   4.322   4.423  12.595 -0.2502 -0.3105  0.0363
  167TMC2     C 2548   4.487   0.004  12.837  0.0769 -0.1103  0.2678
  167TMC2     O 2549   4.606   0.030  12.832  0.1789  0.7364 -0.0038
  167TMC2     H 2550   4.607   4.581  12.661 -0.7067  2.9653  1.0097
  167TMC2    H1 2551   4.235   4.602  12.872  1.2509 -1.9384  2.0147
  167TMC2    H2 2552   4.284   4.349  12.525 -0.7855  0.2334 -0.2382
  167TMC2    C7 2553   4.108   4.427  12.715  0.9675 -0.4925  0.4773
  167TMC2    C8 2554   4.543   4.389  12.495  0.1097 -0.1838  0.5827
  167TMC2    O1 2555   4.066   4.398  12.825 -0.7966  0.2578  0.3863
  167TMC2    O2 2556   4.644   4.338  12.546 -0.2443 -0.0751  0.5589
  167TMC2    O5 2557   4.480   4.359  12.373  0.0918  0.9375 -0.0213
  167TMC2    H5 2558   4.410   4.425  12.351 -1.0376 -1.2407 -2.9057
  168MPD2     C 2559   4.511   0.219  13.038  0.6601 -0.3668 -0.2800
  168MPD2    C1 2560   4.402   0.197  12.961 -0.0182 -0.9037  0.1636
  168MPD2    C2 2561   4.293   0.272  12.982 -0.0154 -0.3370  0.8532
  168MPD2    C3 2562   4.287   0.379  13.070  0.0784 -0.9750 -0.0214
  168MPD2    C4 2563   4.397   0.401  13.145  0.4753  0.0475  0.1180
  168MPD2    C5 2564   4.511   0.329  13.128 -0.5478 -0.2995  0.9205
  168MPD2     H 2565   4.206   0.248  12.922 -1.8042 -0.2335  3.4315
  168MPD2    H1 2566   4.384   0.467  13.230  0.1393  1.1873 -0.8156
  168MPD2    H2 2567   4.605   0.164  13.034  0.2815 -0.9653 -1.0035
  168MPD2    H3 2568   4.593   0.343  13.197 -1.1051  0.4036  1.4304
  168MPD2     N 2569   4.165   0.451  13.083 -0.3933  0.3115 -0.2339
  168MPD2    H5 2570   4.153   0.512  13.164  0.1350  1.0271 -0.6930
  168MPD2    N1 2571   4.385   0.090  12.879 -0.1029 -0.9247 -0.5074
  168MPD2    H7 2572   4.292   0.082  12.838 -1.5226  3.7397  1.8955
  169MPD1     C 2573   1.456   0.295   9.530 -0.0809 -0.1009  0.4816
  169MPD1    C1 2574   1.493   0.175   9.588  0.0318 -0.4105  0.4722
  169MPD1    C2 2575   1.418   0.066   9.585  0.7661 -0.0700  0.0559
  169MPD1    C3 2576   1.296   0.066   9.512  0.1980 -0.2987  0.0672
  169MPD1    C4 2577   1.261   0.186   9.451 -0.0622 -0.2869 -0.8079
  169MPD1    C5 2578   1.335   0.299   9.466  0.1570 -0.3952 -0.0790
  169MPD1     H 2579   1.461   4.705   9.634 -0.7679 -1.4513 -1.0438
  169MPD1    H1 2580   1.174   0.199   9.388 -0.2819  3.0305  0.1699
  169MPD1    H2 2581   1.526   0.376   9.515 -1.2778  1.0210  0.9412
  169MPD1    H3 2582   1.304   0.391   9.417  2.5093  1.0308  1.0839
  169MPD1     N 2583   1.221   4.672   9.503 -0.4948 -0.2622  0.0920
  169MPD1    H5 2584   1.267   4.597   9.554 -1.0646 -0.4383  0.3341
  169MPD1    N1 2585   1.630   0.168   9.641 -0.3891  0.1367  0.0751
  169MPD1    H6 2586   1.630   0.107   9.722  0.6966  1.5242  1.1214
  169MPD1    H7 2587   1.669   0.261   9.651 -0.7967  0.3983 -0.7106
  170MPD1     C 2588   3.435   2.688  13.277 -0.2156  0.0095  0.5598
  170MPD1    C1 2589   3.535   2.647  13.363  0.2001 -1.1731  0.1043
  170MPD1    C2 2590   3.646   2.723  13.372 -0.1958  0.1104 -0.3749
  170MPD1    C3 2591   3.670   2.825  13.284  0.0402  0.5363  0.4359
  170MPD1    C4 2592   3.581   2.858  13.188  0.1294 -0.3830  0.7791
  170MPD1    C5 2593   3.465   2.787  13.185 -1.2923 -0.3459 -0.2869
  170MPD1     H 2594   3.722   2.697  13.445  0.9681 -2.9602 -2.6511
  170MPD1    H1 2595   3.584   2.949  13.128  3.3850 -0.9397  0.1383
  170MPD1    H2 2596   3.349   2.626  13.253 -0.2612 -0.4141  1.8169
  170MPD1    H3 2597   3.392   2.810  13.107 -0.8636 -0.2899 -0.6717
  170MPD1     N 2598   3.787   2.903  13.309  0.1954 -0.1969 -0.5056
  170MPD1    H5 2599   3.855   2.862  13.373  0.8845  1.7896  0.0653
  170MPD1    N1 2600   3.509   2.542  13.450 -0.0569  0.4201 -0.4445
  170MPD1    H6 2601   3.588   2.489  13.487 -0.6076 -1.4384 -1.9162
  170MPD1    H7 2602   3.440   2.478  13.411  0.7354 -2.3417  2.6266
  171MPD1     C 2603   2.972   4.719  15.438 -0.2886 -0.4692  0.2894
  171MPD1    C1 2604   3.081   4.641  15.406  0.6792 -0.6641 -0.1452
  171MPD1    C2 2605   3.107   4.529  15.477  0.4533 -0.1712  0.0556
  171MPD1    C3 2606   3.024   4.495  15.587 -0.9502 -0.1949  0.1165
  171MPD1    C4 2607   2.931   4.586  15.630 -0.3436  0.2728  0.4623
  171MPD1    C5 2608   2.913   4.701  15.554 -0.1960 -0.7742  0.0338
  171MPD1     H 2609   3.191   4.464  15.455  0.5355 -0.2283  0.5360
  171MPD1    H1 2610   2.871   4.570  15.718  1.2373 -3.5949  0.8233
  171MPD1    H2 2611   2.963   0.083  15.377  1.4157 -1.3962 -1.2977
  171MPD1    H3 2612   2.837   0.047  15.584  0.7574 -0.5089  1.7874
  171MPD1     N 2613   3.035   4.370  15.662  0.7701 -0.1553  0.0215
  171MPD1    H5 2614   2.994   4.378  15.754 -0.0498  1.7457 -0.5094
  171MPD1    N1 2615   3.187   4.691  15.326  0.1930  0.2473  0.4376
  171MPD1    H6 2616   3.167   0.020  15.242 -0.5605  1.6462  1.5399
  171MPD1    H7 2617   3.247   4.613  15.299  1.1402  0.8724  0.7503
  172MPD1     C 2618   1.875   3.178   0.151 -0.4470  0.2415 -0.2135
  172MPD1    C1 2619   1.825   3.171   0.279  0.8203 -0.8040  0.8067
  172MPD1    C2 2620   1.876   3.256   0.373 -0.5335  0.1696  0.1371
  172MPD1    C3 2621   1.991   3.330   0.350 -0.1154  0.0622  0.4894
  172MPD1    C4 2622   2.037   3.331   0.219  0.1357  0.1056 -0.6185
  172MPD1    C5 2623   1.973   3.266   0.117 -0.3153 -0.0979  0.2270
  172MPD1     H 2624   1.838   3.255   0.474 -0.1983  3.0702  0.2765
  172MPD1    H1 2625   2.123   3.394   0.203  0.8876 -0.5038  0.9462
  172MPD1    H2 2626   1.824   3.121   0.075 -0.3713  1.3772 -1.1283
  172MPD1    H3 2627   2.010   3.265   0.015  0.6445 -0.2405  0.5775
  172MPD1     N 2628   2.050   3.409   0.451  0.0369  0.0572 -0.0755
  172MPD1    H5 2629   2.128   3.466   0.421  0.2501  0.3106  0.9822
  172MPD1    N1 2630   1.710   3.093   0.298  0.4057  0.2733  0.1063
  172MPD1    H6 2631   1.699   3.014   0.235  1.3180 -0.4674  0.8754
  172MPD1    H7 2632   1.691   3.071   0.396 -0.0615  0.5888  0.0893
  173MPD1     C 2633   3.454   3.749  14.097 -0.6446  0.9016 -0.2533
  173MPD1    C1 2634   3.382   3.731  14.212 -1.0663 -0.2785  0.6439
  173MPD1    C2 2635   3.423   3.629  14.295  0.1081  0.5317 -0.3003
  173MPD1    C3 2636   3.513   3.527  14.253  0.1685 -0.7377 -0.2139
  173MPD1    C4 2637   3.560   3.535  14.122  0.3574 -0.5302 -0.6116
  173MPD1    C5 2638   3.536   3.646  14.048 -0.4080 -0.4498  0.2940
  173MPD1     H 2639   3.376   3.631  14.392  1.1454 -2.0397  0.2714
  173MPD1    H1 2640   3.634   3.467  14.081  0.0229 -0.5154 -1.2328
  173MPD1    H2 2641   3.432   3.831  14.030 -3.1405 -1.4696 -2.3451
  173MPD1    H3 2642   3.580   3.644  13.949 -1.8399  1.3401 -0.3944
  173MPD1     N 2643   3.534   3.431  14.351  0.0593 -0.3205  0.1751
  173MPD1    H5 2644   3.481   3.432  14.438  1.1365  0.1911  0.8241
  173MPD1    N1 2645   3.301   3.840  14.255  0.3532 -0.0043  0.4229
  173MPD1    H6 2646   3.223   3.809  14.312  0.1527  2.8383  1.6791
  173MPD1    H7 2647   3.258   3.894  14.179  1.4097  1.2890  0.7326
  174MPD1     C 2648   4.375   3.041  14.625 -0.1806 -0.3534  0.3685
  174MPD1    C1 2649   4.286   3.009  14.727  0.5810  0.8533 -0.1653
  174MPD1    C2 2650   4.150   3.049  14.713 -1.1118 -0.6253 -0.5158
  174MPD1    C3 2651   4.106   3.083  14.588  0.0370  0.0281  0.8711
  174MPD1    C4 2652   4.189   3.097  14.485  0.2849 -0.0676  0.4305
  174MPD1    C5 2653   4.327   3.082  14.504 -0.1867  0.6317 -0.7295
  174MPD1     H 2654   4.091   3.058  14.803  0.7932  1.2943  0.5468
  174MPD1    H1 2655   4.152   3.131  14.388  0.3896  1.2406  0.8503
  174MPD1    H2 2656   4.482   3.042  14.642 -0.2217 -1.8436  0.6530
  174MPD1    H3 2657   4.400   3.098  14.425  0.1885  1.3059 -0.2508
  174MPD1     N 2658   3.972   3.117  14.566 -0.3768  0.9423 -0.2607
  174MPD1    H5 2659   3.955   3.160  14.476 -1.2686 -0.8829 -0.9616
  174MPD1    N1 2660   4.342   2.986  14.852 -0.0744  0.0506 -0.3303
  174MPD1    H6 2661   4.282   2.925  14.908 -0.1890 -0.4155 -0.9723
  174MPD1    H7 2662   4.434   2.944  14.843 -0.2051  0.0161 -1.4403
  175MPD1     C 2663   2.230   4.579  15.671  0.0414  0.1120 -0.0560
  175MPD1    C1 2664   2.114   4.505  15.693 -0.3283 -0.4225 -0.3579
  175MPD1    C2 2665   2.098   4.445  15.815  0.0034  0.0216 -0.0566
  175MPD1    C3 2666   2.202   4.432  15.904  0.3113 -0.3208 -0.4865
  175MPD1    C4 2667   2.323   4.484  15.867 -0.0418  0.3453  0.2457
  175MPD1    C5 2668   2.337   4.561  15.750 -0.7398 -0.3431  0.1415
  175MPD1     H 2669   1.999   4.406  15.836 -1.6825  3.2689 -1.9242
  175MPD1    H1 2670   2.405   4.475  15.937  2.1442  0.6242 -2.2458
  175MPD1    H2 2671   2.247   4.636  15.580 -1.0700 -1.9840 -1.5606
  175MPD1    H3 2672   2.431   4.606  15.722 -0.7521 -1.6537 -1.9980
  175MPD1     N 2673   2.200   4.367  16.029  0.4276  0.1050 -0.0995
  175MPD1    H5 2674   2.285   4.372  16.084  1.9008 -0.0720 -2.3711
  175MPD1    N1 2675   1.998   4.522  15.614 -0.1884  0.3222 -0.1288
  175MPD1    H6 2676   1.943   4.437  15.602 -1.0336  0.7968  0.4531
  175MPD1    H7 2677   2.035   4.545  15.521 -2.4593  0.8903 -0.8942
  176MPD1     C 2678   3.456   1.324  17.661  0.6713  0.2311 -0.7071
  176MPD1    C1 2679   3.433   1.419  17.562  1.0920 -0.4145 -0.3530
  176MPD1    C2 2680   3.371   1.541  17.592  0.4292 -0.0370  0.4168
  176MPD1    C3 2681   3.343   1.573   0.017  0.1315 -0.2778 -0.4575
  176MPD1    C4 2682   3.377   1.481   0.120  0.2010 -0.5149 -0.7463
  176MPD1    C5 2683   3.423   1.355   0.092 -0.2524  0.0247 -0.2399
  176MPD1     H 2684   3.335   1.603  17.512  0.6390  1.9284  1.8453
  176MPD1    H1 2685   3.349   1.497   0.223 -1.2120  0.9418 -1.3419
  176MPD1    H2 2686   3.494   1.226  17.637  0.2362  0.1563 -1.1070
  176MPD1    H3 2687   3.433   1.284   0.174 -1.3400 -0.1328 -0.2526
  176MPD1     N 2688   3.285   1.696   0.039  0.7044  0.7101 -0.0056
  176MPD1    H5 2689   3.260   1.749  17.658  1.1734 -1.6240 -1.6409
  176MPD1    N1 2690   3.445   1.377  17.431  0.5999 -0.1601 -0.4151
  176MPD1    H6 2691   3.473   1.464  17.385  0.6685  0.1785  0.2660
  176MPD1    H7 2692   3.517   1.308  17.413  0.6034 -0.4755  0.8799
  177MPD1     C 2693   2.074   0.452  10.888 -0.2769 -0.0302 -0.1440
  177MPD1    C1 2694   2.171   0.518  10.816 -0.3187  0.4596 -0.0182
  177MPD1    C2 2695   2.128   0.625  10.737  0.4294 -0.0322  0.1007
  177MPD1    C3 2696   1.993   0.637  10.696 -0.0992 -0.4531  0.2848
  177MPD1    C4 2697   1.902   0.561  10.765 -0.1619  0.3413  0.0909
  177MPD1    C5 2698   1.942   0.481  10.864 -0.1109 -0.4775  0.1106
  177MPD1     H 2699   2.197   0.691  10.685  0.1812  0.3885  0.3077
  177MPD1    H1 2700   1.795   0.575  10.753  0.2939  1.9270 -2.0508
  177MPD1    H2 2701   2.098   0.384  10.969  0.4864 -0.2824 -0.5825
  177MPD1    H3 2702   1.868   0.428  10.922  0.3397 -0.2290  0.9117
  177MPD1     N 2703   1.953   0.729  10.597 -0.1829  1.0727  0.1207
  177MPD1    H5 2704   2.023   0.791  10.559  1.0535  0.4737  1.4038
  177MPD1    N1 2705   2.310   0.495  10.835  1.0566 -0.1205  0.1492
  177MPD1    H6 2706   2.371   0.533  10.762 -0.3878  0.8172 -0.5691
  177MPD1    H7 2707   2.328   0.396  10.849  0.0351 -0.6407 -2.3254
  178MPD1     C 2708   3.787   3.077  17.327  0.4116 -0.7526 -0.8791
  178MPD1    C1 2709   3.880   3.053  17.230 -0.1856  0.1466  0.1443
  178MPD1    C2 2710   3.896   2.918  17.202 -1.0138 -0.5073  0.5838
  178MPD1    C3 2711   3.802   2.817  17.235 -0.0006 -0.5973 -0.4103
  178MPD1    C4 2712   3.690   2.848  17.308 -0.2423  0.4740  0.1116
  178MPD1    C5 2713   3.688   2.977  17.352 -0.2566  0.4596  0.0618
  178MPD1     H 2714   3.980   2.889  17.140 -1.9988 -1.1944 -0.4331
  178MPD1    H1 2715   3.621   2.775  17.347 -1.1763  0.7562 -1.0050
  178MPD1    H2 2716   3.772   3.177  17.366 -4.5444 -1.2285 -1.6379
  178MPD1    H3 2717   3.609   3.006  17.420  1.6545  0.5065  2.2376
  178MPD1     N 2718   3.825   2.679  17.202  0.3812  0.1212  0.1585
  178MPD1    H5 2719   3.742   2.623  17.182  0.4644 -0.4614  1.4287
  178MPD1    N1 2720   3.974   3.148  17.187 -0.0641 -0.2022  0.2019
  178MPD1    H6 2721   4.024   3.121  17.103 -2.2755 -1.0849 -0.8329
  178MPD1    H7 2722   3.938   3.242  17.172 -0.5751 -0.4680 -0.2193
  179MPD1     C 2723   3.964   1.134  16.293  0.0467 -0.2305 -0.2354
  179MPD1    C1 2724   4.036   1.021  16.256  0.7036  0.3416  1.1801
  179MPD1    C2 2725   3.974   0.925  16.177 -0.2405 -0.6999 -0.0772
  179MPD1    C3 2726   3.848   0.952  16.119 -0.3714 -0.3746  0.7458
  179MPD1    C4 2727   3.785   1.065  16.144 -0.0810 -0.0350 -0.1216
  179MPD1    C5 2728   3.840   1.159  16.230  0.3487  0.3345 -0.2076
  179MPD1     H 2729   4.029   0.838  16.143  2.4578  0.0654  2.3298
  179MPD1    H1 2730   3.685   1.088  16.109 -0.3927  0.0511  0.8261
  179MPD1    H2 2731   4.000   1.208  16.365  0.0581 -1.4535  1.0237
  179MPD1    H3 2732   3.766   1.236  16.248  2.2778  1.7381  1.7246
  179MPD1     N 2733   3.774   0.865  16.028  0.3811 -0.0837  0.2372
  179MPD1    H5 2734   3.682   0.890  15.994  0.2495 -1.1736 -0.2106
  179MPD1    N1 2735   4.149   0.980  16.319  0.0401 -0.3669 -0.7778
  179MPD1    H6 2736   4.211   0.917  16.268 -1.4298 -1.2566 -1.4653
  179MPD1    H7 2737   4.207   1.053  16.358  1.5419 -1.1786 -1.4850
  180MPD1     C 2738   3.108   2.313  15.519  0.4259  0.2334 -0.2920
  180MPD1    C1 2739   3.214   2.379  15.466 -0.1447  0.1903  0.1063
  180MPD1    C2 2740   3.254   2.352  15.336 -0.5971  0.5684 -0.0431
  180MPD1    C3 2741   3.180   2.257  15.259  0.7498  0.3852  0.5538
  180MPD1    C4 2742   3.066   2.204  15.312  0.2255  0.2105 -0.4588
  180MPD1    C5 2743   3.040   2.222  15.443 -0.1902  0.1176  0.0554
  180MPD1     H 2744   3.337   2.394  15.281 -0.2456 -0.1550 -0.0788
  180MPD1    H1 2745   3.002   2.137  15.256 -0.3173 -0.9246  1.5276
  180MPD1    H2 2746   3.092   2.303  15.626 -0.7508 -0.9156 -0.5689
  180MPD1    H3 2747   2.958   2.161  15.480 -1.0779  0.7099 -0.9507
  180MPD1     N 2748   3.238   2.224  15.133  0.3568  0.3503  0.7784
  180MPD1    H5 2749   3.327   2.264  15.106  0.2971 -0.1295 -0.1374
  180MPD1    N1 2750   3.282   2.468  15.552 -0.4228  0.1705  0.5596
  180MPD1    H6 2751   3.292   2.445  15.651  0.4105 -1.0505  0.1788
  180MPD1    H7 2752   3.372   2.503  15.519  0.1242 -1.9270 -0.1252
  181MPD1     C 2753   4.672   3.696   9.596 -0.4165  0.1985 -0.3189
  181MPD1    C1 2754   4.709   3.560   9.631 -0.3133  0.8808  0.4932
  181MPD1    C2 2755   0.117   3.534   9.656 -0.0266  0.2224  0.2173
  181MPD1    C3 2756   0.206   3.636   9.664  0.0943 -0.1109  0.1762
  181MPD1    C4 2757   0.168   3.768   9.634 -1.0889  0.4131  0.0577
  181MPD1    C5 2758   0.037   3.795   9.593 -0.6708 -0.1934 -0.4473
  181MPD1     H 2759   0.146   3.430   9.658  0.9515  0.4389 -2.8237
  181MPD1    H1 2760   0.247   3.842   9.624  1.4138 -2.1549  0.9732
  181MPD1    H2 2761   4.574   3.727   9.563 -1.0089 -0.2654  0.9965
  181MPD1    H3 2762   0.012   3.893   9.554 -0.0932  0.5383  1.0034
  181MPD1     N 2763   0.342   3.616   9.699 -0.0460  0.1974 -0.1355
  181MPD1    H5 2764   0.401   3.697   9.689  0.0105  0.3730  1.5882
  181MPD1    N1 2765   4.614   3.465   9.592  0.3342 -0.4646  0.6080
  181MPD1    H6 2766   4.521   3.500   9.615  0.4278  0.7858 -0.9158
  181MPD1    H7 2767   4.630   3.375   9.638 -2.8779 -1.2540  0.1636
  182MPD1     C 2768   1.493   3.476   1.900  0.6903 -0.6242  0.3275
  182MPD1    C1 2769   1.520   3.408   1.785 -0.8124 -0.1320 -0.4484
  182MPD1    C2 2770   1.411   3.386   1.696  0.1257  1.5699 -0.0931
  182MPD1    C3 2771   1.297   3.460   1.704 -0.2596  1.1293 -0.1555
  182MPD1    C4 2772   1.286   3.551   1.813 -0.1157 -0.3414 -0.0287
  182MPD1    C5 2773   1.389   3.565   1.902  0.6073 -0.6347  0.3872
  182MPD1     H 2774   1.423   3.304   1.626 -0.0455  0.2908  1.3471
  182MPD1    H1 2775   1.193   3.607   1.822 -0.2661 -0.9165  2.0252
  182MPD1    H2 2776   1.572   3.486   1.974  1.1649 -0.1923 -0.2420
  182MPD1    H3 2777   1.379   3.625   1.993  0.0062  1.9622 -1.3945
  182MPD1     N 2778   1.189   3.452   1.606  0.5457 -0.0528 -0.0191
  182MPD1    H5 2779   1.115   3.519   1.622  2.6498  2.7139 -1.7417
  182MPD1    N1 2780   1.638   3.333   1.784 -0.2343  0.4287 -0.1188
  182MPD1    H6 2781   1.719   3.378   1.825  0.6467 -1.1693 -0.0834
  182MPD1    H7 2782   1.667   3.318   1.688 -2.3694 -0.2441 -0.6775
  183MPD1     C 2783   2.699   3.642   9.371  0.2958 -0.6737  0.0676
  183MPD1    C1 2784   2.589   3.634   9.289 -0.1070  0.5603  0.5988
  183MPD1    C2 2785   2.479   3.573   9.344 -0.3407 -0.3300  0.0421
  183MPD1    C3 2786   2.481   3.512   9.471 -0.2930  0.5871  0.0512
  183MPD1    C4 2787   2.603   3.504   9.537  0.0245  0.2001 -0.4419
  183MPD1    C5 2788   2.708   3.570   9.485  0.6901  0.9913 -0.6846
  183MPD1     H 2789   2.390   3.583   9.282 -0.0633 -0.5140 -0.3879
  183MPD1    H1 2790   2.617   3.450   9.630 -1.3302 -0.2566 -0.4999
  183MPD1    H2 2791   2.789   3.694   9.342  0.4438 -1.0361 -0.1213
  183MPD1    H3 2792   2.797   3.572   9.548  0.2481 -2.0482 -0.0031
  183MPD1     N 2793   2.358   3.448   9.516  0.0724  0.3555  0.3757
  183MPD1    H5 2794   2.270   3.468   9.471 -0.8750 -1.7035  1.3278
  183MPD1    N1 2795   2.592   3.702   9.171 -0.4511  0.1455 -0.1868
  183MPD1    H6 2796   2.524   3.669   9.103  1.8841 -0.1084 -2.4044
  183MPD1    H7 2797   2.686   3.709   9.134 -0.9717  0.0430 -1.5400
  184MPD1     C 2798   1.793   0.149  10.848 -0.2111  0.0115  0.0442
  184MPD1    C1 2799   1.827   0.129  10.715 -1.0719 -0.1270  0.8001
  184MPD1    C2 2800   1.761   0.192  10.619  0.2922  0.4185 -0.0809
  184MPD1    C3 2801   1.638   0.250  10.648 -0.1507  0.1106  0.2481
  184MPD1    C4 2802   1.601   0.266  10.779 -0.1612 -0.1697  0.8758
  184MPD1    C5 2803   1.680   0.217  10.879  0.5840 -0.4088  0.0088
  184MPD1     H 2804   1.805   0.188  10.521  0.0756  0.1489 -0.1651
  184MPD1    H1 2805   1.505   0.311  10.802  0.0278  0.8386 -0.3501
  184MPD1    H2 2806   1.852   0.113  10.931 -0.4214  0.8213  0.5386
  184MPD1    H3 2807   1.648   0.223  10.983 -2.0101 -1.8791 -0.6943
  184MPD1     N 2808   1.560   0.316  10.546  0.0871  1.0120 -0.4462
  184MPD1    H5 2809   1.469   0.356  10.567 -0.6387  0.7204 -3.0377
  184MPD1    N1 2810   1.953   0.078  10.681  0.4233  0.1028 -0.3162
  184MPD1    H6 2811   1.975   0.008  10.751  0.1225  0.1271 -0.1956
  184MPD1    H7 2812   1.962   0.045  10.585 -1.7930  3.2087 -1.5887
  185MPD1     C 2813   0.726   0.169   9.974  0.2621 -0.5536  0.4565
  185MPD1    C1 2814   0.785   0.097  10.071  0.5662  0.3614 -0.4687
  185MPD1    C2 2815   0.900   0.156  10.134 -0.1300 -0.2215  0.2138
  185MPD1    C3 2816   0.951   0.283  10.103  0.6246  0.2543  0.1193
  185MPD1    C4 2817   0.878   0.356  10.006 -0.5952  0.0320 -0.0258
  185MPD1    C5 2818   0.768   0.297   9.943 -0.3954 -0.3651 -0.2606
  185MPD1     H 2819   0.935   0.099  10.219 -0.7629 -0.7370  0.1297
  185MPD1    H1 2820   0.897   0.459   9.980 -0.0507  0.4076  1.8586
  185MPD1    H2 2821   0.635   0.137   9.925  0.3250  0.9335 -0.6170
  185MPD1    H3 2822   0.710   0.355   9.871 -0.3839  1.9176  1.5692
  185MPD1     N 2823   1.060   0.339  10.170  0.1979 -0.5554  0.3072
  185MPD1    H5 2824   1.072   0.437  10.147  1.8917 -0.2140  2.7354
  185MPD1    N1 2825   0.753   4.689  10.082 -0.6656 -0.0997 -0.4162
  185MPD1    H6 2826   0.765   4.645  10.173 -0.2445  0.2815 -0.2839
  185MPD1    H7 2827   0.654   4.677  10.065 -0.6666  0.6320 -0.9475
  186MPD1     C 2828   4.473   0.204  15.937 -0.6037 -0.0191 -0.4728
  186MPD1    C1 2829   4.592   0.275  15.938  0.1744 -0.1964  0.3071
  186MPD1    C2 2830   4.609   0.384  16.027 -0.6138  0.1779  0.1797
  186MPD1    C3 2831   4.503   0.419  16.111 -0.1429 -0.1082  0.1161
  186MPD1    C4 2832   4.388   0.345  16.112  0.1903  0.0077 -0.9730
  186MPD1    C5 2833   4.371   0.244  16.020 -0.2414  1.0362  0.2996
  186MPD1     H 2834   4.708   0.425  16.041  0.4468 -2.7498  1.3919
  186MPD1    H1 2835   4.307   0.368  16.181  0.4669 -0.1773 -0.5863
  186MPD1    H2 2836   4.463   0.130  15.859 -2.7977 -0.6006  0.3760
  186MPD1    H3 2837   4.276   0.192  16.028  1.5447 -2.3372 -0.4833
  186MPD1     N 2838   4.502   0.520  16.200 -0.1431 -0.4864  0.4705
  186MPD1    H5 2839   4.425   0.526  16.265  0.3800 -0.1604  1.0722
  186MPD1    N1 2840   4.697   0.219  15.871  0.3294  0.0624  0.0473
  186MPD1    H6 2841   4.662   0.153  15.802 -0.4787  1.3489 -0.7685
  186MPD1    H7 2842   0.022   0.293  15.822  0.9409 -0.0667  0.4793
  187MPD1     C 2843   3.503   2.246  17.641  0.7088 -0.2241  0.7575
  187MPD1    C1 2844   3.549   2.376  17.688  0.0528 -0.0682  0.6453
  187MPD1    C2 2845   3.481   2.487  17.636  0.1645 -0.6851 -0.1032
  187MPD1    C3 2846   3.363   2.478  17.568  0.3688 -0.1767  0.4262
  187MPD1    C4 2847   3.322   2.348  17.532  0.3257 -0.5274 -0.8134
  187MPD1    C5 2848   3.397   2.242  17.562  0.1274  0.3013 -0.7519
  187MPD1     H 2849   3.516   2.585  17.667  1.2480 -0.3653 -2.3729
  187MPD1    H1 2850   3.238   2.324  17.467  0.0832  1.5759 -1.3103
  187MPD1    H2 2851   3.549   2.157  17.681 -0.1271 -0.8697  0.2844
  187MPD1    H3 2852   3.366   2.145  17.525 -0.9426  0.6424 -0.7512
  187MPD1     N 2853   3.288   2.586  17.512 -0.1441 -0.2406  0.2175
  187MPD1    H5 2854   3.195   2.558  17.483 -0.6621  1.0900  0.5733
  187MPD1    N1 2855   3.652   2.389   0.086 -1.2287 -0.1902  0.0277
  187MPD1    H6 2856   3.657   2.485   0.120 -3.1813  0.4914 -1.6145
  187MPD1    H7 2857   3.680   2.306   0.138  1.6640  0.0462 -1.1754
  188MPD1     C 2858   3.346   2.414  10.226  0.2909  0.1330 -0.5202
  188MPD1    C1 2859   3.400   2.342  10.328 -0.4352 -0.3981  0.1286
  188MPD1    C2 2860   3.406   2.206  10.314  0.8084 -0.1248 -0.0499
  188MPD1    C3 2861   3.394   2.142  10.190 -0.1729 -0.2133 -0.1383
  188MPD1    C4 2862   3.350   2.221  10.083 -0.4509  0.3086  0.0461
  188MPD1    C5 2863   3.341   2.358  10.100 -0.0613  0.6308 -0.2709
  188MPD1     H 2864   3.434   2.146  10.400 -1.8024 -0.2404  0.7194
  188MPD1    H1 2865   3.345   2.178   9.984 -0.0267 -2.1858  1.0918
  188MPD1    H2 2866   3.364   2.521  10.220 -0.2236  0.3495  1.9815
  188MPD1    H3 2867   3.327   2.429  10.019 -1.0912  0.0952 -0.5612
  188MPD1     N 2868   3.400   2.003  10.170 -0.3709 -0.0833  0.2107
  188MPD1    H5 2869   3.370   1.973  10.078  0.2473  0.4204 -0.1558
  188MPD1    N1 2870   3.424   2.404  10.454 -0.4069  0.2672  0.1258
  188MPD1    H6 2871   3.488   2.345  10.508  2.3722  2.4037 -0.8231
  188MPD1    H7 2872   3.469   2.495  10.444 -0.0462 -0.0190 -0.9028
  189MPD1     C 2873   4.024   3.359   1.174 -0.4480 -0.2047 -1.2526
  189MPD1    C1 2874   4.001   3.269   1.070  0.2699  0.9905  0.3556
  189MPD1    C2 2875   3.946   3.330   0.953 -0.3846  0.0218 -0.5160
  189MPD1    C3 2876   3.932   3.471   0.937  0.3029 -0.6472 -0.3328
  189MPD1    C4 2877   3.964   3.550   1.043  0.5233 -0.7128 -0.4467
  189MPD1    C5 2878   4.005   3.493   1.162  0.1406  0.4322  0.2004
  189MPD1     H 2879   3.914   3.265   0.872  1.7186  0.9522 -2.0945
  189MPD1    H1 2880   3.951   3.658   1.048 -0.8767 -0.8535 -1.1283
  189MPD1    H2 2881   4.049   3.316   1.271  1.9297  1.3904 -1.1853
  189MPD1    H3 2882   4.029   3.551   1.250 -1.6864  1.8274 -0.2088
  189MPD1     N 2883   3.893   3.525   0.808 -0.4951  0.3874  2.0907
  189MPD1    H5 2884   3.885   3.453   0.737  2.6878  0.7679  1.3337
  189MPD1    N1 2885   4.008   3.129   1.089  0.7169  0.0405 -0.2579
  189MPD1    H6 2886   4.014   3.084   0.998  2.2974  0.2060 -0.2217
  189MPD1    H7 2887   4.090   3.096   1.138  0.5676  0.6134  0.3698
  190MPD1     C 2888   3.265   1.975  16.123 -0.4905 -0.3329 -0.3504
  190MPD1    C1 2889   3.335   2.092  16.139  0.2461  0.5802 -0.0434
  190MPD1    C2 2890   3.470   2.087  16.097  0.3371 -0.0061 -0.5019
  190MPD1    C3 2891   3.529   1.973  16.045 -0.2705 -0.1194 -0.6285
  190MPD1    C4 2892   3.454   1.858  16.036  0.0024 -0.8908 -0.5278
  190MPD1    C5 2893   3.324   1.859  16.081 -0.0639 -0.5636  0.5636
  190MPD1     H 2894   3.526   2.180  16.099  0.4923 -0.1621  2.2629
  190MPD1    H1 2895   3.491   1.759  16.010 -0.1833 -0.5376 -2.1154
  190MPD1    H2 2896   3.166   1.958  16.162 -0.1593  1.3337  1.2469
  190MPD1    H3 2897   3.265   1.769  16.092 -2.6131  0.8856 -1.3432
  190MPD1     N 2898   3.674   1.979  16.021 -0.3374  0.0606 -0.0493
  190MPD1    H5 2899   3.719   2.063  16.055  0.1638 -0.8978  1.6603
  190MPD1    N1 2900   3.278   2.201  16.203 -0.1943 -0.2660 -0.2042
  190MPD1    H6 2901   3.178   2.217  16.190 -0.0462  0.0196 -0.9920
  190MPD1    H7 2902   3.326   2.284  16.169  1.6636 -1.4266 -0.4292
  191MPD1     C 2903   3.265   3.404  12.939  0.1088 -0.1598 -0.5696
  191MPD1    C1 2904   3.338   3.445  12.827  1.1835 -0.3219 -0.0665
  191MPD1    C2 2905   3.278   3.528  12.733  0.4592  0.1961 -0.2037
  191MPD1    C3 2906   3.144   3.550  12.741 -0.1436  0.1738  0.1132
  191MPD1    C4 2907   3.076   3.512  12.851  0.2343 -0.1259  0.0461
  191MPD1    C5 2908   3.134   3.439  12.951  0.5515  0.4671 -0.2336
  191MPD1     H 2909   3.335   3.581  12.657  0.3496 -0.1141 -0.5045
  191MPD1    H1 2910   2.975   3.542  12.876  0.5344 -0.9852  2.2200
  191MPD1    H2 2911   3.310   3.347  13.020 -0.9228  0.5655  0.5149
  191MPD1    H3 2912   3.081   3.430  13.045 -0.1937 -0.0561 -0.7052
  191MPD1     N 2913   3.085   3.627  12.632  0.2275  0.0720  0.2444
  191MPD1    H5 2914   3.150   3.660  12.562  0.4544 -0.2735  0.2915
  191MPD1    N1 2915   3.479   3.442  12.833 -0.2846 -0.9889  0.0670
  191MPD1    H6 2916   3.522   3.439  12.741  0.1953 -0.6059  0.2769
  191MPD1    H7 2917   3.509   3.360  12.885 -0.3004 -0.3611  1.0656
  192MPD1     C 2918   2.648   4.552  12.582 -0.1987 -0.3249  0.8382
  192MPD1    C1 2919   2.574   4.443  12.581  0.3014  0.0868 -0.0174
  192MPD1    C2 2920   2.627   4.321  12.542  0.0098  0.3746 -0.0720
  192MPD1    C3 2921   2.765   4.319  12.511  0.3492  0.0355 -1.1532
  192MPD1    C4 2922   2.833   4.431  12.518  0.1640 -0.1220  0.2251
  192MPD1    C5 2923   2.781   4.552  12.557 -0.3071  0.1777 -0.2981
  192MPD1     H 2924   2.570   4.229  12.531 -0.8658  0.7292  1.6999
  192MPD1    H1 2925   2.937   4.416  12.494  0.1864 -0.5163  0.5767
  192MPD1    H2 2926   2.609   4.652  12.595  1.9287  0.7689 -1.0799
  192MPD1    H3 2927   2.846   4.639  12.554 -0.2706  0.1244 -1.0416
  192MPD1     N 2928   2.825   4.199  12.466  0.8627  0.1034  0.2711
  192MPD1    H5 2929   2.921   4.200  12.431  1.4115  2.0881  1.8037
  192MPD1    N1 2930   2.434   4.454  12.586  0.3168  0.2239 -0.1951
  192MPD1    H6 2931   2.393   4.369  12.624  1.0463  1.1287  2.6460
  192MPD1    H7 2932   2.396   4.537  12.632  1.0118  0.9158 -0.8715
  193MPD1     C 2933   2.816   4.048  16.832  0.0906  0.4625  0.0000
  193MPD1    C1 2934   2.793   4.104  16.956 -0.2321 -0.0139  0.7447
  193MPD1    C2 2935   2.863   4.215  17.006 -0.4077  0.5889 -0.5535
  193MPD1    C3 2936   2.954   4.270  16.914 -0.9191  0.2219  0.5072
  193MPD1    C4 2937   2.972   4.218  16.785  0.4852 -0.1143 -0.0709
  193MPD1    C5 2938   2.908   4.105  16.750  0.0837 -0.2287  0.0615
  193MPD1     H 2939   2.848   4.263  17.102 -0.9054 -1.0708  0.1820
  193MPD1    H1 2940   3.044   4.255  16.713 -0.4700  4.3472  1.2684
  193MPD1    H2 2941   2.760   3.957  16.815  2.0943 -0.4139 -1.8365
  193MPD1    H3 2942   2.915   4.060  16.652 -1.0555  2.2140 -1.1517
  193MPD1     N 2943   3.035   4.385  16.939 -0.1331  0.1811  0.2813
  193MPD1    H5 2944   3.099   4.417  16.867 -1.2462 -0.3748 -0.9517
  193MPD1    N1 2945   2.710   4.029  17.042  0.0242  0.3988  0.3011
  193MPD1    H6 2946   2.647   3.970  16.988  0.7988 -0.3967  0.2801
  193MPD1    H7 2947   2.660   4.085  17.111  0.3009 -0.5405  1.2655
  194MPD1     C 2948   1.461   1.481  16.375 -0.0466  0.4754  0.9678
  194MPD1    C1 2949   1.469   1.542  16.495  0.3097 -0.4254 -1.0386
  194MPD1    C2 2950   1.399   1.481  16.601 -0.2380  0.6047 -0.0051
  194MPD1    C3 2951   1.324   1.364  16.584  0.0225  0.0457  0.0332
  194MPD1    C4 2952   1.318   1.306  16.457 -0.3490  0.1572 -0.5130
  194MPD1    C5 2953   1.381   1.368  16.352 -0.4307 -0.4671  0.1750
  194MPD1     H 2954   1.419   1.513  16.703  0.9879  2.9923 -0.9966
  194MPD1    H1 2955   1.281   1.205  16.438  2.3168 -1.1790  1.4184
  194MPD1    H2 2956   1.518   1.526  16.294 -1.7990 -1.0425 -1.1106
  194MPD1    H3 2957   1.371   1.328  16.252 -1.2266  1.1249 -0.3909
  194MPD1     N 2958   1.255   1.299  16.688 -0.8594 -0.1454  0.0582
  194MPD1    H5 2959   1.222   1.208  16.657  2.2920 -1.1354 -0.4313
  194MPD1    N1 2960   1.567   1.634  16.521 -0.2875 -0.3911 -0.2073
  194MPD1    H6 2961   1.529   1.700  16.589 -0.9455  0.6193 -1.5350
  194MPD1    H7 2962   1.583   1.687  16.436  2.2056 -1.6820 -0.5242
  195MPD1     C 2963   3.391   3.790   0.053 -0.2598  0.2474 -0.0849
  195MPD1    C1 2964   3.260   3.788   0.097 -0.3907 -0.2615 -0.6701
  195MPD1    C2 2965   3.200   3.667   0.108  0.1759  0.3677 -0.1618
  195MPD1    C3 2966   3.273   3.548   0.097  0.3094  0.6407 -0.0341
  195MPD1    C4 2967   3.408   3.553   0.065 -0.2799 -0.8279  0.3442
  195MPD1    C5 2968   3.464   3.676   0.029 -0.1461 -0.3676  0.1982
  195MPD1     H 2969   3.096   3.669   0.140  0.6338  0.6116  1.2979
  195MPD1    H1 2970   3.465   3.461   0.056 -1.7616 -1.7504  0.4594
  195MPD1    H2 2971   3.445   3.882   0.033 -0.7702  0.4749 -0.3972
  195MPD1    H3 2972   3.568   3.684   0.001 -0.5545  0.8485 -0.9573
  195MPD1     N 2973   3.232   3.416   0.111 -0.7199  0.4289  0.4849
  195MPD1    H5 2974   3.306   3.347   0.112 -0.7252  0.4164  0.0876
  195MPD1    N1 2975   3.186   3.911   0.107 -0.2129 -0.2582  0.1548
  195MPD1    H6 2976   3.110   3.903   0.175 -0.3554  0.2546  0.0590
  195MPD1    H7 2977   3.238   3.998   0.118 -0.3858  0.0357 -1.3587
  196MPD1     C 2978   1.777   2.430  17.616  0.8508  0.2288 -0.2527
  196MPD1    C1 2979   1.885   2.502  17.664 -0.7433  1.0276  0.0493
  196MPD1    C2 2980   1.901   2.520   0.095  0.0835  0.3277  0.3018
  196MPD1    C3 2981   1.802   2.482   0.186 -0.0899 -0.5125 -0.0472
  196MPD1    C4 2982   1.710   2.397   0.142  0.1557 -0.1778 -0.3597
  196MPD1    C5 2983   1.693   2.377   0.008  0.5826 -0.9600  0.6723
  196MPD1     H 2984   1.981   2.584   0.132  0.6764 -0.7331  0.8316
  196MPD1    H1 2985   1.633   2.357   0.207  1.8302 -1.5942  0.7515
  196MPD1    H2 2986   1.755   2.411  17.511 -2.3812 -0.6979  0.5878
  196MPD1    H3 2987   1.619   2.311  17.665 -0.3181  0.1593  0.5224
  196MPD1     N 2988   1.812   2.521   0.318  0.1355  0.0135  0.5764
  196MPD1    H5 2989   1.734   2.491   0.375  1.5388 -1.0155  1.9708
  196MPD1    N1 2990   1.967   2.567  17.568  0.3441  0.6520  0.3058
  196MPD1    H6 2991   2.062   2.570  17.606  1.1550  1.0273 -1.7761
  196MPD1    H7 2992   1.976   2.514  17.482 -2.7606  0.1547  0.2728
  197MPD1     C 2993   1.713   4.219  17.615 -0.6435  0.7892 -0.7228
  197MPD1    C1 2994   1.822   4.295  17.653 -0.4451  0.4225 -0.3457
  197MPD1    C2 2995   1.856   4.396  17.567  0.0341  0.2697  0.2770
  197MPD1    C3 2996   1.808   4.408  17.433  0.1922  0.8481  0.7277
  197MPD1    C4 2997   1.707   4.324  17.395 -0.4873  0.1655  0.3585
  197MPD1    C5 2998   1.665   4.228  17.487  0.5046  0.0449 -0.0290
  197MPD1     H 2999   1.919   4.477  17.604  1.5270 -0.4163 -0.7578
  197MPD1    H1 3000   1.661   4.336  17.297  1.7595 -0.7398 -0.8147
  197MPD1    H2 3001   1.663   4.144  17.676 -0.7720  1.6409  0.2340
  197MPD1    H3 3002   1.575   4.181  17.450 -0.4209 -0.3629  2.7359
  197MPD1     N 3003   1.837   4.518  17.349  0.4732  0.0465 -0.6433
  197MPD1    H5 3004   1.771   4.534  17.274  1.7466 -0.5688 -1.8896
  197MPD1    N1 3005   1.865   4.291   0.086  0.1029  0.4849  0.7524
  197MPD1    H6 3006   1.965   4.307   0.094  0.1137 -0.6787  2.8322
  197MPD1    H7 3007   1.843   4.194   0.109  1.1590  0.0472 -0.0714
  198MPD1     C 3008   3.013   3.423  15.549  0.1894  0.0140  0.2101
  198MPD1    C1 3009   3.068   3.496  15.646  0.1800  0.0039 -0.4510
  198MPD1    C2 3010   3.205   3.494  15.657  0.2761 -0.5454  0.2827
  198MPD1    C3 3011   3.285   3.405  15.593 -1.0557 -0.9348  0.1325
  198MPD1    C4 3012   3.223   3.322  15.506  0.4385  0.0797  0.1735
  198MPD1    C5 3013   3.083   3.329  15.482  0.6986  0.1734 -0.8599
  198MPD1     H 3014   3.251   3.572  15.717 -0.5686  1.4906 -1.7344
  198MPD1    H1 3015   3.269   3.243  15.447  1.7446  1.6524 -0.9245
  198MPD1    H2 3016   2.905   3.424  15.548  0.2211  1.7268 -1.5725
  198MPD1    H3 3017   3.023   3.257  15.428 -0.0814  0.1654  0.0215
  198MPD1     N 3018   3.425   3.405  15.617 -0.2516  0.1184 -0.4376
  198MPD1    H5 3019   3.455   3.471  15.688 -0.6586 -0.7518  0.5352
  198MPD1    N1 3020   2.997   3.582  15.728  0.0261 -0.1963  0.3500
  198MPD1    H6 3021   2.898   3.562  15.737  0.0531 -0.3314  0.3484
  198MPD1    H7 3022   3.041   3.584  15.819  1.1870  0.8529 -0.2257
  199MPD1     C 3023   0.715   3.013   9.650 -0.1502 -1.1072  0.1657
  199MPD1    C1 3024   0.577   3.018   9.670  0.1499  0.4841  0.4903
  199MPD1    C2 3025   0.496   3.111   9.606  0.9195  0.4649 -0.8517
  199MPD1    C3 3026   0.552   3.207   9.520 -0.1144  0.8324  0.0870
  199MPD1    C4 3027   0.691   3.202   9.503  0.3595  0.0340 -0.1258
  199MPD1    C5 3028   0.771   3.109   9.572 -0.4545 -0.2646  0.8843
  199MPD1     H 3029   0.388   3.113   9.617  1.1811 -0.2035  1.7480
  199MPD1    H1 3030   0.746   3.266   9.435  1.1627 -2.0059 -1.3736
  199MPD1    H2 3031   0.788   2.947   9.696  1.2371 -0.4206 -1.0213
  199MPD1    H3 3032   0.878   3.125   9.567 -0.5867 -0.1622 -1.5495
  199MPD1     N 3033   0.486   3.312   9.454 -0.2514  0.0295 -0.4443
  199MPD1    H5 3034   0.546   3.380   9.408  1.0143 -0.5231  0.3879
  199MPD1    N1 3035   0.520   2.920   9.748  0.2774 -0.4272 -0.1532
  199MPD1    H6 3036   0.419   2.918   9.758  0.3978 -0.8414  1.0731
  199MPD1    H7 3037   0.552   2.833   9.707  0.1100  0.5343 -2.3000
  200MPD1     C 3038   3.915   3.443  13.664  0.6108 -0.2172  0.2927
  200MPD1    C1 3039   3.920   3.553  13.742  0.3563  0.0348  0.1065
  200MPD1    C2 3040   4.023   3.640  13.716 -0.5099 -1.0179  0.2220
  200MPD1    C3 3041   4.118   3.620  13.619  0.3297 -0.1872 -0.7712
  200MPD1    C4 3042   4.111   3.511  13.539  0.1413 -1.0268 -0.3015
  200MPD1    C5 3043   3.999   3.426  13.556  0.1164 -0.8353  0.3137
  200MPD1     H 3044   4.035   3.723  13.784 -2.9767 -1.1640  0.8523
  200MPD1    H1 3045   4.170   3.500  13.449  0.0315  2.2854 -0.7615
  200MPD1    H2 3046   3.835   3.371  13.677 -0.7003  1.0001 -1.0723
  200MPD1    H3 3047   3.980   3.341  13.492 -3.0519  0.5269 -0.5524
  200MPD1     N 3048   4.206   3.726  13.594  0.4155  0.0922 -0.2053
  200MPD1    H5 3049   4.198   3.808  13.654  2.5921 -0.0476  0.2896
  200MPD1    N1 3050   3.833   3.567  13.857  0.0089  0.5218 -0.6720
  200MPD1    H6 3051   3.810   3.664  13.879 -2.1027  0.0994 -0.9505
  200MPD1    H7 3052   3.745   3.517  13.843 -0.7624  1.4739  0.7609
  201MPD1     C 3053   2.334   2.148  14.395  0.2430 -0.4760  0.2952
  201MPD1    C1 3054   2.410   2.064  14.315 -0.1202 -0.1023 -0.0293
  201MPD1    C2 3055   2.493   2.117  14.218  0.7479 -0.6929  0.4657
  201MPD1    C3 3056   2.482   2.253  14.184 -0.1013  0.0579 -0.1814
  201MPD1    C4 3057   2.390   2.334  14.259  0.3377  0.6531 -0.1896
  201MPD1    C5 3058   2.327   2.283  14.366 -0.5324 -0.2456  0.1499
  201MPD1     H 3059   2.567   2.057  14.168  2.4677  0.3109  1.8144
  201MPD1    H1 3060   2.366   2.437  14.234  1.9065  1.0200 -0.1446
  201MPD1    H2 3061   2.274   2.103  14.473  0.1187  2.1527  1.7224
  201MPD1    H3 3062   2.252   2.333  14.426  1.0549 -0.2275  2.1094
  201MPD1     N 3063   2.549   2.295  14.071 -0.5895  0.2931 -0.4814
  201MPD1    H5 3064   2.582   2.223  14.007 -0.4816 -1.8779  2.0127
  201MPD1    N1 3065   2.435   1.934  14.357 -0.0545 -0.0815 -0.3315
  201MPD1    H6 3066   2.349   1.888  14.386  0.8093 -0.5922  1.3703
  201MPD1    H7 3067   2.487   1.879  14.288 -1.1236 -0.7094 -0.6382
  202MPD1     C 3068   3.222   2.577   9.747  0.0984 -0.3991 -0.5788
  202MPD1    C1 3069   3.113   2.648   9.708  0.5883 -0.0233 -0.3944
  202MPD1    C2 3070   2.995   2.583   9.687 -0.2535  0.0658  0.3103
  202MPD1    C3 3071   2.981   2.455   9.730 -0.2733 -0.2010  0.3703
  202MPD1    C4 3072   3.091   2.382   9.776  0.9578  0.0077  0.1244
  202MPD1    C5 3073   3.214   2.445   9.785 -0.0531 -0.3697  0.4089
  202MPD1     H 3074   2.912   2.648   9.665  0.7208  0.6566 -1.6210
  202MPD1    H1 3075   3.078   2.288   9.827 -2.2403  0.5401  0.2617
  202MPD1    H2 3076   3.318   2.628   9.753 -1.1189  1.4294  3.6676
  202MPD1    H3 3077   3.303   2.398   9.827  1.4664 -0.4291 -2.8960
  202MPD1     N 3078   2.856   2.389   9.741  0.6378 -0.1067 -0.7581
  202MPD1    H5 3079   2.867   2.293   9.773  0.4669  0.9279  2.3734
  202MPD1    N1 3080   3.133   2.769   9.634 -0.5112  0.2454  0.6551
  202MPD1    H6 3081   3.054   2.822   9.599 -1.6842 -2.5280 -0.9370
  202MPD1    H7 3082   3.215   2.825   9.657 -0.9899  0.8805  0.8035
  203MPD1     C 3083   1.598   3.500  12.173  0.6624  0.5565 -0.6989
  203MPD1    C1 3084   1.703   3.417  12.141 -0.2892 -0.4256  0.1216
  203MPD1    C2 3085   1.737   3.313  12.223  0.5867  0.2280 -0.4006
  203MPD1    C3 3086   1.665   3.278  12.336 -0.1777 -0.0748 -0.1992
  203MPD1    C4 3087   1.554   3.351  12.362 -0.0912 -0.4741  0.4659
  203MPD1    C5 3088   1.525   3.467  12.286  0.0264 -0.5553 -0.4409
  203MPD1     H 3089   1.817   3.247  12.191  1.1120 -0.9293  3.2785
  203MPD1    H1 3090   1.475   3.319  12.429 -0.2458 -1.0006  0.0322
  203MPD1    H2 3091   1.563   3.587  12.118  1.6820  0.0802 -2.0756
  203MPD1    H3 3092   1.450   3.534  12.327 -1.5140 -2.3704 -0.3305
  203MPD1     N 3093   1.701   3.160  12.414  0.2125 -0.0016  0.0720
  203MPD1    H5 3094   1.780   3.105  12.381  0.8666  1.4072 -0.7093
  203MPD1    N1 3095   1.771   3.448  12.024 -0.2171  0.0117 -0.6276
  203MPD1    H6 3096   1.839   3.382  11.988  2.1533  2.0587  0.1454
  203MPD1    H7 3097   1.712   3.490  11.951 -1.2362  0.5958  0.5331
  204MPD1     C 3098   0.929   3.723   0.567  0.1386  0.2222  0.5858
  204MPD1    C1 3099   0.843   3.824   0.590  0.4590 -0.1724  0.8696
  204MPD1    C2 3100   0.794   3.886   0.475 -0.4382  0.6868 -0.0962
  204MPD1    C3 3101   0.837   3.851   0.351 -0.7825 -0.1048 -0.4393
  204MPD1    C4 3102   0.935   3.758   0.333 -0.2573 -0.2267  0.8408
  204MPD1    C5 3103   0.981   3.691   0.451 -0.1815 -0.2227 -0.5969
  204MPD1     H 3104   0.713   3.957   0.487 -0.0696  0.9785  0.7203
  204MPD1    H1 3105   0.979   3.738   0.236 -0.2661  1.2268  0.5514
  204MPD1    H2 3106   0.949   3.661   0.653 -0.6781  0.0920  0.6886
  204MPD1    H3 3107   1.065   3.623   0.451  1.3679  1.7092  1.9098
  204MPD1     N 3108   0.775   3.919   0.233 -0.3060 -0.1278  0.2881
  204MPD1    H5 3109   0.704   3.991   0.245 -0.4454 -0.5155  1.8747
  204MPD1    N1 3110   0.768   3.841   0.710  0.2490  0.0815  0.2777
  204MPD1    H6 3111   0.746   3.939   0.726 -0.4851  0.3232 -2.1519
  204MPD1    H7 3112   0.811   3.804   0.794  3.0379  1.0214 -0.7326
  205MPD1     C 3113   0.407   3.471  16.959  0.1368  0.0248 -0.5836
  205MPD1    C1 3114   0.379   3.373  17.059 -0.5971  0.8666  1.0287
  205MPD1    C2 3115   0.278   3.399  17.152 -0.1454 -0.1495  0.8984
  205MPD1    C3 3116   0.234   3.528  17.164  0.3077 -0.1162 -0.3957
  205MPD1    C4 3117   0.268   3.619  17.074 -0.2192 -0.0955 -0.4059
  205MPD1    C5 3118   0.355   3.596  16.967  0.4206 -0.3109  0.1604
  205MPD1     H 3119   0.242   3.315  17.210 -3.5234  0.0416 -0.8967
  205MPD1    H1 3120   0.232   3.721  17.073  0.5452  0.1778 -0.5402
  205MPD1    H2 3121   0.475   3.460  16.875 -0.3881 -1.5435 -0.8004
  205MPD1    H3 3122   0.394   3.667  16.894 -1.2285  0.4782  0.0590
  205MPD1     N 3123   0.142   3.565  17.260  0.2980  0.3065  0.4031
  205MPD1    H5 3124   0.104   3.659  17.252 -0.2407  0.1094  0.6171
  205MPD1    N1 3125   0.420   3.240  17.040  0.0997 -0.0741  0.4427
  205MPD1    H6 3126   0.507   3.225  16.990  0.3778 -1.9888  1.5085
  205MPD1    H7 3127   0.412   3.185  17.126  1.9509 -0.7423  0.1864
  206MPD1     C 3128   1.870   1.086  16.125  0.0857 -0.7903 -0.3508
  206MPD1    C1 3129   1.886   1.207  16.062 -0.3928  0.6608 -0.2445
  206MPD1    C2 3130   1.795   1.242  15.962 -0.4371 -0.7190 -0.0339
  206MPD1    C3 3131   1.702   1.152  15.911  0.4834 -0.2841  0.2629
  206MPD1    C4 3132   1.693   1.026  15.979  0.4238 -0.8225 -0.0882
  206MPD1    C5 3133   1.773   1.003  16.086 -0.3371 -0.2862  0.4209
  206MPD1     H 3134   1.813   1.342  15.926 -1.9327 -0.2743  0.4636
  206MPD1    H1 3135   1.623   0.949  15.948 -0.0546 -0.5250  0.2575
  206MPD1    H2 3136   1.929   1.067  16.214  1.2564  2.0984 -0.4992
  206MPD1    H3 3137   1.765   0.902  16.123  0.6183 -1.0897 -1.5658
  206MPD1     N 3138   1.622   1.176  15.800 -0.3462  0.2172 -0.3689
  206MPD1    H5 3139   1.542   1.113  15.791 -0.1672 -0.2820  1.6758
  206MPD1    N1 3140   1.970   1.301  16.125  0.0959  0.3565 -0.0593
  206MPD1    H6 3141   2.001   1.374  16.062  2.4718 -0.6354 -0.0345
  206MPD1    H7 3142   2.040   1.253  16.181 -0.9607 -0.7540  0.3135
  207MPD1     C 3143   2.399   4.223   9.955  0.0623 -0.1776  0.6054
  207MPD1    C1 3144   2.520   4.289   9.942 -0.3354 -0.5383  0.2007
  207MPD1    C2 3145   2.631   4.232  10.009  0.9291 -0.1388 -0.6568
  207MPD1    C3 3146   2.618   4.110  10.064 -0.1209 -0.0692 -0.7740
  207MPD1    C4 3147   2.497   4.043  10.065 -0.0577  0.4230  0.1812
  207MPD1    C5 3148   2.389   4.102  10.013  0.6311  0.2616 -0.3154
  207MPD1     H 3149   2.715   4.299  10.025  0.5131  0.4506 -0.9381
  207MPD1    H1 3150   2.489   3.940  10.098 -1.4488  0.6566  0.5865
  207MPD1    H2 3151   2.313   4.276   9.916  1.8384  0.3229 -2.5792
  207MPD1    H3 3152   2.291   4.057  10.026  0.8909 -0.6320 -1.4340
  207MPD1     N 3153   2.731   4.043  10.121 -0.2942 -0.3543 -0.4790
  207MPD1    H5 3154   2.712   3.954  10.167 -1.1217 -0.0939 -0.3074
  207MPD1    N1 3155   2.527   4.423   9.904 -0.1139 -0.1052 -0.5453
  207MPD1    H6 3156   2.617   4.440   9.859  0.7917 -0.0262  1.3066
  207MPD1    H7 3157   2.451   4.462   9.849  0.2757  1.6128  0.1347
  208MPD1     C 3158   0.710   3.148  17.418  0.3118  0.1308 -0.6660
  208MPD1    C1 3159   0.622   3.245  17.463 -0.0928  0.1530 -0.1477
  208MPD1    C2 3160   0.584   3.221  17.593 -0.2278 -0.2693 -0.1864
  208MPD1    C3 3161   0.641   3.129  17.677 -1.2124 -0.0481  0.0833
  208MPD1    C4 3162   0.753   3.060  17.632 -0.2099  0.2232 -0.4956
  208MPD1    C5 3163   0.777   3.055  17.495 -0.5622 -0.2831  0.5753
  208MPD1     H 3164   0.494   3.267  17.633 -0.5582  0.0525 -1.3082
  208MPD1    H1 3165   0.804   2.982  17.687  1.5728  1.5616 -0.2446
  208MPD1    H2 3166   0.728   3.151  17.311 -0.3750  2.3956 -0.7225
  208MPD1    H3 3167   0.852   2.986  17.457 -0.4938  0.4822 -0.6882
  208MPD1     N 3168   0.589   3.113   0.103  0.2627  0.3022 -0.8138
  208MPD1    H5 3169   0.502   3.159   0.128 -0.3727 -1.5316  0.3091
  208MPD1    N1 3170   0.543   3.315  17.371  0.3218 -0.0250  0.0438
  208MPD1    H6 3171   0.604   3.356  17.301  0.9988 -1.2033 -0.0588
  208MPD1    H7 3172   0.502   3.388  17.430 -0.1574  2.0208 -2.8483
  209MPD1     C 3173   2.766   2.188  10.182 -0.2722  0.2059 -0.4417
  209MPD1    C1 3174   2.906   2.193  10.182  0.3759 -0.4118 -0.9984
  209MPD1    C2 3175   2.961   2.312  10.142 -0.1532 -0.1604 -0.1884
  209MPD1    C3 3176   2.893   2.426  10.094 -0.2093  0.4795  0.0890
  209MPD1    C4 3177   2.761   2.419  10.096  0.0904  0.0578  0.5386
  209MPD1    C5 3178   2.699   2.302  10.140  0.7331 -0.0301 -0.5907
  209MPD1     H 3179   3.069   2.310  10.132 -0.1562 -0.4971 -0.1233
  209MPD1    H1 3180   2.696   2.503  10.073 -1.0821 -1.0625 -0.2972
  209MPD1    H2 3181   2.710   2.099  10.207 -0.0169  0.1856  0.0568
  209MPD1    H3 3182   2.591   2.300  10.141  0.7530 -0.3438  1.2987
  209MPD1     N 3183   2.962   2.546  10.061  0.1106  0.0658  0.1859
  209MPD1    H5 3184   3.063   2.546  10.072  0.0199  0.7287  1.0410
  209MPD1    N1 3185   2.990   2.083  10.206  0.2934 -0.5407  0.7957
  209MPD1    H6 3186   2.953   2.033  10.287 -1.6141  3.6690  2.5936
  209MPD1    H7 3187   3.088   2.099  10.227 -0.0595  0.8919  1.3717
  210MPD1     C 3188   3.832   3.039  10.162 -0.3017  0.2298  0.0130
  210MPD1    C1 3189   3.780   2.912  10.178  0.6904 -0.1799 -0.7240
  210MPD1    C2 3190   3.662   2.882  10.113 -0.4394  0.1924 -0.3813
  210MPD1    C3 3191   3.580   2.983  10.061 -0.5457  0.1603  0.1573
  210MPD1    C4 3192   3.632   3.110  10.056 -0.1224 -0.4326  0.4055
  210MPD1    C5 3193   3.751   3.138  10.114  0.3722 -0.0942 -0.2435
  210MPD1     H 3194   3.636   2.777  10.112 -0.5700  0.1976  1.2740
  210MPD1    H1 3195   3.579   3.197  10.019 -1.2826 -0.5809  1.7304
  210MPD1    H2 3196   3.925   3.064  10.212 -0.8744  0.6804  0.8651
  210MPD1    H3 3197   3.784   3.241  10.118  1.3495 -0.4222  0.1044
  210MPD1     N 3198   3.451   2.957  10.010  0.0713  0.4024 -0.1333
  210MPD1    H5 3199   3.416   3.040   9.964 -0.9229  1.0646  1.7967
  210MPD1    N1 3200   3.856   2.815  10.230  0.7250  0.5664 -0.0740
  210MPD1    H6 3201   3.909   2.856  10.306  1.9462 -0.1085 -0.5607
  210MPD1    H7 3202   3.807   2.731  10.261 -0.7518  1.2735 -0.4532
  211MPD1     C 3203   1.642   3.705  16.893 -0.7061 -0.5462 -0.3861
  211MPD1    C1 3204   1.585   3.679  16.773  0.0829 -0.2569  0.1022
  211MPD1    C2 3205   1.447   3.680  16.770 -0.1482  0.7815  0.0499
  211MPD1    C3 3206   1.363   3.730  16.870 -0.7514 -0.3627 -0.1315
  211MPD1    C4 3207   1.429   3.767  16.987 -0.6865  0.1315 -0.6681
  211MPD1    C5 3208   1.563   3.750  17.002  0.4668  0.2988  0.2446
  211MPD1     H 3209   1.395   3.663  16.676 -0.8783 -3.6345  1.2964
  211MPD1    H1 3210   1.373   3.803  17.072 -0.5951 -0.9121 -0.1706
  211MPD1    H2 3211   1.748   3.693  16.907 -0.5328  2.0763  0.5451
  211MPD1    H3 3212   1.612   3.770  17.097  0.0973  2.1595  0.0439
  211MPD1     N 3213   1.223   3.743  16.848 -0.4055  0.4165 -0.5914
  211MPD1    H5 3214   1.184   3.712  16.759  2.0115 -1.5365 -0.9607
  211MPD1    N1 3215   1.665   3.626  16.669  0.1015 -0.4980  0.2239
  211MPD1    H6 3216   1.621   3.615  16.578 -1.8932  0.8488  1.0297
  211MPD1    H7 3217   1.749   3.679  16.646  0.3230 -1.2276 -0.6549
  212MPD1     C 3218   0.929   2.038  16.420  0.4784  0.4716  0.5059
  212MPD1    C1 3219   0.849   2.082  16.522 -0.3848  0.3273 -0.3115
  212MPD1    C2 3220   0.774   1.993  16.595 -0.9029 -0.1448 -0.0740
  212MPD1    C3 3221   0.770   1.860  16.559  0.3792 -0.9482 -0.7223
  212MPD1    C4 3222   0.842   1.819  16.449  0.8277  0.2047  0.0921
  212MPD1    C5 3223   0.934   1.908  16.388  0.3759 -0.6714  0.1886
  212MPD1     H 3224   0.721   2.020  16.686  0.1067  0.3623  0.3608
  212MPD1    H1 3225   0.844   1.715  16.417 -0.4069  0.3032 -0.3102
  212MPD1    H2 3226   1.005   2.094  16.368 -0.2453  0.7093 -0.2853
  212MPD1    H3 3227   0.995   1.883  16.303  0.4760 -4.2232  1.3279
  212MPD1     N 3228   0.683   1.766  16.617 -0.5425  0.6307 -0.3126
  212MPD1    H5 3229   0.676   1.674  16.573 -0.7608  0.8672 -0.7733
  212MPD1    N1 3230   0.860   2.209  16.573  0.0244  0.0130  0.5369
  212MPD1    H6 3231   0.769   2.237  16.610  0.2513  0.1814  0.9666
  212MPD1    H7 3232   0.904   2.274  16.508 -1.1845 -0.9979 -1.2753
  213MPD1     C 3233   3.902   3.029  16.577  0.0868 -0.1427  0.3918
  213MPD1    C1 3234   3.976   2.974  16.471 -0.0778  0.5126  1.1056
  213MPD1    C2 3235   3.891   2.915  16.378 -0.1575 -0.1595  0.8254
  213MPD1    C3 3236   3.748   2.932  16.376  0.1445  0.7609 -0.5527
  213MPD1    C4 3237   3.693   3.000  16.481  0.3117  0.2884  0.2269
  213MPD1    C5 3238   3.771   3.048  16.581  0.5976  0.2263 -0.3783
  213MPD1     H 3239   3.933   2.851  16.301 -1.4517  1.6698 -1.4137
  213MPD1    H1 3240   3.586   3.014  16.495  0.4913  1.1617  0.7069
  213MPD1    H2 3241   3.957   3.077  16.657 -1.1306  0.7775  0.6654
  213MPD1    H3 3242   3.737   3.095  16.673  0.1083 -1.5390  0.3274
  213MPD1     N 3243   3.690   2.888  16.257 -0.1246  0.6087 -0.1946
  213MPD1    H5 3244   3.743   2.843  16.183  0.1819  0.3726  0.1713
  213MPD1    N1 3245   4.103   2.923  16.503 -0.3722 -0.5824 -0.3981
  213MPD1    H6 3246   4.163   2.915  16.422  0.3658  0.5344  0.0431
  213MPD1    H7 3247   4.142   2.974  16.582 -2.2104  0.3316 -0.0732
  214MPD1     C 3248   2.887   2.288  15.852  1.2248  0.6440 -0.2022
  214MPD1    C1 3249   3.009   2.256  15.902 -0.5016  0.1160 -0.7262
  214MPD1    C2 3250   3.106   2.359  15.934  0.0553  0.1972  1.0736
  214MPD1    C3 3251   3.078   2.494  15.901  0.2387 -0.5412  0.0354
  214MPD1    C4 3252   2.959   2.517  15.838  0.0833  0.4177  0.2003
  214MPD1    C5 3253   2.866   2.418  15.817  0.6003  0.5409  0.2069
  214MPD1     H 3254   3.200   2.338  15.984 -0.2745 -1.2611  1.0782
  214MPD1    H1 3255   2.944   2.619  15.804 -0.1503 -0.1005 -1.2535
  214MPD1    H2 3256   2.810   2.214  15.832 -0.8599  2.6864  0.1937
  214MPD1    H3 3257   2.775   2.440  15.763  0.7286 -1.0074 -0.6239
  214MPD1     N 3258   3.162   2.601  15.922 -0.0101  0.0296 -0.0744
  214MPD1    H5 3259   3.141   2.690  15.880  0.9739 -0.0215 -0.6650
  214MPD1    N1 3260   3.030   2.127  15.945 -0.5260 -0.0296  0.6156
  214MPD1    H6 3261   3.125   2.094  15.928  0.3123  3.1609 -0.9539
  214MPD1    H7 3262   2.963   2.075  15.889 -2.5099  1.1560  1.8861
  215MPD1     C 3263   3.651   2.110  11.008  0.0487 -0.0131 -0.3770
  215MPD1    C1 3264   3.761   2.123  11.098  0.2894 -0.4567 -0.3514
  215MPD1    C2 3265   3.804   2.256  11.116  0.2351  0.6880  0.4350
  215MPD1    C3 3266   3.741   2.369  11.063  0.4958 -0.2885  0.2251
  215MPD1    C4 3267   3.642   2.347  10.965  0.1333  0.3079 -0.6236
  215MPD1    C5 3268   3.599   2.219  10.936 -0.4944  0.6607  0.3438
  215MPD1     H 3269   3.885   2.274  11.185 -0.7708  1.0860  1.4990
  215MPD1    H1 3270   3.603   2.423  10.899  1.2303  1.5128  0.0953
  215MPD1    H2 3271   3.597   2.017  10.993  0.4437 -0.6725  2.1738
  215MPD1    H3 3272   3.518   2.199  10.868 -0.3920 -0.1783  0.4756
  215MPD1     N 3273   3.805   2.493  11.085  0.1762  0.2827  0.3049
  215MPD1    H5 3274   3.898   2.492  11.126  0.0150 -1.5955  0.5949
  215MPD1    N1 3275   3.822   2.012  11.164  0.2588 -0.1684 -0.1821
  215MPD1    H6 3276   3.826   1.920  11.121  1.2048 -0.1922 -0.0482
  215MPD1    H7 3277   3.901   2.022  11.227  1.5281  1.4692 -2.0319
  216MPD1     C 3278   0.836   0.312  16.307  0.0606  0.2643  0.3161
  216MPD1    C1 3279   0.697   0.332  16.320 -0.1144 -0.0016 -0.1552
  216MPD1    C2 3280   0.658   0.322  16.448  0.1376 -0.2804  0.3510
  216MPD1    C3 3281   0.737   0.265  16.553  0.4133  0.4235 -0.3896
  216MPD1    C4 3282   0.869   0.230  16.528  0.0519  0.5059 -0.6822
  216MPD1    C5 3283   0.919   0.254  16.404  0.1331  0.3754 -0.0988
  216MPD1     H 3284   0.556   0.348  16.473 -0.1360 -2.2228  1.2325
  216MPD1    H1 3285   0.935   0.183  16.600 -0.8285  1.4808  0.7620
  216MPD1    H2 3286   0.880   0.319  16.208  1.7280  0.8148  1.0995
  216MPD1    H3 3287   1.024   0.232  16.389  0.2292  1.0008 -0.3430
  216MPD1     N 3288   0.670   0.257  16.680  0.1647  0.2694 -0.0068
  216MPD1    H5 3289   0.570   0.271  16.673  0.0311  0.7599  2.8854
  216MPD1    N1 3290   0.621   0.396  16.220  0.4412 -0.6636  0.3150
  216MPD1    H6 3291   0.520   0.379  16.223  0.5024 -1.1105 -0.1366
  216MPD1    H7 3292   0.651   0.383  16.124  0.1114 -1.2879  0.2911
  217MPD1     C 3293   1.536   3.219   8.813  0.2906  0.3473 -0.6980
  217MPD1    C1 3294   1.627   3.117   8.819  0.1999  0.7590  0.1531
  217MPD1    C2 3295   1.577   3.000   8.869  0.4898 -0.5997  0.0398
  217MPD1    C3 3296   1.450   2.988   8.934  0.6973  0.8053  0.9515
  217MPD1    C4 3297   1.363   3.096   8.924 -0.0541  0.3500 -0.0707
  217MPD1    C5 3298   1.403   3.201   8.851  0.4119 -1.1012 -0.8697
  217MPD1     H 3299   1.651   2.921   8.877 -0.0621 -0.8087  3.0443
  217MPD1    H1 3300   1.263   3.090   8.966  0.3906  3.1836  1.4100
  217MPD1    H2 3301   1.549   3.317   8.768 -2.3795  0.7370 -0.6292
  217MPD1    H3 3302   1.344   3.289   8.830  1.8167 -0.5822 -2.6121
  217MPD1     N 3303   1.406   2.873   9.007 -0.2849 -0.0908 -0.5591
  217MPD1    H5 3304   1.320   2.892   9.057  0.2356 -1.3216  0.8108
  217MPD1    N1 3305   1.741   3.123   8.743 -0.0654  0.2706 -0.5884
  217MPD1    H6 3306   1.817   3.056   8.752  0.3082  0.9716  1.5752
  217MPD1    H7 3307   1.789   3.213   8.744 -0.9540  0.7418 -0.3584
  218MPD1     C 3308   2.630   3.304  12.937 -0.0483 -0.3052 -0.3164
  218MPD1    C1 3309   2.695   3.385  12.855 -0.2391 -0.5642 -0.0109
  218MPD1    C2 3310   2.814   3.327  12.807  0.1695 -0.7666 -0.2077
  218MPD1    C3 3311   2.869   3.207  12.851 -0.3549 -0.2755  0.3306
  218MPD1    C4 3312   2.800   3.129  12.941 -0.9321 -0.7356  0.1203
  218MPD1    C5 3313   2.683   3.184  12.992 -0.3904  0.0248  0.5954
  218MPD1     H 3314   2.887   3.389  12.756  0.3320 -0.7584  0.0348
  218MPD1    H1 3315   2.842   3.033  12.968 -0.6117 -0.4480  0.6362
  218MPD1    H2 3316   2.533   3.343  12.967  1.6341  3.3575  0.3356
  218MPD1    H3 3317   2.609   3.124  13.045  1.8004 -0.6881  2.8423
  218MPD1     N 3318   2.996   3.177  12.804 -0.1661  0.1106  0.0960
  218MPD1    H5 3319   3.040   3.250  12.749  0.0627  0.7707  1.1570
  218MPD1    N1 3320   2.641   3.501  12.803 -0.1229  0.3463 -0.5795
  218MPD1    H6 3321   2.720   3.548  12.759  1.4394  0.1774  2.0247
  218MPD1    H7 3322   2.590   3.553  12.875 -1.6678 -1.1230 -0.5956
  219MPD1     C 3323   3.606   3.409  12.088 -0.7994 -0.4438 -0.1108
  219MPD1    C1 3324   3.470   3.405  12.113 -0.9515 -0.3298 -0.2277
  219MPD1    C2 3325   3.433   3.335  12.227 -0.8284  0.2927  0.0750
  219MPD1    C3 3326   3.532   3.287  12.316 -0.0291  1.1463 -0.0446
  219MPD1    C4 3327   3.667   3.302  12.285  0.8203 -0.1219 -0.5615
  219MPD1    C5 3328   3.700   3.348  12.164 -0.5017 -0.0432 -0.4620
  219MPD1     H 3329   3.327   3.323  12.243 -0.9389 -0.6000 -1.3419
  219MPD1    H1 3330   3.746   3.258  12.344  0.5722 -0.0787 -0.1941
  219MPD1    H2 3331   3.636   3.437  11.988 -2.2671 -1.7605 -0.9254
  219MPD1    H3 3332   3.802   3.354  12.129 -0.1371 -1.7363  0.3258
  219MPD1     N 3333   3.496   3.226  12.435 -0.3106 -0.0451  0.3089
  219MPD1    H5 3334   3.564   3.169  12.484 -0.2251  0.4221  0.7347
  219MPD1    N1 3335   3.380   3.430  12.008  0.7132 -0.5963  0.1082
  219MPD1    H6 3336   3.412   3.492  11.935  2.1322 -0.4487  0.8604
  219MPD1    H7 3337   3.283   3.446  12.035  0.5154 -1.5864  0.0023
  220MPD1     C 3338   2.763   3.877  10.533  0.0677  0.5770  0.1705
  220MPD1    C1 3339   2.699   3.761  10.505  0.2201  0.4107 -1.0720
  220MPD1    C2 3340   2.774   3.653  10.466  0.7095 -0.1752  0.2152
  220MPD1    C3 3341   2.910   3.653  10.466 -0.2950  0.1850 -0.0644
  220MPD1    C4 3342   2.976   3.766  10.510 -0.8026  0.2629 -0.1275
  220MPD1    C5 3343   2.903   3.882  10.533  0.2691  0.7148 -0.1882
  220MPD1     H 3344   2.722   3.563  10.433  0.8422 -0.0063 -0.4584
  220MPD1    H1 3345   3.084   3.775  10.513 -0.7645 -0.8217  1.7067
  220MPD1    H2 3346   2.710   3.971  10.545  1.1233  1.1765  0.1038
  220MPD1    H3 3347   2.954   3.975  10.555 -1.0388  1.5485 -0.6721
  220MPD1     N 3348   2.976   3.536  10.425 -0.0910 -0.0128  0.5596
  220MPD1    H5 3349   2.922   3.451  10.426  0.2605 -0.2554 -1.4671
  220MPD1    N1 3350   2.561   3.771  10.487  0.7583 -0.5759  0.2895
  220MPD1    H6 3351   2.525   3.845  10.547 -1.3434 -0.5124 -1.0354
  220MPD1    H7 3352   2.511   3.682  10.482  0.5986 -0.6177  2.3430
  221MPD1     C 3353   0.032   3.318  15.733 -0.3396  0.7334 -0.1712
  221MPD1    C1 3354   0.078   3.450  15.731 -0.2149 -0.2280  0.1043
  221MPD1    C2 3355   0.184   3.474  15.814 -1.0938  0.3871  0.4435
  221MPD1    C3 3356   0.238   3.374  15.891  0.1837 -0.2337  0.4343
  221MPD1    C4 3357   0.192   3.243  15.890 -0.2898 -0.1649 -0.1949
  221MPD1    C5 3358   0.087   3.219  15.805  0.1846 -0.1612  0.3105
  221MPD1     H 3359   0.218   3.576  15.825  0.2228  0.2112 -1.9621
  221MPD1    H1 3360   0.228   3.166  15.957  0.1777  0.7843  0.6492
  221MPD1    H2 3361   4.664   3.293  15.683  0.3922  1.3321 -1.8223
  221MPD1    H3 3362   0.029   3.128  15.804 -0.5772  0.3299  0.1030
  221MPD1     N 3363   0.342   3.381  15.990 -0.8906  0.0985 -0.3588
  221MPD1    H5 3364   0.354   3.304  16.055 -1.5030 -0.7725 -1.2864
  221MPD1    N1 3365   0.001   3.552  15.672  0.6805 -0.2329 -0.3542
  221MPD1    H6 3366   0.039   3.647  15.669 -0.9942  0.4843  0.8858
  221MPD1    H7 3367   4.675   3.529  15.587  0.8494  0.5334 -0.6610
  222MPD1     C 3368   4.283   0.696   0.885  0.7467 -0.6897 -0.2121
  222MPD1    C1 3369   4.168   0.754   0.942  0.7185  0.8836  0.0125
  222MPD1    C2 3370   4.135   0.880   0.894  0.2456 -0.3263  0.6646
  222MPD1    C3 3371   4.207   0.943   0.794 -0.1956 -0.0064 -1.2453
  222MPD1    C4 3372   4.314   0.878   0.736 -0.3523 -0.0820  0.5849
  222MPD1    C5 3373   4.349   0.753   0.780  0.4377 -0.7553 -0.4286
  222MPD1     H 3374   4.043   0.921   0.934  0.0133 -2.0982  1.9342
  222MPD1    H1 3375   4.376   0.926   0.662  0.4562  0.9548  1.9381
  222MPD1    H2 3376   4.316   0.601   0.924 -0.1021 -0.4632  1.0628
  222MPD1    H3 3377   4.444   0.715   0.744  1.3058  0.5317  0.5127
  222MPD1     N 3378   4.176   1.066   0.745 -0.1086  0.4612  0.1348
  222MPD1    H5 3379   4.242   1.109   0.681 -0.8385  1.3890  0.0039
  222MPD1    N1 3380   4.118   0.713   1.070  0.6781  0.0032  0.4432
  222MPD1    H6 3381   4.106   0.612   1.074  1.5880 -0.1680 -1.1549
  222MPD1    H7 3382   4.024   0.749   1.086  0.3828  0.9195 -3.1783
  223MPD1     C 3383   3.588   1.693   1.217 -0.5659  0.0213 -0.5553
  223MPD1    C1 3384   3.711   1.628   1.249 -0.0852  0.1458  0.2087
  223MPD1    C2 3385   3.795   1.588   1.145 -0.1561 -0.2388 -0.4855
  223MPD1    C3 3386   3.768   1.610   1.015  0.7397  0.2807 -0.2186
  223MPD1    C4 3387   3.650   1.673   0.986  0.3930 -0.0945  0.6588
  223MPD1    C5 3388   3.566   1.721   1.084  0.2153  0.7633  0.8962
  223MPD1     H 3389   3.884   1.531   1.167 -0.0576  0.0414 -0.1645
  223MPD1    H1 3390   3.617   1.705   0.888 -0.7021 -0.2815  0.9708
  223MPD1    H2 3391   3.516   1.735   1.287  2.3622  1.8060  1.3823
  223MPD1    H3 3392   3.469   1.762   1.059 -0.5801 -2.3719 -1.1104
  223MPD1     N 3393   3.860   1.565   0.916  0.2857  0.0735  0.2188
  223MPD1    H5 3394   3.939   1.514   0.953  0.8409  0.8366  0.0928
  223MPD1    N1 3395   3.731   1.578   1.381 -0.0401 -0.7488  0.4473
  223MPD1    H6 3396   3.681   1.630   1.452  0.3683 -0.4993  0.5482
  223MPD1    H7 3397   3.828   1.594   1.407  0.3374  0.5647 -1.8097
  224MPD1     C 3398   2.230   3.193   9.351  0.0356  0.3619 -0.3383
  224MPD1    C1 3399   2.114   3.267   9.357 -0.0858  0.4052  0.0154
  224MPD1    C2 3400   2.007   3.213   9.428  0.1979  0.3950  0.4807
  224MPD1    C3 3401   2.012   3.086   9.475 -0.1452 -0.6044  0.5764
  224MPD1    C4 3402   2.125   3.013   9.467  0.1255  0.2269 -0.2555
  224MPD1    C5 3403   2.234   3.065   9.405  0.0760  0.0398  0.1458
  224MPD1     H 3404   1.921   3.275   9.454 -1.2930 -1.2472 -0.5325
  224MPD1    H1 3405   2.138   2.917   9.516 -1.2824  0.3454  0.3409
  224MPD1    H2 3406   2.319   3.237   9.307  0.8387  0.0282  0.9422
  224MPD1    H3 3407   2.315   2.993   9.401  1.1448  1.2413  0.3544
  224MPD1     N 3408   1.898   3.010   9.524 -0.0895  0.5568  0.1282
  224MPD1    H5 3409   1.919   2.913   9.545 -1.9384  0.1788  0.2169
  224MPD1    N1 3410   2.105   3.409   9.342  0.1258 -0.0812  0.2182
  224MPD1    H6 3411   2.009   3.440   9.327 -0.2904 -1.5274 -0.0621
  224MPD1    H7 3412   2.150   3.440   9.256 -0.8074 -0.2088 -0.3122
  225MPD1     C 3413   1.806   3.198  13.530 -0.3879 -0.6670  0.5756
  225MPD1    C1 3414   1.903   3.107  13.497 -0.1836 -0.2462  0.4922
  225MPD1    C2 3415   1.968   3.114  13.374 -0.3369  0.7754  0.3755
  225MPD1    C3 3416   1.947   3.224  13.294 -0.6535 -0.0726 -0.2786
  225MPD1    C4 3417   1.839   3.311  13.320  0.6620 -0.0897 -0.2157
  225MPD1    C5 3418   1.773   3.291  13.439 -0.5990  0.6180 -0.3955
  225MPD1     H 3419   2.043   3.042  13.343 -2.8538 -2.0076  0.6984
  225MPD1    H1 3420   1.813   3.396  13.258 -3.3559 -3.0719 -2.6069
  225MPD1    H2 3421   1.748   3.197  13.622  0.0664  1.7309  0.9052
  225MPD1    H3 3422   1.690   3.354  13.469 -1.0230  0.4650 -1.2568
  225MPD1     N 3423   2.019   3.247  13.170  0.4947 -0.1085  0.1883
  225MPD1    H5 3424   1.973   3.311  13.106  1.1712  1.1208  0.9194
  225MPD1    N1 3425   1.920   2.993  13.581  0.2951 -0.2646  0.1764
  225MPD1    H6 3426   1.892   3.011  13.677 -0.4862  2.2305 -0.5330
  225MPD1    H7 3427   2.016   2.964  13.567  0.1363 -2.3381  3.2037
  226MPD1     C 3428   0.803   4.007   9.077  0.4234  0.6771  0.4178
  226MPD1    C1 3429   0.858   3.900   9.147  0.2163  0.1214  0.1842
  226MPD1    C2 3430   0.979   3.931   9.211 -0.2522 -0.6234 -0.4649
  226MPD1    C3 3431   1.035   4.055   9.206 -1.5082 -0.3992  0.9387
  226MPD1    C4 3432   0.977   4.160   9.134 -0.9569 -0.0183 -0.2408
  226MPD1    C5 3433   0.856   4.132   9.072 -0.2695 -0.3187  0.0966
  226MPD1     H 3434   1.045   3.847   9.235  0.3415  1.4250  5.1145
  226MPD1    H1 3435   1.011   4.262   9.119  0.9365 -0.6146  0.0754
  226MPD1    H2 3436   0.715   4.004   9.013  1.5274  1.5524 -1.1385
  226MPD1    H3 3437   0.798   4.206   9.016  1.8863  0.4336 -1.1387
  226MPD1     N 3438   1.145   4.068   9.298  0.0282 -0.4199 -0.3657
  226MPD1    H5 3439   1.176   3.983   9.343 -0.2502 -1.4375 -2.0957
  226MPD1    N1 3440   0.819   3.766   9.131 -0.0356  0.2701  0.0202
  226MPD1    H6 3441   0.718   3.772   9.128 -0.1716 -0.4364  3.4197
  226MPD1    H7 3442   0.838   3.707   9.211  1.5755 -1.6756 -1.7672
  227MPD1     C 3443   1.739   4.687   9.965  0.1792  0.0557 -0.9897
  227MPD1    C1 3444   1.816   4.572   9.943  0.4576  0.4000 -0.2772
  227MPD1    C2 3445   1.757   4.481   9.859 -0.3581 -0.2865  0.1853
  227MPD1    C3 3446   1.627   4.485   9.820  0.4786  0.2054 -0.2774
  227MPD1    C4 3447   1.551   4.585   9.878 -0.1507 -0.5945 -0.1840
  227MPD1    C5 3448   1.608   4.677   9.955  0.4286  0.0550 -0.4276
  227MPD1     H 3449   1.818   4.396   9.829 -2.8398 -2.0818  0.2771
  227MPD1    H1 3450   1.448   4.593   9.846  0.4076  1.4952 -1.4193
  227MPD1    H2 3451   1.785   0.048  10.013  0.7658 -1.3428  0.9518
  227MPD1    H3 3452   1.548   0.034   9.993  1.0235  1.0392 -1.6063
  227MPD1     N 3453   1.580   4.396   9.723 -0.0404  0.2830  0.3066
  227MPD1    H5 3454   1.643   4.322   9.693  1.3721  1.4467  0.4161
  227MPD1    N1 3455   1.957   4.570   9.947  1.0086 -0.3637  0.3415
  227MPD1    H6 3456   1.994   4.475   9.945  0.1373 -0.6963 -0.1036
  227MPD1    H7 3457   1.996   4.619  10.027  2.2125  0.0992 -0.5220
  228MPD1     C 3458   0.009   1.656  12.437  0.2653 -0.3342  0.3864
  228MPD1    C1 3459   4.618   1.680  12.367 -0.0789 -0.2569 -0.0866
  228MPD1    C2 3460   4.505   1.715  12.446  0.7577 -0.3139  0.7146
  228MPD1    C3 3461   4.511   1.725  12.581 -0.3477 -0.1158  0.7033
  228MPD1    C4 3462   4.630   1.695  12.646 -0.6826 -0.2360 -0.3251
  228MPD1    C5 3463   0.017   1.673  12.571 -0.2844  0.1132  0.4355
  228MPD1     H 3464   4.410   1.734  12.399  0.6074 -0.9837  0.7444
  228MPD1    H1 3465   4.646   1.698  12.753 -3.5310  1.8564  0.0463
  228MPD1    H2 3466   0.098   1.631  12.380  0.3505 -0.3138  0.5105
  228MPD1    H3 3467   0.116   1.672  12.614  0.4833  4.2038 -1.1652
  228MPD1     N 3468   4.388   1.759  12.644 -0.4551  0.1064  0.3920
  228MPD1    H5 3469   4.305   1.774  12.588 -1.1169  0.1491  1.3948
  228MPD1    N1 3470   4.609   1.657  12.229  0.2397 -0.0895 -0.3350
  228MPD1    H6 3471   4.532   1.717  12.202 -1.5407 -2.2761 -0.1067
  228MPD1    H7 3472   4.686   1.701  12.179  1.9185 -2.1886  0.3956
  229MPD1     C 3473   3.705   0.620  14.551  0.4580 -0.1889 -0.3832
  229MPD1    C1 3474   3.748   0.510  14.481  0.3701  0.0576 -0.1869
  229MPD1    C2 3475   3.857   0.445  14.540 -0.3478 -0.2303 -0.3720
  229MPD1    C3 3476   3.886   0.472  14.678  0.8128  0.1068  0.5203
  229MPD1    C4 3477   3.850   0.589  14.737  0.4570 -0.2598  0.2662
  229MPD1    C5 3478   3.758   0.661  14.670  0.4737 -0.8955 -0.4377
  229MPD1     H 3479   3.895   0.358  14.489  0.1222 -1.3744  1.9219
  229MPD1    H1 3480   3.891   0.609  14.835  0.9060 -0.5713  0.1400
  229MPD1    H2 3481   3.622   0.677  14.511  0.6612  0.1874 -0.2708
  229MPD1    H3 3482   3.719   0.751  14.715  2.6638  0.2115 -0.7740
  229MPD1     N 3483   3.964   0.385  14.756  0.2930 -0.6346  0.0177
  229MPD1    H5 3484   3.986   0.411  14.852 -0.7558 -0.3943  0.1922
  229MPD1    N1 3485   3.679   0.450  14.373 -0.2938 -0.2494  0.1727
  229MPD1    H6 3486   3.745   0.395  14.319 -1.9366  0.6204 -2.7139
  229MPD1    H7 3487   3.635   0.525  14.320  0.8183 -0.7004 -1.3872
  230MPD1     C 3488   4.313   0.061  15.666  0.3160 -0.1733 -0.4329
  230MPD1    C1 3489   4.415   0.071  15.578 -0.1157 -0.2028 -0.8149
  230MPD1    C2 3490   4.390   0.120  15.450  0.5247 -0.3498  0.0958
  230MPD1    C3 3491   4.265   0.163  15.401 -0.4220  0.2480  0.6848
  230MPD1    C4 3492   4.159   0.167  15.498  0.1809  0.0086  0.2615
  230MPD1    C5 3493   4.195   0.121  15.622 -0.0697  0.2239 -0.2146
  230MPD1     H 3494   4.471   0.104  15.380 -0.4850 -1.6568 -0.7878
  230MPD1    H1 3495   4.057   0.198  15.476  0.7077  1.0756 -0.7132
  230MPD1    H2 3496   4.327   0.015  15.763  3.3032  0.8920 -0.3782
  230MPD1    H3 3497   4.116   0.120  15.696  0.8840 -1.8484  0.7963
  230MPD1     N 3498   4.257   0.189  15.266  0.3114  0.7416 -0.3009
  230MPD1    H5 3499   4.337   0.167  15.208 -0.0430  2.7814 -1.5820
  230MPD1    N1 3500   4.545   0.036  15.625 -0.1053 -0.4387  0.1993
  230MPD1    H6 3501   4.599   4.720  15.549  0.3719 -1.9485  1.3545
  230MPD1    H7 3502   4.529   4.683  15.688 -0.9599  0.4955  1.1384
  231MPD1     C 3503   2.238   2.458  15.364 -0.0102  0.4200 -0.4451
  231MPD1    C1 3504   2.259   2.461  15.228 -0.6421 -0.0177 -0.4403
  231MPD1    C2 3505   2.390   2.457  15.186 -0.5393  0.1569 -0.4583
  231MPD1    C3 3506   2.501   2.456  15.278 -0.2146 -0.2673  0.6389
  231MPD1    C4 3507   2.475   2.456  15.412  0.4462  0.7057 -0.2040
  231MPD1    C5 3508   2.340   2.462  15.454 -0.0590  0.1437 -0.2721
  231MPD1     H 3509   2.417   2.441  15.082 -0.8223  0.6082 -0.5997
  231MPD1    H1 3510   2.547   2.461  15.493 -0.4881 -1.5231  0.7722
  231MPD1    H2 3511   2.136   2.447  15.398 -0.2268  0.6369 -1.0186
  231MPD1    H3 3512   2.312   2.459  15.558 -0.4337 -2.2000 -0.4582
  231MPD1     N 3513   2.636   2.464  15.234  0.8239 -0.1642  0.0815
  231MPD1    H5 3514   2.646   2.480  15.134  1.6728  0.8548  0.3321
  231MPD1    N1 3515   2.152   2.450  15.139 -0.1721 -0.7701  0.0305
  231MPD1    H6 3516   2.113   2.356  15.145  0.1385 -0.9207 -0.3311
  231MPD1    H7 3517   2.162   2.484  15.043  0.9537  2.2637  1.2256
  232MPD1     C 3518   4.630   4.445   1.003 -0.7823 -0.2985  0.1938
  232MPD1    C1 3519   4.636   4.545   0.908 -0.5194 -0.2932  0.2271
  232MPD1    C2 3520   4.538   4.545   0.810 -0.1055  0.2514 -0.1230
  232MPD1    C3 3521   4.431   4.461   0.814 -0.0908  0.3847  0.5279
  232MPD1    C4 3522   4.425   4.362   0.909  0.0863 -0.3982 -0.5554
  232MPD1    C5 3523   4.528   4.355   0.995  0.6917 -0.0384  0.3180
  232MPD1     H 3524   4.553   4.611   0.725  0.5231  0.3583  0.0769
  232MPD1    H1 3525   4.341   4.294   0.914 -2.3593  2.5504 -1.1834
  232MPD1    H2 3526   4.710   4.433   1.075  0.2216  4.9095  0.0085
  232MPD1    H3 3527   4.528   4.271   1.063 -0.0713  0.0308  0.4011
  232MPD1     N 3528   4.328   4.491   0.719 -0.9187  0.4558 -0.2978
  232MPD1    H5 3529   4.338   4.566   0.651 -1.0846  1.9466  1.3201
  232MPD1    N1 3530   0.023   4.627   0.900 -0.0847 -0.1193 -0.1685
  232MPD1    H6 3531   0.065   4.640   0.992  1.7037  0.7142 -1.0988
  232MPD1    H7 3532   4.707   4.715   0.868 -0.9589  0.4415  2.4776
  233MPD1     C 3533   4.130   4.339   1.418 -0.2555 -0.1309 -0.4499
  233MPD1    C1 3534   4.170   4.262   1.525  0.3150  0.2712 -0.2511
  233MPD1    C2 3535   4.255   4.160   1.496  0.1578 -0.1105  0.6003
  233MPD1    C3 3536   4.318   4.142   1.368  0.7871 -0.3580  0.0154
  233MPD1    C4 3537   4.271   4.221   1.270 -0.2269  0.3675 -0.6590
  233MPD1    C5 3538   4.173   4.315   1.285  0.0307  0.0024  0.1390
  233MPD1     H 3539   4.279   4.095   1.579 -0.0026 -0.7601  0.1389
  233MPD1    H1 3540   4.318   4.212   1.172  1.5035 -0.0070  0.2100
  233MPD1    H2 3541   4.059   4.414   1.452  1.1272  0.4548  1.1794
  233MPD1    H3 3542   4.142   4.362   1.193  0.6808  3.1071  1.4728
  233MPD1     N 3543   4.405   4.034   1.331  0.0912  0.2557 -0.2600
  233MPD1    H5 3544   4.428   4.029   1.233  1.9058  0.0755  0.1647
  233MPD1    N1 3545   4.097   4.280   1.647  0.2970 -0.0787  0.1687
  233MPD1    H6 3546   4.051   4.370   1.651 -0.5035 -0.4508 -0.7794
  233MPD1    H7 3547   4.144   4.261   1.736 -0.1059  0.7174  0.5504
  234MPD1     C 3548   2.144   1.206  10.005 -0.2926  0.3327  0.0269
  234MPD1    C1 3549   2.178   1.313  10.084 -0.1169 -0.4183  0.7054
  234MPD1    C2 3550   2.110   1.432  10.068 -0.4809 -0.9832  0.2313
  234MPD1    C3 3551   2.009   1.449   9.964  0.5463  0.5704  0.1440
  234MPD1    C4 3552   1.969   1.336   9.893  0.4353  0.2005 -0.0477
  234MPD1    C5 3553   2.038   1.218   9.912  0.4053 -0.2739  0.1109
  234MPD1     H 3554   2.142   1.515  10.131  2.1580 -2.4670  0.8032
  234MPD1    H1 3555   1.908   1.338   9.803  2.0070 -1.7589 -1.1573
  234MPD1    H2 3556   2.190   1.108  10.002 -0.7236  0.1696 -0.9772
  234MPD1    H3 3557   2.023   1.135   9.844 -0.9760  0.9675 -1.0935
  234MPD1     N 3558   1.947   1.577   9.956  0.1127 -0.0945  0.0899
  234MPD1    H5 3559   1.979   1.652  10.016  0.5317 -0.0753 -0.1632
  234MPD1    N1 3560   2.298   1.308  10.153 -0.2031  0.4951 -0.0176
  234MPD1    H6 3561   2.319   1.214  10.185  0.4160  0.5546 -0.2520
  234MPD1    H7 3562   2.287   1.369  10.234 -0.6343  1.4856 -0.8167
  235MPD1     C 3563   2.314   3.797   9.835 -0.5073  0.0583  0.7646
  235MPD1    C1 3564   2.298   3.919   9.773 -0.8814  1.2385  0.6768
  235MPD1    C2 3565   2.416   3.974   9.740  0.1364 -0.0070  1.0595
  235MPD1    C3 3566   2.541   3.919   9.767 -0.0415 -0.3969 -0.3444
  235MPD1    C4 3567   2.556   3.799   9.825  1.4371 -0.8345 -0.7648
  235MPD1    C5 3568   2.438   3.745   9.864 -0.5546 -0.2152  0.3488
  235MPD1     H 3569   2.422   4.070   9.690 -0.6446 -0.5957 -0.1552
  235MPD1    H1 3570   2.656   3.765   9.847  0.8894 -0.5612  2.1458
  235MPD1    H2 3571   2.228   3.736   9.859 -1.2247 -0.0514 -2.0998
  235MPD1    H3 3572   2.436   3.652   9.919  1.9120  0.4382  1.5312
  235MPD1     N 3573   2.652   4.001   9.736 -0.5614  0.5247  0.1060
  235MPD1    H5 3574   2.628   4.089   9.691 -1.3033  1.0097  1.4606
  235MPD1    N1 3575   2.173   3.963   9.724  0.1118  0.1721 -0.7176
  235MPD1    H6 3576   2.181   4.063   9.711  1.7742  0.5694  3.2510
  235MPD1    H7 3577   2.095   3.943   9.787  1.3874 -2.1076  0.1428
  236MPD1     C 3578   2.369   0.380  10.042  0.0963  1.2051  0.1986
  236MPD1    C1 3579   2.448   0.493  10.044  0.1672  0.3264  0.0634
  236MPD1    C2 3580   2.574   0.487  10.104  0.3800 -0.2852 -0.4488
  236MPD1    C3 3581   2.630   0.362  10.138  0.1779  0.2576  0.6211
  236MPD1    C4 3582   2.550   0.251  10.115 -0.3805  0.3370  0.2455
  236MPD1    C5 3583   2.420   0.255  10.075  0.1351 -0.7962 -0.1748
  236MPD1     H 3584   2.631   0.579  10.111 -0.9480  0.4645  0.5488
  236MPD1    H1 3585   2.599   0.154  10.122  0.2031  0.8018  2.6288
  236MPD1    H2 3586   2.265   0.385  10.013  0.4232 -1.3255 -1.3112
  236MPD1    H3 3587   2.367   0.161  10.065  0.2613 -0.9241  0.3311
  236MPD1     N 3588   2.750   0.336  10.208  0.4045 -0.5460 -0.2545
  236MPD1    H5 3589   2.771   0.239  10.230  1.9542  0.1102  1.0849
  236MPD1    N1 3590   2.392   0.624  10.016 -0.0728  0.0786  0.4737
  236MPD1    H6 3591   2.307   0.616   9.961  0.2152  0.9144 -0.1045
  236MPD1    H7 3592   2.459   0.690   9.976 -2.1451  2.8581  1.5865
  237MPD1     C 3593   2.676   3.969  15.688 -0.3155  0.3627 -0.1546
  237MPD1    C1 3594   2.559   3.907  15.728  0.6418  0.3435  0.8264
  237MPD1    C2 3595   2.457   3.895  15.635 -0.2131  0.0813  0.8023
  237MPD1    C3 3596   2.481   3.927  15.502 -0.5078 -0.1086  0.0803
  237MPD1    C4 3597   2.596   3.995  15.466  0.3066  0.1482 -1.2796
  237MPD1    C5 3598   2.689   4.018  15.563  0.4354 -0.2155 -0.0499
  237MPD1     H 3599   2.367   3.848  15.675 -0.9638  0.6098 -0.2712
  237MPD1    H1 3600   2.609   4.030  15.364 -2.3442 -0.2244 -1.7489
  237MPD1    H2 3601   2.753   3.995  15.759 -1.6357  1.7590  0.7660
  237MPD1    H3 3602   2.771   4.089  15.563  0.9604 -0.8180  0.2282
  237MPD1     N 3603   2.390   3.908  15.394 -0.1812 -0.0416 -0.3847
  237MPD1    H5 3604   2.412   3.944  15.302  0.4055  1.1049  0.2012
  237MPD1    N1 3605   2.536   3.899  15.866 -0.2358  0.5046 -0.0245
  237MPD1    H6 3606   2.616   3.880  15.926 -1.1872 -0.1441  1.0634
  237MPD1    H7 3607   2.465   3.829  15.888  0.9817 -0.4955  0.6956
  238MPD1     C 3608   4.602   1.938  15.578  0.4269  0.8153 -0.6073
  238MPD1    C1 3609   4.595   2.074  15.612  0.8555  0.0645  0.2346
  238MPD1    C2 3610   4.503   2.150  15.541 -0.0610  0.6638  0.3587
  238MPD1    C3 3611   4.428   2.095  15.435  0.1670  0.1932 -0.2021
  238MPD1    C4 3612   4.456   1.963  15.398 -0.1856 -0.1391  0.4234
  238MPD1    C5 3613   4.529   1.881  15.480  0.5401  0.6155 -0.3011
  238MPD1     H 3614   4.505   2.256  15.563 -0.1830  0.4923  1.2203
  238MPD1    H1 3615   4.404   1.923  15.312  0.7984  1.5295 -0.9523
  238MPD1    H2 3616   4.681   1.878  15.620 -0.7909 -1.2708 -1.3036
  238MPD1    H3 3617   4.547   1.778  15.454  1.1344  0.8029 -0.6339
  238MPD1     N 3618   4.333   2.171  15.360  0.8844 -0.0793  0.3022
  238MPD1    H5 3619   4.304   2.139  15.268 -1.3244 -0.2970  1.0794
  238MPD1    N1 3620   4.700   2.136  15.683 -0.0633 -0.1869  0.0549
  238MPD1    H6 3621   4.686   2.232  15.714 -0.7294 -0.4982  0.7130
  238MPD1    H7 3622   0.007   2.081  15.763 -0.7776 -1.4966 -0.5583
  239MPD1     C 3623   4.660   3.340  15.051 -0.2631  0.9476  0.8095
  239MPD1    C1 3624   4.722   3.268  14.950  0.1740  0.0564 -0.0201
  239MPD1    C2 3625   4.673   3.273  14.823  0.7670  0.1808 -0.5947
  239MPD1    C3 3626   4.558   3.351  14.790  0.2909 -0.2848  0.0308
  239MPD1    C4 3627   4.497   3.418  14.898  0.1710 -0.6344  0.1326
  239MPD1    C5 3628   4.553   3.423  15.021 -0.0119 -0.1531 -0.1921
  239MPD1     H 3629   4.724   3.223  14.742  2.8016  0.7071  0.3593
  239MPD1    H1 3630   4.426   3.498  14.879 -1.2131 -1.5599  1.4636
  239MPD1    H2 3631   4.705   3.361  15.148  2.1781 -2.1099  0.3034
  239MPD1    H3 3632   4.504   3.487  15.092  0.5498 -1.8190  1.6866
  239MPD1     N 3633   4.516   3.383  14.657 -0.5115 -0.3839  0.0464
  239MPD1    H5 3634   4.447   3.457  14.644 -1.9590 -1.4419  1.6851
  239MPD1    N1 3635   0.126   3.216  14.974  0.3217  0.0701 -0.3518
  239MPD1    H6 3636   0.133   3.179  15.069  2.0710 -3.9385 -2.0192
  239MPD1    H7 3637   0.152   3.141  14.911  0.1231  0.9633 -1.4883
  240MPD1     C 3638   0.115   2.738  14.186 -0.3789  0.5846 -0.2597
  240MPD1    C1 3639   4.718   2.704  14.138  0.2406 -0.0944  0.4996
  240MPD1    C2 3640   4.610   2.697  14.224  0.3892  0.3664  0.1016
  240MPD1    C3 3641   4.630   2.708  14.361 -1.0545  0.3971 -0.8008
  240MPD1    C4 3642   0.031   2.745  14.407  0.2874 -0.2806  0.3799
  240MPD1    C5 3643   0.135   2.753  14.321 -0.0809 -0.7908 -0.4772
  240MPD1     H 3644   4.513   2.671  14.184 -0.4962  0.4292  2.2580
  240MPD1    H1 3645   0.050   2.751  14.513  1.4448  3.1847 -0.0346
  240MPD1    H2 3646   0.196   2.768  14.121  0.8491 -0.7820  0.6452
  240MPD1    H3 3647   0.228   2.802  14.346 -1.0261 -0.3972  2.2052
  240MPD1     N 3648   4.516   2.698  14.445  0.4840  0.0998 -0.3168
  240MPD1    H5 3649   4.427   2.716  14.399  0.5136  1.6733  0.2324
  240MPD1    N1 3650   4.688   2.702  14.003 -0.3645  0.4460  0.2434
  240MPD1    H6 3651   4.596   2.665  13.982 -0.4382  1.6116 -1.5114
  240MPD1    H7 3652   0.042   2.667  13.950 -0.4620 -0.8577  0.9689
  241MPD1     C 3653   4.182   2.828  15.467  0.4242  0.0354  0.1015
  241MPD1    C1 3654   4.243   2.718  15.428  0.6475 -0.3614  0.0157
  241MPD1    C2 3655   4.245   2.682  15.298  0.2571  0.0189 -0.2195
  241MPD1    C3 3656   4.183   2.759  15.197 -1.3180 -0.2499  0.1383
  241MPD1    C4 3657   4.118   2.869  15.238  0.6073  0.5163  0.4337
  241MPD1    C5 3658   4.113   2.898  15.373 -0.2701 -0.0372 -0.3199
  241MPD1     H 3659   4.298   2.593  15.267 -0.7043  0.4308 -3.0461
  241MPD1    H1 3660   4.072   2.936  15.167 -0.2496  0.1751  0.6624
  241MPD1    H2 3661   4.186   2.864  15.569 -0.1847 -1.8187  0.7876
  241MPD1    H3 3662   4.066   2.987  15.413  0.3582 -1.2822  3.1782
  241MPD1     N 3663   4.186   2.740  15.055 -0.0023 -0.1663  0.6641
  241MPD1    H5 3664   4.120   2.785  14.992  1.6683  1.5459  0.1510
  241MPD1    N1 3665   4.328   2.659  15.525 -0.2505  0.5150 -0.1595
  241MPD1    H6 3666   4.329   2.557  15.527 -1.1753  0.4505 -2.4464
  241MPD1    H7 3667   4.295   2.684  15.618  0.5967  0.2770  0.2151
  242MPD1     C 3668   4.134   2.139  15.811  0.2768  0.2141 -0.4029
  242MPD1    C1 3669   4.005   2.130  15.775  0.1360 -0.3501  0.0814
  242MPD1    C2 3670   3.955   2.031  15.693  0.0649  0.4396  0.7103
  242MPD1    C3 3671   4.051   1.946  15.638  1.5610  0.0841  0.0419
  242MPD1    C4 3672   4.185   1.965  15.668 -0.3632  0.1099  0.0592
  242MPD1    C5 3673   4.227   2.067  15.747 -0.5047  0.3440  0.8271
  242MPD1     H 3674   3.848   2.015  15.686  0.0348  0.6320  0.7368
  242MPD1    H1 3675   4.262   1.903  15.623 -0.1235  0.9943 -0.7351
  242MPD1    H2 3676   4.169   2.216  15.879 -1.8629  0.2762  0.6457
  242MPD1    H3 3677   4.327   2.086  15.783  0.4855 -0.4618 -1.4526
  242MPD1     N 3678   4.024   1.836  15.555  0.0387 -0.9402  0.2261
  242MPD1    H5 3679   4.098   1.770  15.535 -2.0245 -2.9475 -0.8673
  242MPD1    N1 3680   3.905   2.202  15.843  0.0108  0.6903  0.1808
  242MPD1    H6 3681   3.929   2.300  15.858  0.6601  0.7161 -1.0051
  242MPD1    H7 3682   3.831   2.206  15.773  0.5248  0.3143 -0.3872
  243MPD1     C 3683   1.386   0.202   0.130  0.0886 -0.3325 -0.0079
  243MPD1    C1 3684   1.296   0.107   0.169 -0.2310 -0.6195  0.0889
  243MPD1    C2 3685   1.224   0.040   0.070 -0.7617  0.2409  0.4561
  243MPD1    C3 3686   1.248   0.062  17.640 -0.4061  0.6506  0.2405
  243MPD1    C4 3687   1.341   0.161  17.598 -0.5088  0.4981  0.4447
  243MPD1    C5 3688   1.408   0.222  17.701  0.1648 -0.8123 -0.2108
  243MPD1     H 3689   1.141   4.700   0.096  1.1075 -1.5636  1.8439
  243MPD1    H1 3690   1.356   0.187  17.494  2.6192  0.4508  0.9047
  243MPD1    H2 3691   1.445   0.254   0.205  0.5093 -1.8549  0.7214
  243MPD1    H3 3692   1.488   0.288  17.670 -0.4883 -1.0644 -2.4220
  243MPD1     N 3693   1.171   4.713  17.545 -0.2019 -0.4883  0.0164
  243MPD1    H5 3694   1.119   4.636  17.586 -1.2208 -0.1205 -0.5871
  243MPD1    N1 3695   1.263   0.101   0.304 -0.3679 -0.6033 -0.4067
  243MPD1    H6 3696   1.224   0.011   0.332  0.1661 -0.6120  0.3183
  243MPD1    H7 3697   1.342   0.113   0.367 -1.3166 -0.5346  0.7891
  244MPD1     C 3698   0.386   4.501   0.083 -0.1579 -0.0311  0.5642
  244MPD1    C1 3699   0.497   4.432   0.105  0.4757  0.1193 -0.2455
  244MPD1    C2 3700   0.605   4.451   0.024  0.3947  0.1245 -1.0827
  244MPD1    C3 3701   0.594   4.517  17.603  0.1127 -0.5267 -0.3923
  244MPD1    C4 3702   0.469   4.565  17.568 -0.2110  0.0198  0.1164
  244MPD1    C5 3703   0.374   4.565  17.662  0.2179  0.0485  0.2895
  244MPD1     H 3704   0.697   4.395   0.036 -0.2116 -0.0912  2.6980
  244MPD1    H1 3705   0.450   4.625  17.480  0.8621 -0.9904 -0.8027
  244MPD1    H2 3706   0.294   4.491   0.141 -1.2748  0.3278 -1.1537
  244MPD1    H3 3707   0.283   4.622  17.645  0.6423  0.8110  0.5706
  244MPD1     N 3708   0.711   4.521  17.524  0.3494 -0.2903 -0.3825
  244MPD1    H5 3709   0.799   4.488  17.562  1.3230  2.8003  0.0816
  244MPD1    N1 3710   0.503   4.349   0.219 -0.2235 -0.5802  0.0196
  244MPD1    H6 3711   0.571   4.274   0.214 -0.7040 -0.8744 -2.1499
  244MPD1    H7 3712   0.410   4.316   0.243 -0.6730  0.3464 -0.4472
  245MPD1     C 3713   2.699   4.639  14.177  0.0949  0.5113  0.1664
  245MPD1    C1 3714   2.818   4.694  14.217 -0.4827  0.0965 -0.1681
  245MPD1    C2 3715   2.826   0.105  14.221 -0.2783 -0.0588  0.1480
  245MPD1    C3 3716   2.726   0.184  14.176  0.1709 -0.5745 -0.1897
  245MPD1    C4 3717   2.612   0.127  14.131 -0.3450 -0.7640  0.0422
  245MPD1    C5 3718   2.597   4.722  14.138  0.6707  0.8227  0.7841
  245MPD1     H 3719   2.912   0.163  14.255  0.9685 -0.6456 -2.0121
  245MPD1    H1 3720   2.527   0.179  14.089  1.4199  1.2471 -1.0014
  245MPD1    H2 3721   2.679   4.533  14.183 -1.5935  0.9037  1.3457
  245MPD1    H3 3722   2.505   4.679  14.099  2.2602 -0.1524 -1.8968
  245MPD1     N 3723   2.755   0.323  14.165 -0.3226 -1.1654  0.5031
  245MPD1    H5 3724   2.843   0.361  14.199 -0.3485 -0.8016  0.1563
  245MPD1    N1 3725   2.927   4.613  14.257 -0.2248  1.0140 -0.2392
  245MPD1    H6 3726   2.936   4.525  14.207  1.3942  0.6648  0.6557
  245MPD1    H7 3727   3.018   4.658  14.270 -0.7861  1.9860  0.3367
  246MPD1     C 3728   4.109   1.200   9.326  0.1899  0.8262  0.1972
  246MPD1    C1 3729   3.992   1.149   9.286 -0.3327 -0.2773  0.0272
  246MPD1    C2 3730   3.881   1.231   9.302  0.3725 -0.4038 -0.1114
  246MPD1    C3 3731   3.889   1.349   9.373 -0.9065 -0.4337 -0.6932
  246MPD1    C4 3732   4.008   1.392   9.432  0.1046  0.3695 -0.3229
  246MPD1    C5 3733   4.113   1.306   9.410  0.1624 -0.0425  0.1654
  246MPD1     H 3734   3.784   1.191   9.275  0.3885 -1.0955  0.8899
  246MPD1    H1 3735   4.024   1.493   9.467 -0.4450 -0.0205  1.0448
  246MPD1    H2 3736   4.205   1.152   9.309 -1.8314 -2.5532 -1.5113
  246MPD1    H3 3737   4.205   1.353   9.441  0.3842  1.6577 -3.1549
  246MPD1     N 3738   3.775   1.441   9.362  1.2744 -0.1299 -0.3140
  246MPD1    H5 3739   3.702   1.407   9.300  1.1682 -1.3004  0.4476
  246MPD1    N1 3740   3.985   1.024   9.215  0.1403 -0.6400  0.2261
  246MPD1    H6 3741   3.892   0.989   9.197 -0.0854  0.6123 -1.0411
  246MPD1    H7 3742   4.057   0.955   9.235  2.0743  1.6260  1.2233
  247MPD1     C 3743   1.302   4.484  16.106 -0.9446 -0.3406 -1.0147
  247MPD1    C1 3744   1.379   4.498  16.221 -0.7022  0.0448 -0.2562
  247MPD1    C2 3745   1.511   4.534  16.203  0.0820 -0.0466  0.1101
  247MPD1    C3 3746   1.555   4.558  16.075  0.3794 -0.0849 -0.0183
  247MPD1    C4 3747   1.474   4.543  15.962  0.6006  0.0915 -0.4827
  247MPD1    C5 3748   1.342   4.510  15.982 -0.4406  0.3780  0.4634
  247MPD1     H 3749   1.570   4.545  16.293 -0.6012  2.0440  0.3026
  247MPD1    H1 3750   1.512   4.564  15.863  1.8689  1.1024  0.2125
  247MPD1    H2 3751   1.195   4.469  16.114 -0.5127 -1.8585  2.0445
  247MPD1    H3 3752   1.278   4.521  15.895  1.1748 -0.9760 -0.8735
  247MPD1     N 3753   1.692   4.593  16.053 -0.5564  0.5298 -0.0313
  247MPD1    H5 3754   1.717   4.616  15.957  1.3033  0.2476  0.3780
  247MPD1    N1 3755   1.316   4.511  16.348  0.5191  0.1253  0.7281
  247MPD1    H6 3756   1.235   4.451  16.360  0.0447  0.7231  0.4975
  247MPD1    H7 3757   1.392   4.494  16.414 -0.1930 -1.5426  1.1253
  248MPD1     C 3758   3.171   1.543   0.562  0.2320 -0.6992 -0.0263
  248MPD1    C1 3759   3.037   1.578   0.563 -0.2619  0.4626 -0.0066
  248MPD1    C2 3760   2.948   1.522   0.468  0.1167 -0.4499  0.3643
  248MPD1    C3 3761   2.989   1.413   0.392  0.5059 -0.1342  0.1836
  248MPD1    C4 3762   3.121   1.383   0.388  0.1472 -0.1046  0.3364
  248MPD1    C5 3763   3.215   1.445   0.468  0.0860 -0.0609  0.4730
  248MPD1     H 3764   2.849   1.564   0.454  0.6582  0.6488 -0.1009
  248MPD1    H1 3765   3.146   1.302   0.320  0.9361  1.0014 -0.6885
  248MPD1    H2 3766   3.241   1.608   0.614 -1.0977  0.8827 -0.2223
  248MPD1    H3 3767   3.319   1.414   0.461 -0.5600 -2.4962  1.4693
  248MPD1     N 3768   2.894   1.352   0.303 -0.1719  0.3852 -0.1295
  248MPD1    H5 3769   2.804   1.400   0.306 -1.9403 -2.9604  0.7143
  248MPD1    N1 3770   2.997   1.682   0.648 -0.2050 -0.1293 -0.1490
  248MPD1    H6 3771   2.898   1.676   0.670  0.0595  1.4451  1.4182
  248MPD1    H7 3772   3.054   1.692   0.731 -0.9751  0.7471  0.2688
  249MPD1     C 3773   3.971   3.845   9.466  0.2050 -0.5654 -0.5960
  249MPD1    C1 3774   3.958   3.890   9.590 -0.1491  0.3571  1.0889
  249MPD1    C2 3775   4.044   3.857   9.696  0.3045 -0.8616 -0.6847
  249MPD1    C3 3776   4.134   3.756   9.676  0.1274  0.0684 -0.2282
  249MPD1    C4 3777   4.147   3.700   9.550 -0.8464  0.1363 -0.0616
  249MPD1    C5 3778   4.063   3.744   9.451  0.2750 -0.4500  0.7163
  249MPD1     H 3779   4.032   3.906   9.792  1.1473 -3.0991  0.5720
  249MPD1    H1 3780   4.219   3.628   9.514 -1.8963  0.0862 -2.0569
  249MPD1    H2 3781   3.903   3.871   9.387 -0.9718  2.4870  1.4237
  249MPD1    H3 3782   4.080   3.708   9.351 -2.1171 -0.1610  0.2019
  249MPD1     N 3783   4.218   3.730   9.790  0.1041 -0.4609  0.1930
  249MPD1    H5 3784   4.211   3.804   9.859  2.3950 -1.8544  1.9020
  249MPD1    N1 3785   3.867   3.995   9.604  0.4110 -0.4735 -0.1734
  249MPD1    H6 3786   3.895   4.091   9.589 -2.1874  0.5018  1.0859
  249MPD1    H7 3787   3.827   3.995   9.698 -0.2673 -0.8141 -0.4596
  250MPD2     C 3788   0.475   3.897  12.972  0.9458 -0.2716 -0.0573
  250MPD2    C1 3789   0.371   3.892  12.873  0.7548  0.6538 -0.3840
  250MPD2    C2 3790   0.320   3.768  12.839 -0.0928 -0.7221  0.3172
  250MPD2    C3 3791   0.375   3.650  12.895 -0.5161 -0.1755 -0.2175
  250MPD2    C4 3792   0.471   3.654  12.989  0.2467 -0.7918  0.0151
  250MPD2    C5 3793   0.528   3.774  13.009  0.2084 -0.6936  0.6574
  250MPD2     H 3794   0.235   3.756  12.774 -0.2316  1.7963  0.0157
  250MPD2    H1 3795   0.518   3.571  13.042  0.9244 -0.5112 -0.1476
  250MPD2    H2 3796   0.525   3.986  13.009  1.6350 -0.7853  0.2462
  250MPD2    H3 3797   0.609   3.780  13.081 -1.1883  1.2004  2.1043
  250MPD2     N 3798   0.331   3.523  12.856 -0.5584  0.1737  0.4236
  250MPD2    H5 3799   0.382   3.450  12.905  0.3147 -0.5987 -1.6794
  250MPD2    N1 3800   0.318   4.013  12.832  0.1620  0.0291  0.3662
  250MPD2    H7 3801   0.355   4.101  12.869 -1.5297  0.4998  0.9449
  251TMC3    C1 3802   0.160   4.172  12.757 -0.3995 -0.3610  0.5435
  251TMC3    C2 3803   0.036   4.197  12.801  0.1438 -0.8812  0.3427
  251TMC3    C3 3804   0.009   4.315  12.870 -0.4054  0.6591  0.2426
  251TMC3    C4 3805   0.258   4.265  12.776  0.3256  0.5491  0.4120
  251TMC3    C5 3806   0.237   4.380  12.848  0.0279 -0.0949  0.1597
  251TMC3    C6 3807   0.108   4.409  12.891  0.9320  0.0296 -0.6579
  251TMC3     C 3808   0.198   4.033  12.763 -0.0736 -0.5315  0.6940
  251TMC3     O 3809   0.116   3.948  12.741 -0.1127 -0.1559  0.3843
  251TMC3     H 3810   4.685   4.124  12.776 -0.3318 -0.6519  1.1141
  251TMC3    H1 3811   0.358   4.250  12.737  0.5886  0.4041  1.1599
  251TMC3    H2 3812   0.078   4.505  12.932 -1.8411  0.4095 -3.5787
  251TMC3    C7 3813   0.341   4.400  12.939 -0.5493 -0.7568  0.5790
  251TMC3    C8 3814   4.604   4.333  12.932  0.2677  0.0397  0.0264
  251TMC3    O1 3815   0.416   4.301  12.943  0.0995  0.1308 -0.0129
  251TMC3    O2 3816   4.593   4.433  12.998 -0.0451  0.3645 -0.1991
  252TMC3    C1 3817   1.031   4.542   9.459  0.5383  0.1532 -0.4459
  252TMC3    C2 3818   1.060   4.470   9.577  1.0953 -0.3471 -0.2222
  252TMC3    C3 3819   1.005   4.343   9.592  0.1041 -0.5226 -0.5376
  252TMC3    C4 3820   0.930   4.501   9.381  0.0197  0.4006  0.1704
  252TMC3    C5 3821   0.871   4.377   9.400  0.8039 -0.1999  0.2149
  252TMC3    C6 3822   0.909   4.299   9.503 -0.2599 -0.1743  0.1908
  252TMC3     C 3823   1.107   4.656   9.427 -0.1165  0.7322 -0.5685
  252TMC3     O 3824   1.060   0.004   9.337 -0.3403 -0.1906  0.3115
  252TMC3     H 3825   1.146   4.494   9.639  2.2457  1.6368 -2.5999
  252TMC3    H1 3826   0.900   4.558   9.294 -0.3384 -1.0794 -0.6829
  252TMC3    H2 3827   0.876   4.197   9.519 -1.4019  0.2170  0.3085
  252TMC3    C7 3828   0.767   4.345   9.311 -0.3895 -0.4537  0.0323
  252TMC3    C8 3829   1.077   4.248   9.674 -0.1237 -0.1597 -0.3702
  252TMC3    O1 3830   0.741   4.415   9.215  0.1769  0.4580 -0.3281
  252TMC3    O2 3831   1.074   4.131   9.641  0.5199  0.0326 -0.5551
  253MPD2     C 3832   2.244   4.290  15.417 -0.5731  0.3984  0.3839
  253MPD2    C1 3833   2.125   4.233  15.424 -0.7827  0.2857  0.8896
  253MPD2    C2 3834   2.095   4.144  15.525  0.6124 -0.7078  0.0742
  253MPD2    C3 3835   2.168   4.131  15.639  0.0389  0.2541 -0.3043
  253MPD2    C4 3836   2.292   4.194  15.638  0.4593  0.7599  0.6196
  253MPD2    C5 3837   2.329   4.257  15.523  0.4449  0.0789  0.5607
  253MPD2     H 3838   2.005   4.084  15.512 -0.3386  0.6517  0.4004
  253MPD2    H1 3839   2.355   4.191  15.726  0.6175  0.5741  0.4984
  253MPD2    H2 3840   2.283   4.357  15.341 -1.6352  0.8755  0.2496
  253MPD2    H3 3841   2.425   4.308  15.527 -0.0440  1.0670 -0.4318
  253MPD2     N 3842   2.112   4.067  15.756  0.1504 -0.7373 -0.2058
  253MPD2    H5 3843   2.175   4.075  15.835 -0.2017 -3.9312  0.3984
  253MPD2    N1 3844   2.026   4.254  15.325 -0.0520  0.4688  0.9232
  253MPD2    H7 3845   1.947   4.192  15.338  0.0746  0.0479 -0.2988
  254TMC3    C1 3846   1.946   3.973  15.913  0.0779  0.1425 -0.2703
  254TMC3    C2 3847   1.810   3.946  15.931 -0.5677  0.9346  0.1870
  254TMC3    C3 3848   1.763   3.879  16.039 -0.6281 -0.4725 -0.1174
  254TMC3    C4 3849   2.040   3.904  15.991 -0.2161  0.1473  0.8571
  254TMC3    C5 3850   1.992   3.845  16.107 -0.2025  0.2140 -0.3353
  254TMC3    C6 3851   1.861   3.834  16.134 -0.4951 -0.4059  0.3865
  254TMC3     C 3852   1.983   4.017  15.777  0.3021  0.3388 -0.5776
  254TMC3     O 3853   1.896   4.008  15.691 -0.2188 -0.1975  0.1059
  254TMC3     H 3854   1.748   3.984  15.851 -0.6089  2.5185  0.9785
  254TMC3    H1 3855   2.141   3.882  15.957 -0.0596 -1.1694  2.2049
  254TMC3    H2 3856   1.819   3.791  16.224 -2.9816  0.4614 -0.3547
  254TMC3    C7 3857   2.077   3.821  16.220  0.7270 -0.0040 -0.0126
  254TMC3    C8 3858   1.627   3.900  16.092 -0.6151  0.6587  0.4550
  254TMC3    O1 3859   2.023   3.762  16.309  0.2157 -0.1970  0.5551
  254TMC3    O2 3860   1.601   3.843  16.197  0.8177 -0.2009 -0.5493
  255MPD2     C 3861   0.143   1.642   9.940 -0.0615 -0.5057 -0.3636
  255MPD2    C1 3862   0.116   1.716  10.059  0.3871 -0.7361 -0.0348
  255MPD2    C2 3863   0.168   1.672  10.178 -0.1755  0.3347 -0.3423
  255MPD2    C3 3864   0.248   1.567  10.195 -0.0665 -0.0227  0.2333
  255MPD2    C4 3865   0.264   1.497  10.078 -0.5617 -0.4037 -0.0207
  255MPD2    C5 3866   0.216   1.525   9.957  0.6698 -0.4422 -0.2246
  255MPD2     H 3867   0.146   1.734  10.264 -3.9784 -1.1796 -0.2458
  255MPD2    H1 3868   0.316   1.401  10.082 -1.6157 -1.0311 -1.5978
  255MPD2    H2 3869   0.108   1.668   9.841 -0.6276 -0.3951 -0.1352
  255MPD2    H3 3870   0.234   1.457   9.874 -0.4679 -0.7022 -0.2607
  255MPD2     N 3871   0.295   1.528  10.324 -0.0674 -0.4666  0.4382
  255MPD2    H5 3872   0.268   1.590  10.400  2.4479 -2.3641  2.8748
  255MPD2    N1 3873   0.025   1.824  10.040 -0.1608  0.4335  0.2636
  255MPD2    H7 3874   4.720   1.838   9.944 -1.6317  2.6396  1.0324
  256TMC3    C1 3875   4.600   1.991  10.105 -0.6470 -0.0197  0.0493
  256TMC3    C2 3876   4.598   2.029   9.974 -0.2756 -0.0105  0.0445
  256TMC3    C3 3877   4.477   2.048   9.914 -0.0096  0.8815 -0.2357
  256TMC3    C4 3878   4.484   1.962  10.172 -0.2663  0.0491  0.0569
  256TMC3    C5 3879   4.367   1.967  10.106 -0.1189  0.1065  0.0354
  256TMC3    C6 3880   4.363   2.019   9.977 -0.2053 -0.2175 -0.4390
  256TMC3     C 3881   4.697   1.896  10.148 -0.5664  0.6351 -0.3845
  256TMC3     O 3882   4.705   1.881  10.270  0.4588  0.1194  0.1745
  256TMC3     H 3883   4.691   2.039   9.920  1.1580  0.5058  2.6460
  256TMC3    H1 3884   4.479   1.911  10.267 -0.2365  0.3316  0.2118
  256TMC3    H2 3885   4.269   2.052   9.933 -0.1783  0.8516  0.3069
  256TMC3    C7 3886   4.295   1.840  10.102 -0.0304 -0.3342 -0.4312
  256TMC3    C8 3887   4.458   2.097   9.774 -0.9218 -0.6165  0.1183
  256TMC3    O1 3888   4.323   1.750  10.184  0.0877 -0.2682 -0.0050
  256TMC3    O2 3889   4.349   2.068   9.724  0.4046  0.0912  0.1611
  257MPD2     C 3890   4.244   3.705  12.841 -0.2938  0.4026 -0.4766
  257MPD2    C1 3891   4.162   3.609  12.787 -0.1436 -0.4512  0.2589
  257MPD2    C2 3892   4.134   3.503  12.867  0.6480 -0.6422 -0.1110
  257MPD2    C3 3893   4.187   3.477  12.992 -0.0888  0.3694  0.0492
  257MPD2    C4 3894   4.285   3.564  13.038  0.3359 -0.0371  0.2577
  257MPD2    C5 3895   4.299   3.671  12.960  1.0989  0.3976 -0.7636
  257MPD2     H 3896   4.059   3.435  12.828  0.9532 -0.9870 -0.1027
  257MPD2    H1 3897   4.350   3.558  13.125  2.2027  1.6724 -1.0210
  257MPD2    H2 3898   4.270   3.794  12.786 -3.3984  2.1421  0.8885
  257MPD2    H3 3899   4.376   3.738  12.995  0.4873  1.6287 -1.7720
  257MPD2     N 3900   4.149   3.357  13.061  0.1565 -0.4726  0.0870
  257MPD2    H5 3901   4.079   3.296  13.022  0.8593 -2.0445  1.2681
  257MPD2    N1 3902   4.115   3.639  12.656 -0.0677  0.0771 -0.1375
  257MPD2    H7 3903   4.140   3.733  12.627 -0.3839  0.1237 -0.2608
  258TMC3    C1 3904   4.142   3.199  13.245  0.6065  0.2064 -0.1652
  258TMC3    C2 3905   4.029   3.137  13.193  0.2440 -0.0324  0.5953
  258TMC3    C3 3906   3.962   3.056  13.279 -0.0689  0.0681 -0.1209
  258TMC3    C4 3907   4.193   3.168  13.373 -0.6756 -0.2994  0.6665
  258TMC3    C5 3908   4.111   3.082  13.453  0.0552 -0.1113 -0.1205
  258TMC3    C6 3909   3.996   3.034  13.410  0.1732  0.2860  0.1812
  258TMC3     C 3910   4.193   3.323  13.189 -0.0793 -0.1747 -0.0864
  258TMC3     O 3911   4.272   3.390  13.257  0.1407 -0.1332  0.2267
  258TMC3     H 3912   3.997   3.152  13.090  0.2040 -0.6185  0.5251
  258TMC3    H1 3913   4.286   3.211  13.407  0.4545 -1.0780 -1.4027
  258TMC3    H2 3914   3.930   2.979  13.475 -1.9254  2.2232 -0.2964
  258TMC3    C7 3915   4.124   3.091  13.598  0.7969  0.3473 -0.3439
  258TMC3    C8 3916   3.832   3.008  13.232 -0.5599  0.1745 -0.7080
  258TMC3    O1 3917   4.013   3.116  13.643  0.0088 -0.3564  0.0046
  258TMC3    O2 3918   3.763   3.074  13.161  0.1738  0.2820  0.1610
  259MPD2     C 3919   2.970   0.729   0.216  0.6386  0.1595  0.7935
  259MPD2    C1 3920   3.055   0.699   0.319  0.5220 -0.2883  0.0577
  259MPD2    C2 3921   3.192   0.696   0.287 -0.0592 -0.4578 -0.6888
  259MPD2    C3 3922   3.235   0.686   0.161  0.1900  0.2117 -0.0185
  259MPD2    C4 3923   3.149   0.702   0.059 -0.5429 -0.0700  0.4935
  259MPD2    C5 3924   3.014   0.726   0.092  0.1207  0.0864 -0.6145
  259MPD2     H 3925   3.266   0.698   0.367  0.4551  1.6745 -1.1941
  259MPD2    H1 3926   3.175   0.701  17.656  0.1108 -1.0837  0.6624
  259MPD2    H2 3927   2.870   0.757   0.248  0.4330  0.9724 -0.5404
  259MPD2    H3 3928   2.944   0.755   0.015 -1.4503 -1.8414  0.0941
  259MPD2     N 3929   3.368   0.649   0.129  0.4064 -0.2619 -0.2763
  259MPD2    H5 3930   3.436   0.645   0.205  2.8143  0.6005 -2.4090
  259MPD2    N1 3931   3.005   0.685   0.449  0.1248  0.2319 -0.6348
  259MPD2    H7 3932   2.905   0.670   0.457  0.3611  0.2091  2.0536
  260TMC3    C1 3933   3.568   0.635  17.695  0.5919  0.2556 -0.3322
  260TMC3    C2 3934   3.629   0.550  17.609 -0.4028  0.1800  0.3739
  260TMC3    C3 3935   3.762   0.523  17.636  0.6504  0.1321 -0.0679
  260TMC3    C4 3936   3.634   0.704   0.094 -0.6379 -0.1418 -0.1644
  260TMC3    C5 3937   3.761   0.667   0.112  0.0754  0.7022  0.1066
  260TMC3    C6 3938   3.832   0.571   0.039 -0.6025  0.9427 -0.3091
  260TMC3     C 3939   3.419   0.636   0.003 -0.1423 -0.3808 -0.6936
  260TMC3     O 3940   3.369   0.629  17.593  0.5663 -0.0056 -0.6230
  260TMC3     H 3941   3.568   0.488  17.544  0.5775  0.6265 -0.9647
  260TMC3    H1 3942   3.583   0.780   0.152 -0.5304 -2.8544  3.4616
  260TMC3    H2 3943   3.940   0.564   0.041 -0.7303 -0.4745  1.9516
  260TMC3    C7 3944   3.816   0.709   0.233 -0.2370  0.7091 -0.1645
  260TMC3    C8 3945   3.826   0.405  17.584 -0.2823 -0.0828  0.3703
  260TMC3    O1 3946   3.916   0.781   0.214  0.2948  0.0974 -0.3432
  260TMC3    O2 3947   3.801   0.376  17.470  0.4172 -0.0703 -0.8904
  261MPD2     C 3948   4.561   3.282  12.280  0.5633  0.1184  0.4400
  261MPD2    C1 3949   4.689   3.332  12.301 -0.2367 -0.3460 -0.2273
  261MPD2    C2 3950   4.717   3.441  12.225 -1.2142 -0.8031 -0.9788
  261MPD2    C3 3951   4.639   3.486  12.117  0.7295  0.1367  0.4183
  261MPD2    C4 3952   4.518   3.424  12.091  0.4128 -0.0172  0.1190
  261MPD2    C5 3953   4.477   3.328  12.177  0.1851 -0.0696  0.0668
  261MPD2     H 3954   0.086   3.494  12.240 -0.6870 -1.8422 -0.6307
  261MPD2    H1 3955   4.463   3.441  11.999 -2.0872  0.4040  1.6853
  261MPD2    H2 3956   4.531   3.195  12.338 -0.3272  0.4335  0.4409
  261MPD2    H3 3957   4.382   3.280  12.159  0.4095  0.1410 -1.6552
  261MPD2     N 3958   4.700   3.568  12.027  0.5435 -0.5029 -0.1153
  261MPD2    H5 3959   0.074   3.582  12.047 -0.3168 -0.5495  4.1521
  261MPD2    N1 3960   0.050   3.295  12.403  0.0207 -0.4770 -0.0216
  261MPD2    H7 3961   0.130   3.356  12.418  0.1138 -0.7190  0.4600
  262TMC3    C1 3962   4.721   3.739  11.859  0.3666 -0.0370 -0.2666
  262TMC3    C2 3963   4.666   3.860  11.817 -0.1175 -0.1614  0.4728
  262TMC3    C3 3964   0.025   3.953  11.765 -0.0136  0.3095 -0.0008
  262TMC3    C4 3965   0.124   3.706  11.837  0.4303 -0.2305 -0.4596
  262TMC3    C5 3966   0.212   3.801  11.780 -0.0694  0.2202  0.0279
  262TMC3    C6 3967   0.164   3.922  11.752 -0.2343 -0.2083 -0.1958
  262TMC3     C 3968   4.635   3.649  11.930  0.0006  0.3272  0.2787
  262TMC3     O 3969   4.517   3.650  11.898  0.6237 -0.1697  0.0372
  262TMC3     H 3970   4.558   3.870  11.817 -0.2162 -1.1256  1.8168
  262TMC3    H1 3971   0.166   3.613  11.872 -0.2964 -0.1405  0.6458
  262TMC3    H2 3972   0.232   3.996  11.713  0.6452 -0.5233  0.7265
  262TMC3    C7 3973   0.290   3.733  11.678 -0.6500  0.4117 -0.4934
  262TMC3    C8 3974   4.702   4.059  11.686 -0.0556  0.6340 -0.5815
  262TMC3    O1 3975   0.345   3.628  11.705  0.2412 -0.0956 -0.1415
  262TMC3    O2 3976   0.056   4.102  11.604 -0.2827 -0.0393  0.2583
  263MPD2     C 3977   1.284   2.498  11.505  0.3303 -0.3609  1.0237
  263MPD2    C1 3978   1.404   2.519  11.444 -0.4562  0.3498 -0.3704
  263MPD2    C2 3979   1.407   2.554  11.309  0.1538  0.9719 -0.6397
  263MPD2    C3 3980   1.288   2.573  11.234  0.4585  0.3890 -0.3336
  263MPD2    C4 3981   1.170   2.558  11.301 -0.2708  0.6720  0.1594
  263MPD2    C5 3982   1.168   2.516  11.432  0.6642  0.4111  0.0991
  263MPD2     H 3983   1.503   2.549  11.258  0.3466  4.8953 -0.6507
  263MPD2    H1 3984   1.075   2.584  11.256  0.2876 -0.1720 -1.5487
  263MPD2    H2 3985   1.287   2.468  11.609  0.6875 -0.6426  0.9322
  263MPD2    H3 3986   1.072   2.497  11.478 -0.3223  2.0616 -1.2506
  263MPD2     N 3987   1.291   2.615  11.099 -0.4351  0.8087  0.9129
  263MPD2    H5 3988   1.209   2.658  11.057 -0.2258  0.1139 -0.2095
  263MPD2    N1 3989   1.523   2.495  11.529 -0.1868 -0.0752  0.1778
  263MPD2    H7 3990   1.508   2.454  11.620 -1.1103 -0.1296  0.0015
  264TMC3    C1 3991   1.415   2.691  10.913  0.7299 -0.1923  0.1225
  264TMC3    C2 3992   1.338   2.807  10.914 -0.4601 -0.0020  0.2413
  264TMC3    C3 3993   1.364   2.896  10.816 -0.2783  0.8517 -0.6450
  264TMC3    C4 3994   1.500   2.660  10.810 -0.4984 -0.5008  0.2947
  264TMC3    C5 3995   1.520   2.748  10.717  0.2412 -0.3687  0.2081
  264TMC3    C6 3996   1.460   2.874  10.718 -0.1155 -0.4476  0.0583
  264TMC3     C 3997   1.403   2.594  11.020  1.0851 -0.4653 -0.5225
  264TMC3     O 3998   1.491   2.513  11.037  0.0273 -0.3981 -0.6727
  264TMC3     H 3999   1.278   2.834  11.000 -1.7653 -2.3096  0.0565
  264TMC3    H1 4000   1.560   2.571  10.821 -2.4708 -1.5539  2.5490
  264TMC3    H2 4001   1.487   2.944  10.640 -0.1414 -0.4176  0.0763
  264TMC3    C7 4002   1.622   2.721  10.618 -0.3999 -0.1826  0.1391
  264TMC3    C8 4003   1.314   3.030  10.814  1.2291 -0.6026  0.2819
  264TMC3    O1 4004   1.704   2.628  10.624 -0.3248 -0.5158 -0.4557
  264TMC3    O2 4005   1.379   3.100  10.738  0.0851 -0.6759  0.0458
  265MPD2     C 4006   3.578   3.790  15.600 -0.1146  0.6985  0.3575
  265MPD2    C1 4007   3.450   3.766  15.551  0.1183 -0.7265  0.6816
  265MPD2    C2 4008   3.444   3.693  15.436  0.1795 -0.0060  0.1589
  265MPD2    C3 4009   3.555   3.645  15.371 -0.1950  0.3220 -0.5509
  265MPD2    C4 4010   3.675   3.676  15.422 -0.7096 -0.4157 -0.0613
  265MPD2    C5 4011   3.683   3.740  15.539  0.3009 -0.3936 -0.1700
  265MPD2     H 4012   3.344   3.669  15.399  0.3710 -0.3424 -0.1381
  265MPD2    H1 4013   3.768   3.648  15.372 -0.3763 -1.2547  1.0182
  265MPD2    H2 4014   3.605   3.837  15.694 -1.9792 -0.9555  1.7175
  265MPD2    H3 4015   3.776   3.743  15.593 -0.4873 -3.0060  1.3407
  265MPD2     N 4016   3.541   3.564  15.252 -0.5090 -0.3076  0.2631
  265MPD2    H5 4017   3.450   3.552  15.210  0.4279 -0.5661 -1.6924
  265MPD2    N1 4018   3.330   3.821  15.613  0.6823  0.0434  0.1499
  265MPD2    H7 4019   3.242   3.827  15.562  2.4549  0.0020 -2.9138
  266TMC3    C1 4020   3.189   3.941  15.762 -0.4127  0.5941 -0.0440
  266TMC3    C2 4021   3.160   3.949  15.895  0.0851 -0.2903  0.0228
  266TMC3    C3 4022   3.090   4.060  15.925 -0.0913 -0.2957 -0.3805
  266TMC3    C4 4023   3.150   4.031  15.669  0.4869 -0.9283  0.8153
  266TMC3    C5 4024   3.083   4.142  15.713  0.2057  0.1073 -0.3000
  266TMC3    C6 4025   3.054   4.159  15.840 -0.3396 -0.5775 -0.1293
  266TMC3     C 4026   3.322   3.880  15.735  0.2904  0.1345 -0.1097
  266TMC3     O 4027   3.410   3.898  15.819 -0.9408  0.3252  0.2304
  266TMC3     H 4028   3.206   3.891  15.974  0.2654  0.5071  0.5145
  266TMC3    H1 4029   3.192   4.038  15.569  1.1211  1.3401  1.2370
  266TMC3    H2 4030   3.006   4.251  15.871 -0.6949 -0.5724 -0.7060
  266TMC3    C7 4031   3.093   4.255  15.617  0.7995 -0.6506  0.1811
  266TMC3    C8 4032   3.063   4.077  16.061  0.0439  0.8620  0.4157
  266TMC3    O1 4033   3.134   4.231  15.502  0.5707  0.1399 -0.0788
  266TMC3    O2 4034   3.063   3.979  16.127 -1.0190  0.1085 -0.2350
  267MPD2     C 4035   0.811   0.184   0.110 -0.3563  0.1624 -0.5251
  267MPD2    C1 4036   0.881   0.258   0.019  0.0118  0.5886  0.2051
  267MPD2    C2 4037   0.844   0.269  17.584 -0.2932 -0.3220 -0.5226
  267MPD2    C3 4038   0.740   0.192  17.531  0.5478  0.8016 -0.2391
  267MPD2    C4 4039   0.671   0.115  17.626  0.1223  0.1692  0.3033
  267MPD2    C5 4040   0.702   0.114   0.058 -0.0857  0.2270 -0.4067
  267MPD2     H 4041   0.900   0.324  17.509  0.1491  1.4048  1.0755
  267MPD2    H1 4042   0.586   0.059  17.588  0.8747  0.1321 -1.3022
  267MPD2    H2 4043   0.836   0.176   0.215 -3.1945  0.8733  0.2139
  267MPD2    H3 4044   0.642   0.051   0.123  0.7993 -0.4159 -0.2190
  267MPD2     N 4045   0.690   0.183  17.397 -0.2054  0.9917 -0.5835
  267MPD2    H5 4046   0.623   0.109  17.377 -0.5123  1.2937 -0.6924
  267MPD2    N1 4047   0.985   0.324   0.086 -0.0663 -0.3408 -0.5742
  267MPD2    H7 4048   0.986   0.313   0.186  0.6690 -1.4116 -0.7092
  268TMC3    C1 4049   1.140   0.489   0.134  0.4484  0.5459  0.1399
  268TMC3    C2 4050   1.186   0.618   0.096  0.1154 -0.5103 -1.1708
  268TMC3    C3 4051   1.243   0.703   0.188 -0.2791  0.3230 -1.1545
  268TMC3    C4 4052   1.182   0.437   0.251 -0.1173 -0.1951 -0.0177
  268TMC3    C5 4053   1.253   0.522   0.336  0.5706  0.0111 -0.0322
  268TMC3    C6 4054   1.269   0.659   0.308 -0.0915  0.2440 -0.4562
  268TMC3     C 4055   1.071   0.414   0.028  0.3068  0.8357  0.1677
  268TMC3     O 4056   1.059   0.466  17.619  0.5051 -0.1140  0.6449
  268TMC3     H 4057   1.153   0.650  17.701  1.9607  3.1299 -0.6320
  268TMC3    H1 4058   1.169   0.331   0.268 -4.0908 -0.1337 -2.7553
  268TMC3    H2 4059   1.296   0.731   0.385 -0.5299  0.5948 -0.6304
  268TMC3    C7 4060   1.296   0.469   0.459  0.4699 -0.1408 -0.6697
  268TMC3    C8 4061   1.211   0.842   0.172 -0.0560 -0.7536  0.0120
  268TMC3    O1 4062   1.234   0.369   0.500  0.2456  0.2448  0.1488
  268TMC3    O2 4063   1.181   0.915   0.266  0.2638 -0.1286  0.1023
  269MPD2     C 4064   1.414   4.188  15.609  0.5351 -0.5028  0.5033
  269MPD2    C1 4065   1.277   4.192  15.639 -0.7812 -0.2151  0.8719
  269MPD2    C2 4066   1.210   4.317  15.630  0.4615  0.1555  0.1774
  269MPD2    C3 4067   1.278   4.436  15.601  0.4892  0.2362 -0.8597
  269MPD2    C4 4068   1.408   4.427  15.570 -0.3225  0.3279  0.3692
  269MPD2    C5 4069   1.468   4.311  15.580 -0.8032 -0.0061  0.3584
  269MPD2     H 4070   1.103   4.319  15.643  0.6509  0.0535  1.8540
  269MPD2    H1 4071   1.469   4.514  15.547  0.1841 -0.0788  0.1730
  269MPD2    H2 4072   1.480   4.103  15.625  2.1825  0.7044  0.1028
  269MPD2    H3 4073   1.576   4.311  15.574 -0.8221 -1.0387  0.1667
  269MPD2     N 4074   1.205   4.559  15.593 -0.7506  0.3608 -0.4280
  269MPD2    H5 4075   1.107   4.565  15.615 -0.3281 -0.1334  1.5360
  269MPD2    N1 4076   1.206   4.069  15.666 -0.1094 -0.9446  0.4439
  269MPD2    H7 4077   1.254   3.979  15.662  1.0156 -0.2731 -1.1641
  270TMC3    C1 4078   1.011   3.924  15.701 -0.1372  0.3705 -0.3190
  270TMC3    C2 4079   0.874   3.914  15.704 -0.1243  0.3022  0.4488
  270TMC3    C3 4080   0.818   3.796  15.685 -0.2450 -0.4126 -0.0692
  270TMC3    C4 4081   1.085   3.816  15.674  0.1304 -0.1354 -0.6611
  270TMC3    C5 4082   1.021   3.695  15.671  0.2396 -0.2435 -0.0962
  270TMC3    C6 4083   0.887   3.679  15.683 -0.1555 -0.1134  0.7573
  270TMC3     C 4084   1.066   4.061  15.687 -0.2983  0.6858  0.1781
  270TMC3     O 4085   0.982   4.154  15.681  0.1645 -0.4916 -0.2592
  270TMC3     H 4086   0.802   3.995  15.706 -0.7856 -0.2790  0.1330
  270TMC3    H1 4087   1.185   3.817  15.632  0.5268 -2.1000  0.2297
  270TMC3    H2 4088   0.845   3.581  15.666  0.7941 -0.2502 -0.8706
  270TMC3    C7 4089   1.099   3.578  15.702 -0.0535 -0.2095 -0.0377
  270TMC3    C8 4090   0.684   3.789  15.634 -0.1036 -0.5266  0.6437
  270TMC3    O1 4091   1.216   3.587  15.664 -0.0329 -0.8566  0.0946
  270TMC3    O2 4092   0.591   3.860  15.668  0.4930  0.6061 -0.1297
  271MPD2     C 4093   4.634   3.713  14.034 -0.4428 -0.9034 -0.1369
  271MPD2    C1 4094   4.587   3.732  14.160 -0.9271  0.3356 -0.2324
  271MPD2    C2 4095   4.457   3.779  14.173 -0.2743  0.1914  0.0038
  271MPD2    C3 4096   4.377   3.817  14.067 -0.4297  0.7334  0.3367
  271MPD2    C4 4097   4.430   3.787  13.943 -0.0244 -0.2748  0.1406
  271MPD2    C5 4098   4.553   3.736  13.923  1.0472  0.5032  0.4709
  271MPD2     H 4099   4.423   3.783  14.276  0.0858  0.0552  0.1260
  271MPD2    H1 4100   4.377   3.805  13.850  1.1315 -0.6319 -0.5876
  271MPD2    H2 4101   0.006   3.673  14.007  0.4056  0.0188  1.5516
  271MPD2    H3 4102   4.588   3.719  13.822  3.2654  0.4932  1.2401
  271MPD2     N 4103   4.249   3.875  14.088  0.8714 -0.6806  0.0474
  271MPD2    H5 4104   4.188   3.884  14.007  1.1632  1.7084  0.1084
  271MPD2    N1 4105   4.660   3.702  14.282  0.1894  0.2346 -0.2397
  271MPD2    H7 4106   4.606   3.726  14.364  0.2734 -3.2862  0.8226
  272TMC3    C1 4107   0.091   3.580  14.421 -0.2183 -0.2112 -0.7699
  272TMC3    C2 4108   0.201   3.507  14.412  0.0711  1.0374 -0.2154
  272TMC3    C3 4109   0.256   3.471  14.533  0.4139  0.2129 -0.8679
  272TMC3    C4 4110   0.036   3.629  14.534  0.0787  0.1220  0.0292
  272TMC3    C5 4111   0.088   3.592  14.646 -0.2252 -0.4536 -0.5519
  272TMC3    C6 4112   0.199   3.510  14.654 -0.5063  0.1219  0.6367
  272TMC3     C 4113   0.057   3.642  14.291  0.6117  0.0833 -0.1882
  272TMC3     O 4114   0.127   3.610  14.200  0.5851  0.5081 -0.3159
  272TMC3     H 4115   0.236   3.466  14.318 -0.2251 -1.8434  0.9260
  272TMC3    H1 4116   4.671   3.688  14.545 -0.0946  0.1580 -1.5637
  272TMC3    H2 4117   0.245   3.491  14.750  0.8374 -1.5086 -0.3286
  272TMC3    C7 4118   0.042   3.657  14.768  0.2685  0.2026  0.0805
  272TMC3    C8 4119   0.401   3.454  14.531  0.4643 -0.2245  0.6556
  272TMC3    O1 4120   4.651   3.691  14.774 -0.3629 -0.7175  0.2350
  272TMC3    O2 4121   0.445   3.501  14.431 -0.0912 -0.1631  0.5015
  273MPD2     C 4122   1.904   1.711  11.945 -0.5210 -0.3643 -0.3438
  273MPD2    C1 4123   2.023   1.756  11.900  0.1423  0.8305 -0.0969
  273MPD2    C2 4124   2.076   1.703  11.786  0.5144  0.4655  0.8846
  273MPD2    C3 4125   2.001   1.612  11.708 -0.7172 -0.2522 -0.5613
  273MPD2    C4 4126   1.879   1.574  11.759  0.5550  0.3685 -0.2346
  273MPD2    C5 4127   1.830   1.619  11.876 -0.2898 -0.7869  0.7586
  273MPD2     H 4128   2.180   1.721  11.762  0.3819 -1.3146 -1.0500
  273MPD2    H1 4129   1.818   1.500  11.708 -1.6898  0.6240  2.0768
  273MPD2    H2 4130   1.862   1.752  12.035 -1.1830 -1.1687 -0.2912
  273MPD2    H3 4131   1.730   1.589  11.904 -0.6272  3.1020  3.6797
  273MPD2     N 4132   2.045   1.553  11.583  0.1826 -0.0056  0.6045
  273MPD2    H5 4133   1.977   1.508  11.522  0.1608 -1.8987  2.0230
  273MPD2    N1 4134   2.088   1.866  11.956  0.3362  0.4399 -0.0172
  273MPD2    H7 4135   2.055   1.891  12.049  0.1119 -1.6632  0.4705
  274TMC3    C1 4136   2.173   1.561  11.390 -0.0379  0.4740  0.2553
  274TMC3    C2 4137   2.052   1.518  11.329 -0.1343  0.5478 -0.5962
  274TMC3    C3 4138   2.013   1.577  11.209 -0.1473  0.9637  0.9709
  274TMC3    C4 4139   2.247   1.657  11.329 -0.3954  0.3098 -0.7021
  274TMC3    C5 4140   2.197   1.715  11.217 -0.0734  0.5897 -0.7327
  274TMC3    C6 4141   2.092   1.673  11.147 -0.0140  0.1231  0.8386
  274TMC3     C 4142   2.172   1.570  11.538  0.4412 -0.4963 -0.1272
  274TMC3     O 4143   2.269   1.618  11.595 -0.2127  0.8761 -0.1486
  274TMC3     H 4144   1.989   1.440  11.371  0.4840  0.8973  0.9881
  274TMC3    H1 4145   2.334   1.696  11.381  0.0983  0.0430 -1.3185
  274TMC3    H2 4146   2.050   1.755  11.090  0.5173 -0.3979 -0.2898
  274TMC3    C7 4147   2.246   1.839  11.177 -0.3258  0.5468  0.5123
  274TMC3    C8 4148   1.892   1.543  11.150 -0.7609 -0.0356 -0.0809
  274TMC3    O1 4149   2.260   1.863  11.056  0.0507 -0.6011  0.5194
  274TMC3    O2 4150   1.814   1.480  11.218 -0.0591 -0.1529 -0.2894
  275MPD2     C 4151   1.316   0.195  14.501  0.0052  1.4682 -0.2709
  275MPD2    C1 4152   1.230   0.253  14.592 -0.7554  0.0668 -0.0032
  275MPD2    C2 4153   1.111   0.185  14.615 -0.6074 -0.2723  0.1138
  275MPD2    C3 4154   1.068   0.084  14.536  0.3081  0.2356  0.1201
  275MPD2    C4 4155   1.141   0.042  14.431  0.2366  0.1312  0.4787
  275MPD2    C5 4156   1.268   0.099  14.422 -0.1862  0.2307  0.4797
  275MPD2     H 4157   1.062   0.239  14.696  1.6083  2.4143 -0.3000
  275MPD2    H1 4158   1.130   4.675  14.376 -0.9343  0.1105  0.7488
  275MPD2    H2 4159   1.418   0.230  14.486 -0.7286  3.9037  0.3724
  275MPD2    H3 4160   1.329   0.053  14.345 -0.9093  0.7336 -0.3834
  275MPD2     N 4161   0.938   0.029  14.555  0.4046  0.5437 -0.0575
  275MPD2    H5 4162   0.913   4.683  14.487 -1.2814  0.2381  0.8897
  275MPD2    N1 4163   1.274   0.350  14.684 -0.0355 -0.5090 -0.1711
  275MPD2    H7 4164   1.216   0.361  14.766  0.2249 -2.6366  0.2981
  276TMC3    C1 4165   1.362   0.541  14.776  0.1842 -0.1011  0.8622
  276TMC3    C2 4166   1.266   0.522  14.867  0.3632  0.4247 -0.3762
  276TMC3    C3 4167   1.304   0.484  14.993  0.9919  0.6520  0.0306
  276TMC3    C4 4168   1.490   0.587  14.822 -0.8171 -0.4693  0.1071
  276TMC3    C5 4169   1.512   0.590  14.955  0.4908  0.5767  0.3118
  276TMC3    C6 4170   1.423   0.529  15.041 -0.3400 -0.3577  0.6199
  276TMC3     C 4171   1.365   0.444  14.671  0.5155 -0.5163  0.1785
  276TMC3     O 4172   1.437   0.459  14.572  0.0545 -0.1394  0.0089
  276TMC3     H 4173   1.164   0.500  14.839  0.8222 -0.9438 -0.9428
  276TMC3    H1 4174   1.567   0.607  14.749 -0.5354  1.1924  0.8578
  276TMC3    H2 4175   1.447   0.511  15.145  2.2285  0.2690  0.1172
  276TMC3    C7 4176   1.631   0.663  14.999  0.1949  0.5489  0.2464
  276TMC3    C8 4177   1.225   0.374  15.052 -0.2283 -0.5866 -0.2221
  276TMC3    O1 4178   1.675   0.629  15.108 -0.5512  0.4093 -0.7811
  276TMC3    O2 4179   1.126   0.343  14.986 -0.3048  1.2211 -0.7789
  277MPD2     C 4180   3.511   3.612  13.286 -0.4463  0.0415 -0.4686
  277MPD2    C1 4181   3.379   3.597  13.320 -0.1328 -1.0374  0.7163
  277MPD2    C2 4182   3.346   3.546  13.448 -0.0886 -0.7100 -0.0298
  277MPD2    C3 4183   3.444   3.509  13.541 -0.5653 -0.1670 -0.6670
  277MPD2    C4 4184   3.580   3.530  13.503 -0.5832  0.0911 -0.7294
  277MPD2    C5 4185   3.605   3.571  13.374 -0.7410 -1.2635 -0.1841
  277MPD2     H 4186   3.242   3.541  13.476 -0.8869 -1.0825 -3.0359
  277MPD2    H1 4187   3.667   3.521  13.567 -1.8468 -2.0188  0.7155
  277MPD2    H2 4188   3.544   3.639  13.186 -0.0495 -0.9488 -0.6082
  277MPD2    H3 4189   3.712   3.575  13.357 -1.0675  3.1044 -1.1535
  277MPD2     N 4190   3.401   3.466  13.668  0.3330 -0.2476  0.4146
  277MPD2    H5 4191   3.303   3.438  13.667 -0.6543  3.1292  5.6247
  277MPD2    N1 4192   3.286   3.654  13.225  0.8431 -0.1715  0.3595
  277MPD2    H7 4193   3.324   3.688  13.137 -1.5786 -0.6781 -0.8788
  278TMC3    C1 4194   3.393   3.369  13.885 -0.2566  0.6231  0.1415
  278TMC3    C2 4195   3.446   3.258  13.944  0.0127  0.3088  0.1625
  278TMC3    C3 4196   3.385   3.212  14.061  0.5460 -0.8242 -0.7508
  278TMC3    C4 4197   3.274   3.430  13.918  0.2450 -0.1919 -0.0378
  278TMC3    C5 4198   3.224   3.379  14.030  0.7927  0.3895  0.7811
  278TMC3    C6 4199   3.274   3.274  14.102  0.0999 -0.8485 -0.1692
  278TMC3     C 4200   3.471   3.427  13.778 -0.7677  0.0218  0.5974
  278TMC3     O 4201   3.591   3.430  13.800 -0.4203  0.3324 -0.4177
  278TMC3     H 4202   3.538   3.223  13.899  0.1032 -1.7939  1.9481
  278TMC3    H1 4203   3.253   3.529  13.879 -4.3089 -0.5852  1.3417
  278TMC3    H2 4204   3.229   3.243  14.196 -1.3510 -1.3302 -1.0102
  278TMC3    C7 4205   3.142   3.469  14.101  0.3238  0.5686  0.6645
  278TMC3    C8 4206   3.389   3.071  14.097  0.1501 -0.0833  0.2114
  278TMC3    O1 4207   3.160   3.469  14.222  0.1513  0.0384 -0.3914
  278TMC3    O2 4208   3.469   3.029  14.181  0.3256  0.1037  0.2431
  279MPD2     C 4209   2.620   3.445   0.426  0.3087  0.7465 -0.7367
  279MPD2    C1 4210   2.552   3.542   0.497 -0.0582  0.2290 -0.0613
  279MPD2    C2 4211   2.564   3.670   0.450  0.2655 -0.1743  0.2946
  279MPD2    C3 4212   2.629   3.704   0.333  0.4298  0.3625  0.0298
  279MPD2    C4 4213   2.681   3.599   0.254  0.4586  0.6523 -0.2951
  279MPD2    C5 4214   2.671   3.476   0.303 -0.2869  0.3403  0.1836
  279MPD2     H 4215   2.493   3.739   0.494  0.1651 -0.6873  0.9361
  279MPD2    H1 4216   2.745   3.620   0.170  1.8719 -0.2166  0.5671
  279MPD2    H2 4217   2.622   3.342   0.457  1.1483  0.5072 -1.5817
  279MPD2    H3 4218   2.712   3.389   0.252 -0.8709  0.9546 -1.3289
  279MPD2     N 4219   2.642   3.844   0.293 -0.6699  0.2864 -0.6001
  279MPD2    H5 4220   2.693   3.862   0.207 -0.7112 -0.6073 -0.8088
  279MPD2    N1 4221   2.466   3.515   0.604 -0.9712 -0.3594  0.1305
  279MPD2    H7 4222   2.457   3.417   0.630 -3.3993 -0.5689 -1.4434
  280TMC3    C1 4223   2.279   3.572   0.750 -0.0883  0.0937  0.1989
  280TMC3    C2 4224   2.209   3.495   0.660 -0.2533 -0.2286  0.1490
  280TMC3    C3 4225   2.078   3.532   0.644 -0.1443 -0.0458 -0.4511
  280TMC3    C4 4226   2.224   3.670   0.823 -0.3605  0.1313 -0.1725
  280TMC3    C5 4227   2.097   3.698   0.802 -0.2535 -0.0680 -0.5367
  280TMC3    C6 4228   2.019   3.631   0.712 -0.5168  0.0630  0.0957
  280TMC3     C 4229   2.401   3.609   0.683  0.3845  0.2247 -0.3935
  280TMC3     O 4230   2.438   3.721   0.711  0.3235  0.0648 -0.6422
  280TMC3     H 4231   2.252   3.417   0.599 -2.4406 -0.1414 -1.4871
  280TMC3    H1 4232   2.285   3.730   0.890  2.0913  1.8867 -3.9171
  280TMC3    H2 4233   1.912   3.641   0.706 -0.3711 -0.0927 -2.7522
  280TMC3    C7 4234   2.038   3.817   0.858 -0.2183  0.1622 -0.0197
  280TMC3    C8 4235   1.988   3.451   0.569 -0.0039 -0.1728  0.1229
  280TMC3    O1 4236   2.073   3.853   0.968 -0.1131 -0.1408 -0.3073
  280TMC3    O2 4237   1.872   3.432   0.604  0.2879 -0.0547  0.1841
  281TMC3    C1 4238   0.966   4.244  13.577 -0.0938  0.8452 -0.0909
  281TMC3    C2 4239   0.888   4.303  13.476  0.1373 -0.0165  0.0255
  281TMC3    C3 4240   0.762   4.245  13.444 -0.0631 -0.2778 -0.1257
  281TMC3    C4 4241   0.919   4.130  13.641  0.2287  0.0553 -0.1379
  281TMC3    C5 4242   0.793   4.083  13.609 -0.2875  0.2146  0.1086
  281TMC3    C6 4243   0.713   4.142  13.518 -0.1337  0.6366 -0.0106
  281TMC3     C 4244   1.082   4.316  13.628  0.3560 -0.0784 -0.5561
  281TMC3     O 4245   1.106   4.281  13.743 -0.0050 -0.1213  0.4687
  281TMC3     H 4246   0.926   4.381  13.411  2.0571 -0.6349  0.3890
  281TMC3    H1 4247   0.968   4.093  13.730 -0.2645  1.6978  0.8173
  281TMC3    H2 4248   0.620   4.092  13.493 -0.3888  0.6393  0.9641
  281TMC3    C7 4249   0.744   3.980  13.694  0.0606 -0.4553 -0.2303
  281TMC3    C8 4250   0.682   4.301  13.346 -0.7026  1.0973 -0.7491
  281TMC3    O1 4251   0.623   3.978  13.704  0.3283 -0.3882  0.1452
  281TMC3    O2 4252   0.620   4.221  13.276 -0.4588 -0.0716  0.3960
  282MPD2     C 4253   3.084   0.644  14.946 -0.3601 -1.0068  0.1771
  282MPD2    C1 4254   2.950   0.688  14.958 -0.0267 -0.2618  1.0307
  282MPD2    C2 4255   2.865   0.656  14.854 -0.5047 -0.2530  0.1748
  282MPD2    C3 4256   2.901   0.566  14.756  0.2919  0.2399 -0.0469
  282MPD2    C4 4257   3.024   0.510  14.755 -0.1295 -0.8971  0.4099
  282MPD2    C5 4258   3.118   0.557  14.843 -0.5402 -0.1513  0.3053
  282MPD2     H 4259   2.769   0.706  14.847 -0.2583  0.2152  0.1500
  282MPD2    H1 4260   3.057   0.427  14.694  0.5895 -2.1366  2.4614
  282MPD2    H2 4261   3.153   0.659  15.028 -1.7615 -0.6361  1.3057
  282MPD2    H3 4262   3.216   0.511  14.838  0.2002  1.3377  0.8615
  282MPD2     N 4263   2.808   0.545  14.661  0.1525  0.0966 -0.2648
  282MPD2    H5 4264   2.732   0.612  14.659  0.4463  0.3974 -1.5559
  282MPD2    N1 4265   2.897   0.754  15.068 -0.1848 -0.0763 -0.0450
  282MPD2    H7 4266   2.796   0.765  15.075 -0.0900 -0.2621  1.6222
  283TMC3    C1 4267   2.877   0.871  15.264 -0.6259 -0.9675 -0.1869
  283TMC3    C2 4268   2.894   1.003  15.306 -0.0605  0.0538  0.0307
  283TMC3    C3 4269   2.799   1.053  15.398  0.1458  0.7268 -0.6042
  283TMC3    C4 4270   2.773   0.796  15.307 -0.1360 -0.4240 -0.5056
  283TMC3    C5 4271   2.686   0.839  15.400 -1.1209 -0.5635 -0.6788
  283TMC3    C6 4272   2.696   0.967  15.445  0.1753  0.4864  0.4414
  283TMC3     C 4273   2.970   0.802  15.173  0.9666 -0.0012 -0.0433
  283TMC3     O 4274   3.089   0.823  15.183 -0.3105 -0.6132 -0.1641
  283TMC3     H 4275   2.960   1.076  15.261  0.9579 -0.0753  1.3148
  283TMC3    H1 4276   2.755   0.698  15.264 -2.8179 -0.2313  0.2164
  283TMC3    H2 4277   2.623   0.997  15.519 -2.4296 -0.5764 -1.7269
  283TMC3    C7 4278   2.635   0.746  15.509  0.0467  0.9852  0.6184
  283TMC3    C8 4279   2.831   1.178  15.461 -0.2663 -0.2343 -0.1625
  283TMC3    O1 4280   2.613   0.790  15.620 -0.1179  0.0853 -0.7165
  283TMC3    O2 4281   2.911   1.245  15.396  0.0226  0.2904 -0.0087
  284MPD2     C 4282   1.439   3.947  12.396 -0.4097 -0.3922 -0.3173
  284MPD2    C1 4283   1.531   3.912  12.291  0.2439  0.3336 -0.0293
  284MPD2    C2 4284   1.628   3.818  12.318 -0.2340  0.1377 -0.6516
  284MPD2    C3 4285   1.626   3.759  12.447  0.0609  0.0928 -0.1798
  284MPD2    C4 4286   1.528   3.788  12.542 -0.1739  0.0539  0.5181
  284MPD2    C5 4287   1.429   3.872  12.511  0.0114  0.2883 -0.2832
  284MPD2     H 4288   1.700   3.795  12.240  1.5744  0.5692  0.9121
  284MPD2    H1 4289   1.526   3.737  12.638 -0.2843 -1.4593 -0.2849
  284MPD2    H2 4290   1.358   4.015  12.373 -0.6166 -1.0642 -1.5414
  284MPD2    H3 4291   1.358   3.890  12.591  1.4804 -0.3343  1.1553
  284MPD2     N 4292   1.725   3.670  12.491 -0.4986  0.2140 -0.1784
  284MPD2    H5 4293   1.706   3.615  12.574  1.8294 -2.3587 -1.3589
  284MPD2    N1 4294   1.528   3.973  12.161  0.1209 -0.8529 -0.3400
  284MPD2    H7 4295   1.610   3.954  12.104  1.7422  0.1661  1.6546
  285TMC3    C1 4296   1.501   4.132  12.003 -0.1496 -0.7149  0.4715
  285TMC3    C2 4297   1.531   4.059  11.888 -0.5474 -0.2073  0.7165
  285TMC3    C3 4298   1.601   4.126  11.795  0.1499 -0.0433 -0.8874
  285TMC3    C4 4299   1.521   4.266  12.015 -0.9890  0.2561  0.2773
  285TMC3    C5 4300   1.576   4.317  11.906  0.5132  0.0113  0.6958
  285TMC3    C6 4301   1.627   4.256  11.795 -0.2141 -0.3167 -0.1404
  285TMC3     C 4302   1.441   4.062  12.115 -0.2182 -0.0948  0.0004
  285TMC3     O 4303   1.339   4.119  12.157 -0.3166 -0.1819 -0.0598
  285TMC3     H 4304   1.512   3.953  11.880 -1.7579  0.1425 -1.0130
  285TMC3    H1 4305   1.488   4.321  12.102  0.5553 -1.4899  1.9619
  285TMC3    H2 4306   1.683   4.314  11.723  1.1317 -0.4916  0.7491
  285TMC3    C7 4307   1.606   4.459  11.917 -0.1056 -0.6276  0.4541
  285TMC3    C8 4308   1.646   4.049  11.686 -0.5391 -0.2591 -0.3373
  285TMC3    O1 4309   1.620   4.518  11.810 -0.0873  0.4004  0.3895
  285TMC3    O2 4310   1.570   3.962  11.647  0.2708  0.0799  0.5768
  286MPD2     C 4311   1.152   3.883   1.561  0.9792  0.6833 -0.0552
  286MPD2    C1 4312   1.101   3.826   1.441 -0.1182 -0.1165 -0.0147
  286MPD2    C2 4313   1.181   3.737   1.372 -0.5682  0.2931 -1.0843
  286MPD2    C3 4314   1.303   3.700   1.430 -0.0658 -0.6061 -0.6223
  286MPD2    C4 4315   1.348   3.753   1.549  1.1055 -0.5787 -0.5287
  286MPD2    C5 4316   1.277   3.853   1.608  0.3030  0.0557 -0.0614
  286MPD2     H 4317   1.141   3.686   1.284 -1.4499  0.2322 -0.6458
  286MPD2    H1 4318   1.445   3.724   1.587  0.6770 -1.1198  0.1378
  286MPD2    H2 4319   1.092   3.950   1.620  0.3522 -1.5336  1.8096
  286MPD2    H3 4320   1.316   3.902   1.697  1.4184 -0.5366 -0.2270
  286MPD2     N 4321   1.382   3.597   1.379 -0.0839  0.4018  0.0365
  286MPD2    H5 4322   1.446   3.553   1.444  2.3313  0.7212 -2.1451
  286MPD2    N1 4323   0.971   3.862   1.387  0.5024 -0.0046 -0.1830
  286MPD2    H7 4324   0.942   3.841   1.292  0.3409  1.1903 -0.3952
  287TMC3    C1 4325   1.465   3.426   1.235  0.0257 -0.4166 -0.3922
  287TMC3    C2 4326   1.452   3.361   1.119 -0.0027  0.4248  0.4494
  287TMC3    C3 4327   1.535   3.257   1.097 -0.4498 -1.0516  0.0110
  287TMC3    C4 4328   1.546   3.373   1.338  0.3450  0.1285  0.1782
  287TMC3    C5 4329   1.625   3.261   1.306 -0.2985  0.1786  0.0598
  287TMC3    C6 4330   1.618   3.202   1.188 -0.1264 -0.2318  0.8720
  287TMC3     C 4331   1.380   3.544   1.250  0.2080  0.0937  0.4357
  287TMC3     O 4332   1.297   3.574   1.163 -0.1026  0.4670 -0.5856
  287TMC3     H 4333   1.404   3.403   1.032  0.5250  0.6084  0.2430
  287TMC3    H1 4334   1.541   3.419   1.436 -0.2033  0.4915 -0.0218
  287TMC3    H2 4335   1.668   3.107   1.173 -0.0203  0.0267 -0.4169
  287TMC3    C7 4336   1.713   3.216   1.413  0.7386 -0.4314  0.2268
  287TMC3    C8 4337   1.515   3.183   0.978 -0.1100 -0.7787  0.2321
  287TMC3    O1 4338   1.696   3.272   1.521 -0.8045 -0.4832 -0.0565
  287TMC3    O2 4339   1.414   3.203   0.913 -0.2542 -0.0723 -0.0640
  288TMC3    C1 4340   3.739   3.118  14.595  0.3821 -0.2823 -0.6880
  288TMC3    C2 4341   3.633   3.104  14.677  1.0721  0.2227 -0.0433
  288TMC3    C3 4342   3.519   3.173  14.638 -0.3150 -0.1270 -0.0054
  288TMC3    C4 4343   3.727   3.172  14.471 -0.2397  0.1492 -1.1382
  288TMC3    C5 4344   3.611   3.236  14.441  1.1965 -0.0151  0.0235
  288TMC3    C6 4345   3.504   3.242  14.526  0.1393  0.1695 -0.3916
  288TMC3     C 4346   3.872   3.075  14.644  0.9175 -0.4936 -0.7890
  288TMC3     O 4347   3.872   3.007  14.751 -0.5161  0.1532 -0.1887
  288TMC3     H 4348   3.631   3.038  14.763  1.6104  1.6841  1.0818
  288TMC3    H1 4349   3.799   3.148  14.394 -0.6016 -1.1908 -1.0552
  288TMC3    H2 4350   3.413   3.302  14.526 -1.2659 -1.9653  0.6970
  288TMC3    C7 4351   3.619   3.327  14.334  0.2529  0.2541 -0.1275
  288TMC3    C8 4352   3.425   3.198  14.743  0.4196 -0.5119  0.2476
  288TMC3    O1 4353   3.687   3.294  14.236 -0.0120  0.6301 -0.3334
  288TMC3    O2 4354   3.372   3.308  14.749 -0.4000  0.1068 -0.1650
  289MPD2     C 4355   3.985   2.901  14.279 -0.6546  0.3783 -0.0536
  289MPD2    C1 4356   3.945   2.819  14.377  0.7673  0.2305 -0.1898
  289MPD2    C2 4357   3.813   2.789  14.402 -0.5532 -0.2354  0.6612
  289MPD2    C3 4358   3.720   2.843  14.313 -0.1259  0.3680 -0.3575
  289MPD2    C4 4359   3.768   2.932  14.209 -0.4144  0.0855 -0.5846
  289MPD2    C5 4360   3.901   2.943  14.188 -0.0130  0.1729  0.4003
  289MPD2     H 4361   3.783   2.716  14.476  2.1293 -0.9704  1.0381
  289MPD2    H1 4362   3.692   2.974  14.144  0.5955  0.2701 -1.6564
  289MPD2    H2 4363   4.091   2.915  14.263 -0.6177  1.2766  0.9522
  289MPD2    H3 4364   3.945   3.004  14.110  0.4252 -0.5048  0.1182
  289MPD2     N 4365   3.584   2.835  14.334  0.3042  0.0622 -0.1311
  289MPD2    H5 4366   3.532   2.905  14.282 -0.8644 -0.0303  0.9088
  289MPD2    N1 4367   4.055   2.774  14.459 -0.4698  0.8767  0.1400
  289MPD2    H7 4368   4.145   2.812  14.430 -0.5630  0.0496 -1.2603
  290TMC3    C1 4369   3.381   2.758  14.407 -0.7381 -0.8308 -0.1928
  290TMC3    C2 4370   3.321   2.879  14.412  0.1946 -0.3180 -1.0485
  290TMC3    C3 4371   3.182   2.888  14.402  0.5004 -0.1333 -0.4829
  290TMC3    C4 4372   3.289   2.649  14.396  0.4303 -0.2910 -0.1234
  290TMC3    C5 4373   3.155   2.663  14.407 -0.0530  0.4277  0.3154
  290TMC3    C6 4374   3.091   2.785  14.407 -0.1182 -0.0740 -0.0406
  290TMC3     C 4375   3.517   2.739  14.403 -0.3378 -0.2029  0.7860
  290TMC3     O 4376   3.553   2.625  14.423 -0.2271  0.5655  0.2933
  290TMC3     H 4377   3.375   2.973  14.417  2.0534 -1.4222 -0.5062
  290TMC3    H1 4378   3.332   2.551  14.375  0.6001 -0.1097 -0.6053
  290TMC3    H2 4379   2.984   2.797  14.411 -0.1562  0.0166 -1.4428
  290TMC3    C7 4380   3.073   2.580  14.328  0.0408 -0.1150  0.0308
  290TMC3    C8 4381   3.122   3.018  14.413  0.3339  0.1518 -0.3960
  290TMC3    O1 4382   3.000   2.634  14.247 -0.2725 -0.0963  0.1830
  290TMC3    O2 4383   3.173   3.116  14.463 -0.3805 -0.4203 -0.7218
  291MPD2     C 4384   2.357   2.867  17.658  0.4981  0.2400  0.4376
  291MPD2    C1 4385   2.440   2.804   0.044 -0.2807  0.0568 -0.2021
  291MPD2    C2 4386   2.551   2.872   0.093 -0.4592  0.2633  0.4420
  291MPD2    C3 4387   2.592   2.992   0.039  0.1304 -0.3248  0.2915
  291MPD2    C4 4388   2.523   3.039  17.633 -0.2957  0.5880 -0.1309
  291MPD2    C5 4389   2.398   2.983  17.601 -0.2164  0.4518  1.0912
  291MPD2     H 4390   2.606   2.837   0.180 -1.6410 -0.6032  0.8422
  291MPD2    H1 4391   2.559   3.133  17.592  0.0966  0.9593  1.0881
  291MPD2    H2 4392   2.267   2.830  17.611  0.4365  1.2669 -0.2611
  291MPD2    H3 4393   2.336   3.043  17.535 -0.4686  1.2129  2.0148
  291MPD2     N 4394   2.706   3.062   0.089 -0.2423  0.4617  0.1962
  291MPD2    H5 4395   2.754   3.129   0.030  0.1258  1.4326  1.5988
  291MPD2    N1 4396   2.406   2.679   0.108  0.2969 -0.4163  0.3507
  291MPD2    H7 4397   2.465   2.644   0.182 -0.3133  0.4870  1.2657
  292TMC3    C1 4398   2.269   2.490   0.156  0.1980  0.2568  0.3090
  292TMC3    C2 4399   2.274   2.500   0.291  0.3946  0.0456 -0.1317
  292TMC3    C3 4400   2.228   2.396   0.366 -0.2092 -0.1443 -0.3408
  292TMC3    C4 4401   2.225   2.376   0.090  0.3597 -0.5261  0.2567
  292TMC3    C5 4402   2.182   2.269   0.175  0.2485  1.0220 -0.0463
  292TMC3    C6 4403   2.191   2.271   0.312 -0.1209 -0.5106  0.4088
  292TMC3     C 4404   2.293   2.606   0.073  0.0554 -0.9933 -0.3896
  292TMC3     O 4405   2.232   2.608  17.671 -0.6070 -0.2932  0.5055
  292TMC3     H 4406   2.305   2.589   0.345 -0.9020  1.9981 -2.6332
  292TMC3    H1 4407   2.206   2.373  17.686  2.2507 -1.9828 -0.0505
  292TMC3    H2 4408   2.152   2.192   0.376 -2.2325  0.4954  0.3728
  292TMC3    C7 4409   2.148   2.142   0.109  0.2138  0.3147 -0.2317
  292TMC3    C8 4410   2.220   2.426   0.506 -0.1050  0.4443  0.0950
  292TMC3    O1 4411   2.169   2.117  17.695  0.1524  0.4073  0.1252
  292TMC3    O2 4412   2.281   2.523   0.556  0.0692  0.1067 -0.6169
  293MPD2     C 4413   4.402   3.540  12.445  0.6665  0.8997 -0.0598
  293MPD2    C1 4414   4.358   3.438  12.526 -0.3503  0.7603  0.0040
  293MPD2    C2 4415   4.398   3.417  12.657 -0.7301 -0.3204 -0.1157
  293MPD2    C3 4416   4.494   3.503  12.715 -1.2448 -0.1768 -0.9260
  293MPD2    C4 4417   4.546   3.601  12.638 -0.3134 -0.1527  0.2720
  293MPD2    C5 4418   4.498   3.617  12.506  0.4371 -0.3273  0.8496
  293MPD2     H 4419   4.364   3.337  12.722  2.2106  0.4009  2.3422
  293MPD2    H1 4420   4.619   3.673  12.674 -0.5481 -0.7607  1.9827
  293MPD2    H2 4421   4.372   3.565  12.344 -0.4298  1.4069  0.3877
  293MPD2    H3 4422   4.526   3.706  12.452  3.3119 -0.8259  1.4825
  293MPD2     N 4423   4.544   3.474  12.849  0.1340 -0.4783  0.2260
  293MPD2    H5 4424   4.509   3.393  12.901  0.6958 -2.2535 -2.1626
  293MPD2    N1 4425   4.273   3.365  12.449 -0.1960 -0.2004  0.1421
  293MPD2    H7 4426   4.268   3.389  12.351  1.7189 -1.0472 -0.1569
  294TMC3    C1 4427   4.101   3.227  12.385 -0.7541  0.1666  0.2452
  294TMC3    C2 4428   4.018   3.121  12.415  0.4955  0.1275 -0.0301
  294TMC3    C3 4429   3.958   3.063  12.305 -0.2074 -0.3440  0.2688
  294TMC3    C4 4430   4.116   3.277  12.260  0.5526  1.0718  0.2962
  294TMC3    C5 4431   4.045   3.225  12.158  0.1194 -0.9320 -0.8391
  294TMC3    C6 4432   3.961   3.111  12.179 -0.1427 -0.5235  0.1596
  294TMC3     C 4433   4.205   3.256  12.481 -0.0365  0.6531  0.3372
  294TMC3     O 4434   4.207   3.195  12.585  0.6176 -0.2761 -0.4912
  294TMC3     H 4435   4.014   3.075  12.513  0.4191 -0.7090 -0.4255
  294TMC3    H1 4436   4.187   3.354  12.233  0.3358  1.9790  2.2864
  294TMC3    H2 4437   3.911   3.066  12.094  0.2262  0.0885 -0.3799
  294TMC3    C7 4438   4.120   3.205  12.034 -0.1570  0.2070  0.6499
  294TMC3    C8 4439   3.955   2.919  12.300  0.0108  0.6093 -0.2587
  294TMC3    O1 4440   4.201   3.293  12.000 -0.2612  0.8394 -0.0214
  294TMC3    O2 4441   3.966   2.874  12.189  0.5317 -0.0204  0.1386
  295MPD2     C 4442   0.449   2.086   0.207  0.1847  0.2327 -0.7000
  295MPD2    C1 4443   0.348   2.166   0.257 -0.3372 -0.8515  0.4763
  295MPD2    C2 4444   0.355   2.228   0.375 -0.4149  0.1978  0.0354
  295MPD2    C3 4445   0.475   2.221   0.449  0.3998 -0.6757  0.2035
  295MPD2    C4 4446   0.584   2.158   0.388  0.5584 -0.3591  0.0561
  295MPD2    C5 4447   0.571   2.087   0.273 -0.2704 -0.5268  0.0614
  295MPD2     H 4448   0.262   2.265   0.416  0.3188  0.6066  1.3021
  295MPD2    H1 4449   0.674   2.141   0.445 -0.4744 -1.9549  1.2154
  295MPD2    H2 4450   0.440   2.015   0.127  1.5773 -0.6568 -0.0673
  295MPD2    H3 4451   0.654   2.028   0.235 -0.7201 -1.9455  1.2690
  295MPD2     N 4452   0.487   2.249   0.586  0.4696 -0.3746  0.6796
  295MPD2    H5 4453   0.575   2.226   0.632  0.1500  1.2740  2.1085
  295MPD2    N1 4454   0.219   2.173   0.189  1.0274 -0.2157  0.3910
  295MPD2    H7 4455   0.152   2.245   0.212  0.2002 -1.6587  2.5306
  296TMC3    C1 4456   0.446   2.334   0.795  0.3681  0.6163  0.0024
  296TMC3    C2 4457   0.389   2.435   0.864  0.0377 -0.1140 -0.4369
  296TMC3    C3 4458   0.387   2.421   1.001  0.5774  0.4247  0.6934
  296TMC3    C4 4459   0.489   2.219   0.859 -0.9624 -0.3776  0.0431
  296TMC3    C5 4460   0.493   2.216   0.991  0.3625 -1.1611  0.2598
  296TMC3    C6 4461   0.441   2.314   1.066 -0.2311 -0.3817 -0.1030
  296TMC3     C 4462   0.398   2.326   0.659  0.1798  0.0733  0.5790
  296TMC3     O 4463   0.296   2.385   0.624 -0.2439  0.0292 -0.3079
  296TMC3     H 4464   0.344   2.523   0.822 -0.0062  0.8932  1.7520
  296TMC3    H1 4465   0.523   2.130   0.806 -0.6229  0.3552 -0.9686
  296TMC3    H2 4466   0.462   2.317   1.172 -1.8650 -1.4103  0.2538
  296TMC3    C7 4467   0.477   2.082   1.044 -0.3851  0.2415 -0.2339
  296TMC3    C8 4468   0.317   2.529   1.077  0.3148 -0.4435  0.2188
  296TMC3    O1 4469   0.566   2.001   1.033 -0.0398  0.0854  0.2897
  296TMC3    O2 4470   0.224   2.597   1.032  0.1048  0.1189  0.2861
  297MPD2     C 4471   2.554   4.312  16.669  0.0797  0.1126  0.3769
  297MPD2    C1 4472   2.496   4.383  16.566  0.8695  0.0553  0.4634
  297MPD2    C2 4473   2.543   4.517  16.549  0.3712 -0.3193 -0.2904
  297MPD2    C3 4474   2.642   4.574  16.630 -0.1145 -0.1937 -0.2334
  297MPD2    C4 4475   2.697   4.495  16.729 -0.0019  0.2839  0.2177
  297MPD2    C5 4476   2.648   4.370  16.751  0.1381 -0.2194  0.0183
  297MPD2     H 4477   2.490   4.579  16.478 -0.5189 -2.6179 -1.6547
  297MPD2    H1 4478   2.783   4.525  16.787  1.2779  1.1571 -2.1160
  297MPD2    H2 4479   2.530   4.212  16.702 -1.2945  1.0476  2.2113
  297MPD2    H3 4480   2.683   4.315  16.837 -0.0148 -1.4627 -0.7027
  297MPD2     N 4481   2.689   4.707  16.608 -0.3779 -0.3550  0.1083
  297MPD2    H5 4482   2.666   0.038  16.527  1.3510  1.8441  1.1418
  297MPD2    N1 4483   2.393   4.338  16.489  0.3450  0.1783  0.4913
  297MPD2    H7 4484   2.346   4.402  16.425 -2.6216 -1.0178  1.4632
  298TMC3    C1 4485   2.214   4.204  16.415  0.1948  0.3461 -0.3187
  298TMC3    C2 4486   2.215   4.247  16.284 -0.8584  0.3793  0.2655
  298TMC3    C3 4487   2.096   4.267  16.218  0.3706 -0.3511 -0.1504
  298TMC3    C4 4488   2.096   4.196  16.482  0.2764 -0.5126 -0.5089
  298TMC3    C5 4489   1.975   4.218  16.419 -0.6953 -0.2205  0.7790
  298TMC3    C6 4490   1.974   4.242  16.281  0.5737 -0.3536  0.2283
  298TMC3     C 4491   2.326   4.220  16.510 -0.0532  0.4210 -0.0085
  298TMC3     O 4492   2.329   4.146  16.607  0.6354 -0.5254  0.1137
  298TMC3     H 4493   2.311   4.266  16.238 -0.9490  3.1133  1.1880
  298TMC3    H1 4494   2.096   4.178  16.589 -1.7058  0.9682 -0.2446
  298TMC3    H2 4495   1.877   4.262  16.236  0.3307 -1.4139  0.2688
  298TMC3    C7 4496   1.884   4.301  16.493  0.2818  0.8587 -0.1051
  298TMC3    C8 4497   2.094   4.294  16.075 -0.1327  0.3952 -0.1416
  298TMC3    O1 4498   1.932   4.384  16.572 -1.2132 -0.3123  0.4382
  298TMC3    O2 4499   1.990   4.258  16.018  0.3932 -0.2016 -0.3670
  299MPD2     C 4500   3.147   2.941  10.751 -0.0043  0.1749 -0.1535
  299MPD2    C1 4501   3.143   3.073  10.702  0.3941  0.1696  0.4017
  299MPD2    C2 4502   3.025   3.119  10.646 -0.1660  0.8676 -0.5081
  299MPD2    C3 4503   2.914   3.036  10.630 -0.2638  0.1812 -0.0085
  299MPD2    C4 4504   2.918   2.907  10.679 -0.2461 -0.1078  0.6349
  299MPD2    C5 4505   3.034   2.862  10.738  0.3063 -0.0977  0.3233
  299MPD2     H 4506   3.031   3.216  10.597 -0.9271  1.7094  1.0403
  299MPD2    H1 4507   2.841   2.834  10.657  0.7900 -1.4661  1.5475
  299MPD2    H2 4508   3.230   2.893  10.801  0.9090  1.9484  0.0437
  299MPD2    H3 4509   3.029   2.763  10.782  0.6969 -0.4014 -0.3161
  299MPD2     N 4510   2.797   3.074  10.560  0.8762 -0.1782  0.4658
  299MPD2    H5 4511   2.721   3.006  10.556  0.6073  0.2570 -1.7748
  299MPD2    N1 4512   3.260   3.154  10.721 -0.0514  0.2391 -0.7653
  299MPD2    H7 4513   3.342   3.104  10.753  0.0823 -0.1403 -1.7107
  300TMC3    C1 4514   2.638   3.210  10.469  0.1907 -0.1344 -0.3694
  300TMC3    C2 4515   2.619   3.285  10.354 -0.2810  0.6190  0.5872
  300TMC3    C3 4516   2.492   3.297  10.299  0.9547 -0.2541 -0.4300
  300TMC3    C4 4517   2.542   3.132  10.522  0.1951  0.7540  0.5893
  300TMC3    C5 4518   2.419   3.160  10.467 -0.7095 -0.9006  0.5495
  300TMC3    C6 4519   2.391   3.235  10.360  0.1154 -0.3249  0.4177
  300TMC3     C 4520   2.773   3.197  10.500  0.5693 -0.1342 -0.1988
  300TMC3     O 4521   2.849   3.289  10.468 -0.3224 -0.0808 -0.3973
  300TMC3     H 4522   2.703   3.348  10.329  0.8003 -1.1375 -0.1596
  300TMC3    H1 4523   2.549   3.084  10.619 -1.2436  1.8299  1.2246
  300TMC3    H2 4524   2.290   3.244  10.320 -1.4988 -0.2802  4.4486
  300TMC3    C7 4525   2.302   3.121  10.546 -0.1121  0.4509  0.4478
  300TMC3    C8 4526   2.456   3.434  10.254  0.2114  0.3346  0.6144
  300TMC3    O1 4527   2.302   3.003  10.587  0.1505 -0.0112 -0.4222
  300TMC3    O2 4528   2.542   3.523  10.256 -0.0648  0.1516 -0.4412
  301MPD2     C 4529   4.625   0.788   1.188 -0.2285  0.7337 -0.4042
  301MPD2    C1 4530   4.494   0.759   1.179 -0.1718 -0.5318  0.0245
  301MPD2    C2 4531   4.452   0.625   1.173  1.0161 -0.1842  0.1289
  301MPD2    C3 4532   4.548   0.529   1.149  0.1217 -1.0090  0.0829
  301MPD2    C4 4533   4.681   0.557   1.160 -0.0959  0.5165 -0.6236
  301MPD2    C5 4534   4.713   0.681   1.191 -0.0414 -0.3507  0.1811
  301MPD2     H 4535   4.346   0.604   1.181  0.8391  0.3733 -0.8088
  301MPD2    H1 4536   0.032   0.481   1.144 -0.8038 -0.2765 -0.2633
  301MPD2    H2 4537   4.661   0.890   1.191 -1.6844  1.2044  0.7766
  301MPD2    H3 4538   0.093   0.705   1.196 -0.0238 -0.2667 -0.5320
  301MPD2     N 4539   4.518   0.400   1.102  0.6978  0.7250 -0.3112
  301MPD2    H5 4540   4.597   0.340   1.081  1.7975  2.0497  0.0003
  301MPD2    N1 4541   4.395   0.854   1.162  0.4764  0.0696  0.1308
  301MPD2    H7 4542   4.300   0.819   1.155 -0.0278  1.2135  1.3222
  302TMC3    C1 4543   4.402   0.203   1.038 -0.8114 -0.3018 -0.7017
  302TMC3    C2 4544   4.496   0.133   1.110  0.3545  0.3098  0.2566
  302TMC3    C3 4545   4.463   0.014   1.158  0.2814 -0.1005 -0.1781
  302TMC3    C4 4546   4.277   0.162   1.026 -0.1137 -0.1474 -0.4779
  302TMC3    C5 4547   4.242   0.043   1.090  0.2046 -0.1122  0.5286
  302TMC3    C6 4548   4.337   4.690   1.148 -0.1991 -0.0118 -0.4024
  302TMC3     C 4549   4.395   0.345   1.086 -0.2795 -0.1472  1.1349
  302TMC3     O 4550   4.280   0.386   1.109  0.1621 -0.2057  0.1999
  302TMC3     H 4551   4.600   0.160   1.095  0.8177 -1.2299  0.7750
  302TMC3    H1 4552   4.212   0.210   0.954  0.5161  1.6194  0.1405
  302TMC3    H2 4553   4.307   4.589   1.175  0.5310 -0.0887  0.1104
  302TMC3    C7 4554   4.105   4.719   1.094 -0.1276 -0.2134 -0.3577
  302TMC3    C8 4555   4.559   4.670   1.251  0.0356 -0.2186  0.6491
  302TMC3    O1 4556   4.089   4.618   1.164 -0.3106  0.2641  0.6301
  302TMC3    O2 4557   4.679   4.694   1.232 -0.0332  0.0291  0.2360
  303MPD2     C 4558   4.150   3.451  10.266 -0.5681  0.0926  0.0233
  303MPD2    C1 4559   4.150   3.321  10.221 -0.2058 -0.3591  0.5905
  303MPD2    C2 4560   4.107   3.303  10.090 -0.5159  0.7700 -0.2204
  303MPD2    C3 4561   4.051   3.406  10.008  0.0361 -0.4507  0.2330
  303MPD2    C4 4562   4.055   3.537  10.055  0.3662 -0.5202 -0.3517
  303MPD2    C5 4563   4.116   3.554  10.179  0.1596 -0.6070  0.2688
  303MPD2     H 4564   4.118   3.201  10.058  0.6610  1.4544 -1.9564
  303MPD2    H1 4565   4.023   3.616   9.988  1.5435  0.1066 -0.1748
  303MPD2    H2 4566   4.202   3.476  10.358  0.7634 -0.5528 -0.5543
  303MPD2    H3 4567   4.124   3.657  10.214  0.2915 -1.1894  1.9587
  303MPD2     N 4568   4.004   3.380   9.878  0.2095 -0.1552  0.3233
  303MPD2    H5 4569   3.980   3.463   9.825 -1.0069 -0.1982  0.8056
  303MPD2    N1 4570   4.198   3.222  10.299  0.0998 -0.3201 -0.0522
  303MPD2    H7 4571   4.217   3.244  10.396  0.1497  1.6964 -0.5242
  304TMC3    C1 4572   4.269   3.020  10.371 -0.1494 -0.4180 -0.1188
  304TMC3    C2 4573   4.170   3.001  10.469  0.3297  0.2289 -0.4422
  304TMC3    C3 4574   4.182   2.892  10.553  0.6125 -0.0116 -0.4132
  304TMC3    C4 4575   4.360   2.925  10.334 -0.2360  0.0665  0.3259
  304TMC3    C5 4576   4.359   2.815  10.411  0.1607 -0.0586 -0.5154
  304TMC3    C6 4577   4.276   2.801  10.518 -0.3575 -0.1265  1.0550
  304TMC3     C 4578   4.234   3.099  10.258  0.7964  0.4132  0.0127
  304TMC3     O 4579   4.246   3.050  10.150  0.2479 -0.0560 -0.0739
  304TMC3     H 4580   4.083   3.065  10.475  0.5668  0.7159 -2.0740
  304TMC3    H1 4581   4.436   2.944  10.259 -0.7104  0.7991  0.0327
  304TMC3    H2 4582   4.280   2.713  10.581 -1.4769  0.3461  1.7827
  304TMC3    C7 4583   4.370   2.689  10.343 -0.1608 -0.7451 -0.9159
  304TMC3    C8 4584   4.052   2.829  10.585 -0.1033 -0.2453 -0.3572
  304TMC3    O1 4585   4.351   2.589  10.407 -0.5157  0.4250 -0.1143
  304TMC3    O2 4586   3.964   2.852  10.509 -0.2314  0.1920 -0.3196
  305MPD2     C 4587   2.942   1.176  14.082  0.3784  0.2813 -0.1210
  305MPD2    C1 4588   3.043   1.082  14.094  0.2476  0.5805  0.0348
  305MPD2    C2 4589   3.041   0.977  14.002  0.1976  0.1478  0.5703
  305MPD2    C3 4590   2.968   0.977  13.881  0.8126  0.2520 -0.7849
  305MPD2    C4 4591   2.881   1.082  13.863 -0.6302  0.5778 -0.3733
  305MPD2    C5 4592   2.869   1.173  13.967 -0.3768 -0.2934  0.2597
  305MPD2     H 4593   3.124   0.906  14.002  0.2126  0.1645  0.3211
  305MPD2    H1 4594   2.813   1.088  13.778 -0.6944  1.8625 -0.2401
  305MPD2    H2 4595   2.924   1.263  14.144 -0.8177 -0.4721  0.5771
  305MPD2    H3 4596   2.799   1.255  13.960  1.3779  1.3095  1.6629
  305MPD2     N 4597   2.985   0.889  13.774  0.4148  0.1133  0.3828
  305MPD2    H5 4598   2.931   0.900  13.689  0.4095 -1.4163  0.1910
  305MPD2    N1 4599   3.136   1.094  14.206  0.0910 -0.2280 -0.3963
  305MPD2    H7 4600   3.177   1.011  14.247  2.0354 -0.1107 -2.1299
  306TMC3    C1 4601   3.261   1.201  14.370 -0.1923 -0.0363  0.2231
  306TMC3    C2 4602   3.354   1.099  14.379 -0.3462  0.6748  0.3275
  306TMC3    C3 4603   3.448   1.112  14.477 -0.4002 -0.7569  0.1267
  306TMC3    C4 4604   3.267   1.316  14.444 -0.2199 -0.0061  0.5289
  306TMC3    C5 4605   3.353   1.319  14.549  0.3079 -0.6329 -0.5668
  306TMC3    C6 4606   3.446   1.212  14.568 -0.0992 -0.1882 -0.4002
  306TMC3     C 4607   3.168   1.213  14.261  0.2670  0.5328  0.4977
  306TMC3     O 4608   3.133   1.325  14.229  1.0816  0.1095 -0.1075
  306TMC3     H 4609   3.334   1.008  14.323  1.6423 -0.9929  2.2950
  306TMC3    H1 4610   3.184   1.386  14.445  1.0044  1.4968 -4.1671
  306TMC3    H2 4611   3.516   1.207  14.651 -1.9386 -0.9276  1.1077
  306TMC3    C7 4612   3.308   1.393  14.672  0.2177  0.4396  0.2677
  306TMC3    C8 4613   3.581   1.049  14.469  0.4551  0.2491  0.0300
  306TMC3    O1 4614   3.190   1.424  14.677  0.3357 -0.2243  0.4831
  306TMC3    O2 4615   3.653   1.038  14.567  0.1373  0.2063 -0.2226
  307MPD2     C 4616   1.174   3.326   0.567 -0.4796 -0.4346 -0.5708
  307MPD2    C1 4617   1.052   3.328   0.501  0.7597  0.4924 -0.2500
  307MPD2    C2 4618   0.936   3.351   0.570  0.2342  0.5306  0.3629
  307MPD2    C3 4619   0.948   3.387   0.704  0.3027 -0.6543  0.3530
  307MPD2    C4 4620   1.066   3.394   0.768 -0.5657  0.1229 -0.1770
  307MPD2    C5 4621   1.180   3.356   0.701 -0.0044 -0.3453  0.8058
  307MPD2     H 4622   0.839   3.338   0.522  0.8184 -0.1071 -0.6549
  307MPD2    H1 4623   1.071   3.417   0.874 -1.2915  0.0053 -0.1174
  307MPD2    H2 4624   1.264   3.306   0.510  0.2697  1.6642 -0.1217
  307MPD2    H3 4625   1.280   3.352   0.741 -0.1521 -1.5769  1.0485
  307MPD2     N 4626   0.828   3.420   0.777  0.0079  0.2288 -0.0088
  307MPD2    H5 4627   0.733   3.409   0.743  0.7305 -0.4569 -1.7808
  307MPD2    N1 4628   1.044   3.315   0.358  0.1914 -0.1239  0.3765
  307MPD2    H7 4629   0.949   3.336   0.331  0.4669  1.3345  0.5146
  308TMC3    C1 4630   0.455   3.404   0.933 -0.9540  0.4266  0.6140
  308TMC3    C2 4631   0.415   3.508   1.015 -0.5747 -0.7052 -0.1081
  308TMC3    C3 4632   0.498   3.613   1.048 -0.1228  0.0318 -0.5989
  308TMC3    C4 4633   0.588   3.402   0.895 -0.3871 -0.5470  0.0821
  308TMC3    C5 4634   0.673   3.502   0.932 -0.2756 -0.3923  0.6374
  308TMC3    C6 4635   0.625   3.617   1.002 -0.3703  0.5056 -0.4577
  308TMC3     C 4636   0.376   3.393   0.814  0.0976  0.4784  0.0089
  308TMC3     O 4637   0.426   3.330   0.719  0.5680  0.0782 -0.1431
  308TMC3     H 4638   0.319   3.507   1.066 -1.0094 -0.5194 -0.9136
  308TMC3    H1 4639   0.631   3.315   0.848 -0.0683  0.5442 -1.6668
  308TMC3    H2 4640   0.684   3.704   1.028  1.4572 -0.4540 -1.3511
  308TMC3    C7 4641   0.817   3.492   0.896  0.3784  0.8123 -0.0968
  308TMC3    C8 4642   0.429   3.736   1.069  0.2734  0.0876  0.3865
  308TMC3    O1 4643   0.896   3.571   0.953 -0.2067 -0.1502  0.3213
  308TMC3    O2 4644   0.369   3.754   1.174 -0.8961 -0.7740 -0.5533
  309MPD2     C 4645   4.264   3.705  17.334  0.2487  0.0250 -0.7952
  309MPD2    C1 4646   4.230   3.814  17.261  0.1700 -0.2222  0.3126
  309MPD2    C2 4647   4.142   3.907  17.303 -0.4296 -0.0682 -0.2345
  309MPD2    C3 4648   4.077   3.896  17.432  0.0957 -0.4044 -0.5134
  309MPD2    C4 4649   4.131   3.794  17.513  0.3939  0.2499  0.4227
  309MPD2    C5 4650   4.219   3.703  17.461  0.3341 -0.4039 -0.2338
  309MPD2     H 4651   4.135   3.990  17.234  1.6057 -1.2356 -1.8329
  309MPD2    H1 4652   4.090   3.788  17.613  0.8345  0.1010  0.5972
  309MPD2    H2 4653   4.327   3.630  17.288 -0.7407 -1.7006  0.6482
  309MPD2    H3 4654   4.250   3.615  17.514  1.3413  0.5021  0.6652
  309MPD2     N 4655   3.981   3.996  17.472 -0.3942  0.2894 -0.0459
  309MPD2    H5 4656   3.934   3.992  17.562 -2.0144  2.1104 -0.8190
  309MPD2    N1 4657   4.289   3.842  17.129  0.3044  0.1635 -0.2176
  309MPD2    H7 4658   4.255   3.925  17.083  1.3682  0.0535 -1.2072
  310TMC3    C1 4659   4.471   3.855  16.972  0.1604  0.3252 -0.5942
  310TMC3    C2 4660   4.395   3.924  16.886 -0.5017  0.5905  0.0758
  310TMC3    C3 4661   4.453   3.980  16.776 -0.3879 -0.1846  0.2332
  310TMC3    C4 4662   4.605   3.850  16.961  0.1955 -0.5325 -0.5134
  310TMC3    C5 4663   4.666   3.912  16.861 -0.3766 -0.0846 -0.5351
  310TMC3    C6 4664   4.591   3.982  16.767  0.0867  0.0343 -0.4282
  310TMC3     C 4665   4.411   3.792  17.089 -0.2661 -0.9829  0.1756
  310TMC3     O 4666   4.489   3.719  17.152  0.0003 -0.1957 -0.2871
  310TMC3     H 4667   4.287   3.927  16.892 -0.5182 -1.1487  0.8811
  310TMC3    H1 4668   4.665   3.796  17.033  0.6723 -1.0844 -1.3367
  310TMC3    H2 4669   4.642   4.054  16.704  3.1486  0.9204  3.0780
  310TMC3    C7 4670   0.070   3.967  16.894  0.7046 -0.3681 -0.6829
  310TMC3    C8 4671   4.386   4.067  16.678 -0.1093  0.0533 -0.5015
  310TMC3    O1 4672   0.136   4.006  16.798 -0.2100  0.3892  1.0801
  310TMC3    O2 4673   4.457   4.120  16.592 -0.2679  0.3198  0.7045
  311MPD2     C 4674   2.348   0.015  13.149 -0.5946  0.4386 -0.0616
  311MPD2    C1 4675   2.320   0.148  13.129 -0.2586 -0.5571  0.6172
  311MPD2    C2 4676   2.192   0.190  13.118 -0.1786  0.7977 -1.0746
  311MPD2    C3 4677   2.088   0.102  13.119 -0.6032 -0.2223  0.2523
  311MPD2    C4 4678   2.115   4.696  13.135 -1.1199  0.1498 -0.5013
  311MPD2    C5 4679   2.239   4.653  13.150 -0.3428  0.0413  0.9113
  311MPD2     H 4680   2.177   0.294  13.090 -2.8949  0.6042 -0.4013
  311MPD2    H1 4681   2.039   4.618  13.142  0.0004 -0.6928  2.4137
  311MPD2    H2 4682   2.444   4.699  13.177 -0.8897 -0.7630 -0.8423
  311MPD2    H3 4683   2.251   4.547  13.171  2.1551  0.4070  1.3242
  311MPD2     N 4684   1.963   0.172  13.098 -0.6787  0.2002 -0.1487
  311MPD2    H5 4685   1.961   0.273  13.112  0.7148  0.1379  0.5116
  311MPD2    N1 4686   2.425   0.245  13.120  0.0889  0.2626  0.7275
  311MPD2    H7 4687   2.398   0.337  13.085 -0.9656 -0.5378 -0.5607
  312TMC3    C1 4688   1.744   0.212  13.035 -0.1375 -0.2875  0.0340
  312TMC3    C2 4689   1.619   0.163  13.000  0.0497  0.3649 -0.0551
  312TMC3    C3 4690   1.528   0.248  12.949  0.3982 -0.5350 -0.0861
  312TMC3    C4 4691   1.761   0.350  13.042 -0.0986  0.2900  0.3407
  312TMC3    C5 4692   1.663   0.431  12.997  0.6006  1.1332  0.3989
  312TMC3    C6 4693   1.546   0.385  12.952 -0.3802  0.1460 -0.2278
  312TMC3     C 4694   1.847   0.116  13.062  0.2199  0.2847  0.8125
  312TMC3     O 4695   1.837   0.004  13.016  0.8627 -0.1364 -0.3820
  312TMC3     H 4696   1.619   0.056  12.985 -1.3792  0.6542 -2.0161
  312TMC3    H1 4697   1.854   0.397  13.073  0.6005 -1.1530  0.4446
  312TMC3    H2 4698   1.477   0.459  12.914 -0.5878 -0.0309 -0.1927
  312TMC3    C7 4699   1.659   0.566  13.046  0.3987 -0.1301 -0.1238
  312TMC3    C8 4700   1.397   0.196  12.919 -0.0261 -0.0197  0.1451
  312TMC3    O1 4701   1.604   0.649  12.978 -0.6574  0.0040  0.7106
  312TMC3    O2 4702   1.359   0.106  12.986  0.7724  0.6999 -0.3209
  313MPD2     C 4703   1.782   4.149  11.060 -0.5220 -0.4415 -0.0962
  313MPD2    C1 4704   1.652   4.155  11.096  0.5218  0.3939  0.8500
  313MPD2    C2 4705   1.554   4.115  11.003  0.5142 -0.7021 -0.3551
  313MPD2    C3 4706   1.588   4.043  10.894 -0.9309  0.0661 -0.7271
  313MPD2    C4 4707   1.722   4.019  10.873 -0.1184 -0.2597 -0.3250
  313MPD2    C5 4708   1.819   4.090  10.947 -0.2644  0.5036 -0.0761
  313MPD2     H 4709   1.452   4.140  11.029  0.8314  0.4898 -0.2559
  313MPD2    H1 4710   1.754   3.959  10.788  1.4785 -1.2912  1.0202
  313MPD2    H2 4711   1.856   4.195  11.126  0.0692 -1.9587  0.3054
  313MPD2    H3 4712   1.924   4.074  10.921 -0.8607 -1.0836 -1.5397
  313MPD2     N 4713   1.486   3.988  10.807  0.4365  0.1327 -0.6010
  313MPD2    H5 4714   1.390   3.994  10.840  0.4799 -1.4024 -0.2307
  313MPD2    N1 4715   1.604   4.234  11.199  0.0681 -0.3788 -0.4033
  313MPD2    H7 4716   1.503   4.233  11.209  0.1110 -0.6517 -0.0051
  314TMC3    C1 4717   1.597   4.417  11.353 -0.7828 -0.6405  0.5198
  314TMC3    C2 4718   1.675   4.503  11.429 -0.7322  0.3282 -0.1902
  314TMC3    C3 4719   1.641   4.635  11.441 -0.3357 -0.2494  0.7203
  314TMC3    C4 4720   1.492   4.462  11.278  0.7165  0.1986 -0.4160
  314TMC3    C5 4721   1.472   4.599  11.281  0.3335  0.2879 -0.4435
  314TMC3    C6 4722   1.545   4.689  11.355  0.0031 -0.1276 -0.1518
  314TMC3     C 4723   1.679   4.317  11.283 -0.9078 -0.3856 -0.4083
  314TMC3     O 4724   1.800   4.336  11.286 -0.2107 -0.0613 -0.4517
  314TMC3     H 4725   1.769   4.464  11.467 -1.0040  1.3567  1.5308
  314TMC3    H1 4726   1.420   4.402  11.223  0.8682  0.4925 -0.9363
  314TMC3    H2 4727   1.514   0.068  11.352 -2.7501 -0.9216  1.1515
  314TMC3    C7 4728   1.406   4.665  11.170  0.1526 -0.1130 -0.6707
  314TMC3    C8 4729   1.723   0.003  11.515  0.3848  0.4150 -0.1161
  314TMC3    O1 4730   1.357   0.051  11.191  0.6432  0.3703 -0.3374
  314TMC3    O2 4731   1.727   0.122  11.481  0.2593 -0.9271 -0.6218
  315MPD2     C 4732   1.229   3.942   0.136  0.2562  0.4014 -0.5122
  315MPD2    C1 4733   1.309   3.933   0.253  0.0404 -0.7638 -0.4117
  315MPD2    C2 4734   1.371   4.044   0.307 -0.4192 -0.3663  0.6172
  315MPD2    C3 4735   1.384   4.163   0.234  0.1910  0.3166  0.0610
  315MPD2    C4 4736   1.310   4.169   0.120 -0.4059  0.0985  0.1771
  315MPD2    C5 4737   1.226   4.067   0.080 -0.5280  0.1613 -0.5346
  315MPD2     H 4738   1.414   4.031   0.406  1.0223 -1.5949 -0.1622
  315MPD2    H1 4739   1.299   4.254   0.054 -0.3272  0.0244  0.0691
  315MPD2    H2 4740   1.158   3.867   0.101 -0.6480  0.0116  2.1105
  315MPD2    H3 4741   1.160   4.085  17.698 -2.8744 -0.1879  1.2428
  315MPD2     N 4742   1.466   4.271   0.278 -0.2507 -0.0010 -0.5017
  315MPD2    H5 4743   1.525   4.248   0.357  1.5461  1.8224 -1.3000
  315MPD2    N1 4744   1.322   3.809   0.329 -0.3269  0.3920  0.7055
  315MPD2    H7 4745   1.380   3.801   0.411 -0.3480 -1.6308  0.5064
  316TMC3    C1 4746   1.574   4.475   0.279  0.0884 -0.4290 -0.1596
  316TMC3    C2 4747   1.660   4.421   0.375  0.3782 -0.4099  0.0786
  316TMC3    C3 4748   1.779   4.484   0.391 -0.1914  0.3564 -0.2242
  316TMC3    C4 4749   1.601   4.599   0.221  0.2958  0.3648 -0.3893
  316TMC3    C5 4750   1.730   4.652   0.238  0.3066 -1.0164  0.0833
  316TMC3    C6 4751   1.816   4.595   0.322  0.7551  0.3162 -0.7145
  316TMC3     C 4752   1.477   4.391   0.215 -0.2660  0.6506 -0.0551
  316TMC3     O 4753   1.423   4.430   0.112  0.1038 -0.1364 -0.8414
  316TMC3     H 4754   1.621   4.339   0.434 -1.3509 -0.0155 -0.5170
  316TMC3    H1 4755   1.533   4.639   0.147 -1.9257 -2.1300  0.3045
  316TMC3    H2 4756   1.909   4.642   0.350  0.5328 -0.5727  1.5615
  316TMC3    C7 4757   1.773   0.039   0.156  1.0083  0.1930 -0.1474
  316TMC3    C8 4758   1.866   4.447   0.505  0.6114  1.4739 -0.6553
  316TMC3    O1 4759   1.873   0.099   0.189  0.2280 -0.1315 -0.1961
  316TMC3    O2 4760   1.935   4.535   0.548 -0.3059 -0.1793 -0.1380
  317MPD2     C 4761   3.002   2.183  12.937  0.6329 -0.4611 -0.0440
  317MPD2    C1 4762   3.104   2.097  12.900 -0.6014 -0.5283 -0.7399
  317MPD2    C2 4763   3.207   2.070  12.991  0.5213 -0.0815 -0.0071
  317MPD2    C3 4764   3.215   2.136  13.107  0.3602  0.7372  0.3192
  317MPD2    C4 4765   3.114   2.224  13.137  0.7697 -0.1823 -0.4439
  317MPD2    C5 4766   3.009   2.248  13.059  0.3742 -0.5319  0.1010
  317MPD2     H 4767   3.283   1.994  12.972 -0.3037 -1.3231  1.6657
  317MPD2    H1 4768   3.112   2.287  13.225  0.5837 -2.7438  1.4191
  317MPD2    H2 4769   2.934   2.233  12.869 -1.2095 -1.8185  0.7990
  317MPD2    H3 4770   2.938   2.325  13.086 -1.3968 -1.7769 -0.9594
  317MPD2     N 4771   3.331   2.116  13.185  0.1726  0.8681  0.1358
  317MPD2    H5 4772   3.386   2.030  13.178 -1.4798 -0.5056  3.9947
  317MPD2    N1 4773   3.112   2.041  12.771 -0.0339  0.2592 -0.4593
  317MPD2    H7 4774   3.193   1.980  12.761  1.4446  2.3803 -1.3016
  318TMC3    C1 4775   3.492   2.138  13.359  0.3337  0.4368  0.3623
  318TMC3    C2 4776   3.474   2.013  13.400 -0.2623  0.7185  0.7331
  318TMC3    C3 4777   3.584   1.949  13.448 -0.4708  0.1247 -0.6817
  318TMC3    C4 4778   3.604   2.208  13.381 -0.1420 -0.2327 -0.4872
  318TMC3    C5 4779   3.720   2.142  13.427  0.7784  0.3916 -0.0607
  318TMC3    C6 4780   3.711   2.009  13.464 -0.9100  0.3306  0.2088
  318TMC3     C 4781   3.378   2.197  13.286 -0.4053  0.3063  0.2569
  318TMC3     O 4782   3.350   2.312  13.306  0.0196 -0.0201  0.1629
  318TMC3     H 4783   3.374   1.973  13.400  0.0825 -0.1514  0.0690
  318TMC3    H1 4784   3.609   2.306  13.334 -3.7526  0.1961  0.0602
  318TMC3    H2 4785   3.794   1.954  13.506 -0.5147  1.1649  0.5166
  318TMC3    C7 4786   3.835   2.171  13.344 -0.1746  0.2498  0.4351
  318TMC3    C8 4787   3.581   1.811  13.484  0.3796 -0.7992 -0.9799
  318TMC3    O1 4788   3.825   2.262  13.259  0.3910  0.5425 -0.0625
  318TMC3    O2 4789   3.686   1.763  13.518  0.2477  0.2213 -0.7059
  319MPD2     C 4790   3.927   4.272  16.894  0.4080 -0.2541  0.3544
  319MPD2    C1 4791   3.830   4.172  16.893 -0.3994 -0.5448 -0.9545
  319MPD2    C2 4792   3.701   4.198  16.841 -0.1946 -0.2647 -0.2533
  319MPD2    C3 4793   3.678   4.322  16.784 -0.2597 -0.0039  0.3751
  319MPD2    C4 4794   3.780   4.415  16.783 -1.2085 -0.1901 -0.0830
  319MPD2    C5 4795   3.904   4.387  16.832  0.1102  0.6002 -0.0755
  319MPD2     H 4796   3.629   4.118  16.846  1.5087 -1.6998  1.2577
  319MPD2    H1 4797   3.763   4.509  16.733  0.6853 -0.2391 -0.8401
  319MPD2    H2 4798   4.024   4.243  16.935 -0.1190 -1.5392  0.6968
  319MPD2    H3 4799   3.987   4.457  16.836  1.0268 -0.5415  0.9797
  319MPD2     N 4800   3.554   4.347  16.716 -0.1005  0.1020 -0.5844
  319MPD2    H5 4801   3.561   4.420  16.645 -0.8518 -0.1278 -0.8816
  319MPD2    N1 4802   3.851   4.040  16.936  0.3318 -0.5828  0.5899
  319MPD2    H7 4803   3.767   3.983  16.946  0.9515 -1.5260  0.4578
  320TMC3    C1 4804   3.367   4.233  16.615  0.2454 -0.3911 -0.2843
  320TMC3    C2 4805   3.376   4.299  16.500  0.5626  0.8884  0.7423
  320TMC3    C3 4806   3.346   4.240  16.379 -0.1429  0.3097 -0.9345
  320TMC3    C4 4807   3.327   4.102  16.615  0.0950  0.5040  0.2977
  320TMC3    C5 4808   3.321   4.043  16.492 -0.4662  0.2510  0.3831
  320TMC3    C6 4809   3.318   4.107  16.371  0.0669 -0.7862 -0.3147
  320TMC3     C 4810   3.443   4.269  16.736  0.4418 -0.2286 -0.2736
  320TMC3     O 4811   3.427   4.204  16.837 -0.1563  0.2346  0.5153
  320TMC3     H 4812   3.399   4.404  16.515  1.1244  0.7670  0.7348
  320TMC3    H1 4813   3.336   4.042  16.705  2.3175  0.1171 -0.1736
  320TMC3    H2 4814   3.291   4.057  16.278 -1.0397  1.1081 -0.9951
  320TMC3    C7 4815   3.375   3.909  16.475 -0.5406  0.2612 -0.2198
  320TMC3    C8 4816   3.362   4.315  16.256 -0.2454  0.9153  0.4305
  320TMC3    O1 4817   3.429   3.877  16.369 -0.0935 -0.2726  0.2390
  320TMC3    O2 4818   3.342   4.432  16.267 -0.4649 -0.1668 -0.1848
  321TMC3    C1 4819   3.917   3.839  17.010  0.1320 -0.1552 -0.2821
  321TMC3    C2 4820   3.997   3.730  16.983 -0.4146 -0.3533  0.2112
  321TMC3    C3 4821   3.959   3.602  17.018 -0.4798 -0.0609 -0.7625
  321TMC3    C4 4822   3.803   3.826  17.081  0.3792  0.2045 -0.0013
  321TMC3    C5 4823   3.774   3.700  17.122 -0.0560  0.4669  0.2883
  321TMC3    C6 4824   3.843   3.586  17.082 -0.5441  0.0003  0.0831
  321TMC3     C 4825   3.960   3.974  16.977 -0.4036  0.1684  0.1249
  321TMC3     O 4826   4.078   3.996  16.960  0.5883  0.3392 -0.2968
  321TMC3     H 4827   4.095   3.745  16.938 -0.3550 -0.4288  0.3178
  321TMC3    H1 4828   3.764   3.920  17.118 -1.6468 -0.4238 -0.5071
  321TMC3    H2 4829   3.809   3.485  17.102  2.8229 -0.6842  2.2975
  321TMC3    C7 4830   3.747   3.706  17.268 -0.0721 -0.0732  0.1852
  321TMC3    C8 4831   4.062   3.535  17.097 -0.2172 -0.2964  0.3657
  321TMC3    O1 4832   3.664   3.786  17.309  0.3296 -0.2459 -0.1527
  321TMC3    O2 4833   4.022   3.480  17.198  0.0155 -0.1516 -0.1136
  322MPD2     C 4834   3.173   0.269  13.473 -0.7597  0.6575  0.0260
  322MPD2    C1 4835   3.151   0.244  13.610 -0.7919 -0.0848  0.2647
  322MPD2    C2 4836   3.109   0.116  13.645 -0.2713  0.4040  0.1432
  322MPD2    C3 4837   3.078   0.019  13.551  1.2038 -0.0167  0.7241
  322MPD2    C4 4838   3.077   0.052  13.416  1.5392 -0.4476 -0.4488
  322MPD2    C5 4839   3.117   0.183  13.382  0.2098 -0.1452 -0.5862
  322MPD2     H 4840   3.105   0.099  13.752  1.9052  0.8864  0.2949
  322MPD2    H1 4841   3.052   4.707  13.337 -0.1588  0.1446 -0.4313
  322MPD2    H2 4842   3.213   0.364  13.441 -0.3017 -0.2517 -2.1152
  322MPD2    H3 4843   3.132   0.214  13.279 -1.8039  2.8347  0.0076
  322MPD2     N 4844   3.036   4.619  13.598 -0.3784 -0.3218  0.5325
  322MPD2    H5 4845   3.028   4.613  13.699 -1.9365 -0.9732  0.3716
  322MPD2    N1 4846   3.166   0.345  13.698 -0.1230  0.3885 -0.3713
  322MPD2    H7 4847   3.213   0.429  13.664  2.2784  0.0177  2.0569
  323TMC3    C1 4848   3.180   0.447  13.925 -0.0205  0.1048 -0.1133
  323TMC3    C2 4849   3.305   0.492  13.899  0.3513  0.0819  0.3602
  323TMC3    C3 4850   3.356   0.573  13.997 -0.2315 -0.1143 -0.2240
  323TMC3    C4 4851   3.113   0.464  14.041  0.7523 -0.6801  0.1646
  323TMC3    C5 4852   3.167   0.537  14.141  0.7460 -0.4240 -1.4303
  323TMC3    C6 4853   3.287   0.599  14.115 -0.8918  0.1951 -0.0116
  323TMC3     C 4854   3.113   0.352  13.831  0.7026  0.5257 -0.3093
  323TMC3     O 4855   3.010   0.292  13.860  0.2580  0.2887  0.1728
  323TMC3     H 4856   3.360   0.444  13.819  0.4612 -0.1200  0.5589
  323TMC3    H1 4857   3.018   0.413  14.054 -0.2476  1.8009  2.6448
  323TMC3    H2 4858   3.328   0.675  14.181  3.5905 -1.5687 -0.7405
  323TMC3    C7 4859   3.157   0.461  14.270  0.0242  0.1025  0.1661
  323TMC3    C8 4860   3.500   0.559  14.023 -1.0125 -0.0070 -0.5056
  323TMC3    O1 4861   3.064   0.385  14.293  0.0322  0.1750  0.4028
  323TMC3    O2 4862   3.535   0.557  14.140  0.2382  0.2486  1.3096
  324MPD2     C 4863   0.141   1.263  14.921 -0.2355  0.2574 -0.1889
  324MPD2    C1 4864   0.164   1.359  14.826  0.5386  0.2318 -0.1243
  324MPD2    C2 4865   0.060   1.444  14.801 -0.3238 -0.5717  0.0754
  324MPD2    C3 4866   4.661   1.440  14.858  0.3379 -0.7514 -0.6006
  324MPD2    C4 4867   4.647   1.345  14.962  0.2007 -0.3323 -0.2015
  324MPD2    C5 4868   0.025   1.259  14.992  0.5257 -0.0153 -0.3137
  324MPD2     H 4869   0.085   1.521  14.728 -1.3795 -0.7674 -0.4857
  324MPD2    H1 4870   4.551   1.317  15.003 -0.0828  0.7615 -0.0963
  324MPD2    H2 4871   0.211   1.185  14.950  0.7454  1.0075 -0.5318
  324MPD2    H3 4872   0.003   1.176  15.059 -1.7378  0.8617  0.0494
  324MPD2     N 4873   4.549   1.522  14.831 -0.5490 -0.3262 -0.8812
  324MPD2    H5 4874   4.466   1.513  14.888 -1.4898 -1.2622 -2.3985
  324MPD2    N1 4875   0.286   1.377  14.759  0.5248  0.1985 -0.0210
  324MPD2    H7 4876   0.284   1.459  14.700  0.1489 -0.1437 -0.4804
  325TMC3    C1 4877   4.403   1.648  14.721 -0.1141 -0.0054  0.3528
  325TMC3    C2 4878   4.335   1.637  14.600  0.0051  0.4414  0.6017
  325TMC3    C3 4879   4.200   1.641  14.603 -0.4477 -0.1860 -0.1679
  325TMC3    C4 4880   4.346   1.684  14.844 -0.2749  0.0888  0.3179
  325TMC3    C5 4881   4.209   1.688  14.836 -0.3849  0.3139  0.4771
  325TMC3    C6 4882   4.133   1.668  14.718  0.0001 -0.3692  0.4720
  325TMC3     C 4883   4.531   1.588  14.716  0.0286 -0.5069 -0.1439
  325TMC3     O 4884   4.603   1.602  14.622 -0.4969 -0.5780 -0.4728
  325TMC3     H 4885   4.396   1.618  14.512  1.5740 -3.0635  2.4257
  325TMC3    H1 4886   4.401   1.700  14.936  0.4696  0.0180 -0.1145
  325TMC3    H2 4887   4.029   1.645  14.737 -0.2152 -1.1823 -1.7782
  325TMC3    C7 4888   4.153   1.764  14.948  0.5383 -0.4881 -0.5839
  325TMC3    C8 4889   4.140   1.567  14.497 -0.4243 -0.1911  0.7369
  325TMC3    O1 4890   4.217   1.789  15.050  0.1885 -0.0330  0.1693
  325TMC3    O2 4891   4.214   1.484  14.445 -0.2405  0.0656  0.2361
  326MPD2     C 4892   1.429   1.588  11.419 -0.0735  0.1370  0.0796
  326MPD2    C1 4893   1.406   1.619  11.284 -0.8404  0.1729 -0.7698
  326MPD2    C2 4894   1.486   1.707  11.227  0.2216  0.2359  0.5186
  326MPD2    C3 4895   1.588   1.781  11.293  0.5139  0.5953  0.3516
  326MPD2    C4 4896   1.602   1.757  11.434 -0.0365  0.3220 -0.1132
  326MPD2    C5 4897   1.522   1.662  11.496 -0.1393  0.2515  0.3264
  326MPD2     H 4898   1.464   1.732  11.124  0.1783  0.6560  0.6297
  326MPD2    H1 4899   1.678   1.806  11.493 -0.5825  0.3816  0.5319
  326MPD2    H2 4900   1.359   1.521  11.468  0.2432  0.0684  0.4494
  326MPD2    H3 4901   1.533   1.642  11.602 -2.1033  2.5639  0.9725
  326MPD2     N 4902   1.684   1.864  11.221  0.3137 -0.1530 -0.9471
  326MPD2    H5 4903   1.740   1.920  11.285  1.1023 -0.0820 -1.7092
  326MPD2    N1 4904   1.302   1.556  11.219  0.0071 -0.0270 -0.4388
  326MPD2    H7 4905   1.280   1.469  11.265 -0.4150  0.9072  1.1262
  327TMC3    C1 4906   1.128   1.553  11.055 -0.2181 -0.5371  0.3449
  327TMC3    C2 4907   1.058   1.636  10.972 -0.2871 -0.0306 -0.2200
  327TMC3    C3 4908   1.079   1.626  10.839 -0.7880  0.6507 -0.2275
  327TMC3    C4 4909   1.208   1.452  10.999 -0.3980 -0.5615 -0.4585
  327TMC3    C5 4910   1.225   1.437  10.863 -0.1157 -0.0445  0.2309
  327TMC3    C6 4911   1.161   1.527  10.778  0.5868 -0.2202 -0.6447
  327TMC3     C 4912   1.214   1.628  11.143 -0.1149  0.2005 -0.5823
  327TMC3     O 4913   1.217   1.751  11.124  0.3919  0.5406 -0.2750
  327TMC3     H 4914   1.022   1.728  11.017 -0.3401 -0.9147  1.5215
  327TMC3    H1 4915   1.261   1.381  11.061 -0.0973 -1.0011 -1.2240
  327TMC3    H2 4916   1.176   1.529  10.671 -0.8441 -0.3106 -0.8419
  327TMC3    C7 4917   1.350   1.391  10.815  0.0100 -0.1018  0.8184
  327TMC3    C8 4918   1.044   1.739  10.755  0.1717 -0.0044  0.1176
  327TMC3    O1 4919   1.350   1.380  10.693  0.1592  0.1018  0.0977
  327TMC3    O2 4920   1.098   1.752  10.648  0.1590  0.1321 -0.1200
  328MPD2     C 4921   2.920   1.891  17.321  0.9448 -0.0410 -0.7250
  328MPD2    C1 4922   2.965   2.002  17.385 -0.3639  0.2779  0.3731
  328MPD2    C2 4923   2.990   2.119  17.316  0.1546 -0.6641  0.2738
  328MPD2    C3 4924   2.979   2.131  17.177 -0.4069  0.6645 -0.3371
  328MPD2    C4 4925   2.910   2.025  17.122  0.6423  0.3400  1.3562
  328MPD2    C5 4926   2.892   1.902  17.186  0.2390 -0.4195  0.8868
  328MPD2     H 4927   3.034   2.202  17.369 -0.7135 -0.7312  1.1046
  328MPD2    H1 4928   2.898   2.028  17.015  2.6388 -3.6611  1.0095
  328MPD2    H2 4929   2.888   1.802  17.374 -0.6132  1.4312  0.8107
  328MPD2    H3 4930   2.864   1.811  17.134  1.2880 -1.3399  1.9272
  328MPD2     N 4931   3.009   2.248  17.100 -0.5960  0.0452 -0.4198
  328MPD2    H5 4932   2.964   2.256  17.009 -3.6756  1.7521  1.2350
  328MPD2    N1 4933   2.997   1.988  17.524 -0.3018 -0.0110 -0.2236
  328MPD2    H7 4934   2.982   1.897  17.568 -1.6248 -0.1542 -0.9620
  329TMC3    C1 4935   3.069   2.047   0.039 -0.1904 -1.0785 -0.1595
  329TMC3    C2 4936   3.111   2.141   0.131  0.7091  0.0767  0.1895
  329TMC3    C3 4937   3.227   2.117   0.207  0.5445 -0.4816 -0.4516
  329TMC3    C4 4938   3.124   1.922   0.039  0.3023  0.4740  0.8037
  329TMC3    C5 4939   3.225   1.901   0.132 -0.7842  0.3351 -0.8212
  329TMC3    C6 4940   3.279   1.993   0.217 -0.1091  0.3183 -0.3911
  329TMC3     C 4941   3.024   2.095  17.610 -0.5515 -1.0764  0.2643
  329TMC3     O 4942   3.017   2.218  17.600  0.0012  0.3187  0.1187
  329TMC3     H 4943   3.064   2.238   0.130 -0.5910 -0.5459  1.0382
  329TMC3    H1 4944   3.104   1.841  17.672  1.1947  0.5516  0.4555
  329TMC3    H2 4945   3.363   1.981   0.285  0.3062 -1.0792 -1.1553
  329TMC3    C7 4946   3.286   1.768   0.151  0.3807  0.8316  0.1771
  329TMC3    C8 4947   3.309   2.228   0.258 -0.1714 -0.0225 -0.1426
  329TMC3    O1 4948   3.326   1.745   0.263  0.2436  0.0428  0.0051
  329TMC3    O2 4949   3.403   2.190   0.331 -0.1750  0.4586 -0.3770
  330TMC3    C1 4950   1.946   1.000  10.323  0.1077 -0.2075 -0.2554
  330TMC3    C2 4951   1.885   0.955  10.204 -0.1884 -0.3528 -0.1655
  330TMC3    C3 4952   1.799   0.850  10.196 -0.4366 -0.0687 -0.3009
  330TMC3    C4 4953   1.920   0.930  10.434  0.1738  0.0445  0.4630
  330TMC3    C5 4954   1.835   0.825  10.427 -0.1102 -0.7036  0.6082
  330TMC3    C6 4955   1.773   0.780  10.310  0.3594 -0.3592  0.7397
  330TMC3     C 4956   1.946   1.145  10.350 -0.8913  0.5412 -0.2857
  330TMC3     O 4957   1.993   1.194  10.449  0.3498  0.3057 -0.5708
  330TMC3     H 4958   1.931   0.992  10.113 -1.5045  0.0355 -0.6620
  330TMC3    H1 4959   1.946   0.964  10.534  0.6097 -0.6273  0.5787
  330TMC3    H2 4960   1.707   0.694  10.314  2.0928 -1.7054  0.2594
  330TMC3    C7 4961   1.829   0.735  10.542  0.3163 -0.0757  0.4929
  330TMC3    C8 4962   1.684   0.887  10.115 -0.1737  0.2712 -0.3474
  330TMC3    O1 4963   1.724   0.674  10.543 -0.1847 -0.2794  0.3681
  330TMC3    O2 4964   1.680   0.998  10.061  0.0403 -0.5899  0.0979
  331MPD2     C 4965   0.053   0.725  13.092  0.6896 -0.3692 -0.7240
  331MPD2    C1 4966   0.121   0.774  12.984 -0.3835 -0.2579  0.7720
  331MPD2    C2 4967   0.103   0.710  12.864 -0.4752  0.9100 -0.1025
  331MPD2    C3 4968   4.725   0.620  12.843 -0.4780 -0.5759 -0.1766
  331MPD2    C4 4969   4.652   0.587  12.953 -0.4894 -0.2612 -0.3856
  331MPD2    C5 4970   4.678   0.642  13.075 -0.5962 -0.7688 -0.0925
  331MPD2     H 4971   0.180   0.711  12.787 -1.6757  0.1103 -1.3135
  331MPD2    H1 4972   4.564   0.525  12.939 -0.3663 -0.2306 -1.2931
  331MPD2    H2 4973   0.083   0.763  13.189  0.2398 -2.2431  0.1597
  331MPD2    H3 4974   4.615   0.632  13.162 -0.0939  2.9212  0.7259
  331MPD2     N 4975   4.711   0.564  12.713 -0.0636 -0.1507 -0.0861
  331MPD2    H5 4976   0.064   0.580  12.650 -1.3978 -1.9615 -2.2176
  331MPD2    N1 4977   0.232   0.863  13.007 -0.2642 -0.6220  0.4805
  331MPD2    H7 4978   0.266   0.873  13.102  0.2050 -0.2011  0.2657
  332TMC3    C1 4979   4.616   0.420  12.547  0.4329 -0.6140 -0.3321
  332TMC3    C2 4980   4.654   0.501  12.443  0.9484 -0.5900  0.3713
  332TMC3    C3 4981   4.617   0.445  12.321 -0.3524 -0.2376  0.0019
  332TMC3    C4 4982   4.553   0.299  12.542  0.8155  0.0498  0.1067
  332TMC3    C5 4983   4.539   0.243  12.416  0.3547 -0.3096 -1.0413
  332TMC3    C6 4984   4.565   0.317  12.302 -0.1740 -0.0974 -0.0294
  332TMC3     C 4985   4.606   0.478  12.678 -0.1208  0.9621  0.3387
  332TMC3     O 4986   4.508   0.439  12.738  0.2524 -0.2065  0.0136
  332TMC3     H 4987   4.690   0.603  12.450 -0.5253 -0.1426  1.4606
  332TMC3    H1 4988   4.529   0.242  12.631  0.8159 -1.7188 -1.0214
  332TMC3    H2 4989   4.586   0.267  12.208 -3.1029 -0.0419 -0.7060
  332TMC3    C7 4990   4.567   0.102  12.389 -0.8358  0.2603 -0.4040
  332TMC3    C8 4991   4.699   0.495  12.213  0.2440  0.9507 -0.5866
  332TMC3    O1 4992   4.520   0.061  12.284 -0.3299  0.0933  0.0281
  332TMC3    O2 4993   0.073   0.556  12.243  0.2427  0.0292  0.2774
  333MPD2     C 4994   4.605   0.194  11.263 -0.2490 -0.4937  0.2501
  333MPD2    C1 4995   4.706   0.127  11.190  0.4090 -0.6601  0.6454
  333MPD2    C2 4996   4.688   4.720  11.170 -0.2933  0.3625 -0.3710
  333MPD2    C3 4997   4.582   4.646  11.217  0.0715  0.3070  0.5415
  333MPD2    C4 4998   4.482   4.717  11.280 -0.4033  0.1279 -0.6865
  333MPD2    C5 4999   4.493   0.126  11.299 -0.5615  0.5278  0.5010
  333MPD2     H 5000   0.043   4.665  11.121 -0.3149  0.4374 -0.4893
  333MPD2    H1 5001   4.386   4.676  11.308  0.7932 -2.0195  0.2538
  333MPD2    H2 5002   4.614   0.302  11.265  1.5344 -0.6094 -2.4473
  333MPD2    H3 5003   4.415   0.184  11.348 -0.1134  2.1592 -0.7113
  333MPD2     N 5004   4.591   4.503  11.198  0.5541 -0.4868 -0.4841
  333MPD2    H5 5005   4.678   4.472  11.156  1.3605 -1.5104  1.9721
  333MPD2    N1 5006   0.090   0.203  11.138 -0.1822 -0.0060 -0.1211
  333MPD2    H7 5007   0.087   0.303  11.155  3.7849  0.1485 -0.3836
  334TMC3    C1 5008   0.272   0.257  10.999 -0.3109  0.2928  0.2901
  334TMC3    C2 5009   0.392   0.208  10.964  0.6258  0.3349 -0.0538
  334TMC3    C3 5010   0.498   0.294  10.955  0.0882 -0.0254  0.3696
  334TMC3    C4 5011   0.250   0.396  10.994  0.3920 -0.0135  0.2809
  334TMC3    C5 5012   0.359   0.479  10.971 -0.0883 -0.1766  0.3199
  334TMC3    C6 5013   0.482   0.430  10.952  0.2732 -0.9205 -0.0617
  334TMC3     C 5014   0.176   0.163  11.045  0.1680 -0.0918  0.4685
  334TMC3     O 5015   0.194   0.050  11.008 -0.1036 -0.1671  0.3413
  334TMC3     H 5016   0.409   0.101  10.964 -0.1549  0.2088  0.6699
  334TMC3    H1 5017   0.150   0.432  11.017  1.0638  2.0467 -0.0319
  334TMC3    H2 5018   0.558   0.497  10.914 -2.0163  2.9224  2.0090
  334TMC3    C7 5019   0.360   0.614  11.010  0.1869  0.1831  0.5063
  334TMC3    C8 5020   0.610   0.239  10.873  0.0484  0.3552 -0.4799
  334TMC3    O1 5021   0.472   0.654  11.042 -0.1724 -0.1211 -0.7396
  334TMC3    O2 5022   0.598   0.128  10.818  0.2227 -0.4617 -0.1604
  335TMC3    C1 5023   3.975   2.502  17.149 -1.0669  0.4027  0.3807
  335TMC3    C2 5024   3.885   2.459  17.058  0.5881  0.0393  0.5218
  335TMC3    C3 5025   3.928   2.352  16.976 -0.5212  0.1712 -0.3014
  335TMC3    C4 5026   4.106   2.458  17.161  0.2801 -0.4883  0.1240
  335TMC3    C5 5027   4.141   2.353  17.081  0.1863  0.8207 -0.0347
  335TMC3    C6 5028   4.061   2.310  16.976 -0.2288 -0.3135 -0.3932
  335TMC3     C 5029   3.954   2.631  17.217 -0.2177 -0.3564  0.0001
  335TMC3     O 5030   4.047   2.682  17.277 -0.4079  0.2478 -0.0376
  335TMC3     H 5031   3.788   2.501  17.036  0.8854  0.5756  0.2412
  335TMC3    H1 5032   4.180   2.503  17.225 -0.8678 -0.6250  1.5619
  335TMC3    H2 5033   4.095   2.234  16.906  1.1191 -1.6557  1.7028
  335TMC3    C7 5034   4.255   2.278  17.116 -0.4164 -0.1688 -0.6397
  335TMC3    C8 5035   3.829   2.278  16.909 -0.1936  0.2797 -0.0799
  335TMC3    O1 5036   4.313   2.218  17.027 -0.5116  0.5029  0.4262
  335TMC3    O2 5037   3.728   2.334  16.882 -0.2676  0.0284  0.0157
  336MPD2     C 5038   3.800   0.204  15.481 -0.1904 -0.8681  0.0192
  336MPD2    C1 5039   3.783   0.255  15.605 -0.7808 -0.8047 -0.5481
  336MPD2    C2 5040   3.749   0.172  15.706 -0.1578  0.1111 -0.4717
  336MPD2    C3 5041   3.737   0.037  15.689  0.1580  0.3518 -0.0834
  336MPD2    C4 5042   3.755   4.710  15.563  0.2927  1.2635 -0.3141
  336MPD2    C5 5043   3.774   0.072  15.457 -0.0190  0.7961  0.0463
  336MPD2     H 5044   3.740   0.222  15.802  0.9004 -1.5833  0.5218
  336MPD2    H1 5045   3.733   4.607  15.536  4.3169  0.4065 -0.3899
  336MPD2    H2 5046   3.831   0.268  15.400  0.6308  0.1864  1.1618
  336MPD2    H3 5047   3.779   0.044  15.352 -1.4512  0.1398  0.1560
  336MPD2     N 5048   3.700   4.675  15.796 -0.2379  0.1994 -0.5627
  336MPD2    H5 5049   3.703   4.575  15.783 -0.3299  0.0484  0.5717
  336MPD2    N1 5050   3.806   0.390  15.645 -0.2414 -0.1901 -0.1452
  336MPD2    H7 5051   3.783   0.409  15.742  0.0174  0.5461 -0.2262
  337TMC3    C1 5052   3.787   0.620  15.632  0.0572  0.5506  0.3189
  337TMC3    C2 5053   3.660   0.668  15.599 -0.1287 -0.7594 -0.5350
  337TMC3    C3 5054   3.587   0.736  15.696  0.2017 -0.1046 -0.0177
  337TMC3    C4 5055   3.826   0.626  15.767  0.2011  0.1630  0.4089
  337TMC3    C5 5056   3.748   0.697  15.859 -0.8298 -0.0647 -0.4289
  337TMC3    C6 5057   3.632   0.764  15.822  0.5737 -0.3291  0.5488
  337TMC3     C 5058   3.815   0.495  15.562 -0.3974 -0.1323 -0.1018
  337TMC3     O 5059   3.823   0.499  15.436 -0.5593  0.3501 -0.3393
  337TMC3     H 5060   3.629   0.659  15.496  1.0391 -0.5722 -0.9074
  337TMC3    H1 5061   3.924   0.590  15.796  1.2121  1.8025 -0.9483
  337TMC3    H2 5062   3.560   0.809  15.890  0.4863 -0.3545  0.4729
  337TMC3    C7 5063   3.819   0.745  15.979  0.6448  0.4142 -0.6317
  337TMC3    C8 5064   3.438   0.750  15.676  0.7671 -0.1627 -0.7034
  337TMC3    O1 5065   3.917   0.688  16.011 -0.4801  0.1916  0.3408
  337TMC3    O2 5066   3.381   0.831  15.755 -1.1077 -0.2666 -0.4497
  338MPD2     C 5067   4.199   3.856   1.157 -0.3355  0.0555 -0.8966
  338MPD2    C1 5068   4.127   3.929   1.067 -0.1737  0.4843  0.6104
  338MPD2    C2 5069   3.989   3.957   1.086  0.6584  0.5921  0.0751
  338MPD2    C3 5070   3.925   3.889   1.189  0.6205 -0.4431 -0.5950
  338MPD2    C4 5071   4.000   3.812   1.276 -0.2847 -0.5865  0.4706
  338MPD2    C5 5072   4.135   3.800   1.267 -0.4468  0.8625 -0.2088
  338MPD2     H 5073   3.930   4.021   1.022 -0.0201  0.5577  0.6635
  338MPD2    H1 5074   3.951   3.761   1.358 -0.0069 -2.6260 -0.6573
  338MPD2    H2 5075   4.305   3.833   1.146 -0.4841 -1.4423  0.8300
  338MPD2    H3 5076   4.198   3.740   1.332 -0.4520  0.8507 -0.2144
  338MPD2     N 5077   3.789   3.906   1.203  0.0063 -0.4100 -0.0036
  338MPD2    H5 5078   3.737   3.978   1.153 -0.4784 -1.3144 -0.7974
  338MPD2    N1 5079   4.193   3.981   0.953  0.1933 -0.1987  0.3573
  338MPD2    H7 5080   4.135   4.007   0.874 -1.1898  1.3998  1.9069
  339TMC3    C1 5081   3.571   3.913   1.278 -1.0488 -0.3978  0.4783
  339TMC3    C2 5082   3.466   3.825   1.263  0.4448  0.0640 -0.4995
  339TMC3    C3 5083   3.357   3.867   1.196  0.1400 -0.7254  0.0713
  339TMC3    C4 5084   3.567   4.040   1.233  0.3445 -0.4850 -0.5694
  339TMC3    C5 5085   3.460   4.078   1.158 -0.1190 -0.7630  0.1487
  339TMC3    C6 5086   3.350   3.997   1.138  0.8499 -0.2213 -0.2600
  339TMC3     C 5087   3.702   3.847   1.287 -0.0527 -0.3302  0.3745
  339TMC3     O 5088   3.716   3.748   1.357  0.2323 -0.1766  0.1453
  339TMC3     H 5089   3.474   3.725   1.305 -1.8705  0.0504 -0.0865
  339TMC3    H1 5090   3.655   4.102   1.236  1.3313 -1.8631 -1.0471
  339TMC3    H2 5091   3.261   4.039   1.093  1.4392  2.8346  1.4223
  339TMC3    C7 5092   3.501   4.156   1.044 -0.5696 -0.3225  0.6626
  339TMC3    C8 5093   3.224   3.805   1.212 -1.1348 -0.0791 -0.2477
  339TMC3    O1 5094   3.613   4.134   1.000 -0.1623  0.6257  0.4731
  339TMC3    O2 5095   3.138   3.840   1.133 -0.1048  0.0789  0.0365
  340MPD2     C 5096   4.120   1.452   9.807  0.7278 -0.2385 -0.1027
  340MPD2    C1 5097   4.178   1.446   9.931  0.4714 -0.2598 -0.1384
  340MPD2    C2 5098   4.218   1.568   9.991 -0.3601 -0.4667 -0.2116
  340MPD2    C3 5099   4.194   1.688   9.934  0.3396 -0.2006  0.4881
  340MPD2    C4 5100   4.134   1.687   9.807  0.0756 -0.5862 -0.3646
  340MPD2    C5 5101   4.097   1.570   9.746  0.5410 -0.6222 -0.2445
  340MPD2     H 5102   4.259   1.573  10.092 -1.2225 -1.6704  0.1982
  340MPD2    H1 5103   4.105   1.776   9.752 -1.1016 -0.6240  0.2031
  340MPD2    H2 5104   4.098   1.361   9.752  1.6364 -1.0629  0.8820
  340MPD2    H3 5105   4.056   1.562   9.646  1.2548 -0.3449 -0.5585
  340MPD2     N 5106   4.230   1.819   9.985 -0.3356  0.0730 -0.4180
  340MPD2    H5 5107   4.225   1.898   9.922 -1.2752  0.5566  0.2490
  340MPD2    N1 5108   4.197   1.311   9.982  0.1127 -0.6045  0.1169
  340MPD2    H7 5109   4.160   1.233   9.928  0.6526 -0.6620 -0.1760
  341TMC3    C1 5110   4.272   1.137  10.098 -0.0414 -0.5235  0.1510
  341TMC3    C2 5111   4.161   1.069  10.052  0.2394 -0.1400  0.6492
  341TMC3    C3 5112   4.182   0.933  10.039 -0.0647  0.9454 -0.2232
  341TMC3    C4 5113   4.392   1.091  10.136  0.7936  0.6812 -0.5148
  341TMC3    C5 5114   4.400   0.958  10.129 -0.0239  0.6399  0.0169
  341TMC3    C6 5115   4.299   0.878  10.082 -0.2880  0.2003 -0.2366
  341TMC3     C 5116   4.272   1.274  10.087  0.4810  1.4829  0.2835
  341TMC3     O 5117   4.344   1.346  10.159  0.0942  0.3068  0.0088
  341TMC3     H 5118   4.064   1.108  10.024  0.3963 -1.2951 -1.4973
  341TMC3    H1 5119   4.477   1.154  10.159  1.7901 -0.3918 -1.3268
  341TMC3    H2 5120   4.302   0.770  10.077 -0.1362  0.1195  1.6105
  341TMC3    C7 5121   4.532   0.901  10.155  0.6454  0.2754  1.0018
  341TMC3    C8 5122   4.073   0.847   9.993 -0.7407 -0.4561  0.8246
  341TMC3    O1 5123   4.633   0.964  10.153 -0.2473 -0.0367 -0.1089
  341TMC3    O2 5124   3.961   0.877  10.024 -0.0125 -0.0698 -0.0662
  342MPD2     C 5125   2.030   0.627   0.060  0.2563  0.2516  0.7221
  342MPD2    C1 5126   2.168   0.646   0.044  0.0506  0.0709 -0.7532
  342MPD2    C2 5127   2.211   0.761  17.699 -0.4112 -0.3685 -0.4204
  342MPD2    C3 5128   2.126   0.870  17.687 -0.0338  0.2332 -0.3573
  342MPD2    C4 5129   1.992   0.849   0.011  0.2372 -0.3384  0.6793
  342MPD2    C5 5130   1.946   0.726   0.039 -0.7636 -0.0332  0.0704
  342MPD2     H 5131   2.316   0.779  17.678 -0.1891 -0.9113  0.2556
  342MPD2    H1 5132   1.914   0.923  17.696  0.2211 -0.4253  0.3920
  342MPD2    H2 5133   1.978   0.540   0.099 -0.6158  0.5474  0.2230
  342MPD2    H3 5134   1.838   0.718   0.049 -0.7991  0.2764 -0.0390
  342MPD2     N 5135   2.158   0.997  17.647  0.3128 -0.4023 -0.1191
  342MPD2    H5 5136   2.089   1.071  17.655  0.1989 -0.4032 -1.0928
  342MPD2    N1 5137   2.261   0.538   0.077  0.0698  0.5243 -0.4485
  342MPD2    H7 5138   2.352   0.563   0.041  1.2118  2.2960  3.7433
  343TMC3    C1 5139   2.358   0.337   0.174  0.2634 -0.6739 -0.0391
  343TMC3    C2 5140   2.479   0.379   0.122 -0.3316  0.0558 -0.0975
  343TMC3    C3 5141   2.567   0.288   0.077 -0.6374  0.3720  0.2435
  343TMC3    C4 5142   2.330   0.201   0.179  0.2603  0.1473 -0.1950
  343TMC3    C5 5143   2.424   0.116   0.129 -0.9287 -0.9141 -0.1486
  343TMC3    C6 5144   2.547   0.153   0.079 -0.6025 -0.1399  0.1434
  343TMC3     C 5145   2.239   0.426   0.154 -0.0232  0.1502 -0.4049
  343TMC3     O 5146   2.138   0.404   0.224 -0.0228  0.0420  0.0107
  343TMC3     H 5147   2.498   0.485   0.105  0.0396 -0.5296 -3.2935
  343TMC3    H1 5148   2.227   0.174   0.200  0.4242 -0.5075 -0.2456
  343TMC3    H2 5149   2.634   0.093   0.056  0.0410  1.0201 -0.4544
  343TMC3    C7 5150   2.399   4.694   0.126 -0.1958  0.0101  0.6110
  343TMC3    C8 5151   2.702   0.338   0.048 -0.2138  0.8197 -0.0640
  343TMC3    O1 5152   2.469   4.628   0.047 -0.1520  0.6815 -0.5578
  343TMC3    O2 5153   2.731   0.454   0.074  0.5236 -0.1428  0.1052
  344MPD2     C 5154   3.288   3.978  10.786 -0.1261  0.5023 -0.0172
  344MPD2    C1 5155   3.407   3.938  10.719  0.4197 -0.2124 -0.3854
  344MPD2    C2 5156   3.474   4.041  10.659 -0.7402  0.4803 -0.3079
  344MPD2    C3 5157   3.426   4.172  10.655 -0.1437 -0.1375  0.2156
  344MPD2    C4 5158   3.312   4.213  10.722  0.8300  0.1262  0.1018
  344MPD2    C5 5159   3.243   4.107  10.790  0.3987 -0.5112 -0.2360
  344MPD2     H 5160   3.571   4.018  10.617 -0.5980 -1.5487  1.1563
  344MPD2    H1 5161   3.283   4.317  10.730 -0.2450 -0.1947  0.4012
  344MPD2    H2 5162   3.222   3.907  10.836 -0.3564  0.5492 -0.2558
  344MPD2    H3 5163   3.151   4.124  10.844  0.1269  1.4493 -1.2958
  344MPD2     N 5164   3.505   4.272  10.591 -0.4372  0.6071  0.2449
  344MPD2    H5 5165   3.462   4.363  10.584 -0.0800  0.6823 -0.8705
  344MPD2    N1 5166   3.460   3.808  10.716 -0.0002  0.2744  0.2792
  344MPD2    H7 5167   3.547   3.800  10.665  0.4303  0.6387  0.9513
  345TMC3    C1 5168   3.679   4.372  10.476 -0.7916 -0.1235  0.5745
  345TMC3    C2 5169   3.806   4.421  10.503  1.0967  1.2215  0.0946
  345TMC3    C3 5170   3.861   4.524  10.435 -0.5642 -0.2781 -0.1380
  345TMC3    C4 5171   3.591   4.446  10.400  0.1427  0.4805 -0.2008
  345TMC3    C5 5172   3.645   4.554  10.338 -0.5999  0.1179 -0.1684
  345TMC3    C6 5173   3.779   4.601  10.357  0.3908 -0.0807 -0.2732
  345TMC3     C 5174   3.635   4.257  10.551  0.1939 -0.0986 -0.4565
  345TMC3     O 5175   3.723   4.182  10.586 -0.1940 -0.7219  0.0839
  345TMC3     H 5176   3.871   4.356  10.560  0.7274  0.6266 -0.1607
  345TMC3    H1 5177   3.489   4.419  10.379 -0.1569  1.2249  0.3145
  345TMC3    H2 5178   3.818   4.671  10.284  1.2136  1.0283  1.2234
  345TMC3    C7 5179   3.558   4.660  10.286  0.6963 -0.9418 -0.0950
  345TMC3    C8 5180   3.988   4.583  10.483  0.1628  0.3945 -0.4747
  345TMC3    O1 5181   3.599   0.046  10.299 -0.3123 -0.4066 -0.3552
  345TMC3    O2 5182   4.088   4.512  10.493 -0.2622  0.0074 -0.4242
  346MPD2     C 5183   3.288   1.622  14.248  0.4618 -0.3637 -0.1044
  346MPD2    C1 5184   3.383   1.715  14.221 -0.1590 -0.6522  0.0721
  346MPD2    C2 5185   3.392   1.829  14.297  0.1491 -0.7897 -0.1042
  346MPD2    C3 5186   3.302   1.857  14.395 -0.2733 -0.8115  0.3386
  346MPD2    C4 5187   3.203   1.765  14.421  0.0979 -0.2087 -0.0623
  346MPD2    C5 5188   3.205   1.649  14.347  0.2616 -0.0260  0.5007
  346MPD2     H 5189   3.472   1.900  14.284  0.5622 -1.0649  0.9677
  346MPD2    H1 5190   3.113   1.781  14.478  1.3443  1.1916  1.5151
  346MPD2    H2 5191   3.281   1.533  14.185 -1.1441 -0.9318  0.8813
  346MPD2    H3 5192   3.122   1.580  14.351 -0.7211  0.9927 -2.0720
  346MPD2     N 5193   3.324   1.970  14.480 -0.0623 -0.5507  0.5011
  346MPD2    H5 5194   3.402   2.032  14.460 -1.1412  1.1484  1.5427
  346MPD2    N1 5195   3.472   1.704  14.108  0.5168 -0.0501  0.2174
  346MPD2    H7 5196   3.529   1.784  14.083 -0.3836  0.5369  0.0780
  347TMC3    C1 5197   3.285   2.107  14.668  0.5624  0.2556  0.7456
  347TMC3    C2 5198   3.420   2.117  14.686  0.6078  0.1744  0.2843
  347TMC3    C3 5199   3.474   2.135  14.809 -0.1451  0.6064 -0.0685
  347TMC3    C4 5200   3.201   2.118  14.776  0.1162 -0.1404  0.6213
  347TMC3    C5 5201   3.256   2.154  14.900  0.6171  1.1006  0.2662
  347TMC3    C6 5202   3.392   2.158  14.925  0.1277 -0.3815  0.1403
  347TMC3     C 5203   3.238   2.008  14.576 -0.8281 -0.1415 -1.0141
  347TMC3     O 5204   3.124   1.972  14.597  0.1061  0.0704  0.1195
  347TMC3     H 5205   3.490   2.093  14.607  1.1143 -0.7346  1.0044
  347TMC3    H1 5206   3.095   2.096  14.774 -0.2512  1.7275 -0.5335
  347TMC3    H2 5207   3.431   2.140  15.024 -2.2292  1.2607  1.3628
  347TMC3    C7 5208   3.172   2.159  15.023  0.0390  0.4646  1.4905
  347TMC3    C8 5209   3.614   2.097  14.822 -0.0253 -0.6310 -0.7027
  347TMC3    O1 5210   3.053   2.128  15.012 -0.2902  0.2002  0.1294
  347TMC3    O2 5211   3.671   2.045  14.729  0.3281 -0.3379 -0.1882
  348MPD2     C 5212   2.695   1.062  12.348  0.4706  0.4194  0.3687
  348MPD2    C1 5213   2.579   1.020  12.287  0.1007 -0.7031 -0.6091
  348MPD2    C2 5214   2.549   1.077  12.157  0.0525  0.6165  0.4529
  348MPD2    C3 5215   2.647   1.157  12.095 -0.3084  0.1183 -0.2077
  348MPD2    C4 5216   2.765   1.189  12.157 -0.8202  0.2373  0.6997
  348MPD2    C5 5217   2.787   1.145  12.281  0.3309  0.4528  0.2712
  348MPD2     H 5218   2.463   1.050  12.096 -0.3467 -0.2958  1.4245
  348MPD2    H1 5219   2.842   1.240  12.101 -0.1042  0.5516  1.9761
  348MPD2    H2 5220   2.724   1.033  12.448 -0.2638  0.5699  0.6254
  348MPD2    H3 5221   2.882   1.156  12.331  0.1755  1.8854  0.2472
  348MPD2     N 5222   2.603   1.194  11.966  0.6647 -0.4623 -0.4953
  348MPD2    H5 5223   2.516   1.163  11.925  0.6806  0.7783 -1.4650
  348MPD2    N1 5224   2.492   0.930  12.354 -0.0779  0.4374  0.8233
  348MPD2    H7 5225   2.408   0.913  12.300 -0.0062  1.2604  0.4379
  349TMC3    C1 5226   2.394   0.763  12.498 -0.8994  0.0727  0.6480
  349TMC3    C2 5227   2.437   0.640  12.559  0.1330 -0.5381  0.0190
  349TMC3    C3 5228   2.349   0.533  12.548 -0.4887  0.6682  0.7250
  349TMC3    C4 5229   2.267   0.776  12.442  0.4980 -0.0382  0.4618
  349TMC3    C5 5230   2.185   0.663  12.439  0.4069 -0.5969  0.0945
  349TMC3    C6 5231   2.233   0.537  12.479 -0.5382  0.0802 -0.0539
  349TMC3     C 5232   2.501   0.867  12.475 -0.6344 -0.1597  0.0202
  349TMC3     O 5233   2.588   0.867  12.561  0.5056  0.4839 -0.4678
  349TMC3     H 5234   2.519   0.641  12.630 -1.5627 -3.0706  2.0116
  349TMC3    H1 5235   2.232   0.870  12.400  0.7599 -0.6317 -1.1024
  349TMC3    H2 5236   2.177   0.445  12.467  2.7691 -2.0342  0.6829
  349TMC3    C7 5237   2.059   0.671  12.369  0.8839  0.6122  0.2180
  349TMC3    C8 5238   2.407   0.405  12.587 -0.3942  0.6928  0.0232
  349TMC3    O1 5239   2.036   0.578  12.292 -0.3988  0.6031  0.2740
  349TMC3    O2 5240   2.335   0.304  12.589 -0.3102 -0.2587  0.0365
  350MPD2     C 5241   0.925   3.976   9.915  0.4936 -0.5954 -0.1221
  350MPD2    C1 5242   0.931   3.856   9.986 -0.6194  0.5168 -0.2672
  350MPD2    C2 5243   0.983   3.863  10.112  0.3609 -0.4553 -0.2087
  350MPD2    C3 5244   1.023   3.980  10.170  0.1783 -0.4075  0.0491
  350MPD2    C4 5245   1.018   4.095  10.090 -0.7642 -0.3042  0.2426
  350MPD2    C5 5246   0.964   4.095   9.966  0.2602 -0.3718 -0.8490
  350MPD2     H 5247   0.990   3.774  10.174  1.5258 -0.8698 -0.9412
  350MPD2    H1 5248   1.062   4.188  10.125 -2.2028  1.0396 -1.5080
  350MPD2    H2 5249   0.892   3.982   9.811  0.4660  0.1170 -0.0726
  350MPD2    H3 5250   0.956   4.186   9.906  2.6184 -0.0824 -0.7176
  350MPD2     N 5251   1.075   3.974  10.304 -0.2452  0.1040  0.2508
  350MPD2    H5 5252   1.066   3.886  10.354 -0.9025  0.0285  0.0001
  350MPD2    N1 5253   0.883   3.732   9.934  0.0334 -0.0618 -0.1954
  350MPD2    H7 5254   0.887   3.654   9.999 -0.9741 -0.5925 -0.7827
  351TMC3    C1 5255   0.741   3.594   9.813  0.5558  0.2178 -0.2020
  351TMC3    C2 5256   0.788   3.477   9.868  0.4924  1.3655  0.7197
  351TMC3    C3 5257   0.704   3.369   9.869  0.0907  0.0459 -0.5786
  351TMC3    C4 5258   0.614   3.595   9.757 -0.2113  0.0652 -0.3648
  351TMC3    C5 5259   0.529   3.488   9.780  0.0592 -0.3545 -0.8433
  351TMC3    C6 5260   0.572   3.377   9.835  0.3346  0.1471 -0.3895
  351TMC3     C 5261   0.818   3.713   9.809  0.0131  0.1280 -0.6580
  351TMC3     O 5262   0.795   3.799   9.722  1.4011 -0.0919  0.0471
  351TMC3     H 5263   0.893   3.466   9.890  0.7286 -1.4740 -1.8434
  351TMC3    H1 5264   0.566   3.689   9.732 -0.4026  0.7813  2.7166
  351TMC3    H2 5265   0.514   3.285   9.837  0.0547  0.3465  0.7637
  351TMC3    C7 5266   0.386   3.500   9.767 -0.2035 -0.6610 -0.1041
  351TMC3    C8 5267   0.743   3.245   9.937  0.6289 -0.4471 -0.0665
  351TMC3    O1 5268   0.312   3.416   9.817  0.4984  0.4294 -0.2993
  351TMC3    O2 5269   0.663   3.186  10.010 -0.0248  0.4014  0.7084
  352MPD2     C 5270   4.386   1.794   0.784 -0.2761 -0.6032  0.5340
  352MPD2    C1 5271   4.260   1.779   0.833 -0.3435 -0.3709  0.3072
  352MPD2    C2 5272   4.234   1.663   0.908 -0.3528 -0.0919 -0.1724
  352MPD2    C3 5273   4.330   1.555   0.916  0.0153 -0.0787  0.7959
  352MPD2    C4 5274   4.453   1.567   0.856 -0.1110  0.0864 -0.2595
  352MPD2    C5 5275   4.477   1.688   0.795  0.3991 -0.4652  1.0179
  352MPD2     H 5276   4.140   1.657   0.961 -1.8749 -2.7560 -3.0922
  352MPD2    H1 5277   4.533   1.494   0.866 -0.3117 -0.2130 -0.8258
  352MPD2    H2 5278   4.420   1.884   0.734  1.4790 -0.7418  1.4966
  352MPD2    H3 5279   4.576   1.694   0.751  0.4156 -0.7386  1.0196
  352MPD2     N 5280   4.308   1.443   0.992  0.2142 -0.2130 -0.4568
  352MPD2    H5 5281   4.391   1.390   1.018 -0.0284 -0.9608 -1.2103
  352MPD2    N1 5282   4.163   1.875   0.810 -0.4674  0.5019  0.2706
  352MPD2    H7 5283   4.182   1.943   0.738  0.6450  1.7847  1.7748
  353TMC3    C1 5284   4.203   1.276   1.114 -0.4503  0.0909 -0.2397
  353TMC3    C2 5285   4.303   1.187   1.090 -0.6604  0.0930  0.5995
  353TMC3    C3 5286   4.295   1.059   1.139  0.9092  0.2017 -0.0572
  353TMC3    C4 5287   4.095   1.238   1.189 -0.2296  0.2032 -0.5319
  353TMC3    C5 5288   4.088   1.114   1.239  0.5586 -0.1207 -1.1722
  353TMC3    C6 5289   4.180   1.022   1.202  0.0647 -0.2592  0.2661
  353TMC3     C 5290   4.187   1.401   1.045  0.3270 -0.8479 -0.1658
  353TMC3     O 5291   4.073   1.448   1.035  0.3970 -0.3868  0.5345
  353TMC3     H 5292   4.384   1.207   1.021  0.0942  0.8192  1.6917
  353TMC3    H1 5293   4.029   1.315   1.228 -0.6451 -0.2003 -0.4237
  353TMC3    H2 5294   4.175   0.924   1.248  1.3343 -0.0455  0.8665
  353TMC3    C7 5295   3.957   1.060   1.275 -0.6696 -0.5613  0.1959
  353TMC3    C8 5296   4.418   0.982   1.132 -0.6732  0.0328  0.4645
  353TMC3    O1 5297   3.861   1.116   1.222 -0.2812 -0.0947  0.4365
  353TMC3    O2 5298   4.515   1.039   1.089  0.8029 -0.4043  0.0067
  354TMC3    C1 5299   1.433   2.350  13.635 -0.0396 -0.6249 -0.3982
  354TMC3    C2 5300   1.400   2.413  13.516  0.5338 -0.6665  0.6475
  354TMC3    C3 5301   1.506   2.452  13.434 -0.5904  0.6650  0.8097
  354TMC3    C4 5302   1.562   2.330  13.668  0.1044 -0.0204 -0.1368
  354TMC3    C5 5303   1.663   2.373  13.588  0.6696  0.1341  0.0034
  354TMC3    C6 5304   1.641   2.444  13.472  0.4026  0.1885 -0.1375
  354TMC3     C 5305   1.333   2.308  13.728 -0.3604  0.5224  0.5930
  354TMC3     O 5306   1.212   2.314  13.703 -0.4593 -0.0706  0.1784
  354TMC3     H 5307   1.296   2.437  13.496  0.4777 -0.8922  0.6582
  354TMC3    H1 5308   1.594   2.270  13.752 -0.2154  0.5819  0.4160
  354TMC3    H2 5309   1.717   2.494  13.414  0.3421  0.9112  0.4092
  354TMC3    C7 5310   1.799   2.337  13.620 -0.4355 -0.6212 -0.6062
  354TMC3    C8 5311   1.477   2.520  13.311 -0.1329  0.4985 -0.3317
  354TMC3    O1 5312   1.819   2.275  13.722 -0.5730 -0.0015  0.6401
  354TMC3    O2 5313   1.559   2.492  13.228 -0.5616  0.3289 -0.3370
  355MPD2     C 5314   1.504   3.074  11.922 -0.6854 -0.0337  0.6514
  355MPD2    C1 5315   1.555   2.980  11.828 -0.2401  0.2815  0.5350
  355MPD2    C2 5316   1.650   2.891  11.872 -0.5357  1.0618  0.2257
  355MPD2    C3 5317   1.712   2.913  11.995  0.0478  0.7904 -0.4657
  355MPD2    C4 5318   1.653   3.000  12.086 -0.5812  0.0774 -1.1962
  355MPD2    C5 5319   1.547   3.077  12.054 -0.7971  0.1090 -0.2254
  355MPD2     H 5320   1.676   2.806  11.810 -4.4282  1.0523 -1.3966
  355MPD2    H1 5321   1.681   3.004  12.190 -2.1261 -3.3989 -0.6651
  355MPD2    H2 5322   1.416   3.131  11.896 -0.7686 -0.9034 -0.9594
  355MPD2    H3 5323   1.486   3.134  12.124 -0.7323  0.2960 -0.3202
  355MPD2     N 5324   1.824   2.840  12.038  0.3009  0.3678  0.2233
  355MPD2    H5 5325   1.838   2.828  12.138  0.7869 -1.0160 -0.0051
  355MPD2    N1 5326   1.493   2.973  11.705  0.0660 -0.0569 -0.5704
  355MPD2    H7 5327   1.415   3.035  11.684 -0.3643 -1.3348 -2.7541
  356TMC3    C1 5328   2.005   2.691  12.022 -0.5133 -0.0486  0.3589
  356TMC3    C2 5329   2.101   2.643  11.939 -0.3774  0.5403 -0.4391
  356TMC3    C3 5330   2.225   2.628  11.991  0.5393  0.3562  1.0723
  356TMC3    C4 5331   2.029   2.702  12.163  0.0087 -0.2711 -0.0700
  356TMC3    C5 5332   2.155   2.681  12.210 -0.5191 -1.0115  0.2398
  356TMC3    C6 5333   2.259   2.648  12.122 -0.2012  0.3922  0.1645
  356TMC3     C 5334   1.907   2.779  11.952  0.2441  0.2720 -0.1168
  356TMC3     O 5335   1.919   2.790  11.831 -0.4205 -0.0374  0.0696
  356TMC3     H 5336   2.076   2.632  11.834 -0.3493 -0.8126 -0.2977
  356TMC3    H1 5337   1.952   2.736  12.231 -1.0199 -1.6988 -0.5277
  356TMC3    H2 5338   2.361   2.647  12.159 -0.6071 -0.9316  1.2684
  356TMC3    C7 5339   2.188   2.707  12.350  0.8579 -0.3017 -0.4688
  356TMC3    C8 5340   2.329   2.616  11.891  0.6409  0.4681 -0.3137
  356TMC3    O1 5341   2.127   2.802  12.393  0.0080  0.6565 -0.0600
  356TMC3    O2 5342   2.300   2.540  11.802  0.3555  0.0557  0.4520
  357MPD2     C 5343   0.618   3.657   1.719  0.1265  0.0719 -0.6938
  357MPD2    C1 5344   0.624   3.638   1.585  0.8320 -0.1802 -0.1215
  357MPD2    C2 5345   0.514   3.682   1.509  0.3335 -0.7061  0.4231
  357MPD2    C3 5346   0.393   3.727   1.564 -0.2756  0.3413 -0.3362
  357MPD2    C4 5347   0.383   3.735   1.699 -0.0204 -0.1989  0.3967
  357MPD2    C5 5348   0.501   3.712   1.775  0.2475 -0.2994  0.0400
  357MPD2     H 5349   0.520   3.672   1.401 -0.3597  0.2774  0.2995
  357MPD2    H1 5350   0.302   3.782   1.753 -0.3113  1.4215 -1.4552
  357MPD2    H2 5351   0.702   3.617   1.774 -1.7837 -3.0631 -0.0562
  357MPD2    H3 5352   0.504   3.719   1.884 -1.8566 -1.9689  0.1953
  357MPD2     N 5353   0.286   3.753   1.466  0.0706  0.2641  0.5666
  357MPD2    H5 5354   0.308   3.768   1.368  2.4647 -0.9068  0.9259
  357MPD2    N1 5355   0.741   3.588   1.529 -0.6530 -0.3863 -0.4658
  357MPD2    H7 5356   0.818   3.545   1.578  1.0269  1.2628 -1.6319
  358TMC3    C1 5357   0.875   3.508   1.354  0.3703 -0.6608 -0.0199
  358TMC3    C2 5358   0.851   3.422   1.252  0.2948  0.1743  0.6118
  358TMC3    C3 5359   0.940   3.317   1.230  0.3256  0.2043 -1.0657
  358TMC3    C4 5360   0.981   3.492   1.438 -0.2802 -0.3274  0.5626
  358TMC3    C5 5361   1.065   3.386   1.415  1.0997 -0.2021 -0.0696
  358TMC3    C6 5362   1.058   3.296   1.313 -0.0561 -0.3905 -0.1111
  358TMC3     C 5363   0.768   3.594   1.392 -0.0384 -0.0933 -0.1408
  358TMC3     O 5364   0.720   3.664   1.304 -0.0344  0.9576 -0.2565
  358TMC3     H 5365   0.758   3.441   1.200 -0.1333  0.7937  1.6040
  358TMC3    H1 5366   1.005   3.566   1.513  0.9305  2.9137 -3.0083
  358TMC3    H2 5367   1.119   3.206   1.313 -1.2384 -1.2017 -0.6535
  358TMC3    C7 5368   1.180   3.367   1.498  0.4457 -0.3617 -0.1860
  358TMC3    C8 5369   0.906   3.222   1.126 -0.1720 -0.2701 -0.3918
  358TMC3    O1 5370   1.255   3.278   1.467 -0.0321  0.1648 -0.0608
  358TMC3    O2 5371   0.790   3.224   1.084  0.1923 -0.2951  0.6260
  359MPD2     C 5372   2.128   2.238  12.571 -0.2044  0.8799 -0.0719
  359MPD2    C1 5373   2.120   2.126  12.485 -0.0655 -0.4500 -0.8399
  359MPD2    C2 5374   2.072   2.009  12.535  0.9630  0.1983  0.8368
  359MPD2    C3 5375   2.047   1.992  12.667 -0.5730 -0.3762 -0.0747
  359MPD2    C4 5376   2.050   2.105  12.743 -0.0178 -0.3017  0.0364
  359MPD2    C5 5377   2.104   2.219  12.702  0.0268  0.1016  0.7361
  359MPD2     H 5378   2.061   1.928  12.464 -0.7993 -1.5386  3.0665
  359MPD2    H1 5379   2.015   2.110  12.846  1.0042  0.3360  0.3604
  359MPD2    H2 5380   2.165   2.336  12.544  1.3066  0.3333  0.0142
  359MPD2    H3 5381   2.107   2.300  12.774  2.2809  0.9397 -0.2917
  359MPD2     N 5382   1.991   1.879  12.720 -0.2286  0.4338 -0.0895
  359MPD2    H5 5383   1.951   1.883  12.813  0.2298  2.9027 -0.0121
  359MPD2    N1 5384   2.150   2.142  12.351  0.2613 -0.7981 -0.3239
  359MPD2    H7 5385   2.130   2.061  12.292 -1.4558 -0.2195 -0.5325
  360TMC3    C1 5386   2.229   2.226  12.151  0.3653  0.7398  0.1927
  360TMC3    C2 5387   2.345   2.283  12.106 -0.5290  0.5964  0.1530
  360TMC3    C3 5388   2.406   2.234  11.994  0.7116  0.3726  0.8168
  360TMC3    C4 5389   2.169   2.118  12.081 -0.2887 -0.3265  0.0161
  360TMC3    C5 5390   2.238   2.062  11.975  0.9548  0.3377  0.1275
  360TMC3    C6 5391   2.353   2.119  11.930 -0.2185 -0.6950  0.0509
  360TMC3     C 5392   2.206   2.251  12.292 -0.0958 -0.8006 -0.5120
  360TMC3     O 5393   2.232   2.365  12.334 -0.0795  0.4890  0.1823
  360TMC3     H 5394   2.403   2.343  12.175  1.7274  0.0876 -1.2960
  360TMC3    H1 5395   2.097   2.054  12.130 -0.7786  0.2341  0.0328
  360TMC3    H2 5396   2.405   2.065  11.852 -2.1998 -0.1846 -1.6331
  360TMC3    C7 5397   2.184   1.950  11.896 -0.1420 -0.0304 -0.0482
  360TMC3    C8 5398   2.545   2.259  11.975 -0.1595  1.3199  0.0363
  360TMC3    O1 5399   2.231   1.940  11.781  1.0300 -0.3334  0.2591
  360TMC3    O2 5400   2.582   2.368  12.017  0.5495  0.4672  0.2726
  361MPD2     C 5401   3.298   1.025  16.698  0.3861 -0.0559  0.0623
  361MPD2    C1 5402   3.327   1.098  16.809  0.0635  0.8308  0.1400
  361MPD2    C2 5403   3.417   1.036  16.908 -0.8156  0.1388 -0.1115
  361MPD2    C3 5404   3.479   0.917  16.880 -0.3660  0.2759  0.4686
  361MPD2    C4 5405   3.452   0.856  16.760 -0.2060  0.4901  0.6497
  361MPD2    C5 5406   3.358   0.904  16.669 -0.3397  0.3924 -0.2892
  361MPD2     H 5407   3.420   1.069  17.011 -0.6873 -0.5208  0.1006
  361MPD2    H1 5408   3.494   0.759  16.733  1.0378  1.0549  0.5611
  361MPD2    H2 5409   3.240   1.074  16.621  0.0682  1.0914  1.0366
  361MPD2    H3 5410   3.351   0.852  16.575 -1.2414  1.3047 -0.7190
  361MPD2     N 5411   3.569   0.852  16.966 -0.5480 -1.1468 -0.0360
  361MPD2    H5 5412   3.610   0.762  16.942 -0.1484 -0.4459 -1.9519
  361MPD2    N1 5413   3.254   1.214  16.838 -0.5438  0.0987  0.0637
  361MPD2    H7 5414   3.274   1.259  16.927 -2.3074  0.0875  0.4588
  362TMC3    C1 5415   3.138   1.420  16.792  0.0286  0.1228  0.9702
  362TMC3    C2 5416   3.070   1.406  16.911  0.8660  0.1843 -0.3056
  362TMC3    C3 5417   2.980   1.503  16.943  0.2289  0.2067  0.2210
  362TMC3    C4 5418   3.098   1.512  16.702  0.0819  0.0234  0.4332
  362TMC3    C5 5419   3.008   1.606  16.740 -0.4661  0.4214  0.1529
  362TMC3    C6 5420   2.952   1.607  16.861  0.0276  0.0939  0.4220
  362TMC3     C 5421   3.198   1.302  16.744 -0.5094  0.1460  0.5094
  362TMC3     O 5422   3.222   1.301  16.624  0.7003  0.1353 -0.3625
  362TMC3     H 5423   3.086   1.318  16.972  0.5359 -1.1583 -2.1519
  362TMC3    H1 5424   3.170   1.532  16.624 -1.4261 -0.7518 -1.1555
  362TMC3    H2 5425   2.888   1.693  16.882  1.7900  1.2950  0.8281
  362TMC3    C7 5426   2.944   1.694  16.648 -0.0776  0.8880 -0.1027
  362TMC3    C8 5427   2.913   1.494  17.071  0.5393  0.2492  0.1434
  362TMC3    O1 5428   2.879   1.794  16.676  0.1703  0.6660 -0.3322
  362TMC3    O2 5429   2.979   1.448  17.166  0.2438 -0.6941  0.6947
  363TMC3    C1 5430   2.219   3.349   9.676 -0.0668 -0.0016  0.6598
  363TMC3    C2 5431   2.187   3.229   9.737  0.4813  0.1096 -0.1072
  363TMC3    C3 5432   2.064   3.218   9.793  0.1983 -0.3428  0.4386
  363TMC3    C4 5433   2.134   3.452   9.670 -0.0435  0.2710  0.1654
  363TMC3    C5 5434   2.020   3.443   9.737  0.2805 -0.0755  0.3894
  363TMC3    C6 5435   1.978   3.323   9.794  0.2176 -0.2633 -0.6332
  363TMC3     C 5436   2.355   3.371   9.634 -0.9923 -0.1687 -0.3769
  363TMC3     O 5437   2.439   3.299   9.687  0.3645  0.2872 -0.2086
  363TMC3     H 5438   2.265   3.154   9.742  2.1431  1.9070  0.9634
  363TMC3    H1 5439   2.164   3.550   9.634  2.9126 -0.4632  0.6136
  363TMC3    H2 5440   1.880   3.301   9.835  0.3677 -2.1912 -1.2821
  363TMC3    C7 5441   1.920   3.540   9.701 -0.7215  0.0437  0.8480
  363TMC3    C8 5442   2.013   3.088   9.840 -0.5120  0.6148 -0.2783
  363TMC3    O1 5443   1.950   3.659   9.691 -0.4053 -0.0846  0.2961
  363TMC3    O2 5444   1.900   3.081   9.884  0.5830  0.3448 -0.6414
  364MPD2     C 5445   0.782   2.178  10.670 -0.2333  0.3697  0.1361
  364MPD2    C1 5446   0.911   2.146  10.628  0.3402 -0.1754 -0.1884
  364MPD2    C2 5447   0.964   2.023  10.668 -0.0476 -0.5711 -0.0505
  364MPD2    C3 5448   0.892   1.940  10.750  0.5646 -0.1979 -0.0174
  364MPD2    C4 5449   0.766   1.973  10.795 -0.5166 -0.3471 -0.1557
  364MPD2    C5 5450   0.713   2.098  10.756  1.2437  0.4548 -0.0469
  364MPD2     H 5451   1.060   1.990  10.628  0.2105  1.1106 -0.8266
  364MPD2    H1 5452   0.710   1.895  10.845  0.5536 -0.5031  0.7981
  364MPD2    H2 5453   0.729   2.264  10.629  1.6162  1.3857 -0.1216
  364MPD2    H3 5454   0.609   2.117  10.775  0.9125 -0.3831 -1.0185
  364MPD2     N 5455   0.941   1.817  10.801 -0.3343 -0.0967  0.4502
  364MPD2    H5 5456   0.887   1.767  10.871  0.4243 -1.4195  0.0978
  364MPD2    N1 5457   0.978   2.227  10.534  0.4631  0.2729  0.3192
  364MPD2    H7 5458   0.925   2.303  10.492 -0.1949 -1.4191 -1.9212
  365TMC3    C1 5459   1.154   2.312  10.401 -0.2181  0.0660 -0.2763
  365TMC3    C2 5460   1.073   2.346  10.296 -0.0332 -1.1554  0.4850
  365TMC3    C3 5461   1.128   2.430  10.199  0.6911 -0.1665 -0.1878
  365TMC3    C4 5462   1.279   2.364  10.423 -0.1334  0.4644  0.4355
  365TMC3    C5 5463   1.320   2.457  10.327  0.0732  0.1037 -0.1421
  365TMC3    C6 5464   1.254   2.480  10.210  0.5829  0.1668  0.1812
  365TMC3     C 5465   1.108   2.219  10.503  0.0322 -0.6469  0.4554
  365TMC3     O 5466   1.191   2.150  10.548 -0.8331  0.0689 -0.2836
  365TMC3     H 5467   0.979   2.297  10.273  0.4380 -1.8013 -0.0671
  365TMC3    H1 5468   1.348   2.341  10.504 -1.0219 -1.5411  0.6075
  365TMC3    H2 5469   1.287   2.552  10.136  0.6486 -0.6447 -0.5804
  365TMC3    C7 5470   1.349   2.581  10.390 -0.1824 -0.2821 -0.1546
  365TMC3    C8 5471   1.034   2.531  10.147  0.3287 -0.0464  0.0571
  365TMC3    O1 5472   1.395   2.669  10.321  0.2049  0.2215  0.4621
  365TMC3    O2 5473   1.074   2.600  10.057  0.3343 -0.3146 -0.2044
  366MPD2     C 5474   3.692   3.842  14.941  0.2743  0.5522  0.2485
  366MPD2    C1 5475   3.725   3.865  15.068  0.7188  0.2726  0.3687
  366MPD2    C2 5476   3.841   3.818  15.122  0.7691 -0.5933 -0.4530
  366MPD2    C3 5477   3.935   3.753  15.046 -0.4996 -0.1398 -0.3065
  366MPD2    C4 5478   3.898   3.733  14.918 -0.1264  0.1897 -0.1665
  366MPD2    C5 5479   3.785   3.778  14.866 -0.3775  0.2363  0.4155
  366MPD2     H 5480   3.865   3.837  15.226 -0.3838 -0.1391 -0.2622
  366MPD2    H1 5481   3.959   3.684  14.844  1.1617 -0.5007  1.3400
  366MPD2    H2 5482   3.599   3.877  14.898  1.2401  1.0660 -1.4137
  366MPD2    H3 5483   3.764   3.756  14.762 -3.5110 -1.6309  1.4296
  366MPD2     N 5484   4.066   3.703  15.086  0.4795  0.2084  0.2914
  366MPD2    H5 5485   4.091   3.628  15.023  0.8128  0.5259  0.0511
  366MPD2    N1 5486   3.637   3.927  15.160  0.3740 -0.0396  0.2702
  366MPD2    H7 5487   3.681   3.950  15.248  0.7084  0.5362 -0.0430
  367TMC3    C1 5488   3.446   4.048  15.238 -0.2480  0.0883 -0.2309
  367TMC3    C2 5489   3.515   4.091  15.351 -0.3254 -0.9126 -0.9966
  367TMC3    C3 5490   3.536   4.224  15.384 -0.0020 -0.8293 -0.8217
  367TMC3    C4 5491   3.382   4.155  15.179  0.0457 -0.0808 -1.0638
  367TMC3    C5 5492   3.377   4.282  15.221  0.2482 -0.3434  0.3819
  367TMC3    C6 5493   3.471   4.326  15.314  0.1696 -0.3681  0.3823
  367TMC3     C 5494   3.502   3.951  15.145 -0.3582 -0.1027 -0.4371
  367TMC3     O 5495   3.429   3.923  15.052 -0.1679 -0.7686  0.0748
  367TMC3     H 5496   3.568   4.015  15.408  0.9900  0.7205 -0.0578
  367TMC3    H1 5497   3.324   4.131  15.091 -1.2789  2.1063 -0.7945
  367TMC3    H2 5498   3.482   4.431  15.336 -1.0842 -0.2180  0.2888
  367TMC3    C7 5499   3.283   4.376  15.171  0.9117 -0.4949  0.2537
  367TMC3    C8 5500   3.662   4.256  15.449 -0.2798 -0.6094 -0.3150
  367TMC3    O1 5501   3.319   4.494  15.165  0.3686 -0.2190  0.5245
  367TMC3    O2 5502   3.705   4.184  15.540  0.8265  0.2971  0.2768
  368MPD2     C 5503   0.542   1.002  13.675  0.2542  0.0041  0.1210
  368MPD2    C1 5504   0.560   0.995  13.540 -0.4032  0.7096  0.2872
  368MPD2    C2 5505   0.683   1.034  13.491 -0.5092 -0.3437 -0.0301
  368MPD2    C3 5506   0.792   1.053  13.568  0.0846 -0.3240 -0.1686
  368MPD2    C4 5507   0.777   1.055  13.704 -0.2660  0.0185 -0.6883
  368MPD2    C5 5508   0.652   1.030  13.757  0.3051 -0.5258  0.3791
  368MPD2     H 5509   0.685   1.045  13.384 -2.3863 -1.2644 -0.1495
  368MPD2    H1 5510   0.865   1.075  13.763 -0.2981  0.6950 -0.8719
  368MPD2    H2 5511   0.448   0.976  13.723  0.7612 -1.3476  0.3868
  368MPD2    H3 5512   0.643   1.028  13.865  2.2728 -1.4338  0.5262
  368MPD2     N 5513   0.925   1.073  13.521 -0.2570 -0.2297 -0.7647
  368MPD2    H5 5514   0.998   1.103  13.585 -1.4918  0.6191  0.2384
  368MPD2    N1 5515   0.460   0.975  13.443 -0.3662  0.7717  0.3773
  368MPD2    H7 5516   0.491   0.976  13.346  1.4461  0.6928  0.9596
  369TMC3    C1 5517   0.229   0.984  13.373 -0.0443  0.2540  0.0217
  369TMC3    C2 5518   0.268   1.079  13.281  0.3019  0.1598 -0.8256
  369TMC3    C3 5519   0.171   1.138  13.203 -0.0244  0.7934  1.0287
  369TMC3    C4 5520   0.095   0.949  13.384 -0.6389 -0.7484 -0.3596
  369TMC3    C5 5521   0.006   1.003  13.297 -0.2981 -0.3333  0.0137
  369TMC3    C6 5522   0.041   1.103  13.204  0.4927  0.6518 -0.4433
  369TMC3     C 5523   0.328   0.944  13.473 -0.3720  0.2327 -0.3055
  369TMC3     O 5524   0.278   0.904  13.580 -0.4537  0.1582 -0.4895
  369TMC3     H 5525   0.370   1.114  13.268 -0.1117  0.8276 -2.2528
  369TMC3    H1 5526   0.071   0.882  13.466  0.5634 -1.6491 -0.7356
  369TMC3    H2 5527   4.694   1.145  13.135  1.6165  1.3984 -1.1546
  369TMC3    C7 5528   4.595   0.962  13.323 -0.0236  0.4246  0.1217
  369TMC3    C8 5529   0.215   1.236  13.101  0.5366  0.9437 -0.1369
  369TMC3    O1 5530   4.585   0.858  13.392 -0.0997  0.1282  0.2509
  369TMC3    O2 5531   0.337   1.234  13.076 -0.4894 -0.0110  0.0451
  370TMC3    C1 5532   4.491   1.755  16.401  0.4683 -0.3824  0.7089
  370TMC3    C2 5533   4.434   1.688  16.507 -0.0597  0.3455  0.7392
  370TMC3    C3 5534   4.343   1.587  16.480  0.4082 -0.4828  0.5190
  370TMC3    C4 5535   4.472   1.719  16.274 -0.3291 -0.0473 -0.4185
  370TMC3    C5 5536   4.394   1.607  16.254 -0.4124  0.6511  0.2006
  370TMC3    C6 5537   4.324   1.546  16.356 -0.4339 -0.2913  0.3573
  370TMC3     C 5538   4.571   1.867  16.438  0.1908  0.1040 -0.6307
  370TMC3     O 5539   4.639   1.851  16.543 -0.5162 -0.1485  0.0821
  370TMC3     H 5540   4.446   1.723  16.610 -1.6347  1.5539  0.5269
  370TMC3    H1 5541   4.520   1.774  16.194  1.7111  0.2307  0.9937
  370TMC3    H2 5542   4.258   1.462  16.339  0.0010 -0.8625  1.4951
  370TMC3    C7 5543   4.405   1.523  16.137  0.2657 -0.1427 -0.5269
  370TMC3    C8 5544   4.318   1.492  16.588 -0.8257  0.6327 -0.3311
  370TMC3    O1 5545   4.308   1.452  16.112 -0.1065  0.2693  0.2289
  370TMC3    O2 5546   4.305   1.373  16.566 -0.3814 -0.2933 -0.2548
  371TMC3    C1 5547   1.155   0.074  15.556 -0.2455  0.8683  0.5478
  371TMC3    C2 5548   1.031   0.064  15.599 -0.1815 -0.2121 -0.0884
  371TMC3    C3 5549   0.936   0.163  15.595  0.4959  0.4710 -0.0968
  371TMC3    C4 5550   1.189   0.186  15.485  0.1298 -0.8766  0.8363
  371TMC3    C5 5551   1.092   0.286  15.473 -0.4493  1.1045  0.2235
  371TMC3    C6 5552   0.971   0.282  15.527  0.1194 -0.2381  0.2076
  371TMC3     C 5553   1.251   4.685  15.545 -0.2167 -0.2840  0.0193
  371TMC3     O 5554   1.358   4.714  15.490 -0.0174  0.2336  0.0199
  371TMC3     H 5555   1.011   4.696  15.651 -0.8434 -1.0308 -1.8256
  371TMC3    H1 5556   1.289   0.199  15.444 -0.4166  0.5771 -0.0232
  371TMC3    H2 5557   0.908   0.371  15.525  1.4714  0.6730 -1.8884
  371TMC3    C7 5558   1.135   0.413  15.416  0.8469  0.7855  0.7594
  371TMC3    C8 5559   0.809   0.146  15.671 -0.0289 -0.5511 -0.3102
  371TMC3    O1 5560   1.251   0.438  15.439 -0.0785 -0.0482  0.2785
  371TMC3    O2 5561   0.770   0.033  15.695  0.3494  0.4123  0.4621
  372MPD2     C 5562   4.680   1.360  13.506 -0.0887  0.3014 -0.7419
  372MPD2    C1 5563   0.076   1.306  13.540  0.1878  0.3296  0.0545
  372MPD2    C2 5564   0.081   1.183  13.603 -0.2146 -0.5819  0.2762
  372MPD2    C3 5565   4.690   1.120  13.629 -1.0522  0.1252  0.0163
  372MPD2    C4 5566   4.561   1.174  13.599  0.1354 -0.1894 -0.1389
  372MPD2    C5 5567   4.565   1.295  13.533 -0.3427 -0.1042  0.5251
  372MPD2     H 5568   0.178   1.138  13.620  1.3618  2.3849 -0.6512
  372MPD2    H1 5569   4.467   1.139  13.640  0.7108 -1.1789  0.3245
  372MPD2    H2 5570   4.659   1.454  13.457  0.1237 -2.0433 -5.3131
  372MPD2    H3 5571   4.476   1.350  13.505  0.0482  0.1702 -0.1933
  372MPD2     N 5572   4.694   0.992  13.683  1.1549 -0.1360  0.3713
  372MPD2    H5 5573   0.063   0.955  13.690  0.6805 -1.6115 -0.9390
  372MPD2    N1 5574   0.193   1.363  13.501 -0.2159  0.4964  0.2679
  372MPD2    H7 5575   0.283   1.324  13.525  0.1415  2.1427  1.5695
  373TMC3    C1 5576   4.636   0.786  13.783  0.3761 -0.1784 -0.3583
  373TMC3    C2 5577   4.580   0.758  13.900 -0.2036  0.4711 -0.0690
  373TMC3    C3 5578   4.614   0.639  13.962  0.0745 -0.7834 -0.3574
  373TMC3    C4 5579   0.017   0.714  13.739 -0.9611 -0.2458  0.5648
  373TMC3    C5 5580   0.062   0.610  13.814 -0.0541 -0.4634 -0.3514
  373TMC3    C6 5581   4.724   0.568  13.923 -0.7496  0.5922  0.5132
  373TMC3     C 5582   4.590   0.900  13.701 -0.3393 -0.1431 -0.3129
  373TMC3     O 5583   4.469   0.917  13.696  0.1306  0.3406  0.1077
  373TMC3     H 5584   4.493   0.808  13.941 -0.2416 -2.3009  3.2468
  373TMC3    H1 5585   0.070   0.731  13.646  0.2001  1.0806  1.4710
  373TMC3    H2 5586   0.039   0.483  13.976 -0.7632  0.4589  0.3109
  373TMC3    C7 5587   0.178   0.536  13.772 -0.1854  0.7158 -0.0445
  373TMC3    C8 5588   4.602   0.641  14.100  0.1337 -0.0413  0.0698
  373TMC3    O1 5589   0.210   0.517  13.654 -0.3793  0.3430  0.0537
  373TMC3    O2 5590   4.596   0.525  14.149  0.2759  0.1652  0.0797
  374TMC3    C1 5591   1.476   0.371  10.344  0.1609  0.7757  0.5718
  374TMC3    C2 5592   1.462   0.510  10.364 -0.3736  0.3168  0.2390
  374TMC3    C3 5593   1.340   0.563  10.340 -0.5506  0.1927 -0.7194
  374TMC3    C4 5594   1.369   0.291  10.317 -0.0654  0.1548  0.0965
  374TMC3    C5 5595   1.247   0.354  10.293 -0.5656  0.0420 -0.1780
  374TMC3    C6 5596   1.229   0.491  10.305 -0.9454 -0.2266 -0.5646
  374TMC3     C 5597   1.583   0.306  10.405 -0.5778 -0.3356 -0.9056
  374TMC3     O 5598   1.639   0.219  10.338 -0.3823  0.7702 -0.1392
  374TMC3     H 5599   1.553   0.566  10.384  0.4343 -0.7825 -0.3488
  374TMC3    H1 5600   1.388   0.185  10.303  1.0847  0.1441  1.6545
  374TMC3    H2 5601   1.134   0.543  10.294 -0.4200  0.5648 -1.3429
  374TMC3    C7 5602   1.144   0.268  10.248  0.0867  0.0271  0.2013
  374TMC3    C8 5603   1.328   0.713  10.326 -0.1442  0.3151 -0.1524
  374TMC3    O1 5604   1.166   0.149  10.254  0.1299  0.5610 -0.0870
  374TMC3    O2 5605   1.239   0.760  10.255  0.0748 -0.4150 -0.5917
  375MPD2     C 5606   0.711   1.598  17.096  0.4943 -0.1174 -0.2720
  375MPD2    C1 5607   0.728   1.728  17.051  0.3166 -0.3780  0.1481
  375MPD2    C2 5608   0.831   1.763  16.967  0.2600 -0.0956 -0.1733
  375MPD2    C3 5609   0.917   1.659  16.930  0.0785  0.6245  0.6975
  375MPD2    C4 5610   0.904   1.529  16.977 -0.1674 -0.3462  0.8048
  375MPD2    C5 5611   0.804   1.504  17.065  0.5603 -0.4232  0.5522
  375MPD2     H 5612   0.849   1.860  16.922  0.3789 -0.1930 -0.3363
  375MPD2    H1 5613   0.970   1.449  16.945  0.3295  0.7436 -0.8836
  375MPD2    H2 5614   0.625   1.564  17.154  0.5653 -1.5154 -1.0033
  375MPD2    H3 5615   0.789   1.403  17.101  2.4816 -1.0570 -0.4465
  375MPD2     N 5616   1.016   1.680  16.835 -0.9652  0.3547  0.6553
  375MPD2    H5 5617   1.054   1.595  16.794 -0.4464 -0.4121  2.7212
  375MPD2    N1 5618   0.637   1.833  17.086 -0.3183  1.0648  0.4885
  375MPD2    H7 5619   0.654   1.917  17.031 -1.2347 -0.5546 -2.3191
  376TMC3    C1 5620   1.150   1.784  16.679  0.0637 -0.4384  0.6951
  376TMC3    C2 5621   1.225   1.887  16.649  0.2485 -0.1992 -0.3906
  376TMC3    C3 5622   1.289   1.884  16.530 -0.5750 -0.5970 -0.3587
  376TMC3    C4 5623   1.117   1.680  16.589  0.3105 -0.1261 -0.0287
  376TMC3    C5 5624   1.172   1.687  16.463  0.3598  0.5445 -0.7956
  376TMC3    C6 5625   1.262   1.786  16.434  1.1207  0.5840  0.6529
  376TMC3     C 5626   1.074   1.799  16.793 -0.3339  0.3232  0.2652
  376TMC3     O 5627   1.074   1.911  16.846  0.4765 -0.1879 -0.2538
  376TMC3     H 5628   1.256   1.951  16.731 -3.3797  2.2788 -0.9102
  376TMC3    H1 5629   1.054   1.597  16.621  0.4583  0.3141  1.4243
  376TMC3    H2 5630   1.313   1.799  16.339  0.2053  1.5274  0.2854
  376TMC3    C7 5631   1.132   1.585  16.365 -0.1669 -0.7563 -0.4141
  376TMC3    C8 5632   1.364   2.003  16.492  0.2825  0.6556  0.1022
  376TMC3    O1 5633   1.057   1.497  16.404  0.0615  0.0681  0.0904
  376TMC3    O2 5634   1.442   1.996  16.400 -0.2149 -0.3337  0.1741
  377MPD2     C 5635   3.894   1.499  12.562  0.0849 -0.2897  0.7952
  377MPD2    C1 5636   3.967   1.469  12.675  0.3545  0.4923 -0.0538
  377MPD2    C2 5637   3.911   1.480  12.804 -0.5336  0.1145 -0.5784
  377MPD2    C3 5638   3.789   1.539  12.819 -0.2962 -0.2657  0.8950
  377MPD2    C4 5639   3.728   1.586  12.705 -0.0753  0.7586 -0.4557
  377MPD2    C5 5640   3.778   1.566  12.580  0.3718 -0.1281 -0.1956
  377MPD2     H 5641   3.963   1.441  12.890 -0.9256  0.4965 -0.1713
  377MPD2    H1 5642   3.641   1.647  12.726  0.8149  1.3414  1.5600
  377MPD2    H2 5643   3.927   1.484  12.460 -4.5368  1.3436 -0.9083
  377MPD2    H3 5644   3.734   1.609  12.490  0.5595  0.5357  0.0309
  377MPD2     N 5645   3.732   1.569  12.944  0.1546  0.0997 -0.0123
  377MPD2    H5 5646   3.646   1.622  12.958  2.5546  3.6241  1.3523
  377MPD2    N1 5647   4.093   1.412  12.644 -0.0282  0.0858  0.0245
  377MPD2    H7 5648   4.113   1.403  12.545  0.2922  1.0559  0.0039
  378TMC3    C1 5649   4.364   1.210  12.460  0.3259  0.6014 -1.1919
  378TMC3    C2 5650   4.269   1.239  12.552 -0.4262  0.2795 -0.3114
  378TMC3    C3 5651   4.300   1.305  12.668  0.7334 -0.2796  0.2883
  378TMC3    C4 5652   4.491   1.248  12.476  0.0400  0.2204  0.0186
  378TMC3    C5 5653   4.513   1.328  12.589  0.2688  0.7239 -0.4620
  378TMC3    C6 5654   4.425   1.360  12.685  0.2053 -0.1874  0.5306
  378TMC3     C 5655   4.328   1.126  12.343 -0.6591  0.0995  0.0938
  378TMC3     O 5656   4.224   1.061  12.340  0.0803  0.0427 -0.3098
  378TMC3     H 5657   4.169   1.204  12.531  0.8554 -1.9028 -2.7926
  378TMC3    H1 5658   4.569   1.205  12.413  0.7734  0.4689  0.7557
  378TMC3    H2 5659   4.449   1.427  12.766  1.0125 -0.5946  0.6309
  378TMC3    C7 5660   4.648   1.339  12.637  0.3939  0.5132  0.5602
  378TMC3    C8 5661   4.189   1.371  12.737 -0.3476  0.2516 -0.7451
  378TMC3    O1 5662   4.665   1.364  12.754  0.2570  0.7226 -0.5058
  378TMC3    O2 5663   4.178   1.365  12.859 -0.1496 -0.2227 -0.4448
  379MPD2     C 5664   3.963   4.206  16.418  0.3470 -0.2823 -0.5805
  379MPD2    C1 5665   4.097   4.230  16.386 -0.0090 -0.3225 -0.2162
  379MPD2    C2 5666   4.196   4.191  16.482  0.0405  0.3606  0.2747
  379MPD2    C3 5667   4.152   4.128  16.595 -0.4808 -1.0788 -0.0926
  379MPD2    C4 5668   4.017   4.120  16.630 -0.2996  0.2992 -0.3167
  379MPD2    C5 5669   3.919   4.158  16.537 -0.3688 -0.0399 -0.0614
  379MPD2     H 5670   4.300   4.217  16.472 -0.4502  2.1561 -0.2873
  379MPD2    H1 5671   3.989   4.074  16.724  0.2734  1.6734  0.5179
  379MPD2    H2 5672   3.897   4.249  16.344 -1.1014 -2.8406 -0.7563
  379MPD2    H3 5673   3.816   4.133  16.562 -0.2264 -0.3628  0.2092
  379MPD2     N 5674   4.247   4.080  16.693  0.2969  0.7001  0.4063
  379MPD2    H5 5675   4.200   4.034  16.770  1.7857  0.0839  0.9488
  379MPD2    N1 5676   4.123   4.296  16.262 -0.3627  0.0409 -0.3528
  379MPD2    H7 5677   4.044   4.322  16.205  1.0352  0.4214 -2.1250
  380TMC3    C1 5678   4.259   4.374  16.094 -1.1516 -0.0038  0.7111
  380TMC3    C2 5679   4.383   4.421  16.050  0.2642 -0.1356  0.2213
  380TMC3    C3 5680   4.402   4.458  15.923 -0.2849 -0.2373  0.1989
  380TMC3    C4 5681   4.160   4.380  15.994  0.3494  0.0565 -0.1829
  380TMC3    C5 5682   4.191   4.423  15.870  0.2608  0.4857 -0.5588
  380TMC3    C6 5683   4.311   4.468  15.826  0.0519 -0.2065 -0.6549
  380TMC3     C 5684   4.252   4.302  16.218  0.1514 -0.2881  0.3861
  380TMC3     O 5685   4.359   4.275  16.269  0.0124  0.4866  0.2881
  380TMC3     H 5686   4.468   4.415  16.117 -1.3096  2.1317  2.4416
  380TMC3    H1 5687   4.056   4.350  16.008  0.2095 -0.2697 -1.8267
  380TMC3    H2 5688   4.332   4.515  15.730  1.4297  2.6579  1.0578
  380TMC3    C7 5689   4.076   4.445  15.785  0.0952  0.7219 -0.4550
  380TMC3    C8 5690   4.534   4.469  15.867  0.2588  0.4315  0.0525
  380TMC3    O1 5691   3.964   4.430  15.835 -0.3081 -0.3257  0.1572
  380TMC3    O2 5692   4.540   4.519  15.758  0.3664 -0.1029 -0.0003
  381TMC3    C1 5693   4.597   0.691  16.324 -0.3012  0.6104  0.4359
  381TMC3    C2 5694   4.656   0.812  16.318  0.2246  0.4359 -0.6994
  381TMC3    C3 5695   4.631   0.910  16.413  0.3060 -0.5209 -0.4731
  381TMC3    C4 5696   4.506   0.662  16.421  0.4769 -0.3382 -0.3174
  381TMC3    C5 5697   4.471   0.765  16.505  0.9650 -0.0693 -0.0721
  381TMC3    C6 5698   4.539   0.885  16.508  0.5704 -0.0070  0.0642
  381TMC3     C 5699   4.600   0.617  16.205  0.3229 -0.5343  0.0528
  381TMC3     O 5700   4.690   0.636  16.127 -0.4046  0.4762 -0.2807
  381TMC3     H 5701   0.005   0.835  16.242  3.6683  0.1012  2.5072
  381TMC3    H1 5702   4.462   0.564  16.436 -0.8907  0.2719 -0.3031
  381TMC3    H2 5703   4.515   0.949  16.592  1.7740 -0.9483  1.1082
  381TMC3    C7 5704   4.350   0.746  16.587  0.3717 -0.5022  0.3130
  381TMC3    C8 5705   4.713   1.032  16.403 -0.7718 -0.1341 -0.0549
  381TMC3    O1 5706   4.333   0.631  16.623  0.0144 -0.5807 -0.5464
  381TMC3    O2 5707   0.088   1.034  16.335  0.3087 -0.1277  0.3708
  382MPD2     C 5708   3.418   3.554  17.444  0.3221 -0.3173 -0.6037
  382MPD2    C1 5709   3.280   3.545  17.450 -0.5486  0.1821  0.3028
  382MPD2    C2 5710   3.209   3.424  17.470  0.4175 -0.0754 -0.2966
  382MPD2    C3 5711   3.287   3.305  17.488  0.4095  0.6346 -0.1439
  382MPD2    C4 5712   3.427   3.322  17.488 -0.2568 -0.1415 -0.4115
  382MPD2    C5 5713   3.486   3.440  17.459  0.4051 -0.0151  1.0437
  382MPD2     H 5714   3.102   3.408  17.463  0.0801  2.2504 -0.3554
  382MPD2    H1 5715   3.487   3.232  17.495 -1.4289 -1.0291 -1.8971
  382MPD2    H2 5716   3.477   3.643  17.425  1.2143 -1.0190 -1.1176
  382MPD2    H3 5717   3.594   3.448  17.450  0.3098  1.1641  0.9919
  382MPD2     N 5718   3.234   3.177  17.514 -0.5789 -0.7627 -0.1713
  382MPD2    H5 5719   3.300   3.102  17.535 -1.9228 -1.4800  1.4401
  382MPD2    N1 5720   3.192   3.656  17.441 -0.0403  0.2241  0.2383
  382MPD2    H7 5721   3.095   3.637  17.466 -0.0296 -0.9911 -0.6446
  383TMC3    C1 5722   3.093   2.998  17.484  0.6075 -0.0966  0.5674
  383TMC3    C2 5723   3.007   2.952  17.394 -0.6338 -0.5642  0.2194
  383TMC3    C3 5724   3.019   2.822  17.351 -0.2353  0.1268  0.4495
  383TMC3    C4 5725   3.195   2.920  17.528  0.0058  0.0868 -0.7331
  383TMC3    C5 5726   3.208   2.795  17.473  0.0286  0.4620  0.0031
  383TMC3    C6 5727   3.124   2.739  17.384 -0.5463 -0.0558 -0.5909
  383TMC3     C 5728   3.110   3.140  17.487 -0.3915 -0.3891 -0.9879
  383TMC3     O 5729   3.009   3.209  17.469  0.0228  0.2990  0.2799
  383TMC3     H 5730   2.926   3.013  17.355 -0.8537 -0.1580  1.3085
  383TMC3    H1 5731   3.266   2.933  17.609  0.4457  1.7384 -1.3752
  383TMC3    H2 5732   3.138   2.643  17.337 -2.1113 -0.7841  0.4252
  383TMC3    C7 5733   3.319   2.718  17.524 -0.1009 -0.2166  0.3483
  383TMC3    C8 5734   2.904   2.770  17.275  0.1342 -0.6628 -0.1031
  383TMC3    O1 5735   3.408   2.778  17.581  0.1725 -0.0048 -0.1119
  383TMC3    O2 5736   2.824   2.845  17.223 -0.1096 -0.1478 -0.2337
  384MPD2     C 5737   0.323   4.408  11.588 -0.4255 -0.2345 -0.4573
  384MPD2    C1 5738   0.371   4.338  11.700  0.0174 -0.3513 -0.0858
  384MPD2    C2 5739   0.466   4.236  11.682 -0.1614 -0.3883  0.0589
  384MPD2    C3 5740   0.511   4.213  11.554 -0.0307 -0.0136  0.0514
  384MPD2    C4 5741   0.465   4.290  11.446 -0.5392  0.5354 -0.5615
  384MPD2    C5 5742   0.378   4.389  11.465 -0.5544 -1.0207 -0.4062
  384MPD2     H 5743   0.512   4.191  11.770  1.3922 -0.8869 -1.0059
  384MPD2    H1 5744   0.505   4.281  11.346 -0.3062  0.0769 -0.4285
  384MPD2    H2 5745   0.250   4.485  11.606 -0.5732 -0.7297  1.1038
  384MPD2    H3 5746   0.336   4.448  11.384  3.3813  1.3890 -0.7390
  384MPD2     N 5747   0.603   4.112  11.545  0.3609  0.0953 -0.2488
  384MPD2    H5 5748   0.637   4.070  11.631 -1.0413 -0.6509 -0.0655
  384MPD2    N1 5749   0.317   4.344  11.831 -0.6400  0.0403 -0.4207
  384MPD2    H7 5750   0.342   4.265  11.890 -2.7866 -0.9862 -0.8570
  385TMC3    C1 5751   0.758   3.965  11.460  0.3625  0.0170  0.2164
  385TMC3    C2 5752   0.750   3.853  11.382  0.2029 -0.1949  0.0576
  385TMC3    C3 5753   0.756   3.732  11.450 -0.2474  0.4097  0.2682
  385TMC3    C4 5754   0.781   3.957  11.591 -0.4724 -0.3397  0.0625
  385TMC3    C5 5755   0.770   3.839  11.661 -0.1470 -0.7090 -0.2115
  385TMC3    C6 5756   0.754   3.720  11.592  0.6886 -0.6784  0.1432
  385TMC3     C 5757   0.660   4.068  11.431  0.3239 -0.4736 -0.1618
  385TMC3     O 5758   0.640   4.090  11.314 -0.2513 -0.2840 -0.6177
  385TMC3     H 5759   0.735   3.865  11.276  0.4834  0.5626  0.1072
  385TMC3    H1 5760   0.810   4.050  11.638  0.9135 -0.7379  0.0093
  385TMC3    H2 5761   0.763   3.620  11.635 -0.4155 -0.0855  1.7521
  385TMC3    C7 5762   0.695   3.859  11.783  0.2736  0.0601  0.5683
  385TMC3    C8 5763   0.780   3.609  11.372  0.3417  0.9103  0.0604
  385TMC3    O1 5764   0.667   3.976  11.798 -0.3408 -0.3706  0.0554
  385TMC3    O2 5765   0.743   3.500  11.413  0.0683  0.3735 -0.1553
  386TMC3    C1 5766   1.340   1.009  12.241 -0.6058 -0.4893  0.0959
  386TMC3    C2 5767   1.348   1.013  12.105 -0.5570  0.3729  0.1442
  386TMC3    C3 5768   1.338   1.137  12.046  0.9474 -0.1493 -1.0096
  386TMC3    C4 5769   1.332   1.121  12.321 -0.1092  0.3095  0.2427
  386TMC3    C5 5770   1.315   1.242  12.261  0.1007 -0.1440 -0.4034
  386TMC3    C6 5771   1.320   1.248  12.125  0.2298 -0.3141  1.0438
  386TMC3     C 5772   1.397   0.892  12.306  0.5896 -0.3567  0.3463
  386TMC3     O 5773   1.474   0.907  12.401  0.3358 -0.9708  0.4458
  386TMC3     H 5774   1.370   0.922  12.051  0.5079  1.7510 -1.7174
  386TMC3    H1 5775   1.320   1.114  12.428 -0.5190 -0.6491  0.1403
  386TMC3    H2 5776   1.305   1.347  12.085 -0.5413 -1.4612 -1.5028
  386TMC3    C7 5777   1.205   1.306  12.322  0.2816  0.4431  0.4496
  386TMC3    C8 5778   1.268   1.159  11.921 -0.4004  0.3031 -0.2415
  386TMC3    O1 5779   1.204   1.330  12.441  0.2029  0.6487 -0.1269
  386TMC3    O2 5780   1.206   1.262  11.904 -0.0651 -0.0994  0.4749
  387MPD2     C 5781   3.017   1.364   9.934  0.3657 -0.6191  0.0084
  387MPD2    C1 5782   3.091   1.351  10.050  0.1258 -1.0163 -0.1812
  387MPD2    C2 5783   3.097   1.234  10.123  0.2107  0.3921 -0.2365
  387MPD2    C3 5784   3.034   1.121  10.080  0.0054 -0.4472  0.0341
  387MPD2    C4 5785   2.942   1.142   9.980 -0.0941 -0.7162  0.1355
  387MPD2    C5 5786   2.932   1.259   9.908 -0.8802  0.5316 -0.2900
  387MPD2     H 5787   3.163   1.220  10.208  1.3194  0.7948 -1.0444
  387MPD2    H1 5788   2.878   1.066   9.936  2.3414 -1.1604 -2.6022
  387MPD2    H2 5789   3.018   1.456   9.876  0.8060 -0.1389  0.7875
  387MPD2    H3 5790   2.869   1.256   9.820  1.0226  0.1334 -1.6403
  387MPD2     N 5791   3.061   0.999  10.140 -0.5359 -0.4437  0.2846
  387MPD2    H5 5792   3.117   0.992  10.224  0.3344  0.5611 -0.2117
  387MPD2    N1 5793   3.188   1.448  10.095 -0.2521  0.3702  0.3489
  387MPD2    H7 5794   3.247   1.421  10.173 -0.3780 -2.0307 -0.3642
  388TMC3    C1 5795   3.339   1.619  10.092  0.3514  0.5230  0.2365
  388TMC3    C2 5796   3.345   1.743  10.133 -1.0276  0.0276 -0.5974
  388TMC3    C3 5797   3.459   1.776  10.206 -0.3033  0.0409  0.5675
  388TMC3    C4 5798   3.435   1.528  10.124  0.5155 -1.5604 -0.3460
  388TMC3    C5 5799   3.534   1.552  10.218 -0.3380  0.2194  0.1868
  388TMC3    C6 5800   3.544   1.683  10.259 -0.1942  0.1339 -0.3103
  388TMC3     C 5801   3.212   1.571  10.043  0.2022  0.4142  0.3830
  388TMC3     O 5802   3.149   1.633   9.954 -0.3393 -0.7061  0.0841
  388TMC3     H 5803   3.258   1.808  10.127  2.4981  4.6712 -1.2584
  388TMC3    H1 5804   3.422   1.431  10.078 -0.4503 -0.2019 -2.9280
  388TMC3    H2 5805   3.626   1.710  10.325 -1.9842  2.8924  0.8065
  388TMC3    C7 5806   3.601   1.448  10.304  0.8697  0.4859 -0.4163
  388TMC3    C8 5807   3.470   1.915  10.249 -0.3911  0.6873 -0.0602
  388TMC3    O1 5808   3.668   1.478  10.400  0.0310  0.0123 -0.1891
  388TMC3    O2 5809   3.548   1.941  10.342 -0.1726 -0.1246  0.1466
  389MPD2     C 5810   2.586   4.180  11.053 -0.3379  0.7645  0.9898
  389MPD2    C1 5811   2.518   4.085  10.974  0.7317 -0.3208  0.5359
  389MPD2    C2 5812   2.472   3.969  11.042  0.3667  0.2071  0.0427
  389MPD2    C3 5813   2.500   3.945  11.175  0.2018  0.2244  0.3137
  389MPD2    C4 5814   2.578   4.035  11.244 -0.3246  0.2912  0.8354
  389MPD2    C5 5815   2.622   4.139  11.176  0.0050 -0.3184  0.7731
  389MPD2     H 5816   2.416   3.895  10.986  0.0911  0.5947 -0.1886
  389MPD2    H1 5817   2.597   4.015  11.349  1.4136 -1.1965  0.2430
  389MPD2    H2 5818   2.635   4.265  11.006 -0.1366  0.8653  1.3811
  389MPD2    H3 5819   2.682   4.209  11.233 -0.9643  0.5041  0.7608
  389MPD2     N 5820   2.443   3.838  11.252 -0.3840 -0.1308 -0.0065
  389MPD2    H5 5821   2.483   3.824  11.344 -3.9137 -2.4332  1.2164
  389MPD2    N1 5822   2.501   4.103  10.835 -0.4280  0.4337  0.0385
  389MPD2    H7 5823   2.548   4.186  10.800 -0.0634  0.5941  0.9106
  390TMC3    C1 5824   2.283   3.671  11.302 -0.0419 -0.4202  0.1261
  390TMC3    C2 5825   2.151   3.641  11.284 -0.0664 -0.4484 -0.5170
  390TMC3    C3 5826   2.080   3.605  11.393 -0.0226  0.3671 -0.0889
  390TMC3    C4 5827   2.349   3.653  11.423  0.3572 -0.1799 -0.3093
  390TMC3    C5 5828   2.276   3.616  11.531  0.1875  0.2525 -0.0567
  390TMC3    C6 5829   2.137   3.594  11.516  0.2672  0.3699 -0.5197
  390TMC3     C 5830   2.340   3.762  11.202  0.1532  0.7060  0.2666
  390TMC3     O 5831   2.288   3.764  11.095 -0.5519 -0.0279 -0.3657
  390TMC3     H 5832   2.105   3.664  11.188  1.0822 -1.4895 -1.3084
  390TMC3    H1 5833   2.457   3.646  11.426  0.3017 -1.4212 -1.3731
  390TMC3    H2 5834   2.072   3.567  11.599 -0.8867 -0.2332 -1.6013
  390TMC3    C7 5835   2.339   3.534  11.632 -0.8772  0.2645 -0.0737
  390TMC3    C8 5836   1.942   3.557  11.370  0.0418 -0.1225 -0.2844
  390TMC3    O1 5837   2.439   3.479  11.597  0.6060  0.1165  0.4939
  390TMC3    O2 5838   1.916   3.509  11.259  0.0950 -0.0701  0.1793
  391MPD2     C 5839   2.049   1.161  11.642 -0.3831 -0.1103 -1.0024
  391MPD2    C1 5840   2.150   1.172  11.550  0.1227  0.0182  0.1609
  391MPD2    C2 5841   2.116   1.177  11.417  0.3432 -0.1981  0.8259
  391MPD2    C3 5842   1.982   1.155  11.378 -0.6196 -0.1867  1.0665
  391MPD2    C4 5843   1.879   1.158  11.473  0.3102  0.3148 -0.3971
  391MPD2    C5 5844   1.918   1.158  11.603 -0.0214 -0.2409 -0.1810
  391MPD2     H 5845   2.180   1.185  11.330 -2.6446 -2.3977 -1.5610
  391MPD2    H1 5846   1.773   1.147  11.456  0.9624  1.0026 -4.9242
  391MPD2    H2 5847   2.081   1.145  11.744 -0.6293  2.1069 -0.5691
  391MPD2    H3 5848   1.831   1.147  11.667  1.1356 -0.7681  1.2867
  391MPD2     N 5849   1.964   1.162  11.238  0.1345 -0.0945  0.3421
  391MPD2    H5 5850   2.046   1.192  11.186  0.5392  1.6319  1.9683
  391MPD2    N1 5851   2.284   1.191  11.600  0.1326 -0.4342  0.4150
  391MPD2    H7 5852   2.306   1.185  11.699  1.2342 -1.7057  0.0906
  392TMC3    C1 5853   1.849   1.191  11.025  0.4201  0.8160 -0.0411
  392TMC3    C2 5854   1.747   1.157  10.939 -0.4412  0.1111  0.5367
  392TMC3    C3 5855   1.760   1.198  10.809  0.3406 -0.5576  0.1132
  392TMC3    C4 5856   1.959   1.258  10.974  0.4082  0.3772 -0.1151
  392TMC3    C5 5857   1.964   1.294  10.840  0.5778  0.3369  0.1588
  392TMC3    C6 5858   1.869   1.259  10.748 -0.0142 -1.4050 -0.0917
  392TMC3     C 5859   1.842   1.158  11.167 -0.4580  0.0423  0.1373
  392TMC3     O 5860   1.732   1.122  11.210  0.0871 -0.8444 -0.3621
  392TMC3     H 5861   1.656   1.111  10.973 -1.7888  3.2230  1.2014
  392TMC3    H1 5862   2.044   1.285  11.036 -0.4707  0.6124  0.9840
  392TMC3    H2 5863   1.876   1.303  10.649  0.4404 -1.6612 -0.1743
  392TMC3    C7 5864   2.077   1.374  10.799 -0.3477  0.4992 -0.2553
  392TMC3    C8 5865   1.675   1.119  10.722  0.1006 -0.4274 -0.1525
  392TMC3    O1 5866   2.132   1.442  10.886 -0.7178  0.1589 -0.1843
  392TMC3    O2 5867   1.646   1.011  10.765  0.7739  0.3457  0.1719
  393TMC3    C1 5868   0.443   3.602  10.129  0.2524  0.3767 -0.1983
  393TMC3    C2 5869   0.346   3.517  10.176 -0.1564 -0.5002  0.2759
  393TMC3    C3 5870   0.374   3.426  10.272  0.0003  0.0736  0.9997
  393TMC3    C4 5871   0.572   3.590  10.180 -1.2124 -0.1651 -0.6641
  393TMC3    C5 5872   0.608   3.495  10.269  0.0111 -0.4209 -0.5917
  393TMC3    C6 5873   0.508   3.406  10.310 -0.4708  0.7863 -0.5185
  393TMC3     C 5874   0.402   3.712  10.048 -0.5670  0.4675 -0.6938
  393TMC3     O 5875   0.477   3.752   9.957 -1.0923 -0.0624 -0.1349
  393TMC3     H 5876   0.249   3.511  10.128  0.2217 -1.2100 -0.4063
  393TMC3    H1 5877   0.655   3.642  10.134 -1.1796 -0.7016 -1.2180
  393TMC3    H2 5878   0.537   3.334  10.385  2.0866  1.0671 -1.2381
  393TMC3    C7 5879   0.725   3.511  10.349 -0.4907  0.0151 -1.3046
  393TMC3    C8 5880   0.261   3.418  10.361 -0.0267 -0.2433  0.7415
  393TMC3    O1 5881   0.793   3.607  10.308 -0.5312  0.0182 -0.2358
  393TMC3    O2 5882   0.177   3.501  10.334  0.3836  0.3858 -0.0184
  394TMC3    C1 5883   2.424   4.072  10.610  0.0821  0.5409  0.3376
  394TMC3    C2 5884   2.316   4.040  10.531 -0.1575  0.7388  0.3090
  394TMC3    C3 5885   2.293   4.105  10.411  0.7799 -0.5787 -0.5418
  394TMC3    C4 5886   2.523   4.152  10.567 -0.0162  0.5472  0.0092
  394TMC3    C5 5887   2.504   4.212  10.446 -0.4940  0.3583 -0.2934
  394TMC3    C6 5888   2.392   4.192  10.364 -0.9294 -0.5025  0.6699
  394TMC3     C 5889   2.432   4.017  10.745 -0.2207  0.1926 -0.2046
  394TMC3     O 5890   2.352   3.929  10.770  0.0161 -0.0060  0.0607
  394TMC3     H 5891   2.248   3.968  10.574 -0.5122  2.5924  2.8563
  394TMC3    H1 5892   2.606   4.178  10.633 -1.6975  0.0876  2.3190
  394TMC3    H2 5893   2.390   4.244  10.269 -1.8249 -1.3602  0.2246
  394TMC3    C7 5894   2.603   4.312  10.412 -0.1841  0.0547 -0.5052
  394TMC3    C8 5895   2.222   4.033  10.307 -0.2842 -0.5754 -0.1483
  394TMC3    O1 5896   2.570   4.404  10.340  0.0900  0.0720 -0.2191
  394TMC3    O2 5897   2.130   4.090  10.250 -0.7584  0.2687  0.2029
  395TMC3    C1 5898   2.301   1.748  14.966  0.0769  0.8381  0.2205
  395TMC3    C2 5899   2.217   1.739  14.859  0.1440 -0.2516  0.2437
  395TMC3    C3 5900   2.245   1.799  14.740  0.2863  0.2928  0.1471
  395TMC3    C4 5901   2.427   1.803  14.946 -0.0973 -0.1897  0.0078
  395TMC3    C5 5902   2.456   1.865  14.819  0.3866  0.4069 -0.0041
  395TMC3    C6 5903   2.364   1.865  14.718 -0.5992 -0.0432  0.2715
  395TMC3     C 5904   2.258   1.717  15.100 -0.6727  0.3664  0.0467
  395TMC3     O 5905   2.322   1.772  15.187  0.2975 -0.9437 -0.5937
  395TMC3     H 5906   2.119   1.695  14.869 -0.4337  0.7767 -0.9339
  395TMC3    H1 5907   2.501   1.793  15.024 -1.2197 -2.7691  0.7521
  395TMC3    H2 5908   2.381   1.913  14.623  2.7786  0.0258  0.9036
  395TMC3    C7 5909   2.566   1.957  14.828  0.5255  0.4684  0.0216
  395TMC3    C8 5910   2.184   1.752  14.617  0.2038  1.1590 -0.5276
  395TMC3    O1 5911   2.621   1.985  14.934 -0.0037  0.2594  0.3476
  395TMC3    O2 5912   2.239   1.780  14.512  0.0212 -0.0441 -0.4229
  396MPD2     C 5913   1.640   3.301  17.167  0.3280 -0.4193 -0.5121
  396MPD2    C1 5914   1.757   3.231  17.135 -0.3723  0.4469 -0.4495
  396MPD2    C2 5915   1.873   3.311  17.117  0.1794  0.3179 -0.3272
  396MPD2    C3 5916   1.871   3.452  17.127 -0.5666  0.6351  0.6891
  396MPD2    C4 5917   1.751   3.511  17.154 -0.4000 -0.0444 -0.2334
  396MPD2    C5 5918   1.640   3.437  17.177 -0.7918  0.2576  0.4009
  396MPD2     H 5919   1.966   3.261  17.095  0.2836  0.7070 -0.7827
  396MPD2    H1 5920   1.736   3.618  17.166  0.8861 -0.1109  1.9845
  396MPD2    H2 5921   1.545   3.248  17.175 -0.1048  0.1934 -1.5976
  396MPD2    H3 5922   1.550   3.495  17.190 -1.0706 -0.3318  1.0829
  396MPD2     N 5923   1.983   3.531  17.100 -0.4811  0.2061 -0.0960
  396MPD2    H5 5924   2.064   3.484  17.061  0.9896  2.2110  0.5074
  396MPD2    N1 5925   1.758   3.090  17.128  0.2370 -1.2820  0.1505
  396MPD2    H7 5926   1.680   3.049  17.078  0.9890 -0.0159 -2.0554
  397TMC3    C1 5927   1.855   2.890  17.110  0.4159 -0.3297  0.5245
  397TMC3    C2 5928   1.868   2.889  16.974  0.0968  0.1979 -0.6928
  397TMC3    C3 5929   1.765   2.839  16.892  0.4155  0.0363 -0.0418
  397TMC3    C4 5930   1.749   2.817  17.160  0.1229 -0.4340 -0.0928
  397TMC3    C5 5931   1.651   2.759  17.074 -0.2818 -1.0220 -0.2035
  397TMC3    C6 5932   1.657   2.771  16.941  0.6728 -0.3386 -0.5687
  397TMC3     C 5933   1.865   3.014  17.170 -0.0257  0.4360  0.3741
  397TMC3     O 5934   1.964   3.043  17.235 -0.0300 -0.3637  0.5463
  397TMC3     H 5935   1.928   2.977  16.957 -1.4642  1.5824  0.9835
  397TMC3    H1 5936   1.752   2.797  17.266 -1.5285  0.5945  0.1556
  397TMC3    H2 5937   1.583   2.721  16.880 -1.5545 -0.4582  2.1980
  397TMC3    C7 5938   1.564   2.656  17.133  0.4968 -0.4192 -0.0200
  397TMC3    C8 5939   1.762   2.880  16.754 -0.3358 -0.2692 -0.0962
  397TMC3    O1 5940   1.525   2.568  17.060  0.0079  0.1770 -0.0060
  397TMC3    O2 5941   1.675   2.836  16.683  0.0917  0.4736 -0.2756
  398MPD2     C 5942   4.074   3.973   0.157  0.8157 -0.9210  0.5581
  398MPD2    C1 5943   4.103   3.858   0.227  0.7778  0.0101  0.4207
  398MPD2    C2 5944   4.232   3.812   0.223 -0.3532 -0.0985 -0.3814
  398MPD2    C3 5945   4.334   3.894   0.169  0.1839  0.1886  0.2636
  398MPD2    C4 5946   4.303   4.007   0.096  0.5004 -0.1601  0.1530
  398MPD2    C5 5947   4.169   4.041   0.095  0.4984  0.2241 -0.0977
  398MPD2     H 5948   4.269   3.727   0.280  0.5890  0.9260  0.5278
  398MPD2    H1 5949   4.377   4.067   0.045  0.9629 -2.0613 -1.4236
  398MPD2    H2 5950   3.980   4.027   0.162  0.9300 -0.7846  1.3528
  398MPD2    H3 5951   4.143   4.137   0.053  0.6881 -0.4734 -1.8241
  398MPD2     N 5952   4.468   3.865   0.202  0.0201  0.8174 -0.1131
  398MPD2    H5 5953   4.496   3.777   0.244  1.1422  2.4071  2.4663
  398MPD2    N1 5954   4.006   3.782   0.307 -0.1090 -0.1184 -0.3921
  398MPD2    H7 5955   4.045   3.714   0.371  0.2706  1.0369  0.6113
  399TMC3    C1 5956   3.817   3.757   0.435  0.2149  0.2515  0.1667
  399TMC3    C2 5957   3.879   3.764   0.553 -0.0748 -0.8670 -0.2906
  399TMC3    C3 5958   3.830   3.673   0.640  0.4257  0.3252  0.0342
  399TMC3    C4 5959   3.728   3.670   0.394 -0.1154  0.2956 -0.6568
  399TMC3    C5 5960   3.696   3.568   0.479  0.6385 -0.3069  0.3117
  399TMC3    C6 5961   3.746   3.572   0.602 -0.3228  0.8976 -0.9165
  399TMC3     C 5962   3.883   3.827   0.323 -0.2990  0.6182 -0.5585
  399TMC3     O 5963   3.810   3.873   0.237  0.2542 -0.2572  0.0333
  399TMC3     H 5964   3.963   3.828   0.581 -1.4137  2.3078 -3.4778
  399TMC3    H1 5965   3.681   3.685   0.297  0.0572 -0.5448 -0.8680
  399TMC3    H2 5966   3.703   3.503   0.674  2.2643 -0.0276 -0.2362
  399TMC3    C7 5967   3.704   3.431   0.423  0.0644  0.1474  0.7801
  399TMC3    C8 5968   3.889   3.656   0.774  0.1956 -0.6990  0.3121
  399TMC3    O1 5969   3.726   3.341   0.503 -0.0182 -0.1508 -0.3903
  399TMC3    O2 5970   3.935   3.752   0.836 -0.0254 -0.0198 -0.0265
  400TMC3    C1 5971   3.114   2.457  17.058 -0.4215  0.0626 -0.2739
  400TMC3    C2 5972   3.017   2.482  16.961 -0.2807  0.4416  0.0934
  400TMC3    C3 5973   3.029   2.605  16.900  0.0398 -0.2253  0.3170
  400TMC3    C4 5974   3.213   2.546  17.095  0.2197 -0.4669  0.4193
  400TMC3    C5 5975   3.217   2.664  17.032  0.2662  0.1518 -0.1518
  400TMC3    C6 5976   3.127   2.692  16.935 -0.7198 -0.6286  0.1806
  400TMC3     C 5977   3.098   2.340  17.146  0.4949  0.8046  0.0224
  400TMC3     O 5978   3.174   2.342  17.245  0.6223  0.1276  0.4685
  400TMC3     H 5979   2.929   2.419  16.952 -1.3997  1.7611  1.8993
  400TMC3    H1 5980   3.286   2.519  17.170 -0.0757 -0.5155  0.6930
  400TMC3    H2 5981   3.128   2.787  16.884 -2.6899 -0.9454 -0.4301
  400TMC3    C7 5982   3.306   2.770  17.083  0.3480  0.0504 -0.0068
  400TMC3    C8 5983   2.918   2.660  16.827  0.4485  0.2924  0.0288
  400TMC3    O1 5984   3.411   2.737  17.130 -0.0408  0.3442 -0.1461
  400TMC3    O2 5985   2.905   2.780  16.835  0.2937  0.5084 -0.5082
  401MPD2     C 5986   1.162   1.866   0.535  0.0603  0.0853  0.0559
  401MPD2    C1 5987   1.259   1.824   0.613  0.6518  0.5328 -0.6351
  401MPD2    C2 5988   1.321   1.703   0.587 -0.1215 -0.2778 -0.2441
  401MPD2    C3 5989   1.290   1.626   0.475 -0.2443  0.5258  0.2036
  401MPD2    C4 5990   1.192   1.678   0.388  0.3239 -0.0378 -0.8665
  401MPD2    C5 5991   1.131   1.800   0.424 -0.3484 -1.2957 -0.0587
  401MPD2     H 5992   1.398   1.673   0.658  0.7448 -0.2917 -1.1993
  401MPD2    H1 5993   1.168   1.630   0.294  0.9908 -1.4532 -0.3033
  401MPD2    H2 5994   1.109   1.957   0.559  1.5503  0.4796  1.8606
  401MPD2    H3 5995   1.074   1.866   0.360  0.1497  0.3211  1.1761
  401MPD2     N 5996   1.370   1.514   0.448  0.1928 -0.0856  0.1625
  401MPD2    H5 5997   1.446   1.504   0.513  0.2656  0.8573  0.2213
  401MPD2    N1 5998   1.301   1.891   0.724 -0.0707 -0.3274 -0.2945
  401MPD2    H7 5999   1.377   1.845   0.774 -1.3992 -2.0072  0.1736
  402TMC3    C1 6000   1.491   1.364   0.319  0.2563  0.1978  0.4399
  402TMC3    C2 6001   1.475   1.231   0.291 -0.0964 -0.4237 -0.0895
  402TMC3    C3 6002   1.579   1.146   0.322 -0.0146  0.3607  0.4933
  402TMC3    C4 6003   1.611   1.413   0.360  0.3796  0.2255 -0.2079
  402TMC3    C5 6004   1.718   1.324   0.373 -0.7290 -0.2972  0.0460
  402TMC3    C6 6005   1.706   1.185   0.353 -0.3892  0.0083 -0.4559
  402TMC3     C 6006   1.356   1.432   0.343 -0.0180  0.4764  0.2719
  402TMC3     O 6007   1.257   1.391   0.286 -0.4368  0.0898  0.8703
  402TMC3     H 6008   1.377   1.192   0.264 -1.5647  1.0491  3.0136
  402TMC3    H1 6009   1.629   1.518   0.379 -0.1614  0.2368  0.2255
  402TMC3    H2 6010   1.794   1.122   0.358 -1.5864 -1.6331 -0.0925
  402TMC3    C7 6011   1.830   1.393   0.424 -0.5548 -0.5730  0.6493
  402TMC3    C8 6012   1.581   1.024   0.244 -0.0078 -0.7296  0.5092
  402TMC3    O1 6013   1.820   1.497   0.489  0.1617  1.0444  0.2342
  402TMC3    O2 6014   1.511   1.036   0.144  0.6283  0.2619  0.1719
  403MPD2     C 6015   0.216   4.030  13.181  0.9636  0.1210 -0.7351
  403MPD2    C1 6016   0.214   3.932  13.278  0.4232  0.1426 -1.0597
  403MPD2    C2 6017   0.250   3.967  13.412 -0.0925  0.6771  0.5381
  403MPD2    C3 6018   0.289   4.096  13.444  0.1957 -0.8679  0.2806
  403MPD2    C4 6019   0.295   4.190  13.345 -0.0886  0.1613 -0.5305
  403MPD2    C5 6020   0.252   4.158  13.219 -0.8385  0.1741  0.2812
  403MPD2     H 6021   0.257   3.893  13.491  0.1275  1.0199  0.8402
  403MPD2    H1 6022   0.329   4.292  13.358 -0.1199 -0.1062  1.8160
  403MPD2    H2 6023   0.183   4.014  13.079 -1.2172  0.7485 -0.1197
  403MPD2    H3 6024   0.253   4.238  13.145  0.0567 -0.4968 -0.4334
  403MPD2     N 6025   0.318   4.129  13.577 -0.5304  0.1400 -0.1693
  403MPD2    H5 6026   0.330   4.055  13.646 -1.2778 -0.8085 -1.0440
  403MPD2    N1 6027   0.155   3.813  13.238  0.3013  0.5207  0.4958
  403MPD2    H7 6028   0.116   3.808  13.144 -0.3107  0.1126  0.7748
  404TMC3    C1 6029   0.049   3.605  13.247  0.1811 -0.2148 -0.1011
  404TMC3    C2 6030   4.688   3.527  13.321  0.3395  0.7254 -0.2750
  404TMC3    C3 6031   4.605   3.443  13.258  0.3610  0.0922  0.1994
  404TMC3    C4 6032   0.044   3.595  13.108 -0.4540  0.7731  0.0525
  404TMC3    C5 6033   4.679   3.509  13.050  0.0503  0.2828  0.0180
  404TMC3    C6 6034   4.596   3.432  13.124 -0.6345  0.6724  0.1767
  404TMC3     C 6035   0.122   3.705  13.317 -0.4037 -0.4243  0.0886
  404TMC3     O 6036   0.138   3.686  13.438  0.5389  0.5778 -0.0077
  404TMC3     H 6037   4.699   3.518  13.428  0.6504 -2.2827 -0.5602
  404TMC3    H1 6038   0.102   3.656  13.040 -2.0871  2.0937 -0.1195
  404TMC3    H2 6039   4.517   3.370  13.082 -0.7252  1.1724 -0.3790
  404TMC3    C7 6040   4.635   3.557  12.919  0.1047  0.4924 -0.0434
  404TMC3    C8 6041   4.560   3.326  13.328  0.3625  0.4199  0.5055
  404TMC3    O1 6042   4.676   3.670  12.893  0.1947 -0.3608  0.3508
  404TMC3    O2 6043   4.607   3.219  13.293 -0.2831  0.1874 -0.3280
  405MPD2     C 6044   0.198   3.835  13.796  0.2167 -0.2931  0.2275
  405MPD2    C1 6045   0.097   3.922  13.746  0.3687 -0.0917 -0.3915
  405MPD2    C2 6046   0.061   4.022  13.831 -0.1406 -0.3444 -0.5033
  405MPD2    C3 6047   0.114   4.059  13.949 -0.3621  0.5145  0.1224
  405MPD2    C4 6048   0.201   3.962  13.997  0.2430 -0.1184 -0.3510
  405MPD2    C5 6049   0.245   3.857  13.917 -0.1509 -0.5385  0.9409
  405MPD2     H 6050   4.714   4.097  13.802 -1.0428 -1.3046 -0.7644
  405MPD2    H1 6051   0.243   3.965  14.097 -0.5860  2.1188 -0.0848
  405MPD2    H2 6052   0.239   3.753  13.739  1.2892  0.3572  0.0655
  405MPD2    H3 6053   0.324   3.793  13.955  0.8904  0.2843  0.1347
  405MPD2     N 6054   0.063   4.163  14.026  0.1950 -0.3340 -0.3002
  405MPD2    H5 6055   4.713   4.217  13.983  0.4238  0.8976  0.8449
  405MPD2    N1 6056   0.020   3.890  13.626 -0.3918 -0.3005  0.0001
  405MPD2    H7 6057   0.035   3.794  13.596 -0.1261 -0.5701  0.9805
  406TMC3    C1 6058   0.039   4.524  14.305 -0.5842 -0.2743  0.3071
  406TMC3    C2 6059   4.643   4.562  14.253  0.5792  0.2272 -0.7092
  406TMC3    C3 6060   4.582   4.478  14.173  0.7002 -0.2892  0.0709
  406TMC3    C4 6061   0.105   4.410  14.278 -0.3031  0.4219 -0.2221
  406TMC3    C5 6062   0.036   4.324  14.190 -0.4258  0.2626  0.3015
  406TMC3    C6 6063   4.635   4.354  14.145  0.0088 -0.9532 -0.4137
  406TMC3     C 6064   0.086   4.597  14.420  0.5956  0.4070 -0.0663
  406TMC3     O 6065   0.196   4.577  14.466  0.2026 -0.2218 -0.5886
  406TMC3     H 6066   4.601   4.662  14.260 -3.2097 -1.4934  0.7456
  406TMC3    H1 6067   0.208   4.392  14.307 -0.8058 -1.2215  0.5600
  406TMC3    H2 6068   4.577   4.284  14.087  1.0974 -0.2316 -2.3791
  406TMC3    C7 6069   0.098   4.201  14.146 -0.6035  0.6465  0.2070
  406TMC3    C8 6070   4.507   4.533  14.069 -0.4210  0.6042 -0.2000
  406TMC3    O1 6071   0.194   4.163  14.217  0.1553  0.3241 -0.1498
  406TMC3    O2 6072   4.535   4.652  14.057  0.0211 -0.3739 -0.4987
  407MPD2     C 6073   2.478   0.760   9.718  0.4457  0.2800  0.0899
  407MPD2    C1 6074   2.607   0.791   9.753 -0.4105  0.2002 -0.6381
  407MPD2    C2 6075   2.631   0.875   9.856  1.1427 -0.1462 -0.2630
  407MPD2    C3 6076   2.521   0.940   9.919  0.7349  0.0311  0.7759
  407MPD2    C4 6077   2.400   0.935   9.856 -0.3554 -0.9947  0.2221
  407MPD2    C5 6078   2.376   0.838   9.769 -0.0985  0.3371 -0.1904
  407MPD2     H 6079   2.731   0.902   9.888  0.7477  2.0103 -0.8649
  407MPD2    H1 6080   2.308   0.985   9.887  0.2784  0.2120  0.1444
  407MPD2    H2 6081   2.445   0.686   9.647  1.1711 -0.0607  0.1073
  407MPD2    H3 6082   2.278   0.826   9.724  0.0368 -0.9293 -0.1409
  407MPD2     N 6083   2.530   1.043  10.014 -0.2133  0.5007 -0.5417
  407MPD2    H5 6084   2.450   1.102  10.035  1.2726  1.7295  1.6497
  407MPD2    N1 6085   2.713   0.739   9.672  0.4282  0.1240 -0.5610
  407MPD2    H7 6086   2.803   0.782   9.689  0.5114  0.0026 -0.6904
  408TMC3    C1 6087   2.804   0.705   9.471  0.0019  0.2309 -0.2032
  408TMC3    C2 6088   2.921   0.624   9.454 -0.7307 -0.2820 -0.0996
  408TMC3    C3 6089   3.037   0.680   9.399 -0.8112  0.6677  0.1271
  408TMC3    C4 6090   2.815   0.833   9.433 -0.6385  0.3715  0.3874
  408TMC3    C5 6091   2.928   0.884   9.379 -0.3787  0.2151 -0.2191
  408TMC3    C6 6092   3.044   0.810   9.352 -0.2836  0.3720 -0.0418
  408TMC3     C 6093   2.698   0.672   9.557 -0.5352 -0.9767  0.2969
  408TMC3     O 6094   2.621   0.584   9.514  0.2525 -0.2995  0.2652
  408TMC3     H 6095   2.913   0.522   9.489  0.7228 -0.8902 -1.5661
  408TMC3    H1 6096   2.720   0.886   9.433 -0.8110  0.0665  2.0436
  408TMC3    H2 6097   3.132   0.847   9.301  1.3996  1.1390  3.3574
  408TMC3    C7 6098   2.948   1.028   9.371 -0.0073  0.1021 -0.6151
  408TMC3    C8 6099   3.150   0.593   9.380  0.1273  0.6695 -0.8132
  408TMC3    O1 6100   3.051   1.058   9.309 -0.1669 -0.7293 -0.1660
  408TMC3    O2 6101   3.121   0.473   9.364 -0.1622 -0.0918  0.0721
  409MPD2     C 6102   1.808   2.041  16.722  0.7784 -0.7687 -0.1596
  409MPD2    C1 6103   1.875   2.062  16.839 -0.2715 -0.6170 -0.6761
  409MPD2    C2 6104   1.923   2.188  16.871 -0.4785 -0.2932 -0.2537
  409MPD2    C3 6105   1.899   2.293  16.778  0.0318 -0.3691 -0.3181
  409MPD2    C4 6106   1.818   2.271  16.667  0.2041  0.0928 -0.1748
  409MPD2    C5 6107   1.775   2.144  16.640  0.0775 -0.2596  0.0397
  409MPD2     H 6108   1.969   2.219  16.964  0.1345  0.1501 -0.7087
  409MPD2    H1 6109   1.794   2.340  16.588  0.7880 -1.0228 -1.3281
  409MPD2    H2 6110   1.770   1.942  16.700 -0.7247 -0.2527  0.0836
  409MPD2    H3 6111   1.722   2.123  16.548  2.3817 -1.3632 -1.0465
  409MPD2     N 6112   1.963   2.417  16.789  0.5916 -0.4610  0.0233
  409MPD2    H5 6113   1.923   2.486  16.726 -2.3452 -2.1735  0.0516
  409MPD2    N1 6114   1.901   1.959  16.936 -0.1699 -0.1782 -0.0822
  409MPD2    H7 6115   1.937   1.991  17.025 -0.3148 -0.1925 -0.0188
  410TMC3    C1 6116   2.119   2.588  16.854 -0.3102  0.2748 -0.2181
  410TMC3    C2 6117   2.241   2.612  16.928  0.6941  0.3172  0.3415
  410TMC3    C3 6118   2.338   2.692  16.877 -0.4944 -0.1741 -0.5585
  410TMC3    C4 6119   2.106   2.650  16.735 -0.5012 -0.3460  0.9452
  410TMC3    C5 6120   2.209   2.728  16.684 -0.3928 -0.1956 -0.0282
  410TMC3    C6 6121   2.330   2.746  16.753  0.2824 -0.4030  0.6420
  410TMC3     C 6122   2.063   2.452  16.874  0.0909 -0.0043 -0.1634
  410TMC3     O 6123   2.133   2.380  16.939  0.0135  0.6704  0.5614
  410TMC3     H 6124   2.251   2.559  17.022 -0.7576  0.0908  0.3715
  410TMC3    H1 6125   2.022   2.627  16.672 -1.2519  1.2167  1.3692
  410TMC3    H2 6126   2.412   2.804  16.712 -1.7666  0.6010 -2.0237
  410TMC3    C7 6127   2.203   2.744  16.542  0.0798  0.1526 -0.7248
  410TMC3    C8 6128   2.467   2.694  16.945 -0.0366 -0.0396 -0.0001
  410TMC3    O1 6129   2.128   2.676  16.476  0.1802  0.4405  0.3642
  410TMC3    O2 6130   2.536   2.795  16.943  0.0398  0.7570  0.1936
  411MPD2     C 6131   2.791   3.008  14.816  0.0303  0.1226  0.0325
  411MPD2    C1 6132   2.696   3.007  14.716  0.0249 -0.3281  0.1337
  411MPD2    C2 6133   2.641   2.886  14.696  0.3323  0.1499  0.2180
  411MPD2    C3 6134   2.657   2.774  14.771 -0.2353 -0.6030  0.0201
  411MPD2    C4 6135   2.751   2.775  14.873  0.6645  0.4236  0.3297
  411MPD2    C5 6136   2.810   2.898  14.900 -0.6484  0.9527 -0.5506
  411MPD2     H 6137   2.573   2.868  14.613  1.9932  2.7429 -1.7264
  411MPD2    H1 6138   2.775   2.702  14.949 -0.0881 -1.0819 -0.8857
  411MPD2    H2 6139   2.841   3.100  14.845  1.3418 -0.4228 -0.4797
  411MPD2    H3 6140   2.878   2.902  14.985 -1.9855 -1.6302  0.6453
  411MPD2     N 6141   2.569   2.662  14.749 -0.7082 -0.0851  0.4274
  411MPD2    H5 6142   2.508   2.673  14.669  0.4817 -2.5124 -0.8196
  411MPD2    N1 6143   2.670   3.130  14.646 -0.5613  0.2367  0.1720
  411MPD2    H7 6144   2.724   3.214  14.666  0.0025 -0.0687 -0.0989
  412TMC3    C1 6145   2.439   2.486  14.808 -0.2877  0.9455 -0.3545
  412TMC3    C2 6146   2.427   2.348  14.825 -0.0531  0.2494 -0.1830
  412TMC3    C3 6147   2.325   2.288  14.757  0.0216  0.2365  0.5125
  412TMC3    C4 6148   2.332   2.562  14.764 -0.2039  0.0734 -0.9982
  412TMC3    C5 6149   2.217   2.490  14.721  0.0819 -0.2762  0.3422
  412TMC3    C6 6150   2.220   2.359  14.716  0.2381 -0.5491 -0.3176
  412TMC3     C 6151   2.563   2.555  14.834 -0.1989 -0.9595 -0.0899
  412TMC3     O 6152   2.625   2.516  14.934 -0.0525  0.3611  0.0757
  412TMC3     H 6153   2.509   2.297  14.873 -0.2559  0.2543  0.1705
  412TMC3    H1 6154   2.333   2.670  14.760  0.8753  0.1596  1.2177
  412TMC3    H2 6155   2.135   2.309  14.671 -0.9396  0.7539  0.4714
  412TMC3    C7 6156   2.109   2.530  14.812  0.5898 -0.2892  0.2537
  412TMC3    C8 6157   2.284   2.167  14.812 -0.3481 -0.1495 -0.4843
  412TMC3    O1 6158   2.130   2.622  14.890 -0.9046 -0.3839 -0.0401
  412TMC3    O2 6159   2.215   2.102  14.737  0.0681  0.0067 -0.5871
  413MPD2     C 6160   4.103   1.285  15.867 -0.4160 -0.2784 -0.0326
  413MPD2    C1 6161   4.104   1.248  15.732  0.3079 -1.2588  0.5150
  413MPD2    C2 6162   4.130   1.113  15.706 -1.1210  0.1618  0.7300
  413MPD2    C3 6163   4.165   1.017  15.807 -0.1108  0.0086 -0.7208
  413MPD2    C4 6164   4.172   1.065  15.937 -0.2757 -0.0405 -0.6036
  413MPD2    C5 6165   4.137   1.197  15.963 -0.3043  0.7662 -0.3213
  413MPD2     H 6166   4.140   1.075  15.605 -1.3554 -1.0728  1.1684
  413MPD2    H1 6167   4.209   1.004  16.018 -0.3235 -2.5101 -2.4546
  413MPD2    H2 6168   4.074   1.385  15.898  0.2195  0.3271 -1.4156
  413MPD2    H3 6169   4.143   1.230  16.066  0.7223 -0.6790  0.0804
  413MPD2     N 6170   4.188   0.885  15.770 -0.4487  0.3388 -0.0377
  413MPD2    H5 6171   4.188   0.873  15.669  1.0588 -2.6715  0.2948
  413MPD2    N1 6172   4.070   1.351  15.645 -0.4611 -0.2042 -0.5760
  413MPD2    H7 6173   4.054   1.442  15.688 -2.8521 -1.2258  0.6682
  414TMC3    C1 6174   4.256   0.665  15.774 -0.0381  0.0915  0.3391
  414TMC3    C2 6175   4.365   0.589  15.806  0.1094  0.3976 -0.0932
  414TMC3    C3 6176   4.394   0.486  15.729  0.4999  0.1252 -0.1942
  414TMC3    C4 6177   4.177   0.634  15.665 -0.2670 -0.2889  0.4940
  414TMC3    C5 6178   4.206   0.523  15.597  0.1346 -0.4366  0.5351
  414TMC3    C6 6179   4.307   0.441  15.637  0.0312 -0.2167 -0.0333
  414TMC3     C 6180   4.238   0.785  15.854 -1.1211  0.0518 -0.6921
  414TMC3     O 6181   4.283   0.789  15.966  0.2848 -0.4298  0.1213
  414TMC3     H 6182   4.424   0.621  15.891 -2.2124 -0.5226  1.8279
  414TMC3    H1 6183   4.089   0.693  15.644 -0.3309 -0.8814 -0.9141
  414TMC3    H2 6184   4.310   0.347  15.582  1.4574 -0.0174 -0.2840
  414TMC3    C7 6185   4.216   0.554  15.457 -0.2576 -0.5110 -0.1446
  414TMC3    C8 6186   4.527   0.458  15.685 -0.1993  0.3930  0.0797
  414TMC3    O1 6187   4.134   0.632  15.413  0.1667 -0.0913  0.1838
  414TMC3    O2 6188   4.531   0.389  15.582 -0.4371 -0.1184 -0.2645
  415TMC3    C1 6189   3.919   3.270   9.696 -0.8991 -0.2474 -0.4557
  415TMC3    C2 6190   3.998   3.319   9.590 -0.4164 -0.6654  0.2517
  415TMC3    C3 6191   3.989   3.250   9.478  0.6011 -0.0631  0.5312
  415TMC3    C4 6192   3.835   3.165   9.680  0.2457 -0.0942 -0.3082
  415TMC3    C5 6193   3.829   3.104   9.561  0.7553 -0.4378  0.0763
  415TMC3    C6 6194   3.912   3.140   9.459  0.5218  0.8177 -0.0389
  415TMC3     C 6195   3.983   3.255   9.824  0.3155  0.0649 -0.1290
  415TMC3     O 6196   4.002   3.148   9.877  0.5352  1.1181 -0.0413
  415TMC3     H 6197   4.066   3.402   9.604 -1.9776  0.8075 -0.9148
  415TMC3    H1 6198   3.781   3.136   9.769 -1.3631  3.5743 -0.0946
  415TMC3    H2 6199   3.909   3.091   9.362 -0.1127  1.3605 -0.2941
  415TMC3    C7 6200   3.737   2.995   9.530 -0.8096  0.5280  0.0652
  415TMC3    C8 6201   4.059   3.291   9.362 -0.4509  0.5117 -0.0572
  415TMC3    O1 6202   3.749   2.959   9.416 -0.6323  0.2921 -0.7206
  415TMC3    O2 6203   4.002   3.280   9.256  0.3573 -0.0781  0.2744
  416MPD2     C 6204   2.279   2.338  11.332  0.5001 -0.7275  0.4105
  416MPD2    C1 6205   2.193   2.270  11.415 -0.4005 -0.4802 -0.1033
  416MPD2    C2 6206   2.178   2.135  11.398 -0.8725 -0.8070 -0.5075
  416MPD2    C3 6207   2.235   2.066  11.291 -0.3922 -0.4519  0.5115
  416MPD2    C4 6208   2.329   2.134  11.214 -0.2608  0.3371 -0.0151
  416MPD2    C5 6209   2.340   2.269  11.230  0.4111 -0.2992  0.1237
  416MPD2     H 6210   2.101   2.081  11.452 -0.7628 -0.9162 -0.4593
  416MPD2    H1 6211   2.382   2.088  11.131 -0.3712  0.0983  0.0474
  416MPD2    H2 6212   2.302   2.443  11.345 -0.1432 -0.7568  1.7093
  416MPD2    H3 6213   2.409   2.329  11.171  0.2770 -0.6832 -0.4243
  416MPD2     N 6214   2.216   1.925  11.286  0.3467  0.1206 -0.6484
  416MPD2    H5 6215   2.173   1.892  11.372 -0.8676  1.2276 -0.8435
  416MPD2    N1 6216   2.119   2.347  11.512 -0.5846  0.9452 -0.3628
  416MPD2    H7 6217   2.124   2.448  11.514 -0.7359  0.9464 -0.0954
  417TMC3    C1 6218   1.943   2.406  11.646 -0.3845  0.2093  0.7620
  417TMC3    C2 6219   1.902   2.399  11.777  0.0559  0.2751 -0.0167
  417TMC3    C3 6220   1.778   2.439  11.823 -0.1407 -0.6086 -0.3962
  417TMC3    C4 6221   1.872   2.474  11.556  0.1209 -0.0119 -0.3093
  417TMC3    C5 6222   1.747   2.522  11.599 -1.0041 -0.9289  0.1853
  417TMC3    C6 6223   1.704   2.506  11.729 -0.1174 -0.2999  0.0412
  417TMC3     C 6224   2.026   2.301  11.599  0.3223 -0.7150  0.6805
  417TMC3     O 6225   1.985   2.193  11.630 -0.2463  0.3917 -0.9498
  417TMC3     H 6226   1.967   2.340  11.841  1.2791  0.8071 -0.7836
  417TMC3    H1 6227   1.906   2.486  11.454 -0.4081 -2.3244 -0.7657
  417TMC3    H2 6228   1.617   2.557  11.769  0.8858  0.4809  1.1969
  417TMC3    C7 6229   1.649   2.541  11.489  0.0443 -0.1108 -0.2260
  417TMC3    C8 6230   1.755   2.449  11.967  0.0240  0.2095 -0.2831
  417TMC3    O1 6231   1.694   2.589  11.388 -0.3662  0.0276  0.3445
  417TMC3    O2 6232   1.677   2.539  11.994 -0.1540 -0.3427 -0.3621
  418TMC3    C1 6233   0.134   3.759   0.159  0.2847  0.3612  0.0772
  418TMC3    C2 6234   0.003   3.802   0.142  0.4606 -0.3514 -0.2732
  418TMC3    C3 6235   4.693   3.904   0.226  0.1982 -0.2422  0.0916
  418TMC3    C4 6236   0.213   3.818   0.254 -0.2520  0.2154  0.1843
  418TMC3    C5 6237   0.165   3.915   0.339 -0.3300  0.0827 -0.3327
  418TMC3    C6 6238   0.044   3.962   0.325  0.1394 -0.2561  0.4920
  418TMC3     C 6239   0.195   3.718   0.033 -0.0386 -0.2618  0.4643
  418TMC3     O 6240   0.118   3.724  17.642 -0.2444  0.2250 -0.2898
  418TMC3     H 6241   4.658   3.744   0.082  2.1735 -0.3310 -2.2955
  418TMC3    H1 6242   0.318   3.793   0.264 -0.1836  1.0391  1.4939
  418TMC3    H2 6243   4.724   4.041   0.384  0.6324  2.0466 -2.2499
  418TMC3    C7 6244   0.227   3.900   0.474 -0.0335  0.2633  0.0230
  418TMC3    C8 6245   4.564   3.960   0.201  0.1995  0.4256  0.0137
  418TMC3    O1 6246   0.335   3.847   0.481  0.1613 -0.1252 -0.1437
  418TMC3    O2 6247   4.552   4.078   0.211  0.0270  0.4202 -0.2404
  419MPD2     C 6248   4.431   2.061  12.552 -0.8186 -0.0285 -0.0734
  419MPD2    C1 6249   4.306   2.117  12.539 -0.2898 -0.6871  0.2117
  419MPD2    C2 6250   4.253   2.189  12.645  0.5501  0.1065 -0.1117
  419MPD2    C3 6251   4.329   2.212  12.758  0.2536  0.2587 -0.1747
  419MPD2    C4 6252   4.452   2.152  12.775  1.1637 -0.2575 -0.2465
  419MPD2    C5 6253   4.501   2.077  12.671  0.1431  0.7493 -0.1045
  419MPD2     H 6254   4.153   2.231  12.646  0.4597 -0.1132  0.5119
  419MPD2    H1 6255   4.512   2.162  12.864 -0.7580  0.3445  0.9642
  419MPD2    H2 6256   4.469   1.999  12.472  0.7225  0.2197  0.4746
  419MPD2    H3 6257   4.603   2.039  12.668 -0.6471 -1.4232  0.5716
  419MPD2     N 6258   4.273   2.303  12.848 -0.1612  0.3961  0.0500
  419MPD2    H5 6259   4.173   2.316  12.837  0.2028  1.0396 -2.3757
  419MPD2    N1 6260   4.220   2.095  12.421  0.5472  0.7265  0.4907
  419MPD2    H7 6261   4.128   2.136  12.430  0.4186  0.0618  2.2277
  420TMC3    C1 6262   4.230   2.441  13.034 -0.5026 -0.2361  0.5555
  420TMC3    C2 6263   4.112   2.463  12.969  0.0853  0.0261  0.2776
  420TMC3    C3 6264   3.998   2.505  13.040  0.2011  0.5674  1.2895
  420TMC3    C4 6265   4.242   2.460  13.166  0.3767 -0.5236 -0.0122
  420TMC3    C5 6266   4.127   2.494  13.236  0.1708  0.4164  0.5803
  420TMC3    C6 6267   4.008   2.526  13.175  0.2521  0.4264 -0.1436
  420TMC3     C 6268   4.332   2.359  12.962 -0.3013  0.1716  0.4024
  420TMC3     O 6269   4.444   2.348  13.003  0.8977  0.0206  0.2799
  420TMC3     H 6270   4.102   2.464  12.861 -1.2877  1.1571  0.4187
  420TMC3    H1 6271   4.333   2.425  13.214  2.3671  2.5814 -1.5688
  420TMC3    H2 6272   3.930   2.577  13.232 -0.6233 -2.2122  1.0275
  420TMC3    C7 6273   4.130   2.500  13.384 -0.6395 -0.7931  0.0782
  420TMC3    C8 6274   3.872   2.521  12.973  0.0828  0.5477  0.6200
  420TMC3    O1 6275   4.021   2.494  13.443 -0.2975 -0.1042 -0.9899
  420TMC3    O2 6276   3.881   2.527  12.851 -0.0061  0.3880  0.2622
  421TMC3    C1 6277   0.339   4.272  13.765 -0.0213  0.2976 -0.3480
  421TMC3    C2 6278   0.307   4.401  13.819  0.0345  0.7467  0.4802
  421TMC3    C3 6279   0.342   4.424  13.950 -0.1292  0.5704 -0.2316
  421TMC3    C4 6280   0.411   4.183  13.835  0.2786  0.2730 -0.1070
  421TMC3    C5 6281   0.441   4.216  13.967 -0.2090  0.4958 -0.2615
  421TMC3    C6 6282   0.405   4.332  14.024 -0.3104  0.2352 -0.5936
  421TMC3     C 6283   0.328   4.258  13.622 -0.0837 -0.4072  0.3261
  421TMC3     O 6284   0.299   4.364  13.562 -0.6989  0.1043  0.3825
  421TMC3     H 6285   0.262   4.476  13.756  0.3141 -0.2021 -0.8536
  421TMC3    H1 6286   0.447   4.090  13.793 -2.7952 -0.6608 -0.6865
  421TMC3    H2 6287   0.437   4.338  14.128  1.2346  0.7717 -1.0913
  421TMC3    C7 6288   0.535   4.134  14.035 -0.5457 -0.0657  0.6212
  421TMC3    C8 6289   0.328   4.559  14.001  0.3366 -0.2018  0.4785
  421TMC3    O1 6290   0.650   4.128  13.999 -0.1761 -0.1276 -0.3979
  421TMC3    O2 6291   0.238   4.625  13.950 -0.4565  0.1076 -0.0763
  422TMC3    C1 6292   2.848   0.354  13.006 -0.2850  0.7934  0.2329
  422TMC3    C2 6293   2.791   0.444  12.927  0.3935 -0.1107 -0.2727
  422TMC3    C3 6294   2.667   0.479  12.958  0.7546  0.1621  0.0442
  422TMC3    C4 6295   2.778   0.290  13.111 -0.2235  0.9545 -0.2744
  422TMC3    C5 6296   2.650   0.331  13.138 -0.2803 -0.0080  0.2163
  422TMC3    C6 6297   2.593   0.434  13.069  0.7294 -0.5023  0.5660
  422TMC3     C 6298   2.989   0.332  12.998  0.7423  0.6722  0.7228
  422TMC3     O 6299   3.058   0.417  12.945  0.1466  0.3667  0.4659
  422TMC3     H 6300   2.849   0.485  12.846  0.3382  0.3796 -0.0639
  422TMC3    H1 6301   2.825   0.216  13.175  0.5140  1.6661 -0.0000
  422TMC3    H2 6302   2.497   0.484  13.070  0.9433 -0.0788  0.2858
  422TMC3    C7 6303   2.557   0.221  13.161 -0.4593 -0.7462  0.3883
  422TMC3    C8 6304   2.639   0.612  12.922  0.1594  0.1286 -0.3293
  422TMC3    O1 6305   2.614   0.127  13.224 -0.1419  0.3818 -0.3125
  422TMC3    O2 6306   2.673   0.650  12.809 -0.4699  0.6277 -0.0133
  423MPD2     C 6307   3.990   2.251   0.220 -0.5583 -0.9373  0.3778
  423MPD2    C1 6308   4.040   2.137   0.290  0.7403  0.1021 -0.0901
  423MPD2    C2 6309   4.116   2.039   0.224 -0.0829 -0.0435 -0.1929
  423MPD2    C3 6310   4.116   2.049   0.082 -0.3240 -0.4351  0.0666
  423MPD2    C4 6311   4.075   2.157   0.020 -0.2690  0.2662  0.3736
  423MPD2    C5 6312   4.017   2.260   0.083  0.3340 -0.1362  0.3755
  423MPD2     H 6313   4.147   1.953   0.282  0.8930 -0.8375 -1.8790
  423MPD2    H1 6314   4.099   2.167  17.617  1.5669 -1.7203  0.5975
  423MPD2    H2 6315   3.930   2.326   0.270  0.1501 -0.7954  1.0229
  423MPD2    H3 6316   3.986   2.344   0.022 -1.0547 -0.0277  1.2281
  423MPD2     N 6317   4.164   1.947   0.005 -0.5604  0.8495 -0.1111
  423MPD2    H5 6318   4.163   1.974  17.609 -0.4576  0.5490 -0.1947
  423MPD2    N1 6319   4.028   2.116   0.429 -0.3060 -0.1708 -0.5289
  423MPD2    H7 6320   4.082   2.039   0.468  0.5627  0.8686  0.3189
  424TMC3    C1 6321   3.941   2.152   0.636 -0.3541  0.1226  0.7776
  424TMC3    C2 6322   3.995   2.035   0.679  0.3818 -0.1318  0.7876
  424TMC3    C3 6323   3.959   1.992   0.800  0.0913 -0.0969 -0.3753
  424TMC3    C4 6324   3.868   2.232   0.715 -0.9854  0.1132 -0.0318
  424TMC3    C5 6325   3.823   2.168   0.833 -0.8466 -0.1616  0.5503
  424TMC3    C6 6326   3.870   2.050   0.884  0.4666  0.4766  0.0339
  424TMC3     C 6327   3.947   2.196   0.499  0.2678 -0.2586  0.3263
  424TMC3     O 6328   3.863   2.280   0.467 -0.1774  0.3413  0.1371
  424TMC3     H 6329   4.036   1.961   0.611 -1.4838 -0.7069  0.2978
  424TMC3    H1 6330   3.819   2.325   0.687 -0.7023  0.3292  0.1901
  424TMC3    H2 6331   3.850   2.008   0.982  0.0645 -0.7991 -0.5943
  424TMC3    C7 6332   3.739   2.244   0.918  0.1419 -0.2631 -0.1011
  424TMC3    C8 6333   4.041   1.890   0.871 -0.0157  0.3145 -0.5033
  424TMC3    O1 6334   3.722   2.362   0.883  0.5842 -0.1197 -0.0954
  424TMC3    O2 6335   4.003   1.837   0.971 -0.3594  0.2465 -0.4403
  425MPD2     C 6336   3.062   1.406  17.537  0.1462  0.5709  0.7597
  425MPD2    C1 6337   2.997   1.306  17.464  1.1634 -0.2113  0.9615
  425MPD2    C2 6338   2.868   1.266  17.494 -0.1430 -0.4219 -0.0248
  425MPD2    C3 6339   2.801   1.341  17.587 -0.1846 -0.0940 -0.3310
  425MPD2    C4 6340   2.869   1.423  17.669  0.1347  0.7620 -0.5217
  425MPD2    C5 6341   2.999   1.449  17.650  0.2955  0.0392 -0.6574
  425MPD2     H 6342   2.819   1.191  17.433  1.1585  1.0063 -2.8183
  425MPD2    H1 6343   2.818   1.485   0.040 -0.1674 -1.8948  1.5396
  425MPD2    H2 6344   3.165   1.427  17.514  0.3619  1.1407  2.2272
  425MPD2    H3 6345   3.051   1.525   0.005  0.0098  1.1692 -1.8799
  425MPD2     N 6346   2.663   1.326  17.592 -0.3320 -0.2427  0.3661
  425MPD2    H5 6347   2.624   1.269  17.518 -1.2937  0.5360  0.2794
  425MPD2    N1 6348   3.082   1.229  17.375  0.3186 -0.6925  0.4699
  425MPD2    H7 6349   3.179   1.257  17.368  0.2563 -0.0143  2.3481
  426TMC3    C1 6350   3.177   1.040  17.282  0.5629 -0.7115 -0.3512
  426TMC3    C2 6351   3.168   0.926  17.204 -0.1871 -0.4718 -0.0886
  426TMC3    C3 6352   3.264   0.828  17.207  0.2122 -0.1283 -0.4931
  426TMC3    C4 6353   3.282   1.059  17.366 -0.1711 -0.2960  0.2418
  426TMC3    C5 6354   3.366   0.954  17.366  0.1480  0.0775 -0.2778
  426TMC3    C6 6355   3.370   0.841  17.290 -0.2216  0.2973 -0.2662
  426TMC3     C 6356   3.053   1.110  17.314 -0.1868 -0.0731  0.2042
  426TMC3     O 6357   2.951   1.042  17.307 -0.3976 -0.0512  0.5448
  426TMC3     H 6358   3.068   0.906  17.165  0.5913 -1.2120 -1.7104
  426TMC3    H1 6359   3.303   1.143  17.431  2.3133 -0.3229 -0.5247
  426TMC3    H2 6360   3.443   0.765  17.314 -1.2290 -0.6322 -0.1405
  426TMC3    C7 6361   3.442   0.949  17.490 -0.5487 -0.0917 -0.5345
  426TMC3    C8 6362   3.236   0.690  17.153 -0.0181 -0.5230  0.0688
  426TMC3    O1 6363   3.562   0.927  17.489 -0.4142  0.7969 -0.1624
  426TMC3    O2 6364   3.330   0.621  17.123 -0.0026  0.2601  0.4187
  427MPD2     C 6365   1.668   2.927  14.744 -0.0933 -0.4817 -0.4593
  427MPD2    C1 6366   1.653   2.916  14.877 -0.1205 -0.1569  0.1747
  427MPD2    C2 6367   1.528   2.928  14.925  1.0440 -0.2616 -0.7779
  427MPD2    C3 6368   1.416   2.949  14.847  0.1211  0.2407  0.4909
  427MPD2    C4 6369   1.438   2.967  14.718 -0.0124  0.3503 -0.0174
  427MPD2    C5 6370   1.562   2.954  14.664 -0.1325  0.0854 -0.1043
  427MPD2     H 6371   1.527   2.899  15.029  0.2077 -2.1964 -1.3239
  427MPD2    H1 6372   1.362   2.997  14.646 -1.6242 -1.6235  0.8691
  427MPD2    H2 6373   1.769   2.916  14.706  0.2834 -0.0209  0.4128
  427MPD2    H3 6374   1.563   2.978  14.558  1.1109  0.1786 -0.0714
  427MPD2     N 6375   1.282   2.946  14.895  0.2541 -0.0086  0.5086
  427MPD2    H5 6376   1.206   2.960  14.829  1.4644 -0.0025 -0.8692
  427MPD2    N1 6377   1.763   2.909  14.966  0.1403 -0.0147  0.1017
  427MPD2    H7 6378   1.741   2.915  15.064 -0.5718 -0.1923 -0.0487
  428TMC3    C1 6379   1.980   2.909  15.052 -0.3232  0.0631 -0.0081
  428TMC3    C2 6380   1.941   2.842  15.162  0.0965  0.2906 -0.3858
  428TMC3    C3 6381   2.031   2.788  15.242 -0.6819  0.7556 -0.5873
  428TMC3    C4 6382   2.111   2.923  15.032  0.0658 -0.4423 -0.8205
  428TMC3    C5 6383   2.210   2.859  15.107 -0.8874  0.5497  0.9273
  428TMC3    C6 6384   2.169   2.789  15.220 -0.1402 -0.0004  0.6575
  428TMC3     C 6385   1.893   2.939  14.944 -0.1905 -0.6223  0.3887
  428TMC3     O 6386   1.952   2.969  14.841  0.3389  0.0323 -0.4020
  428TMC3     H 6387   1.836   2.830  15.188  0.4857  1.6222  1.7589
  428TMC3    H1 6388   2.143   2.985  14.949  3.1537 -0.2310  0.5182
  428TMC3    H2 6389   2.241   2.737  15.283  1.2729  1.3771  0.1515
  428TMC3    C7 6390   2.333   2.934  15.121 -0.3763 -0.1417  0.8025
  428TMC3    C8 6391   1.984   2.728  15.370 -0.1612 -0.1720 -0.4194
  428TMC3    O1 6392   2.387   2.916  15.230 -0.6523  0.0944 -0.2532
  428TMC3    O2 6393   1.866   2.692  15.368 -0.4554 -0.3738  0.4342
  429MPD2     C 6394   2.423   3.184  17.295  0.3300 -0.0239  0.5194
  429MPD2    C1 6395   2.550   3.132  17.287 -0.0062 -0.3253 -0.2185
  429MPD2    C2 6396   2.661   3.219  17.276  0.3152 -0.1341 -0.1209
  429MPD2    C3 6397   2.645   3.356  17.272  0.5550 -0.5155  0.6061
  429MPD2    C4 6398   2.516   3.408  17.283 -0.3331  0.4168 -0.8225
  429MPD2    C5 6399   2.404   3.322  17.296  0.1483  0.0026 -0.3036
  429MPD2     H 6400   2.762   3.181  17.269 -0.3172 -1.7802 -0.1951
  429MPD2    H1 6401   2.483   3.510  17.270 -0.3102  0.6441  0.9378
  429MPD2    H2 6402   2.337   3.119  17.307  0.3650 -0.1992 -0.1911
  429MPD2    H3 6403   2.306   3.366  17.312  0.0781 -0.2278 -0.0958
  429MPD2     N 6404   2.760   3.438  17.259  0.0556  0.4646 -0.0411
  429MPD2    H5 6405   2.852   3.395  17.251  1.1104  2.5811  0.7834
  429MPD2    N1 6406   2.565   2.991  17.287  0.1076 -0.0452 -0.0295
  429MPD2    H7 6407   2.657   2.951  17.308  0.0394 -1.4387 -2.3434
  430TMC3    C1 6408   2.877   3.629  17.201 -0.3088  0.2856 -0.0085
  430TMC3    C2 6409   2.884   3.721  17.096 -0.4208 -0.3803  0.2415
  430TMC3    C3 6410   2.985   3.702  17.001 -0.0616 -0.2873 -0.0062
  430TMC3    C4 6411   2.985   3.541  17.228 -0.0037 -0.2093 -0.4299
  430TMC3    C5 6412   3.088   3.534  17.137  0.1853 -0.1705  0.8240
  430TMC3    C6 6413   3.091   3.617  17.024 -0.0237  0.4355 -0.0990
  430TMC3     C 6414   2.747   3.574  17.232 -0.1838  0.2330  0.1733
  430TMC3     O 6415   2.657   3.648  17.201 -0.4834  0.4847 -0.0146
  430TMC3     H 6416   2.812   3.801  17.086  0.6945  0.6818  0.6240
  430TMC3    H1 6417   2.984   3.484  17.321  0.2898 -0.6485 -0.6994
  430TMC3    H2 6418   3.165   3.619  16.945 -0.7612  1.1174 -0.7759
  430TMC3    C7 6419   3.116   3.397  17.121 -0.1330  0.3221 -0.0770
  430TMC3    C8 6420   2.923   3.696  16.873 -0.1945 -0.0291 -0.3061
  430TMC3    O1 6421   3.019   3.321  17.131 -0.1157 -0.1624 -0.3749
  430TMC3    O2 6422   2.806   3.666  16.864  0.2080  0.0920 -0.6875
  431MPD2     C 6423   3.816   2.699  12.535  0.3152  1.0646  0.6976
  431MPD2    C1 6424   3.881   2.726  12.420 -0.1070 -0.2357  0.1801
  431MPD2    C2 6425   3.904   2.627  12.331  0.4115 -0.5263  0.8821
  431MPD2    C3 6426   3.869   2.495  12.362 -0.4357 -0.5705  0.7689
  431MPD2    C4 6427   3.797   2.468  12.480 -1.0300 -0.0046 -0.2244
  431MPD2    C5 6428   3.766   2.570  12.563 -0.0372 -0.6728 -0.2914
  431MPD2     H 6429   3.959   2.651  12.241 -1.8971 -0.0390 -0.3919
  431MPD2    H1 6430   3.766   2.367  12.505  2.2648 -1.2138 -1.0160
  431MPD2    H2 6431   3.783   2.787  12.590  1.5248  2.3249 -0.5939
  431MPD2    H3 6432   3.717   2.554  12.658  2.3643  0.4355  1.1326
  431MPD2     N 6433   3.900   2.387  12.279  0.1618  0.5464  0.4783
  431MPD2    H5 6434   3.865   2.295  12.302  0.4685  0.0625 -0.9990
  431MPD2    N1 6435   3.907   2.861  12.415  0.5119 -0.0507  0.0925
  431MPD2    H7 6436   3.880   2.915  12.497  0.6218  0.1040  0.0262
  432TMC3    C1 6437   4.031   2.266  12.130 -0.0603  0.4279  0.4820
  432TMC3    C2 6438   4.068   2.245  12.000 -0.1785 -0.1285  0.3063
  432TMC3    C3 6439   4.140   2.131  11.972 -0.0915  0.3270  0.7040
  432TMC3    C4 6440   4.058   2.175  12.231 -0.2217  0.5215 -0.2644
  432TMC3    C5 6441   4.148   2.071  12.201  0.3735 -0.9307 -0.1534
  432TMC3    C6 6442   4.179   2.047  12.073  0.4408  0.1315 -0.8470
  432TMC3     C 6443   3.970   2.392  12.164 -0.3179  0.6806  0.1383
  432TMC3     O 6444   4.001   2.485  12.091 -0.9662  0.1028 -0.3475
  432TMC3     H 6445   4.038   2.312  11.920 -0.0979 -1.3132 -0.7030
  432TMC3    H1 6446   4.024   2.199  12.332 -1.1651 -0.3647 -0.3706
  432TMC3    H2 6447   4.257   1.975  12.052 -2.3425 -1.6261 -5.1892
  432TMC3    C7 6448   4.253   2.045  12.301  0.0036  0.3721  0.1558
  432TMC3    C8 6449   4.234   2.165  11.864  0.2607  0.2672  0.5119
  432TMC3    O1 6450   4.363   2.000  12.268  0.1011  0.4267 -0.4499
  432TMC3    O2 6451   4.274   2.280  11.865 -0.5695  0.2430 -0.0158
  433MPD2     C 6452   2.747   1.430  10.853 -0.2240  0.7341  0.2315
  433MPD2    C1 6453   2.728   1.357  10.968 -0.6614  0.6126 -0.3312
  433MPD2    C2 6454   2.781   1.395  11.086 -0.7346 -0.2138 -0.0768
  433MPD2    C3 6455   2.867   1.507  11.086 -0.0420 -0.4511 -0.3486
  433MPD2    C4 6456   2.888   1.584  10.971  0.0685 -0.1399 -0.2919
  433MPD2    C5 6457   2.818   1.547  10.856 -0.2492  0.9285 -0.5946
  433MPD2     H 6458   2.768   1.336  11.176  0.3269  0.3695  0.4574
  433MPD2    H1 6459   2.945   1.676  10.979  0.0788 -0.0765 -1.1004
  433MPD2    H2 6460   2.687   1.400  10.768  1.0769 -2.4967  0.4292
  433MPD2    H3 6461   2.817   1.616  10.772  0.3947  0.9459 -0.5920
  433MPD2     N 6462   2.925   1.541  11.211 -0.3831 -0.3239 -0.4265
  433MPD2    H5 6463   2.892   1.478  11.284 -1.1624  1.2990  0.6122
  433MPD2    N1 6464   2.650   1.240  10.958 -0.0740  0.5346 -0.2813
  433MPD2    H7 6465   2.600   1.222  10.871 -0.8617  0.3692  0.2038
  434TMC3    C1 6466   2.534   1.041  11.020 -0.1811  0.3919 -0.6299
  434TMC3    C2 6467   2.476   0.971  11.123 -0.8319 -0.2978  0.1526
  434TMC3    C3 6468   2.462   0.838  11.112 -0.6470  0.6139  0.0692
  434TMC3    C4 6469   2.548   0.989  10.897 -0.5959  0.2574 -0.3835
  434TMC3    C5 6470   2.508   0.860  10.880 -0.9993 -0.0878 -0.1417
  434TMC3    C6 6471   2.467   0.783  10.987  0.3417 -0.1745 -0.4521
  434TMC3     C 6472   2.624   1.145  11.060  0.0452 -0.0700  0.1757
  434TMC3     O 6473   2.684   1.130  11.165  0.0330  0.7853  0.7741
  434TMC3     H 6474   2.484   1.011  11.223 -1.8954 -0.8546  0.4596
  434TMC3    H1 6475   2.620   1.027  10.825 -0.9829  0.6841 -0.5442
  434TMC3    H2 6476   2.448   0.677  10.982 -0.0339 -0.0510 -1.5446
  434TMC3    C7 6477   2.513   0.797  10.751  0.8644 -0.5565 -0.3445
  434TMC3    C8 6478   2.541   0.773  11.210  0.3394  0.7060  1.0674
  434TMC3    O1 6479   2.497   0.870  10.658  0.1007  0.0469 -0.7276
  434TMC3    O2 6480   2.653   0.817  11.234  0.2266 -0.2828  0.3693
  435MPD2     C 6481   4.401   1.602  15.723 -0.3907  0.1374  0.1840
  435MPD2    C1 6482   4.423   1.685  15.822 -0.0712 -0.3790 -0.5927
  435MPD2    C2 6483   4.554   1.706  15.854 -0.5302  0.6460 -0.2190
  435MPD2    C3 6484   4.661   1.649  15.792 -0.2352 -0.6804  0.3907
  435MPD2    C4 6485   4.638   1.574  15.690  0.3043  0.9508 -0.8705
  435MPD2    C5 6486   4.508   1.545  15.655 -0.3643  0.3012  0.3414
  435MPD2     H 6487   4.591   1.766  15.936  1.8536 -3.0272  1.4355
  435MPD2    H1 6488   4.712   1.516  15.634  0.7648  0.8252 -0.1292
  435MPD2    H2 6489   4.303   1.589  15.678 -0.2966  0.5805 -0.1494
  435MPD2    H3 6490   4.498   1.477  15.571 -1.9391  1.6956 -0.6153
  435MPD2     N 6491   0.063   1.684  15.846  0.0100 -0.4310 -0.7358
  435MPD2    H5 6492   0.074   1.739  15.930 -0.2455 -3.5235  1.3283
  435MPD2    N1 6493   4.315   1.744  15.895 -0.1637 -0.1381 -0.2708
  435MPD2    H7 6494   4.351   1.817  15.956  2.1630 -0.9850 -0.6229
  436TMC3    C1 6495   4.074   1.935  16.147 -0.2865 -0.5327 -0.5706
  436TMC3    C2 6496   4.145   1.843  16.080 -0.4135  0.1052  0.1296
  436TMC3    C3 6497   4.096   1.774  15.977 -0.5611 -0.8439  0.2962
  436TMC3    C4 6498   3.940   1.962  16.108 -0.0265 -0.4367 -0.1935
  436TMC3    C5 6499   3.887   1.887  16.003  1.0748  0.4549  0.1936
  436TMC3    C6 6500   3.965   1.796  15.935 -0.4005 -0.3253 -0.3227
  436TMC3     C 6501   4.142   2.003  16.257 -0.8905  0.3631  0.0836
  436TMC3     O 6502   4.263   1.994  16.265 -0.2315 -0.4731 -0.4638
  436TMC3     H 6503   4.247   1.828  16.116 -1.0857 -1.0065  1.5654
  436TMC3    H1 6504   3.884   2.028  16.173  1.5361  0.9998 -0.3299
  436TMC3    H2 6505   3.923   1.721  15.869  1.7974  0.3236 -2.4468
  436TMC3    C7 6506   3.748   1.869  15.982  0.0100  0.3066 -0.2363
  436TMC3    C8 6507   4.184   1.701  15.892  0.2194  0.0919 -0.5628
  436TMC3    O1 6508   3.711   1.758  15.936 -0.2501  0.0057  0.2549
  436TMC3    O2 6509   4.121   1.629  15.818 -0.0856 -0.0056  0.1574
  437TMC3    C1 6510   2.931   3.749  12.499  0.6059 -0.6525  0.2490
  437TMC3    C2 6511   2.836   3.849  12.512  0.6962 -0.0747  0.0071
  437TMC3    C3 6512   2.834   3.967  12.440 -0.3123  0.4842  0.2691
  437TMC3    C4 6513   3.028   3.754  12.401  0.4579 -0.0617 -0.0481
  437TMC3    C5 6514   3.024   3.868  12.322  0.1368 -0.3119 -0.4289
  437TMC3    C6 6515   2.930   3.968  12.340 -0.2053 -0.5593  0.1464
  437TMC3     C 6516   2.953   3.657  12.615  0.8593 -0.5914 -0.6402
  437TMC3     O 6517   2.865   3.636  12.697 -0.3478  0.4102  0.1884
  437TMC3     H 6518   2.774   3.847  12.601 -0.2595  4.2322 -0.5592
  437TMC3    H1 6519   3.084   3.663  12.381  0.1087 -0.2184 -0.3088
  437TMC3    H2 6520   2.946   4.059  12.283  0.3290  0.2868  1.6155
  437TMC3    C7 6521   3.101   3.863  12.199 -0.1166 -0.7152  0.3687
  437TMC3    C8 6522   2.773   4.075  12.495 -0.1735 -0.5890 -0.1059
  437TMC3    O1 6523   3.052   3.902  12.095  0.4268 -0.1861 -0.1003
  437TMC3    O2 6524   2.682   4.051  12.576  0.6728  0.2025 -0.3422
  438MPD2     C 6525   0.738   4.307  16.892  0.1849  0.5363  0.2334
  438MPD2    C1 6526   0.851   4.268  16.955  0.2861  0.2960  0.1263
  438MPD2    C2 6527   0.839   4.237  17.096  0.1832  0.2592  0.1191
  438MPD2    C3 6528   0.721   4.260  17.157 -0.2563 -0.3627 -0.2264
  438MPD2    C4 6529   0.611   4.298  17.082  0.0017 -0.5412  0.0651
  438MPD2    C5 6530   0.618   4.335  16.951  0.0532 -0.1069 -0.5886
  438MPD2     H 6531   0.928   4.207  17.150  0.0344  0.0065  0.2284
  438MPD2    H1 6532   0.517   4.306  17.135  1.6519  4.0765  2.2762
  438MPD2    H2 6533   0.737   4.331  16.786  0.1036 -1.0355 -0.1201
  438MPD2    H3 6534   0.535   4.355  16.884 -0.8838  0.7268  0.8136
  438MPD2     N 6535   0.697   4.232  17.302  0.8247 -0.0119  0.1457
  438MPD2    H5 6536   0.604   4.260  17.330  1.8290  1.2037  2.3632
  438MPD2    N1 6537   0.967   4.237  16.889  0.4491  0.4497 -0.1664
  438MPD2    H7 6538   1.044   4.209  16.949  1.5878 -1.0922 -2.2888
  439TMC3    C1 6539   1.111   4.150  16.733  0.1298 -0.2741 -0.0949
  439TMC3    C2 6540   1.116   4.095  16.611 -0.1308  0.0554  0.2140
  439TMC3    C3 6541   1.231   4.032  16.573  0.4434 -0.6403  0.6350
  439TMC3    C4 6542   1.219   4.143  16.819  0.6661  0.1361  0.1081
  439TMC3    C5 6543   1.331   4.071  16.784  0.2940 -0.0964 -0.1046
  439TMC3    C6 6544   1.338   4.013  16.658 -1.1627 -0.0471 -0.7265
  439TMC3     C 6545   0.982   4.215  16.758 -0.0977 -0.7394  0.0452
  439TMC3     O 6546   0.912   4.225  16.663  0.6869 -0.3255  0.0232
  439TMC3     H 6547   1.041   4.098  16.533 -2.4917  1.4893  2.5684
  439TMC3    H1 6548   1.220   4.197  16.913 -2.2662  0.8457 -0.2837
  439TMC3    H2 6549   1.426   3.958  16.626 -2.4005 -1.9647 -0.8498
  439TMC3    C7 6550   1.437   4.077  16.872 -0.7023  0.3651  0.4013
  439TMC3    C8 6551   1.251   3.984  16.442  0.3269  0.1515  0.0246
  439TMC3    O1 6552   1.418   4.111  16.989  0.0610 -0.1959  0.1234
  439TMC3    O2 6553   1.312   3.875  16.443  0.1514  0.3920 -0.0706
  440MPD2     C 6554   4.665   4.567  14.808 -0.0116  0.4876  1.0322
  440MPD2    C1 6555   4.653   4.670  14.899  0.0426 -0.3377  0.5935
  440MPD2    C2 6556   0.026   4.692  14.989  0.1693  0.7412  0.2359
  440MPD2    C3 6557   0.144   4.623  14.989  0.0557 -1.0529 -0.2100
  440MPD2    C4 6558   0.152   4.517  14.906  0.0042  0.4231  0.0602
  440MPD2    C5 6559   0.050   4.491  14.813 -0.2767 -0.3115  1.0435
  440MPD2     H 6560   0.006   0.047  15.058 -2.4816  0.3901 -0.1261
  440MPD2    H1 6561   0.240   4.453  14.895  0.1198  0.3052  1.6521
  440MPD2    H2 6562   4.588   4.554  14.733 -0.4275 -0.1387  1.5689
  440MPD2    H3 6563   0.063   4.408  14.744  2.8716 -0.8765  2.3494
  440MPD2     N 6564   0.247   4.640  15.092  0.6790 -0.1801  0.0150
  440MPD2    H5 6565   0.306   4.561  15.114  0.6964 -0.2736 -0.3682
  440MPD2    N1 6566   4.539   0.031  14.908 -0.1439  0.1136  0.4585
  440MPD2    H7 6567   4.533   0.099  14.983 -0.5904  0.0976  0.4427
  441TMC3    C1 6568   0.370   0.021  15.270  0.2348  0.3047  0.3344
  441TMC3    C2 6569   0.410   0.141  15.320 -0.0284  0.4901 -0.6715
  441TMC3    C3 6570   0.442   0.156  15.450 -0.2153  0.2438 -0.4092
  441TMC3    C4 6571   0.347   4.639  15.352 -0.0727 -0.1353 -0.7030
  441TMC3    C5 6572   0.365   4.660  15.490 -0.1595 -0.1946  0.3019
  441TMC3    C6 6573   0.413   0.049  15.535 -0.1312 -0.8172  0.7099
  441TMC3     C 6574   0.271   0.031  15.161 -0.8825  0.2107  0.1142
  441TMC3     O 6575   0.220   0.138  15.137  0.4924 -0.4614  0.6269
  441TMC3     H 6576   0.405   0.225  15.252  0.0824  2.4799  1.7809
  441TMC3    H1 6577   0.318   4.549  15.299 -2.7446  0.2929  0.0778
  441TMC3    H2 6578   0.407   0.069  15.642 -0.2301  1.1545  0.3400
  441TMC3    C7 6579   0.281   4.578  15.575  0.3517  0.1700 -0.1457
  441TMC3    C8 6580   0.413   0.292  15.498 -0.8818  0.4804 -0.4869
  441TMC3    O1 6581   0.172   4.547  15.524 -0.4730 -0.1367 -0.2765
  441TMC3    O2 6582   0.497   0.375  15.466 -0.1653  0.2652  0.4479
  442MPD2     C 6583   2.866   0.984  16.946 -0.0532  0.0391  0.3666
  442MPD2    C1 6584   2.753   0.920  16.929  0.4625 -1.2269 -0.9175
  442MPD2    C2 6585   2.755   0.799  16.869  0.0597 -0.0340  0.3613
  442MPD2    C3 6586   2.876   0.746  16.815  0.3041  0.6909  0.4974
  442MPD2    C4 6587   2.987   0.818  16.836  0.3491 -0.3431 -0.6817
  442MPD2    C5 6588   2.987   0.936  16.899  0.4057  0.4571 -0.4485
  442MPD2     H 6589   2.656   0.757  16.857  0.8176 -1.3022 -1.4897
  442MPD2    H1 6590   3.081   0.776  16.800  1.8255  1.4345  1.0489
  442MPD2    H2 6591   2.869   1.078  16.999  3.3435  0.0666  0.0955
  442MPD2    H3 6592   3.078   0.994  16.909  1.2153 -1.3004  2.5039
  442MPD2     N 6593   2.884   0.623  16.751  0.4233 -0.3609  0.0950
  442MPD2    H5 6594   2.970   0.608  16.698  0.2794  0.6715 -0.4112
  442MPD2    N1 6595   2.624   0.965  16.974 -0.4622 -0.6335  0.0522
  442MPD2    H7 6596   2.556   0.890  16.969 -0.1419 -1.0335  1.5978
  443TMC3    C1 6597   2.453   1.090  17.038  0.0949 -0.3459  0.7902
  443TMC3    C2 6598   2.386   1.148  16.931  0.1102  0.2926  0.3703
  443TMC3    C3 6599   2.258   1.113  16.916 -0.0209 -0.0353  0.9386
  443TMC3    C4 6600   2.405   0.997  17.128 -0.0282  0.1623 -0.6160
  443TMC3    C5 6601   2.277   0.963  17.106  0.8037 -0.1624  0.5739
  443TMC3    C6 6602   2.201   1.026  17.009  0.5806 -0.0406 -0.1647
  443TMC3     C 6603   2.593   1.090  17.018  0.6582  0.3863 -0.2217
  443TMC3     O 6604   2.649   1.198  17.003  0.0333  0.5032  0.4969
  443TMC3     H 6605   2.444   1.190  16.850 -0.6053 -0.5302 -0.5683
  443TMC3    H1 6606   2.473   0.940  17.189  1.7963  2.1488 -0.7837
  443TMC3    H2 6607   2.094   1.008  17.004  0.1607  2.0124  1.2060
  443TMC3    C7 6608   2.219   0.847  17.180  0.6723  1.3914  0.1941
  443TMC3    C8 6609   2.217   1.095  16.776 -0.5024 -0.2558  0.2983
  443TMC3    O1 6610   2.117   0.792  17.137  0.3849 -0.2497 -0.3044
  443TMC3    O2 6611   2.133   1.003  16.761  0.1800 -0.2518 -0.0575
  444MPD2     C 6612   2.968   0.385  17.638 -0.7060 -0.3191 -0.1535
  444MPD2    C1 6613   2.880   0.291  17.586 -0.2598 -0.3067 -0.3339
  444MPD2    C2 6614   2.927   0.205  17.487  0.0923  0.2750  0.8537
  444MPD2    C3 6615   3.047   0.227  17.424  0.8568 -0.1333  0.3089
  444MPD2    C4 6616   3.126   0.332  17.459  0.0687  0.1194 -0.1807
  444MPD2    C5 6617   3.090   0.413  17.567  0.1629 -0.2723 -0.0895
  444MPD2     H 6618   2.865   0.126  17.446 -0.0544  0.4682  0.7029
  444MPD2    H1 6619   3.219   0.356  17.408 -0.0079 -1.5858 -1.1214
  444MPD2    H2 6620   2.942   0.437   0.027 -0.3476  0.1029 -0.2920
  444MPD2    H3 6621   3.156   0.485  17.614 -0.2525  0.7621 -1.0795
  444MPD2     N 6622   3.094   0.129  17.334  0.2836  0.7421 -0.6188
  444MPD2    H5 6623   3.025   0.059  17.312 -0.3848  0.9927  0.6971
  444MPD2    N1 6624   2.769   0.264  17.657  0.3259  0.5779 -0.4536
  444MPD2    H7 6625   2.724   0.177  17.629  1.2913 -0.6357  1.6775
  445TMC3    C1 6626   3.199   0.048  17.140 -0.6992  0.2068  0.4511
  445TMC3    C2 6627   3.106   4.671  17.147  0.0418 -0.4387 -0.4669
  445TMC3    C3 6628   3.108   4.582  17.045 -0.1638 -0.2698 -0.4897
  445TMC3    C4 6629   3.298   0.055  17.044 -0.1961  0.6932  0.4848
  445TMC3    C5 6630   3.307   4.675  16.953 -0.1415 -0.4056  0.1096
  445TMC3    C6 6631   3.202   4.586  16.947  0.5134 -0.2401  0.2971
  445TMC3     C 6632   3.209   0.131  17.257  0.3354  0.1068  1.0415
  445TMC3     O 6633   3.312   0.199  17.273 -0.6277  0.4804  0.1881
  445TMC3     H 6634   3.040   4.667  17.233 -0.0910 -0.3170 -0.5626
  445TMC3    H1 6635   3.383   0.120  17.063  1.5598 -0.7627 -2.3678
  445TMC3    H2 6636   3.209   4.519  16.862  2.4666 -1.0928  1.1265
  445TMC3    C7 6637   3.396   4.666  16.841 -0.3797 -0.2822  0.5189
  445TMC3    C8 6638   3.019   4.469  17.047 -0.0650 -0.5306 -0.2864
  445TMC3    O1 6639   3.382   4.591  16.748 -0.2225 -0.2751 -0.0009
  445TMC3    O2 6640   2.932   4.468  17.132 -0.1876  0.0721  0.2369
  446MPD2     C 6641   2.619   0.889  11.809  0.2798 -0.3342  0.3010
  446MPD2    C1 6642   2.563   0.877  11.686 -0.2038 -0.0394 -0.0481
  446MPD2    C2 6643   2.625   0.902  11.564 -0.6629  0.1190 -0.4938
  446MPD2    C3 6644   2.761   0.924  11.571  0.4119  0.3624 -0.2859
  446MPD2    C4 6645   2.816   0.928  11.701 -0.7140  0.0050  0.4894
  446MPD2    C5 6646   2.754   0.911  11.816  0.4287  0.4299 -0.1787
  446MPD2     H 6647   2.566   0.895  11.473  1.0674  3.0789 -1.8389
  446MPD2    H1 6648   2.921   0.955  11.703 -0.7349 -0.0112  2.5629
  446MPD2    H2 6649   2.579   0.873  11.908  1.1281  0.0235  0.6974
  446MPD2    H3 6650   2.810   0.926  11.907  1.2540 -1.2302 -0.4114
  446MPD2     N 6651   2.832   0.938  11.446  0.1876  0.0261 -0.0790
  446MPD2    H5 6652   2.778   0.964  11.364 -3.4779  0.7858  2.5481
  446MPD2    N1 6653   2.435   0.823  11.666 -0.2858 -0.2731 -0.1632
  446MPD2    H7 6654   2.402   0.817  11.570 -1.1785  1.1262  0.0557
  447TMC3    C1 6655   3.022   0.890  11.303  0.1386 -0.1828  0.4620
  447TMC3    C2 6656   2.949   0.923  11.193  0.3967  0.3305  0.0998
  447TMC3    C3 6657   2.976   0.862  11.069 -1.8567  0.4481  0.5481
  447TMC3    C4 6658   3.138   0.817  11.284 -0.4681 -0.2071  0.0095
  447TMC3    C5 6659   3.170   0.768  11.154 -0.3582 -0.4800 -0.2750
  447TMC3    C6 6660   3.087   0.781  11.048 -0.2546  0.0636  0.6173
  447TMC3     C 6661   2.963   0.896  11.439 -0.2548  0.0509  0.1694
  447TMC3     O 6662   3.026   0.839  11.527  0.6192 -0.0972  0.3245
  447TMC3     H 6663   2.864   0.990  11.193  0.0023 -0.1590  2.5612
  447TMC3    H1 6664   3.211   0.806  11.364  0.4977 -2.8867 -1.2260
  447TMC3    H2 6665   3.101   0.729  10.953 -0.5822  0.5615  0.2991
  447TMC3    C7 6666   3.292   0.682  11.148 -0.6303  0.1004 -0.1501
  447TMC3    C8 6667   2.933   0.936  10.956 -0.2234 -0.0329  0.1813
  447TMC3    O1 6668   3.384   0.708  11.222 -0.6576  0.0214  0.0849
  447TMC3    O2 6669   2.887   0.875  10.856 -0.0027 -0.0102 -0.1069
  448TMC3    C1 6670   1.171   1.247  16.900 -0.3020 -0.0392 -0.0643
  448TMC3    C2 6671   1.165   1.113  16.869  0.0605 -0.1469 -0.1291
  448TMC3    C3 6672   1.131   1.025  16.965 -0.3887 -0.1159  0.1229
  448TMC3    C4 6673   1.150   1.293  17.032  0.3014  0.3363  0.5402
  448TMC3    C5 6674   1.118   1.200  17.127  0.1202  0.5087  0.0617
  448TMC3    C6 6675   1.109   1.066  17.096 -0.4086 -0.5776 -0.0179
  448TMC3     C 6676   1.216   1.349  16.805  0.1578  0.2979 -0.0365
  448TMC3     O 6677   1.233   1.461  16.848 -0.3687 -0.2798  0.0008
  448TMC3     H 6678   1.190   1.083  16.767  1.0762  1.6285 -0.4104
  448TMC3    H1 6679   1.164   1.396  17.062 -1.8555  0.8643 -0.2538
  448TMC3    H2 6680   1.072   0.990  17.163 -2.9835  1.7835  1.2569
  448TMC3    C7 6681   1.116   1.228  17.270  0.2313 -0.2408  0.0573
  448TMC3    C8 6682   1.144   0.883  16.936  0.4970  0.6086  0.5909
  448TMC3    O1 6683   1.085   1.346  17.290 -0.2363  0.2128 -0.1313
  448TMC3    O2 6684   1.131   0.804  17.031 -0.3706  0.1818 -0.4582
  449MPD2     C 6685   1.924   4.384  13.425  0.0180  0.1383  0.3402
  449MPD2    C1 6686   1.858   4.267  13.434  0.5431 -0.2498  0.2936
  449MPD2    C2 6687   1.799   4.233  13.548  0.6055 -0.4333 -0.2806
  449MPD2    C3 6688   1.797   4.315  13.663 -0.2254 -0.7938 -0.7568
  449MPD2    C4 6689   1.854   4.443  13.648 -0.1513 -0.1538  0.3890
  449MPD2    C5 6690   1.938   4.465  13.536  0.6501 -0.4377 -0.2572
  449MPD2     H 6691   1.734   4.146  13.543 -1.8050  1.3783  0.0936
  449MPD2    H1 6692   1.865   4.503  13.737 -0.9373  0.0873  0.3221
  449MPD2    H2 6693   1.976   4.410  13.334  2.4150  1.2518  1.9987
  449MPD2    H3 6694   1.994   4.558  13.536  0.0627 -0.0830  1.7332
  449MPD2     N 6695   1.753   4.260  13.785 -0.3132 -0.5099 -0.0632
  449MPD2    H5 6696   1.732   4.161  13.785  2.3219 -1.0644 -0.5162
  449MPD2    N1 6697   1.869   4.165  13.346 -0.3568 -0.2018 -0.2560
  449MPD2    H7 6698   1.801   4.091  13.357 -0.8748  0.2940 -0.0904
  450TMC3    C1 6699   1.919   4.038  13.161  0.7220  0.1026 -0.1503
  450TMC3    C2 6700   2.018   3.946  13.163 -0.6512  0.5816  0.4971
  450TMC3    C3 6701   1.986   3.820  13.181  0.1559 -0.1492  0.6423
  450TMC3    C4 6702   1.788   4.006  13.182 -0.1761  0.7247 -0.2176
  450TMC3    C5 6703   1.761   3.875  13.202  0.6438 -0.2952 -0.1989
  450TMC3    C6 6704   1.859   3.782  13.192 -0.0157  0.1311  0.2654
  450TMC3     C 6705   1.949   4.162  13.235 -0.3641  0.9931  0.1732
  450TMC3     O 6706   2.044   4.235  13.205 -0.6257  0.0929  0.6286
  450TMC3     H 6707   2.121   3.978  13.166 -0.4936 -0.2745  3.9045
  450TMC3    H1 6708   1.716   4.085  13.167  0.6571  0.9818 -2.8271
  450TMC3    H2 6709   1.838   3.677  13.204  1.5889 -0.2839 -0.5528
  450TMC3    C7 6710   1.671   3.869  13.319 -0.4894 -0.3561  0.0379
  450TMC3    C8 6711   2.085   3.709  13.184  0.2706 -0.2878  0.0427
  450TMC3    O1 6712   1.666   3.975  13.383  0.2223  0.5498 -0.3032
  450TMC3    O2 6713   2.044   3.596  13.217  0.8437  0.1101  0.2320
  451MPD2     C 6714   3.760   2.895   1.783  0.5999  0.0365 -0.3498
  451MPD2    C1 6715   3.708   2.884   1.654  0.0192 -0.1381  0.1246
  451MPD2    C2 6716   3.761   2.787   1.569  0.1999 -0.3214  0.5128
  451MPD2    C3 6717   3.865   2.718   1.608 -0.5983  0.4801 -0.8288
  451MPD2    C4 6718   3.920   2.727   1.730 -0.5018  0.1539  0.6427
  451MPD2    C5 6719   3.870   2.820   1.818  0.5047  0.1441  0.3485
  451MPD2     H 6720   3.732   2.774   1.466  1.2040 -0.7816  0.2868
  451MPD2    H1 6721   4.012   2.673   1.750 -0.4220  0.7613  1.9011
  451MPD2    H2 6722   3.721   2.963   1.859  1.0015  0.6098 -0.6530
  451MPD2    H3 6723   3.919   2.822   1.914  2.2497 -0.2130 -0.5293
  451MPD2     N 6724   3.934   2.623   1.528 -0.2522  0.7484 -0.3813
  451MPD2    H5 6725   4.022   2.596   1.569 -0.0943  1.7387 -0.0498
  451MPD2    N1 6726   3.606   2.972   1.624  0.2554  0.4233  0.0380
  451MPD2    H7 6727   3.568   3.039   1.690 -2.5818 -1.6732  0.5163
  452TMC3    C1 6728   4.009   2.498   1.343  0.2550  0.6111  0.4031
  452TMC3    C2 6729   4.097   2.431   1.425  0.7561 -0.3395  0.4487
  452TMC3    C3 6730   4.203   2.378   1.361  0.0812 -0.3655  0.8774
  452TMC3    C4 6731   4.023   2.509   1.202  0.1243 -0.1642 -0.3631
  452TMC3    C5 6732   4.131   2.447   1.148  0.3046 -0.3427  1.1836
  452TMC3    C6 6733   4.230   2.386   1.227 -0.5011 -0.5075 -0.5789
  452TMC3     C 6734   3.898   2.582   1.402  0.0995  0.4146 -0.1551
  452TMC3     O 6735   3.808   2.618   1.331 -0.0292 -0.2630  0.3583
  452TMC3     H 6736   4.077   2.416   1.530  1.6451  2.4328  1.0169
  452TMC3    H1 6737   3.952   2.559   1.138  0.4628  0.4801 -0.2396
  452TMC3    H2 6738   4.313   2.337   1.177  1.2967  0.7830  1.1364
  452TMC3    C7 6739   4.129   2.448   1.007  0.6330  0.6455 -0.3422
  452TMC3    C8 6740   4.262   2.263   1.433  0.6820  0.0350  0.2270
  452TMC3    O1 6741   4.091   2.552   0.957 -0.2156  0.0836  0.4611
  452TMC3    O2 6742   4.205   2.223   1.535  0.4651  0.4887 -0.3439
  453TMC3    C1 6743   0.223   0.060  11.729  0.0402  0.3164 -0.6077
  453TMC3    C2 6744   0.095   0.049  11.723 -0.7096 -0.2170  0.8399
  453TMC3    C3 6745   0.041   0.015  11.601  0.7988 -0.5028  0.0693
  453TMC3    C4 6746   0.301   0.067  11.614 -0.3781  0.6116 -0.4631
  453TMC3    C5 6747   0.242   0.045  11.499  0.7547 -0.6686  0.3018
  453TMC3    C6 6748   0.114   0.010  11.486  1.1885 -0.3137  0.2841
  453TMC3     C 6749   0.296   0.082  11.854  0.0899  0.1613 -0.2219
  453TMC3     O 6750   0.413   0.114  11.846  0.0103  0.1162  0.2539
  453TMC3     H 6751   0.033   0.047  11.812 -1.4103 -0.2074  0.3510
  453TMC3    H1 6752   0.406   0.086  11.629 -0.4896  0.1910  0.8255
  453TMC3    H2 6753   0.080   4.704  11.387 -0.8279 -0.0544  0.8920
  453TMC3    C7 6754   0.331   0.042  11.384  0.4406 -0.4224 -0.2777
  453TMC3    C8 6755   4.636   4.677  11.609 -0.4886 -0.0899 -0.0980
  453TMC3    O1 6756   0.311   4.680  11.302 -0.2021  0.0724  0.7813
  453TMC3    O2 6757   4.550   4.722  11.682 -0.2707  0.1126 -0.4100
  454MPD2     C 6758   3.535   0.479  15.990  0.3966  0.6814  0.2280
  454MPD2    C1 6759   3.432   0.388  15.988  0.3072 -0.1091  0.9736
  454MPD2    C2 6760   3.388   0.325  16.100 -0.7795  0.2072 -0.2048
  454MPD2    C3 6761   3.458   0.339  16.218  0.3481  0.3476  0.9789
  454MPD2    C4 6762   3.543   0.448  16.223 -0.1115  0.7365  0.0751
  454MPD2    C5 6763   3.583   0.514  16.111 -0.0221 -0.3296  0.5586
  454MPD2     H 6764   3.306   0.254  16.101 -0.9888  0.4637  4.1607
  454MPD2    H1 6765   3.585   0.483  16.317  0.9665  1.3862 -0.6450
  454MPD2    H2 6766   3.566   0.541  15.907 -0.8765 -0.9175 -1.4244
  454MPD2    H3 6767   3.645   0.603  16.118 -1.3683  0.6996 -0.6156
  454MPD2     N 6768   3.415   0.286  16.338  0.7832  0.4678  0.1841
  454MPD2    H5 6769   3.450   0.322  16.427  0.7702 -0.0181  0.3873
  454MPD2    N1 6770   3.366   0.353  15.869  0.7357  0.2525  0.0252
  454MPD2    H7 6771   3.289   0.289  15.880  0.5336  0.3244 -0.9487
  455TMC3    C1 6772   3.285   0.127  16.469  0.1021 -0.1211 -0.0852
  455TMC3    C2 6773   3.254   0.217  16.567 -0.2645 -0.0163 -1.0701
  455TMC3    C3 6774   3.182   0.183  16.679 -0.8710  0.5223 -0.6293
  455TMC3    C4 6775   3.234   0.003  16.473  0.3573 -0.4423  1.0731
  455TMC3    C5 6776   3.153   4.699  16.583 -0.3565 -0.6415  0.5768
  455TMC3    C6 6777   3.130   0.062  16.689  0.0318 -0.1102 -0.7166
  455TMC3     C 6778   3.330   0.172  16.341 -0.1567  0.4768 -0.0566
  455TMC3     O 6779   3.304   0.090  16.255  0.1255 -0.1354  0.1636
  455TMC3     H 6780   3.295   0.317  16.560 -2.3381  0.9760  0.9631
  455TMC3    H1 6781   3.268   4.655  16.402 -1.2747  0.7338 -0.9089
  455TMC3    H2 6782   3.076   0.028  16.777  1.1647 -1.9079 -0.7264
  455TMC3    C7 6783   3.069   4.577  16.572 -0.6897  0.2884  0.4441
  455TMC3    C8 6784   3.173   0.283  16.785  0.3664 -0.1856 -0.9553
  455TMC3    O1 6785   3.024   4.539  16.682 -0.4848  0.1423 -0.5362
  455TMC3    O2 6786   3.250   0.380  16.773  0.1796 -0.2771  0.3210
  456MPD2     C 6787   1.531   4.273  16.497 -0.1612  0.0097  0.3983
  456MPD2    C1 6788   1.648   4.322  16.536  0.0595 -0.6792  0.5251
  456MPD2    C2 6789   1.650   4.421  16.634 -0.3863  0.1794  0.3658
  456MPD2    C3 6790   1.534   4.480  16.684 -0.1512  0.0877 -0.6506
  456MPD2    C4 6791   1.417   4.421  16.642 -0.3945  0.3052  0.0688
  456MPD2    C5 6792   1.421   4.319  16.552  0.6865 -0.3942  0.3229
  456MPD2     H 6793   1.747   4.449  16.673 -0.3611 -0.7049  0.9544
  456MPD2    H1 6794   1.321   4.452  16.683 -1.5530 -0.7362 -1.8715
  456MPD2    H2 6795   1.523   4.199  16.419  2.8522  0.4144 -0.3261
  456MPD2    H3 6796   1.323   4.286  16.517  1.1448 -0.3575 -1.0108
  456MPD2     N 6797   1.538   4.593  16.780 -0.6196  0.0989 -0.1614
  456MPD2    H5 6798   1.623   4.614  16.831 -0.4590  1.4383 -0.9581
  456MPD2    N1 6799   1.759   4.267  16.461  0.2111  0.5093 -0.3411
  456MPD2    H7 6800   1.742   4.195  16.391  0.1872 -0.8643  1.0851
  457TMC3    C1 6801   1.422   0.029  16.923 -0.6423  0.4849  0.2041
  457TMC3    C2 6802   1.380   0.153  16.887 -0.4201 -0.2092 -0.2735
  457TMC3    C3 6803   1.376   0.251  16.980 -0.4065 -0.0671 -0.0913
  457TMC3    C4 6804   1.478   4.719  17.039  0.1285  0.6622  0.2703
  457TMC3    C5 6805   1.492   0.108  17.125 -0.0829  0.2577  0.2197
  457TMC3    C6 6806   1.453   0.237  17.096 -0.0815  0.9829 -1.3505
  457TMC3     C 6807   1.426   4.666  16.803 -0.4325 -0.1639  0.0167
  457TMC3     O 6808   1.323   4.684  16.741 -0.4776 -0.4563  0.3468
  457TMC3     H 6809   1.348   0.167  16.785 -0.0584 -0.0800 -0.3698
  457TMC3    H1 6810   1.516   4.620  17.064  0.0308  0.4541 -0.4185
  457TMC3    H2 6811   1.446   0.311  17.175  0.3124  0.2281 -0.6038
  457TMC3    C7 6812   1.560   0.084  17.256 -0.0582 -0.6336  0.5099
  457TMC3    C8 6813   1.322   0.381  16.939 -0.4545 -0.4519 -0.9347
  457TMC3    O1 6814   1.571   4.694  17.292  0.3550  0.3581 -0.1796
  457TMC3    O2 6815   1.390   0.480  16.976 -0.7664 -0.8085  0.0568
  458MPD2     C 6816   3.561   3.858  11.984  0.1556  0.2022  0.6223
  458MPD2    C1 6817   3.565   3.799  12.101  0.2491  0.0871 -0.1557
  458MPD2    C2 6818   3.459   3.803  12.185  0.1596 -0.7874  0.0321
  458MPD2    C3 6819   3.338   3.844  12.148 -0.1865  0.5029  0.0201
  458MPD2    C4 6820   3.338   3.918  12.031  0.3360  0.3567  0.1753
  458MPD2    C5 6821   3.449   3.924  11.953  0.1239  0.1527 -0.2408
  458MPD2     H 6822   3.470   3.764  12.286 -1.0198  0.2095  0.5396
  458MPD2    H1 6823   3.252   3.969  11.989  0.7219  2.0756  1.4711
  458MPD2    H2 6824   3.651   3.872  11.926 -0.4565 -0.4743 -0.5019
  458MPD2    H3 6825   3.430   3.983  11.864 -1.2184 -1.3092 -0.9244
  458MPD2     N 6826   3.229   3.830  12.233  0.0666 -0.8372  0.8202
  458MPD2    H5 6827   3.241   3.794  12.327 -1.9318 -2.0487  0.6000
  458MPD2    N1 6828   3.687   3.756  12.150 -0.1085 -0.7496  0.0217
  458MPD2    H7 6829   3.764   3.764  12.084  0.1427 -2.5165  0.0900
  459TMC3    C1 6830   3.855   3.686  12.286  0.4980  0.0701 -0.1872
  459TMC3    C2 6831   3.928   3.794  12.247 -0.3061 -0.3378  0.4329
  459TMC3    C3 6832   4.041   3.811  12.310  0.1852  0.6730  0.0870
  459TMC3    C4 6833   3.891   3.606  12.390 -0.4899 -0.1098  0.5265
  459TMC3    C5 6834   3.998   3.631  12.458 -0.2647  0.6041 -0.3727
  459TMC3    C6 6835   4.082   3.729  12.417  0.6232  0.0779  0.2725
  459TMC3     C 6836   3.714   3.688  12.267 -1.0767  0.0761 -0.9432
  459TMC3     O 6837   3.633   3.638  12.341  0.3199 -0.2023  0.1865
  459TMC3     H 6838   3.916   3.852  12.156 -1.1001  0.1199  0.8312
  459TMC3    H1 6839   3.835   3.515  12.410  1.0074 -1.1663 -0.1122
  459TMC3    H2 6840   4.174   3.759  12.465  0.3936 -0.6680  1.1733
  459TMC3    C7 6841   4.026   3.565  12.586 -0.4639  0.1023 -0.0072
  459TMC3    C8 6842   4.132   3.910  12.261 -0.5113  0.5172 -0.1574
  459TMC3    O1 6843   3.958   3.461  12.618 -0.1415 -0.6063 -0.1376
  459TMC3    O2 6844   4.253   3.882  12.276 -0.5175 -0.1115  0.2973
  460MPD2     C 6845   3.089   1.264  10.885 -0.1390 -1.0320 -0.1426
  460MPD2    C1 6846   3.003   1.157  10.864 -0.0093  0.5128 -0.6730
  460MPD2    C2 6847   2.940   1.155  10.739  0.3976  0.2802 -0.1005
  460MPD2    C3 6848   2.957   1.253  10.641 -0.4522  0.3385  0.3620
  460MPD2    C4 6849   3.044   1.357  10.670  0.1326 -0.3236 -0.2868
  460MPD2    C5 6850   3.112   1.357  10.786  0.1801 -0.2676  0.1176
  460MPD2     H 6851   2.877   1.071  10.713 -0.4201  1.2748 -1.3156
  460MPD2    H1 6852   3.064   1.437  10.600 -0.0211  2.1927  2.5247
  460MPD2    H2 6853   3.147   1.290  10.973  2.0478  0.4887 -2.0495
  460MPD2    H3 6854   3.190   1.431  10.801 -1.1683  0.9371  1.1462
  460MPD2     N 6855   2.872   1.247  10.523 -0.0832 -0.2300 -0.0839
  460MPD2    H5 6856   2.805   1.171  10.527 -0.8823  0.4344 -1.0711
  460MPD2    N1 6857   2.989   1.060  10.964 -0.9579 -0.5436  0.1863
  460MPD2    H7 6858   3.041   1.075  11.049 -3.2473  1.6375  1.1730
  461TMC3    C1 6859   2.781   1.318  10.310 -0.4532 -0.2764  0.8901
  461TMC3    C2 6860   2.738   1.192  10.276 -0.5131  0.1579 -0.0133
  461TMC3    C3 6861   2.648   1.177  10.171  0.4909  0.1487 -0.1005
  461TMC3    C4 6862   2.735   1.430  10.244 -0.4773  1.0087  0.9384
  461TMC3    C5 6863   2.654   1.409  10.138  0.4728  0.3321  0.1459
  461TMC3    C6 6864   2.602   1.288  10.094 -0.1541 -0.1050 -0.0779
  461TMC3     C 6865   2.882   1.338  10.417 -0.4589  0.5805  0.4577
  461TMC3     O 6866   2.940   1.445  10.418  0.3960  0.2025 -0.1351
  461TMC3     H 6867   2.791   1.110  10.322 -0.4774  0.5401  0.6223
  461TMC3    H1 6868   2.764   1.531  10.271  0.2525  0.6610  1.4486
  461TMC3    H2 6869   2.558   1.275   9.996 -4.3779 -0.5100  1.8815
  461TMC3    C7 6870   2.593   1.534  10.080  0.7230  0.0447  0.0702
  461TMC3    C8 6871   2.642   1.049  10.098  0.6339 -0.5577 -0.0138
  461TMC3    O1 6872   2.640   1.644  10.120 -0.4076  0.3836 -0.3690
  461TMC3    O2 6873   2.727   0.965  10.134 -0.2113  0.4995  0.0335
  462TMC3    C1 6874   3.068   3.242   0.143 -0.8025  0.4915  0.7269
  462TMC3    C2 6875   3.177   3.161   0.169 -0.2708  0.0349 -0.2520
  462TMC3    C3 6876   3.139   3.038   0.223  0.3513 -0.1219  0.6452
  462TMC3    C4 6877   2.935   3.204   0.152 -0.2426 -0.4420 -0.4829
  462TMC3    C5 6878   2.916   3.078   0.195 -0.0283  0.2611 -1.0002
  462TMC3    C6 6879   3.013   3.001   0.239  0.1434  0.4601 -0.0876
  462TMC3     C 6880   3.098   3.381   0.121 -0.2768 -0.5450  0.4256
  462TMC3     O 6881   3.000   3.451   0.113  0.0089 -0.2918  0.7920
  462TMC3     H 6882   3.281   3.187   0.159 -0.2479  0.3468  0.7385
  462TMC3    H1 6883   2.853   3.271   0.132  0.7262  0.0349 -2.8357
  462TMC3    H2 6884   2.994   2.900   0.273 -1.9162  0.6355 -0.7214
  462TMC3    C7 6885   2.780   3.027   0.197  0.4740  0.5439 -0.3161
  462TMC3    C8 6886   3.248   2.944   0.250  0.3123  0.1245  1.0095
  462TMC3    O1 6887   2.757   2.941   0.279  0.1454 -0.3349 -0.0208
  462TMC3    O2 6888   3.361   2.990   0.264  0.8077  0.0343 -0.1329
  463MPD2     C 6889   4.085   1.125   1.634  0.5165 -0.0725  0.7526
  463MPD2    C1 6890   3.995   1.223   1.615 -0.7717 -1.2171  0.3144
  463MPD2    C2 6891   4.035   1.341   1.552  0.2842 -0.2104 -0.1566
  463MPD2    C3 6892   4.172   1.359   1.521 -0.1927  0.4339  0.0739
  463MPD2    C4 6893   4.261   1.258   1.554  0.7110  0.4252 -0.0778
  463MPD2    C5 6894   4.218   1.135   1.609 -0.4712 -0.4094 -0.3908
  463MPD2     H 6895   3.965   1.422   1.540  2.0492  1.0531 -2.0579
  463MPD2    H1 6896   4.365   1.274   1.529  1.1452  0.5703  1.8196
  463MPD2    H2 6897   4.048   1.033   1.678  0.9853 -1.3370 -1.4926
  463MPD2    H3 6898   4.287   1.060   1.646  0.1188  0.1378 -0.3917
  463MPD2     N 6899   4.229   1.462   1.439 -0.3298 -0.0668 -0.1102
  463MPD2    H5 6900   4.329   1.451   1.426 -0.2871  0.9418 -0.5722
  463MPD2    N1 6901   3.853   1.211   1.635  0.2733  0.5819 -0.0537
  463MPD2    H7 6902   3.786   1.285   1.618  1.3481  1.4806 -0.3645
  464TMC3    C1 6903   3.642   1.099   1.659 -0.1342 -0.4468  0.4245
  464TMC3    C2 6904   3.577   1.215   1.628 -0.2239 -0.2377 -0.3904
  464TMC3    C3 6905   3.441   1.204   1.603  0.7731  0.3407 -0.6999
  464TMC3    C4 6906   3.577   0.979   1.656 -0.2692 -0.2124 -0.1567
  464TMC3    C5 6907   3.444   0.973   1.627  0.1883  0.2583 -0.5730
  464TMC3    C6 6908   3.368   1.088   1.603  0.0824 -0.4310 -0.2264
  464TMC3     C 6909   3.791   1.093   1.664  0.7941 -0.7122 -0.5090
  464TMC3     O 6910   3.836   0.982   1.691 -0.0235 -0.5543 -0.6030
  464TMC3     H 6911   3.624   1.296   1.575 -2.1915  1.9498  1.1937
  464TMC3    H1 6912   3.626   0.888   1.687 -3.5460 -0.8149  3.2272
  464TMC3    H2 6913   3.268   1.081   1.564  1.4095 -0.6237 -3.5978
  464TMC3    C7 6914   3.378   0.844   1.606  0.2319 -0.3759  0.2046
  464TMC3    C8 6915   3.374   1.331   1.582  0.2739 -0.6295 -0.6426
  464TMC3    O1 6916   3.365   0.768   1.702 -0.2551  0.1933  0.4230
  464TMC3    O2 6917   3.422   1.413   1.505 -0.1132 -0.0228 -0.1976
  465MPD2     C 6918   0.947   4.573  16.692 -0.0052 -0.8026 -1.4375
  465MPD2    C1 6919   0.841   4.599  16.776  0.0423  0.4262 -0.3032
  465MPD2    C2 6920   0.720   4.617  16.718 -0.6705 -0.0960  0.6304
  465MPD2    C3 6921   0.703   4.610  16.578 -0.2916  0.3445  0.5837
  465MPD2    C4 6922   0.811   4.585  16.498  0.1944 -1.1086 -0.2257
  465MPD2    C5 6923   0.936   4.565  16.559 -0.4272  0.3661  0.1821
  465MPD2     H 6924   0.636   4.636  16.784 -0.2324  0.0702  1.1367
  465MPD2    H1 6925   0.797   4.564  16.393  0.4611 -1.1061 -0.2616
  465MPD2    H2 6926   1.042   4.548  16.739 -1.1879 -0.8015  0.9744
  465MPD2    H3 6927   1.024   4.533  16.504 -0.3060  0.9673  0.0307
  465MPD2     N 6928   0.576   4.634  16.519  0.8315  0.7473 -0.2363
  465MPD2    H5 6929   0.507   4.653  16.590  1.2714 -0.4334  0.5110
  465MPD2    N1 6930   0.843   4.612  16.918 -0.1330 -0.1186  0.6766
  465MPD2    H7 6931   0.757   4.628  16.969 -0.7293 -0.7558 -0.1417
  466TMC3    C1 6932   0.187   4.714  16.395 -0.6565 -0.4297  0.5656
  466TMC3    C2 6933   0.173   0.116  16.357  0.0094 -0.0829  0.2673
  466TMC3    C3 6934   0.292   0.181  16.318 -0.8066 -0.4281 -0.1884
  466TMC3    C4 6935   0.310   4.656  16.420 -0.0129  0.7777 -0.4097
  466TMC3    C5 6936   0.419   0.000  16.373 -0.2510 -0.0696  0.5559
  466TMC3    C6 6937   0.411   0.125  16.311  0.3721  0.2636 -0.5426
  466TMC3     C 6938   0.069   4.640  16.408 -0.4855  0.2205 -0.5759
  466TMC3     O 6939   0.060   4.557  16.497  0.9244 -0.2684  0.3520
  466TMC3     H 6940   0.081   0.173  16.349 -1.0155 -1.5319  1.8136
  466TMC3    H1 6941   0.317   4.550  16.442 -0.0348  1.0828  1.0718
  466TMC3    H2 6942   0.494   0.188  16.281 -0.2874  1.0076 -0.7889
  466TMC3    C7 6943   0.549   4.659  16.388  0.3706  0.3077 -0.4885
  466TMC3    C8 6944   0.290   0.325  16.317  0.2397  1.4608  0.2560
  466TMC3    O1 6945   0.613   4.630  16.287 -0.5524  0.5946 -0.2746
  466TMC3    O2 6946   0.364   0.386  16.240 -0.1795 -0.2731 -0.2892
  467TMC3    C1 6947   1.342   3.182  13.836  0.1232  0.2732 -0.3882
  467TMC3    C2 6948   1.282   3.302  13.804  0.5018  0.7958 -0.3046
  467TMC3    C3 6949   1.148   3.304  13.794  0.5892  0.7755 -0.7220
  467TMC3    C4 6950   1.270   3.067  13.836 -0.1936 -0.3328  0.0320
  467TMC3    C5 6951   1.134   3.075  13.824  0.8523 -0.0513  0.1084
  467TMC3    C6 6952   1.065   3.194  13.797 -0.1378  0.1209 -0.2035
  467TMC3     C 6953   1.483   3.191  13.864  0.5020  0.1577 -0.4969
  467TMC3     O 6954   1.532   3.296  13.832 -0.2106 -0.0105  0.8265
  467TMC3     H 6955   1.343   3.392  13.806 -1.7307  2.2782  1.1207
  467TMC3    H1 6956   1.317   2.971  13.855  0.0015 -0.6634 -2.1201
  467TMC3    H2 6957   0.958   3.204  13.784 -0.4814 -3.0801  0.1117
  467TMC3    C7 6958   1.051   2.960  13.817  0.0365  0.7329 -0.3344
  467TMC3    C8 6959   1.088   3.439  13.799 -0.1015  0.9932 -0.8872
  467TMC3    O1 6960   1.079   2.873  13.740  0.1503  0.1874  0.1584
  467TMC3    O2 6961   1.153   3.527  13.750 -0.1581  0.6208  0.4725
  468MPD2     C 6962   0.136   1.052  11.155 -1.1278  0.1246 -0.3714
  468MPD2    C1 6963   0.264   1.002  11.190  0.0888 -0.3979 -0.2170
  468MPD2    C2 6964   0.307   0.877  11.143  0.0240 -0.6479 -0.1521
  468MPD2    C3 6965   0.212   0.799  11.071  0.0176  0.9974  0.0808
  468MPD2    C4 6966   0.089   0.853  11.041  0.6535  0.4974  0.1914
  468MPD2    C5 6967   0.051   0.977  11.084 -0.3743 -0.0191 -0.5003
  468MPD2     H 6968   0.398   0.826  11.175  0.2542  0.0746  0.3618
  468MPD2    H1 6969   0.016   0.799  10.982  2.2781 -0.9164 -0.5296
  468MPD2    H2 6970   0.100   1.151  11.181  0.1517  0.9580 -1.7789
  468MPD2    H3 6971   4.675   1.012  11.066 -0.5119  0.3230  0.9145
  468MPD2     N 6972   0.238   0.671  11.018  0.1553 -0.5851  0.2954
  468MPD2    H5 6973   0.161   0.615  10.983  0.3766  0.0506 -1.2197
  468MPD2    N1 6974   0.361   1.080  11.264  0.2747  0.1364  0.1449
  468MPD2    H7 6975   0.445   1.025  11.277 -0.6831 -0.7337  2.6480
  469TMC3    C1 6976   0.457   1.233  11.402 -0.3859  0.2866  0.4049
  469TMC3    C2 6977   0.565   1.153  11.405  0.1219 -0.6534 -0.3466
  469TMC3    C3 6978   0.652   1.168  11.510  0.0622 -0.0887  0.1961
  469TMC3    C4 6979   0.439   1.336  11.491  0.1585 -0.1465  0.3558
  469TMC3    C5 6980   0.533   1.356  11.587 -0.7811  1.1781 -0.4606
  469TMC3    C6 6981   0.633   1.262  11.603  0.1065  0.3403 -0.0029
  469TMC3     C 6982   0.335   1.198  11.332 -0.5774  0.3122  0.6810
  469TMC3     O 6983   0.228   1.257  11.350  0.4847 -0.0136  0.3483
  469TMC3     H 6984   0.607   1.104  11.318  0.7117 -0.3843 -0.2152
  469TMC3    H1 6985   0.346   1.392  11.488  0.5758  0.5486  0.3562
  469TMC3    H2 6986   0.701   1.268  11.687  0.0957 -0.1324  0.0358
  469TMC3    C7 6987   0.498   1.443  11.706  0.4496 -0.7217  0.9006
  469TMC3    C8 6988   0.760   1.074  11.517  0.3723 -0.1039 -0.1868
  469TMC3    O1 6989   0.389   1.491  11.704 -0.2539  0.5166 -0.2001
  469TMC3    O2 6990   0.759   0.977  11.446 -0.4764  0.1380  0.2360
  470TMC3    C1 6991   1.867   2.613   0.528 -0.3596  0.1895 -0.5479
  470TMC3    C2 6992   1.967   2.658   0.607  0.1005 -0.6443 -0.3670
  470TMC3    C3 6993   1.952   2.662   0.741 -0.1519 -0.3041 -0.3486
  470TMC3    C4 6994   1.741   2.603   0.577 -0.2618 -0.2090 -0.5487
  470TMC3    C5 6995   1.725   2.628   0.709  0.7271  0.3697 -0.4156
  470TMC3    C6 6996   1.830   2.653   0.793 -0.1681  0.0490 -0.2278
  470TMC3     C 6997   1.894   2.607   0.383  0.1406  0.0811  0.5685
  470TMC3     O 6998   1.986   2.667   0.332  0.7368  0.1347  0.7439
  470TMC3     H 6999   2.068   2.673   0.568 -0.0987  0.9402 -0.2940
  470TMC3    H1 7000   1.659   2.573   0.512  0.4762 -0.8889 -1.1688
  470TMC3    H2 7001   1.806   2.643   0.898 -0.9385 -1.3646 -0.5499
  470TMC3    C7 7002   1.588   2.631   0.759 -0.2049  0.6137 -0.4256
  470TMC3    C8 7003   2.041   2.728   0.830  0.7110  0.1487 -0.3890
  470TMC3    O1 7004   1.496   2.570   0.701 -0.2273  0.0338  0.1289
  470TMC3    O2 7005   1.990   2.759   0.937 -0.1476 -0.7713  0.1548
  471MPD2     C 7006   2.918   3.802  16.366  0.3809 -0.0984 -0.7268
  471MPD2    C1 7007   2.831   3.721  16.444  0.8990  0.6852 -0.2630
  471MPD2    C2 7008   2.839   3.724  16.580 -0.3798  0.5946  0.3413
  471MPD2    C3 7009   2.955   3.778  16.635 -0.5142  0.2931  0.3578
  471MPD2    C4 7010   3.046   3.848  16.560 -0.8238 -0.3505 -0.3934
  471MPD2    C5 7011   3.018   3.869  16.429  0.4349 -0.0876  0.3486
  471MPD2     H 7012   2.758   3.688  16.643 -1.6349  1.5244 -0.7610
  471MPD2    H1 7013   3.124   3.900  16.614 -0.8184 -1.6617  0.8548
  471MPD2    H2 7014   2.915   3.816  16.258  0.0086  0.2889 -0.6665
  471MPD2    H3 7015   3.081   3.934  16.370  2.3443 -0.4595  1.9890
  471MPD2     N 7016   3.000   3.748  16.770 -0.4040 -0.4320 -0.4749
  471MPD2    H5 7017   3.088   3.787  16.799 -1.8319  3.6277 -1.5937
  471MPD2    N1 7018   2.720   3.661  16.386  0.3157  0.0694  0.0577
  471MPD2    H7 7019   2.656   3.610  16.445  0.8507 -0.4168  0.2231
  472TMC3    C1 7020   2.560   3.606  16.238 -0.0692  0.1187  0.0888
  472TMC3    C2 7021   2.504   3.639  16.118  0.3512  0.1797 -0.6009
  472TMC3    C3 7022   2.416   3.555  16.054 -0.4322 -0.5463  0.0408
  472TMC3    C4 7023   2.559   3.477  16.280  0.1366 -0.2843 -0.2064
  472TMC3    C5 7024   2.479   3.393  16.210  0.1242  0.6986 -0.1871
  472TMC3    C6 7025   2.398   3.424  16.100 -0.8948  0.8074  0.1431
  472TMC3     C 7026   2.679   3.683  16.259  0.0060 -0.9686 -0.7926
  472TMC3     O 7027   2.725   3.742  16.163 -0.2917 -0.4138  0.0587
  472TMC3     H 7028   2.507   3.744  16.093 -0.7316  0.3361 -0.0670
  472TMC3    H1 7029   2.627   3.441  16.356  0.0865 -0.3063 -0.1716
  472TMC3    H2 7030   2.342   3.347  16.049  1.5136 -0.6438 -0.3124
  472TMC3    C7 7031   2.457   3.268  16.274  0.7162  0.5118  0.0191
  472TMC3    C8 7032   2.309   3.620  15.979  0.1036 -0.0766 -0.2582
  472TMC3    O1 7033   2.436   3.274  16.394  0.3118 -0.0128  0.1801
  472TMC3    O2 7034   2.323   3.733  15.934 -0.5651  0.4125 -0.7649
  473MPD2     C 7035   2.979   0.928  14.538  0.1677 -0.2199  0.0333
  473MPD2    C1 7036   2.904   0.992  14.437 -0.6262  0.1573  0.0358
  473MPD2    C2 7037   2.875   1.128  14.449 -0.6905 -0.5188  0.1708
  473MPD2    C3 7038   2.942   1.204  14.544 -0.9019 -0.0993  0.1974
  473MPD2    C4 7039   3.026   1.141  14.631 -0.7268  0.3088 -0.4836
  473MPD2    C5 7040   3.032   1.007  14.636  0.0119  0.2777  0.8985
  473MPD2     H 7041   2.805   1.164  14.375  0.7460  0.3864 -0.7594
  473MPD2    H1 7042   3.077   1.196  14.710  1.5278 -0.8364 -1.1231
  473MPD2    H2 7043   3.001   0.822  14.538 -0.8218 -0.4193  0.4711
  473MPD2    H3 7044   3.101   0.956  14.703  0.6960 -1.0336 -0.7847
  473MPD2     N 7045   2.935   1.344  14.549 -0.5756  0.6953  0.1999
  473MPD2    H5 7046   3.005   1.370  14.617 -1.9013  0.0225  1.8259
  473MPD2    N1 7047   2.844   0.918  14.328 -0.0613 -0.1192  0.1860
  473MPD2    H7 7048   2.786   0.968  14.262  2.2334  2.1349 -0.1332
  474TMC3    C1 7049   2.869   1.573  14.512 -0.0457 -0.3350  0.3567
  474TMC3    C2 7050   2.825   1.670  14.430 -0.2092 -0.3425  0.1294
  474TMC3    C3 7051   2.828   1.796  14.480 -0.0059 -0.8543 -0.0123
  474TMC3    C4 7052   2.933   1.601  14.633  0.1986  0.2131 -0.0620
  474TMC3    C5 7053   2.918   1.726  14.680  0.4704 -0.2433  0.3470
  474TMC3    C6 7054   2.872   1.827  14.605  0.3513 -0.1210  0.0684
  474TMC3     C 7055   2.849   1.429  14.474 -0.5764 -0.3763  0.4175
  474TMC3     O 7056   2.769   1.396  14.387 -0.0346  0.2307 -0.0401
  474TMC3     H 7057   2.778   1.640  14.337  0.2149  1.6974 -0.7420
  474TMC3    H1 7058   2.971   1.525  14.700  1.1002  2.4136  1.9579
  474TMC3    H2 7059   2.877   1.929  14.640  0.3525 -0.5894  1.4520
  474TMC3    C7 7060   2.985   1.776  14.796  0.2367 -0.2618  0.4564
  474TMC3    C8 7061   2.822   1.897  14.375  0.2126 -0.8585 -0.1000
  474TMC3    O1 7062   2.933   1.867  14.862 -0.0636  0.6140 -0.4388
  474TMC3    O2 7063   2.783   1.865  14.260 -0.2284  0.0208  0.0922
  475MPD2     C 7064   1.146   3.395  10.594  0.3163 -0.5345 -0.1916
  475MPD2    C1 7065   1.078   3.510  10.581 -0.4097 -0.3589 -0.4767
  475MPD2    C2 7066   0.956   3.509  10.516  0.3880 -0.4559 -0.5890
  475MPD2    C3 7067   0.901   3.393  10.467 -0.7200 -0.1906  0.1459
  475MPD2    C4 7068   0.969   3.272  10.487  0.1251 -0.6275  0.2996
  475MPD2    C5 7069   1.093   3.278  10.542  0.4195 -0.0112  0.4311
  475MPD2     H 7070   0.895   3.598  10.527  2.6293  0.9214  0.8599
  475MPD2    H1 7071   0.930   3.174  10.461 -1.7616  0.0419  0.5888
  475MPD2    H2 7072   1.242   3.392  10.644 -0.9598 -1.6171  2.1867
  475MPD2    H3 7073   1.137   3.181  10.561 -0.6071 -0.5677 -0.0298
  475MPD2     N 7074   0.774   3.395  10.403  0.5330  0.0049  0.3203
  475MPD2    H5 7075   0.720   3.314  10.376  1.7931 -1.4711  2.1909
  475MPD2    N1 7076   1.131   3.630  10.631  0.0538 -0.1874 -0.3322
  475MPD2    H7 7077   1.232   3.631  10.642 -0.0823  0.5924  0.8498
  476TMC3    C1 7078   1.142   3.867  10.664  0.5650  0.0464 -0.0953
  476TMC3    C2 7079   1.098   3.954  10.570  0.2884  0.3346  0.1076
  476TMC3    C3 7080   1.189   4.039  10.506 -0.0489 -0.5147  0.4388
  476TMC3    C4 7081   1.279   3.856  10.696  0.1672 -0.0694 -0.1875
  476TMC3    C5 7082   1.364   3.934  10.625  0.0045 -0.1354 -0.1603
  476TMC3    C6 7083   1.325   4.028  10.533  0.1573 -0.1770 -0.0027
  476TMC3     C 7084   1.057   3.746  10.655  0.1929 -0.3424 -0.0864
  476TMC3     O 7085   0.937   3.770  10.645 -0.6553 -0.1842 -0.4603
  476TMC3     H 7086   0.996   3.961  10.535 -0.3854 -1.0334  1.7833
  476TMC3    H1 7087   1.312   3.772  10.757 -2.2510  1.6357  3.4993
  476TMC3    H2 7088   1.392   4.097  10.484 -0.5383  0.8541  0.5035
  476TMC3    C7 7089   1.500   3.955  10.672 -0.0656 -0.1551 -0.6472
  476TMC3    C8 7090   1.165   4.061  10.359 -0.0287  0.0755 -0.2090
  476TMC3    O1 7091   1.599   3.973  10.605  0.4392 -0.1589 -0.2332
  476TMC3    O2 7092   1.240   4.138  10.299 -0.3417 -0.0231  0.0239
  477MPD2     C 7093   3.670   0.257  11.535 -0.3010  0.5885 -0.6328
  477MPD2    C1 7094   3.566   0.214  11.617 -0.1970 -0.4068  0.2075
  477MPD2    C2 7095   3.572   0.092  11.687  0.0084  0.9309 -0.4142
  477MPD2    C3 7096   3.684   0.013  11.675 -0.4700 -0.5912 -0.5637
  477MPD2    C4 7097   3.788   0.063  11.602  0.0842 -0.1962  0.4740
  477MPD2    C5 7098   3.786   0.184  11.536  0.0428 -0.2207  0.4260
  477MPD2     H 7099   3.495   0.057  11.756  0.9788  3.3209  1.8850
  477MPD2    H1 7100   3.882   0.010  11.593  0.4036  0.8484 -2.4055
  477MPD2    H2 7101   3.665   0.356  11.490 -0.0380  0.6324 -0.5676
  477MPD2    H3 7102   3.877   0.215  11.485  0.6427 -0.6472  1.2409
  477MPD2     N 7103   3.692   4.614  11.743 -0.1701  0.7489  0.2861
  477MPD2    H5 7104   3.606   4.580  11.785 -0.5298 -0.8486 -1.7739
  477MPD2    N1 7105   3.456   0.304  11.615 -0.0782 -0.4086  0.2412
  477MPD2    H7 7106   3.458   0.387  11.556  1.2875 -1.3303 -1.0091
  478TMC3    C1 7107   3.247   0.397  11.677  0.2888 -0.0032  0.4666
  478TMC3    C2 7108   3.303   0.517  11.695  0.3298  1.0243 -0.0877
  478TMC3    C3 7109   3.213   0.623  11.705  0.3023  0.6917  1.0259
  478TMC3    C4 7110   3.114   0.367  11.682  0.1677  0.3472  0.7408
  478TMC3    C5 7111   3.030   0.471  11.694  0.3150  0.9033 -0.1555
  478TMC3    C6 7112   3.074   0.600  11.713 -0.5032 -0.5635 -0.3555
  478TMC3     C 7113   3.335   0.278  11.683  0.0861 -0.2646 -0.1650
  478TMC3     O 7114   3.289   0.179  11.734  0.0581 -0.3072  0.2916
  478TMC3     H 7115   3.410   0.536  11.688  0.1206  2.2208 -0.0978
  478TMC3    H1 7116   3.076   0.266  11.668 -0.1935  0.4386  1.0429
  478TMC3    H2 7117   3.011   0.688  11.720  0.2925  0.2267 -3.4554
  478TMC3    C7 7118   2.895   0.438  11.678 -0.2055  0.1010 -0.2158
  478TMC3    C8 7119   3.264   0.734  11.780  0.2776  0.1250  0.6056
  478TMC3    O1 7120   2.859   0.325  11.701 -0.4669  0.0570  0.6222
  478TMC3    O2 7121   3.343   0.720  11.869  0.3989  0.0596 -0.1845
  479MPD2     C 7122   2.505   3.192  14.941  0.7437  0.3781 -0.3551
  479MPD2    C1 7123   2.450   3.129  15.052  0.1508  0.1557  0.7581
  479MPD2    C2 7124   2.487   3.174  15.179 -0.7053  0.2101 -1.0153
  479MPD2    C3 7125   2.570   3.283  15.194 -0.0404  0.3288 -0.4101
  479MPD2    C4 7126   2.607   3.356  15.088  0.1349  0.0555 -0.3489
  479MPD2    C5 7127   2.584   3.301  14.959  0.4741  0.2915 -0.1838
  479MPD2     H 7128   2.432   3.137  15.264  0.9249 -0.7845 -0.3825
  479MPD2    H1 7129   2.662   3.449  15.087  0.5400 -0.1812 -0.0640
  479MPD2    H2 7130   2.488   3.159  14.840  2.4058  0.0059 -0.5126
  479MPD2    H3 7131   2.627   3.348  14.871  0.6158 -0.4741 -0.5246
  479MPD2     N 7132   2.613   3.331  15.319 -0.1167 -0.1562 -0.1963
  479MPD2    H5 7133   2.655   3.423  15.326  0.4703 -0.2943 -1.9927
  479MPD2    N1 7134   2.365   3.023  15.022  0.0034  0.7450 -1.0049
  479MPD2    H7 7135   2.339   3.010  14.925 -0.1442 -2.9144 -0.4747
  480TMC3    C1 7136   2.374   3.339  15.701  1.0292 -0.7346  0.3427
  480TMC3    C2 7137   2.297   3.431  15.641 -0.1529  0.0240 -0.0672
  480TMC3    C3 7138   2.342   3.485  15.522  0.3051 -0.2083 -0.0420
  480TMC3    C4 7139   2.502   3.303  15.652  0.1149  0.5356 -0.7142
  480TMC3    C5 7140   2.540   3.362  15.531  0.3757  0.2098  0.1179
  480TMC3    C6 7141   2.468   3.467  15.475  0.2292  0.1438  0.9976
  480TMC3     C 7142   2.296   3.238  15.756 -0.2802  0.7333  0.1779
  480TMC3     O 7143   2.357   3.165  15.838  0.5994  0.4134 -0.8670
  480TMC3     H 7144   2.200   3.464  15.678 -0.2112  2.6951 -2.5725
  480TMC3    H1 7145   2.562   3.223  15.692  0.8364  2.0816  1.3252
  480TMC3    H2 7146   2.502   3.516  15.385 -2.4179  2.0173  0.9902
  480TMC3    C7 7147   2.578   3.269  15.442 -0.1584 -1.0409 -0.0022
  480TMC3    C8 7148   2.239   3.454  15.423 -0.0615  0.4442  0.2180
  480TMC3    O1 7149   2.542   3.154  15.472  0.7302  0.3969  0.1121
  480TMC3    O2 7150   2.126   3.427  15.468  0.4177  0.8895 -0.1501
  481MPD2     C 7151   4.385   2.312  14.539  0.0538  0.1499 -0.2004
  481MPD2    C1 7152   4.253   2.340  14.555 -0.2248  0.4309  0.6383
  481MPD2    C2 7153   4.194   2.344  14.683  0.6349  0.0654  0.0786
  481MPD2    C3 7154   4.262   2.303  14.789 -0.1350 -0.4097 -0.0286
  481MPD2    C4 7155   4.386   2.248  14.771 -0.6726 -0.1535  0.0816
  481MPD2    C5 7156   4.450   2.260  14.644  0.8889 -0.6182  0.0683
  481MPD2     H 7157   4.097   2.391  14.692  0.6694  0.1408  0.0585
  481MPD2    H1 7158   4.441   2.217  14.859 -1.8999  0.1956  0.9811
  481MPD2    H2 7159   4.443   2.335  14.451  0.7395  0.8825  0.4539
  481MPD2    H3 7160   4.557   2.241  14.645  0.9638 -0.1648  1.4106
  481MPD2     N 7161   4.208   2.293  14.919 -0.0400  0.6084  0.0120
  481MPD2    H5 7162   4.247   2.226  14.985 -1.2295  0.9407  1.0544
  481MPD2    N1 7163   4.187   2.381  14.443  0.2867  0.2040 -0.3312
  481MPD2    H7 7164   4.240   2.362  14.358  1.2824  0.1489  0.3087
  482TMC3    C1 7165   4.023   2.471  14.304  0.1215 -0.2050  0.6494
  482TMC3    C2 7166   3.897   2.439  14.262 -0.4955  0.5568 -0.1888
  482TMC3    C3 7167   3.861   2.482  14.136 -0.0212  0.3704  0.1662
  482TMC3    C4 7168   4.112   2.540  14.233  0.6258 -1.2035 -1.0155
  482TMC3    C5 7169   4.059   2.591  14.120 -0.0162 -0.2602  0.2773
  482TMC3    C6 7170   3.942   2.558  14.063 -0.6658  0.9511  0.7340
  482TMC3     C 7171   4.058   2.417  14.432 -0.4060  0.0378 -0.0211
  482TMC3     O 7172   3.967   2.388  14.510 -0.0409 -0.0017 -0.1886
  482TMC3     H 7173   3.838   2.368  14.320  2.5289  0.4177  2.7124
  482TMC3    H1 7174   4.216   2.557  14.255 -0.0111 -0.0854  1.1059
  482TMC3    H2 7175   3.908   2.592  13.965  1.8357  2.8124  0.5016
  482TMC3    C7 7176   4.150   2.658  14.029  0.6951  0.2510 -0.0496
  482TMC3    C8 7177   3.768   2.392  14.070  0.2991 -0.6394 -0.3513
  482TMC3    O1 7178   4.239   2.725  14.077 -0.0385 -0.2709  0.0606
  482TMC3    O2 7179   3.742   2.287  14.124  0.1920 -0.5046  0.2576
  483TMC3    C1 7180   1.375   2.072   0.847 -0.3360  0.7483  1.5281
  483TMC3    C2 7181   1.461   2.177   0.813  0.6324  1.2913 -0.1327
  483TMC3    C3 7182   1.578   2.184   0.895  0.6551 -0.5661  0.2170
  483TMC3    C4 7183   1.395   1.983   0.944 -0.1030 -0.4431  0.4594
  483TMC3    C5 7184   1.511   1.993   1.015  0.6107 -0.4093  0.5263
  483TMC3    C6 7185   1.603   2.092   0.997  0.3337  0.1270 -0.2368
  483TMC3     C 7186   1.281   2.026   0.747 -0.7321 -0.2426  0.1091
  483TMC3     O 7187   1.206   2.107   0.692 -0.0204  0.3349  0.1240
  483TMC3     H 7188   1.426   2.255   0.746 -1.2058  0.1251 -0.5284
  483TMC3    H1 7189   1.322   1.909   0.976 -1.2314  1.0935  1.4338
  483TMC3    H2 7190   1.700   2.092   1.044  0.4614  0.3856 -0.4934
  483TMC3    C7 7191   1.571   1.866   1.061 -0.0601  0.2827 -0.0451
  483TMC3    C8 7192   1.692   2.240   0.825  0.5502 -0.3029  0.3389
  483TMC3    O1 7193   1.519   1.760   1.017 -0.1731  0.3351 -0.2232
  483TMC3    O2 7194   1.683   2.243   0.705  0.3322  0.3303  0.0873
  484MPD2     C 7195   4.077   4.237  12.104 -0.7578 -0.3403  0.6328
  484MPD2    C1 7196   4.154   4.130  12.147  0.1814  0.1249 -0.0643
  484MPD2    C2 7197   4.288   4.128  12.118 -0.3459 -0.0873  1.1264
  484MPD2    C3 7198   4.348   4.250  12.072 -0.2516 -0.5324 -0.2598
  484MPD2    C4 7199   4.272   4.357  12.035 -0.0148  0.3029  0.9164
  484MPD2    C5 7200   4.136   4.351  12.044  0.0626  0.0153 -0.5830
  484MPD2     H 7201   4.350   4.044  12.146 -0.9264 -0.5845  0.9141
  484MPD2    H1 7202   4.319   4.446  11.995 -0.4108  0.1951  0.2080
  484MPD2    H2 7203   3.969   4.236  12.108 -0.8052  0.6584 -0.2898
  484MPD2    H3 7204   4.065   4.424  12.006 -0.6122  0.1468  0.9115
  484MPD2     N 7205   4.492   4.255  12.049  0.6907 -0.4778  0.7381
  484MPD2    H5 7206   4.525   4.342  12.009 -0.3135 -0.2553  0.3890
  484MPD2    N1 7207   4.078   4.028  12.217  0.0550 -0.0544 -0.3898
  484MPD2    H7 7208   3.979   4.041  12.230  0.4243  1.6443  0.7156
  485TMC3    C1 7209   4.723   4.194  12.052  0.4092  0.0701  0.2335
  485TMC3    C2 7210   0.092   4.110  12.114  0.3438  0.1122  0.3520
  485TMC3    C3 7211   0.221   4.160  12.122 -1.0310 -0.2624  0.6381
  485TMC3    C4 7212   0.025   4.312  11.992 -0.9551  0.0283 -0.3609
  485TMC3    C5 7213   0.158   4.343  11.993  0.1337 -0.0929  0.1382
  485TMC3    C6 7214   0.253   4.280  12.062 -0.0874  0.1690 -0.1268
  485TMC3     C 7215   4.585   4.154  12.067 -0.5055  0.5336  0.5195
  485TMC3     O 7216   4.565   4.036  12.089  0.1566 -0.4466  0.4870
  485TMC3     H 7217   0.067   4.011  12.150  2.1853 -0.0019  1.3015
  485TMC3    H1 7218   4.686   4.343  11.910 -0.9881 -0.6623 -0.5962
  485TMC3    H2 7219   0.349   4.328  12.073  0.0545  0.0979 -1.0936
  485TMC3    C7 7220   0.201   4.407  11.873 -0.0451  0.3172 -0.6911
  485TMC3    C8 7221   0.323   4.073  12.079 -0.1807 -0.1871  0.3937
  485TMC3    O1 7222   0.121   4.476  11.815 -0.0470  0.5187  0.5121
  485TMC3    O2 7223   0.420   4.124  12.024 -0.6040 -0.4162 -0.0743
  486MPD2     C 7224   1.652   2.524  14.001 -0.8823 -0.1566 -0.4432
  486MPD2    C1 7225   1.774   2.560  13.945  0.1090 -0.5680  0.0747
  486MPD2    C2 7226   1.767   2.627  13.819  0.1272  0.5643 -0.3418
  486MPD2    C3 7227   1.643   2.670  13.769 -0.7546  0.2443 -0.2206
  486MPD2    C4 7228   1.526   2.639  13.835 -0.2620 -0.0952 -0.2364
  486MPD2    C5 7229   1.529   2.560  13.947 -0.5134  0.1359  0.6306
  486MPD2     H 7230   1.852   2.661  13.762  1.9692 -2.2259  0.7604
  486MPD2    H1 7231   1.428   2.676  13.808 -0.6073 -0.6852  0.2181
  486MPD2    H2 7232   1.646   2.472  14.097  0.0705 -1.1092 -0.8978
  486MPD2    H3 7233   1.434   2.537  13.994 -1.3013 -0.0847 -1.0758
  486MPD2     N 7234   1.645   2.757  13.652 -0.2685 -0.2203 -0.3159
  486MPD2    H5 7235   1.737   2.748  13.609 -0.4621  2.5821 -1.2956
  486MPD2    N1 7236   1.892   2.516  14.004 -0.0216 -0.4954 -0.2725
  486MPD2    H7 7237   1.884   2.453  14.083  1.2226 -2.0253 -1.3553
  487TMC3    C1 7238   2.122   2.461  14.013  0.5029 -0.5704 -0.2735
  487TMC3    C2 7239   2.198   2.407  13.913 -1.0621 -0.2030  0.3729
  487TMC3    C3 7240   2.202   2.266  13.911 -0.1396  0.5473  0.0700
  487TMC3    C4 7241   2.088   2.385  14.120 -0.0697  0.3415  0.5044
  487TMC3    C5 7242   2.104   2.251  14.109 -0.0755 -0.1161 -0.0454
  487TMC3    C6 7243   2.161   2.187  14.010 -0.4233  0.6912  0.9395
  487TMC3     C 7244   2.022   2.547  13.961 -0.4267  0.1685  0.1717
  487TMC3     O 7245   2.055   2.623  13.871  0.1822  0.3644  0.0253
  487TMC3     H 7246   2.236   2.471  13.835 -0.7039 -0.9886 -0.1016
  487TMC3    H1 7247   2.037   2.424  14.207 -1.0707  2.3283 -0.9752
  487TMC3    H2 7248   2.160   2.079  14.002  0.9249  0.6132  1.7867
  487TMC3    C7 7249   2.023   2.170  14.191  0.4719  0.7315  0.3567
  487TMC3    C8 7250   2.299   2.201  13.826 -0.1570  0.1375 -0.4864
  487TMC3    O1 7251   1.989   2.209  14.301  0.7572  0.6295 -0.4399
  487TMC3    O2 7252   2.369   2.118  13.881  0.5688  0.1902 -0.5254
  488MPD2     C 7253   1.936   0.159  16.436  0.2686 -0.2740  0.1527
  488MPD2    C1 7254   2.021   0.241  16.506 -0.2022 -0.9467 -0.1847
  488MPD2    C2 7255   2.006   0.238  16.644  0.2651 -0.0608 -0.1130
  488MPD2    C3 7256   1.912   0.162  16.710  0.5680 -0.1523  0.1439
  488MPD2    C4 7257   1.822   0.081  16.632  0.4426 -0.1760 -0.2093
  488MPD2    C5 7258   1.844   0.085  16.498  0.8874  0.4830 -0.5748
  488MPD2     H 7259   2.087   0.290  16.693  0.9013  1.6073 -2.8908
  488MPD2    H1 7260   1.747   0.015  16.673  1.4961  0.2569  2.3884
  488MPD2    H2 7261   1.943   0.137  16.330 -2.2628 -0.1771 -0.0196
  488MPD2    H3 7262   1.798   0.010  16.435 -1.6746  3.6137 -2.4146
  488MPD2     N 7263   1.918   0.158  16.847 -0.6927  0.3871  0.1653
  488MPD2    H5 7264   1.990   0.210  16.896  0.4155  0.1806 -1.2308
  488MPD2    N1 7265   2.129   0.307  16.448  0.0631  0.1774 -0.1794
  488MPD2    H7 7266   2.182   0.369  16.507 -2.7406  1.1739  1.2965
  489TMC3    C1 7267   1.892   0.081  17.069  0.5364  0.0202 -0.3248
  489TMC3    C2 7268   1.935   0.207  17.107 -0.0563 -0.9263 -0.0838
  489TMC3    C3 7269   1.976   0.225  17.230 -0.9345 -0.4034  0.2590
  489TMC3    C4 7270   1.897   4.694  17.147  0.9308 -0.0588 -0.4570
  489TMC3    C5 7271   1.936   4.717  17.278 -0.5058 -0.4217  0.2038
  489TMC3    C6 7272   1.985   0.114  17.312  0.3440 -0.0383 -0.4210
  489TMC3     C 7273   1.854   0.062  16.930 -0.2165  0.0659 -0.8901
  489TMC3     O 7274   1.775   4.697  16.906  0.1255 -0.3014 -0.5365
  489TMC3     H 7275   1.919   0.293  17.043 -0.6996 -0.4459  0.7275
  489TMC3    H1 7276   1.879   4.593  17.111 -0.8435 -0.0285  0.3458
  489TMC3    H2 7277   2.017   0.136  17.414 -0.5736  2.9880 -0.7803
  489TMC3    C7 7278   1.927   4.617  17.375 -0.0304  0.6377  0.4092
  489TMC3    C8 7279   2.056   0.346  17.249 -0.0248  0.4446 -0.5530
  489TMC3    O1 7280   1.998   4.641  17.472  0.7543 -0.0051 -0.3818
  489TMC3    O2 7281   2.039   0.433  17.168  0.0337  0.1571  0.3575
  490MPD2     C 7282   2.687   4.704   0.400 -0.5247  0.5651 -0.1736
  490MPD2    C1 7283   2.724   4.641   0.280  0.3852  0.0807 -0.1333
  490MPD2    C2 7284   2.817   4.697   0.192  0.0846  0.2195 -0.1880
  490MPD2    C3 7285   2.884   0.085   0.226 -0.2115 -0.8914  0.0163
  490MPD2    C4 7286   2.845   0.155   0.339 -0.0732  0.7323 -0.3042
  490MPD2    C5 7287   2.743   0.107   0.425  0.1123  0.1392 -0.1201
  490MPD2     H 7288   2.844   4.648   0.099 -2.0638  1.3344 -1.3943
  490MPD2    H1 7289   2.898   0.243   0.372 -0.8197  0.4011  1.7578
  490MPD2    H2 7290   2.611   4.659   0.462  0.8939 -1.6047 -0.0099
  490MPD2    H3 7291   2.724   0.152   0.521  1.1432  0.9313 -0.2956
  490MPD2     N 7292   2.996   0.134   0.153  0.1862  0.5174  0.6568
  490MPD2    H5 7293   3.040   0.221   0.181  0.7397  0.7873 -1.0349
  490MPD2    N1 7294   2.667   4.515   0.230  0.2736 -0.7023 -0.0514
  490MPD2    H7 7295   2.687   4.488   0.135  2.1151 -0.7835  0.3445
  491TMC3    C1 7296   2.584   4.307   0.251 -0.3073  0.4001  0.4944
  491TMC3    C2 7297   2.601   4.195   0.334 -0.3355  0.4122 -0.3284
  491TMC3    C3 7298   2.595   4.072   0.277 -0.0655 -0.5895  0.1457
  491TMC3    C4 7299   2.562   4.294   0.119 -0.2239  0.1582  0.6668
  491TMC3    C5 7300   2.570   4.169   0.067 -0.1215  0.6216  0.5193
  491TMC3    C6 7301   2.580   4.057   0.143  0.3046 -0.1855  0.1811
  491TMC3     C 7302   2.604   4.432   0.314  0.2221  0.1191 -0.2241
  491TMC3     O 7303   2.587   4.430   0.433  0.7855 -0.0175 -0.1476
  491TMC3     H 7304   2.632   4.202   0.437 -0.8592 -2.2785  0.0191
  491TMC3    H1 7305   2.537   4.378   0.055  1.1710  0.7416  0.8940
  491TMC3    H2 7306   2.563   3.960   0.098  2.8601 -0.4997 -0.0692
  491TMC3    C7 7307   2.551   4.146  17.626  0.1357 -0.1502 -0.0455
  491TMC3    C8 7308   2.590   3.957   0.361  0.2630 -0.3540  0.5208
  491TMC3    O1 7309   2.543   4.030  17.588 -0.8162  0.4985  0.3769
  491TMC3    O2 7310   2.548   3.975   0.479 -0.1441 -0.5031 -0.3007
  492MPD2     C 7311   3.611   3.626  11.320  0.1909  0.0684  0.0451
  492MPD2    C1 7312   3.554   3.515  11.270 -0.5681  0.0182 -0.9142
  492MPD2    C2 7313   3.485   3.422  11.354  0.1295 -0.5064  0.8492
  492MPD2    C3 7314   3.462   3.456  11.486 -0.1664  0.0212  0.0770
  492MPD2    C4 7315   3.525   3.570  11.535  0.3082  0.1678  0.5683
  492MPD2    C5 7316   3.600   3.648  11.450  0.3279 -0.5629  0.0850
  492MPD2     H 7317   3.446   3.330  11.314  0.3873 -1.5649  3.0398
  492MPD2    H1 7318   3.510   3.603  11.636  1.8950 -1.3825  1.3226
  492MPD2    H2 7319   3.677   3.695  11.268 -0.3974  0.1170 -0.6467
  492MPD2    H3 7320   3.641   3.741  11.489 -0.2037 -0.1844 -0.2517
  492MPD2     N 7321   3.372   3.388  11.568  0.3355  0.9070  0.6740
  492MPD2    H5 7322   3.338   3.440  11.647  0.1130  0.3419  0.9475
  492MPD2    N1 7323   3.572   3.494  11.135  0.2934 -0.4024 -0.6627
  492MPD2    H7 7324   3.627   3.563  11.085  0.3209 -0.0852 -0.1955
  493TMC3    C1 7325   3.529   3.408  10.919 -1.0360  0.1186  0.0206
  493TMC3    C2 7326   3.543   3.541  10.881  0.5170 -0.1268 -0.2153
  493TMC3    C3 7327   3.480   3.580  10.764  0.4516  0.2315  0.2355
  493TMC3    C4 7328   3.460   3.308  10.847  0.1254 -0.0820 -0.7030
  493TMC3    C5 7329   3.391   3.357  10.738 -0.1625 -0.5555  0.1013
  493TMC3    C6 7330   3.408   3.487  10.691  0.5962  0.2858 -0.0316
  493TMC3     C 7331   3.522   3.386  11.062 -0.1177  0.3775  0.2955
  493TMC3     O 7332   3.479   3.278  11.103  0.0942 -0.4711 -0.0528
  493TMC3     H 7333   3.614   3.605  10.931 -0.1470 -0.5108  1.2195
  493TMC3    H1 7334   3.450   3.207  10.888  1.9508  0.6173  1.4589
  493TMC3    H2 7335   3.341   3.524  10.615  1.2215  0.9628 -0.2580
  493TMC3    C7 7336   3.262   3.296  10.716  0.3587 -0.2444  0.2989
  493TMC3    C8 7337   3.401   3.703  10.782 -0.0542  0.0795 -0.1769
  493TMC3    O1 7338   3.166   3.367  10.694  0.6452 -0.4218  0.4896
  493TMC3    O2 7339   3.309   3.687  10.862  0.4492  0.1616 -0.2907
  494TMC3    C1 7340   3.588   1.601   0.548 -0.3806  0.2592  0.0994
  494TMC3    C2 7341   3.612   1.481   0.607 -0.0268  0.3025 -0.2994
  494TMC3    C3 7342   3.677   1.384   0.536 -0.2660  0.5740  0.0712
  494TMC3    C4 7343   3.607   1.625   0.408 -0.1744 -0.0872 -0.1997
  494TMC3    C5 7344   3.665   1.520   0.343 -0.3154  0.1839  0.2530
  494TMC3    C6 7345   3.703   1.402   0.400  0.0557  0.2092  0.4680
  494TMC3     C 7346   3.508   1.687   0.629  0.1734  0.7896  0.1102
  494TMC3     O 7347   3.438   1.645   0.719  0.0802  0.7747  0.8026
  494TMC3     H 7348   3.593   1.461   0.712 -2.2160  0.2156 -0.7198
  494TMC3    H1 7349   3.557   1.711   0.366  1.2059  0.4105 -0.8456
  494TMC3    H2 7350   3.760   1.327   0.347 -0.2519  0.8440 -0.7735
  494TMC3    C7 7351   3.727   1.538   0.212  0.4004 -0.0296  0.1508
  494TMC3    C8 7352   3.679   1.247   0.588  0.2878 -0.5214 -0.1410
  494TMC3    O1 7353   3.767   1.441   0.150  0.2426 -0.3395  0.5476
  494TMC3    O2 7354   3.596   1.228   0.676 -0.6029 -0.0479 -0.7284
  495TMC3    C1 7355   2.531   3.269  14.506 -0.3276  0.3212 -0.1103
  495TMC3    C2 7356   2.432   3.245  14.413 -0.3922  0.8312  0.2279
  495TMC3    C3 7357   2.305   3.303  14.420  0.2818 -0.0030  0.3002
  495TMC3    C4 7358   2.503   3.353  14.613 -0.6734 -0.1849 -0.0157
  495TMC3    C5 7359   2.379   3.408  14.625  0.3111 -0.1508  0.6920
  495TMC3    C6 7360   2.281   3.380  14.533  0.5478 -0.1374 -0.8773
  495TMC3     C 7361   2.571   3.137  14.548 -1.0531 -0.2236 -0.5351
  495TMC3     O 7362   2.509   3.043  14.502 -0.2660 -0.0944  0.3397
  495TMC3     H 7363   2.465   3.187  14.328 -1.8540 -0.6203  0.6586
  495TMC3    H1 7364   2.579   3.367  14.689 -0.0297 -0.8853 -0.5283
  495TMC3    H2 7365   2.183   3.427  14.543  0.3771 -1.0690  1.7046
  495TMC3    C7 7366   2.338   3.445  14.760 -0.5066  0.2383 -0.1345
  495TMC3    C8 7367   2.189   3.226  14.387 -0.0810  0.4694 -0.5663
  495TMC3    O1 7368   2.405   3.530  14.816  0.3329  0.2293  0.4428
  495TMC3    O2 7369   2.075   3.273  14.398  0.1017 -0.1046  0.4398
  496MPD2     C 7370   4.230   3.257  15.033  0.1093 -0.5218 -0.2485
  496MPD2    C1 7371   4.263   3.202  15.156 -0.1359  0.5148  0.1688
  496MPD2    C2 7372   4.185   3.225  15.265 -0.3033  0.2013  0.5595
  496MPD2    C3 7373   4.073   3.305  15.259 -0.2886 -0.1840  0.1459
  496MPD2    C4 7374   4.053   3.356  15.139 -0.1191 -0.1800 -0.1064
  496MPD2    C5 7375   4.119   3.336  15.027  0.2599  0.3534  0.2189
  496MPD2     H 7376   4.210   3.181  15.361  3.6771  0.3256 -0.4418
  496MPD2    H1 7377   3.967   3.420  15.125 -0.9523 -0.9142  1.7441
  496MPD2    H2 7378   4.295   3.255  14.946  1.4265 -1.3519  0.7607
  496MPD2    H3 7379   4.078   3.387  14.940 -2.1166 -1.9632 -0.0134
  496MPD2     N 7380   3.980   3.330  15.359  0.3113  0.4378 -0.8549
  496MPD2    H5 7381   3.896   3.378  15.330 -1.1738 -0.7175  1.5084
  496MPD2    N1 7382   4.386   3.130  15.146  0.1270  0.4805 -0.5383
  496MPD2    H7 7383   4.413   3.121  15.048 -0.4163  0.0324 -0.6487
  497TMC3    C1 7384   3.882   3.317  15.572 -0.5820  0.4378  0.2024
  497TMC3    C2 7385   3.750   3.291  15.528 -0.9872 -0.4093 -0.1520
  497TMC3    C3 7386   3.649   3.349  15.600 -0.1668 -0.2687 -0.0251
  497TMC3    C4 7387   3.909   3.400  15.677 -0.4526  0.8409 -0.5475
  497TMC3    C5 7388   3.796   3.455  15.744  1.1154  0.4902  0.1707
  497TMC3    C6 7389   3.669   3.425  15.714  0.3762  0.4766 -0.4930
  497TMC3     C 7390   3.995   3.282  15.487 -0.4937  0.1475  0.2199
  497TMC3     O 7391   4.104   3.260  15.544  0.4533 -0.0222  0.6533
  497TMC3     H 7392   3.733   3.227  15.443  2.9098  0.1644 -1.3454
  497TMC3    H1 7393   4.008   3.442  15.683 -0.6293  1.3037 -0.8233
  497TMC3    H2 7394   3.593   3.477  15.771  2.2560 -0.8450  3.2289
  497TMC3    C7 7395   3.816   3.502  15.875 -0.0124 -0.4260 -0.0612
  497TMC3    C8 7396   3.518   3.331  15.544 -0.2941  0.3014  0.0320
  497TMC3    O1 7397   3.723   3.549  15.937  0.3090 -0.1224 -0.0938
  497TMC3    O2 7398   3.506   3.243  15.463 -0.4690 -0.2031  0.0691
  498MPD2     C 7399   4.440   3.546   9.128  0.3565  0.3212  0.5145
  498MPD2    C1 7400   4.485   3.508   9.247 -0.7254 -0.3716 -0.3460
  498MPD2    C2 7401   4.410   3.425   9.327 -0.6482 -0.9590  0.5048
  498MPD2    C3 7402   4.276   3.396   9.290  0.4248 -0.1488 -0.1949
  498MPD2    C4 7403   4.232   3.446   9.170 -0.0359  0.0686  0.0949
  498MPD2    C5 7404   4.316   3.511   9.083  0.2738 -0.4012  0.4691
  498MPD2     H 7405   4.451   3.393   9.422  1.5402 -1.6929 -0.7035
  498MPD2    H1 7406   4.132   3.428   9.133 -0.3509  1.1409  0.4210
  498MPD2    H2 7407   4.499   3.609   9.063 -0.9339  0.7003 -0.2992
  498MPD2    H3 7408   4.289   3.548   8.985  1.6231 -0.9726 -0.1182
  498MPD2     N 7409   4.186   3.334   9.385 -0.0493  0.5494  0.2479
  498MPD2    H5 7410   4.227   3.326   9.477 -0.7909 -0.7421  0.4781
  498MPD2    N1 7411   4.616   3.530   9.291  0.6355 -0.4389 -0.2553
  498MPD2    H7 7412   4.639   3.485   9.379 -0.6321  0.1640  0.3670
  499TMC3    C1 7413   0.107   3.586   9.319 -0.3520 -0.0571  0.4764
  499TMC3    C2 7414   0.161   3.462   9.349  0.1411 -0.7886 -0.4732
  499TMC3    C3 7415   0.296   3.453   9.382  0.0668 -0.0247  0.4225
  499TMC3    C4 7416   0.185   3.690   9.309  0.3337  0.1763 -0.9960
  499TMC3    C5 7417   0.317   3.679   9.349  0.1811 -0.1492 -0.0305
  499TMC3    C6 7418   0.379   3.564   9.382 -0.1383  0.1985 -0.6495
  499TMC3     C 7419   4.718   3.598   9.233  1.2779  0.5546 -0.2878
  499TMC3     O 7420   4.718   3.667   9.133 -0.0095 -0.2691 -0.2654
  499TMC3     H 7421   0.095   3.375   9.346 -0.2279 -0.5248 -0.0744
  499TMC3    H1 7422   0.138   3.786   9.289  0.1293  0.5249  1.1504
  499TMC3    H2 7423   0.475   3.557   9.432 -0.2250 -1.4664 -0.6972
  499TMC3    C7 7424   0.387   3.803   9.364 -0.0413  0.4028  0.4387
  499TMC3    C8 7425   0.348   3.327   9.443  0.2836 -0.0468 -0.0950
  499TMC3    O1 7426   0.478   3.815   9.443 -0.1164  0.2844  0.0581
  499TMC3    O2 7427   0.256   3.250   9.472  0.3670 -0.1773 -0.1332
  500MPD2     C 7428   2.251   4.329  10.739 -0.0092  0.1664  0.1915
  500MPD2    C1 7429   2.283   4.433  10.656  0.3740 -0.2468 -0.4726
  500MPD2    C2 7430   2.190   4.467  10.558  0.6640 -0.2137  0.1505
  500MPD2    C3 7431   2.071   4.390  10.550  0.0663  0.0567  0.1493
  500MPD2    C4 7432   2.049   4.282  10.635  0.3959  0.8456  0.2811
  500MPD2    C5 7433   2.139   4.255  10.736  0.3583  0.9719  0.5832
  500MPD2     H 7434   2.217   4.543  10.486 -1.8234  1.2826  0.8137
  500MPD2    H1 7435   1.949   4.243  10.650 -0.4882  3.0350  0.1021
  500MPD2    H2 7436   2.325   4.292  10.810  0.5359  3.1735  1.1800
  500MPD2    H3 7437   2.125   4.174  10.806  0.8798  1.1683  0.9125
  500MPD2     N 7438   1.963   4.422  10.464 -0.9436  0.2938 -0.2233
  500MPD2    H5 7439   1.885   4.358  10.460 -0.5660 -0.0705 -1.7886
  500MPD2    N1 7440   2.409   4.500  10.660 -0.2761 -0.0191  0.1771
  500MPD2    H7 7441   2.426   4.569  10.588 -2.3908 -1.9713 -2.2014
  501TMC3    C1 7442   2.636   4.546  10.707  0.3952 -0.2604 -0.4856
  501TMC3    C2 7443   2.624   4.675  10.669 -1.0731  0.3904  0.6043
  501TMC3    C3 7444   2.737   0.030  10.659 -0.2254 -0.1628 -0.0222
  501TMC3    C4 7445   2.761   4.500  10.747 -0.4896  0.7490 -0.4112
  501TMC3    C5 7446   2.871   4.585  10.727  0.2362 -0.2567 -0.2032
  501TMC3    C6 7447   2.860   4.712  10.697 -0.4348  0.7310  0.6872
  501TMC3     C 7448   2.522   4.467  10.741  0.5287 -0.9528 -0.2099
  501TMC3     O 7449   2.537   4.370  10.816  0.5160  0.0312  0.1744
  501TMC3     H 7450   2.529   4.724  10.656 -0.0527  2.9292  2.7202
  501TMC3    H1 7451   2.775   4.394  10.763 -0.7118  1.0457  1.6303
  501TMC3    H2 7452   2.946   0.052  10.694 -0.5620  0.7526 -2.4969
  501TMC3    C7 7453   2.995   4.520  10.778  0.0422  0.3684 -0.3611
  501TMC3    C8 7454   2.718   0.176  10.662  0.2283 -0.0889  0.8194
  501TMC3    O1 7455   2.993   4.403  10.815 -0.5173  0.2136 -0.4045
  501TMC3    O2 7456   2.802   0.249  10.714  0.1406  0.2650  0.3757
  502TMC3    C1 7457   1.880   4.339  15.172 -0.0357  0.4973 -0.0938
  502TMC3    C2 7458   1.800   4.449  15.169 -0.0455 -0.0607  0.4484
  502TMC3    C3 7459   1.660   4.442  15.177 -0.3834 -0.1261 -0.1402
  502TMC3    C4 7460   1.824   4.219  15.182  0.0976  0.2360 -0.6046
  502TMC3    C5 7461   1.688   4.213  15.186 -0.1884  0.0956  0.4002
  502TMC3    C6 7462   1.606   4.320  15.194  0.6697 -0.1708  0.0967
  502TMC3     C 7463   2.013   4.352  15.232  0.3632 -0.6004  0.1735
  502TMC3     O 7464   2.074   4.462  15.225 -0.0346 -0.6760  0.7787
  502TMC3     H 7465   1.859   4.540  15.166 -3.4805  2.2000  1.1857
  502TMC3    H1 7466   1.883   4.127  15.177 -1.4255 -0.8186  1.0347
  502TMC3    H2 7467   1.501   4.321  15.222  0.3282  1.8828 -1.2107
  502TMC3    C7 7468   1.641   4.080  15.223  0.4966  0.8958  0.1751
  502TMC3    C8 7469   1.585   4.567  15.184 -0.6545  0.7175 -0.6500
  502TMC3    O1 7470   1.710   3.990  15.270  0.1268 -0.4151 -0.1969
  502TMC3    O2 7471   1.646   4.672  15.180 -0.6441 -0.5136 -0.1472
  503MPD2     C 7472   3.872   0.218  17.006 -0.1442 -0.6193 -0.9218
  503MPD2    C1 7473   3.831   0.246  17.137 -0.3436  0.8926 -0.2214
  503MPD2    C2 7474   3.783   0.140  17.215  0.7467  0.7626 -0.1301
  503MPD2    C3 7475   3.797   0.012  17.175  0.9164 -0.2236 -0.5069
  503MPD2    C4 7476   3.847   4.713  17.049 -0.3798 -0.3351  0.2596
  503MPD2    C5 7477   3.863   0.090  16.957  0.2217  0.5213 -0.0576
  503MPD2     H 7478   3.750   0.166  17.315  0.7068 -2.7552  0.7731
  503MPD2    H1 7479   3.871   4.618  17.004  0.0557  0.2130 -0.6820
  503MPD2    H2 7480   3.904   0.295  16.936 -2.8670  0.3526 -1.1015
  503MPD2    H3 7481   3.889   0.064  16.855 -1.3104  1.5421 -0.7070
  503MPD2     N 7482   3.781   4.636  17.275 -0.1240 -0.0229  0.6243
  503MPD2    H5 7483   3.725   4.659  17.356 -0.1994 -1.0819  0.8719
  503MPD2    N1 7484   3.812   0.375  17.187  0.2965  0.2630  0.1230
  503MPD2    H7 7485   3.786   0.382  17.285  0.5891  1.2434  0.1322
  504TMC3    C1 7486   3.804   4.421  17.370  0.0358  0.2536 -0.1944
  504TMC3    C2 7487   3.843   4.468  17.495 -0.2592 -0.1104 -0.4272
  504TMC3    C3 7488   3.884   4.380  17.591 -0.2859 -0.0495 -0.2919
  504TMC3    C4 7489   3.798   4.286  17.345 -0.2747 -0.4071  0.0149
  504TMC3    C5 7490   3.856   4.198  17.434  0.3768 -0.2571  0.1556
  504TMC3    C6 7491   3.901   4.246  17.559 -0.3805 -0.5567 -0.3662
  504TMC3     C 7492   3.829   4.505  17.254  0.2540 -0.6626 -1.0227
  504TMC3     O 7493   3.905   4.453  17.177 -0.1366  0.4294  0.5934
  504TMC3     H 7494   3.825   4.573  17.514  0.7597  0.5117 -2.8402
  504TMC3    H1 7495   3.769   4.249  17.248 -3.9649 -1.3416  1.4989
  504TMC3    H2 7496   3.942   4.180  17.635  0.8715  1.0912  0.3893
  504TMC3    C7 7497   3.917   4.082  17.381  0.4432  0.5575  0.4529
  504TMC3    C8 7498   3.848   4.416   0.024 -0.1693  0.0698 -0.0290
  504TMC3    O1 7499   3.935   4.082  17.262  0.2439  0.2284  0.4368
  504TMC3    O2 7500   3.751   4.480   0.037 -0.2384 -0.1587 -0.2248
  505MPD2     C 7501   3.861   2.365  10.679  0.2230 -0.2121  0.2925
  505MPD2    C1 7502   3.845   2.448  10.578 -0.2893  0.3282 -0.4592
  505MPD2    C2 7503   3.897   2.574  10.578 -0.3389 -0.6529 -0.2322
  505MPD2    C3 7504   3.963   2.618  10.688  0.2019  0.1799 -0.0088
  505MPD2    C4 7505   3.976   2.537  10.799 -0.0221 -0.4056 -0.2119
  505MPD2    C5 7506   3.925   2.412  10.792 -0.2357 -0.4957  0.2812
  505MPD2     H 7507   3.896   2.638  10.491  0.7914  1.1047  1.0328
  505MPD2    H1 7508   4.037   2.564  10.885  1.8112  1.5126 -2.1442
  505MPD2    H2 7509   3.826   2.262  10.676 -0.8789  0.1866 -0.8351
  505MPD2    H3 7510   3.938   2.335  10.867 -0.0794 -0.4848  0.2662
  505MPD2     N 7511   4.045   2.734  10.685  1.0645 -0.2249 -0.3478
  505MPD2    H5 7512   4.119   2.732  10.755  1.4095  0.7452 -0.6794
  505MPD2    N1 7513   3.796   2.384  10.460 -0.2456  0.0934 -0.4062
  505MPD2    H7 7514   3.775   2.285  10.469  1.6571 -0.0556  2.5776
  506TMC3    C1 7515   3.752   2.352  10.232 -0.2904  0.4764  1.2533
  506TMC3    C2 7516   3.693   2.404  10.117 -0.2021 -0.3319 -1.1256
  506TMC3    C3 7517   3.705   2.333  10.001 -0.3090 -1.1051 -0.4338
  506TMC3    C4 7518   3.850   2.261  10.216 -0.3797 -0.0308 -0.2015
  506TMC3    C5 7519   3.872   2.203  10.090  0.1824 -0.4750  0.6018
  506TMC3    C6 7520   3.781   2.219   9.994  0.1702  0.0268 -0.0658
  506TMC3     C 7521   3.770   2.445  10.337 -0.0283  0.1462  0.7852
  506TMC3     O 7522   3.751   2.565  10.316 -0.1470  0.0846  0.2331
  506TMC3     H 7523   3.627   2.486  10.141  0.0472 -0.3354 -0.4237
  506TMC3    H1 7524   3.916   2.240  10.300 -1.8621 -2.5557  0.3512
  506TMC3    H2 7525   3.791   2.181   9.893  0.3687  0.9811 -0.4071
  506TMC3    C7 7526   4.010   2.220  10.042 -0.4744  0.6229  0.7947
  506TMC3    C8 7527   3.647   2.370   9.877 -0.3267 -0.1080  0.4084
  506TMC3    O1 7528   4.038   2.175   9.929 -0.4596  0.2168  0.0891
  506TMC3    O2 7529   3.631   2.292   9.787 -0.2316  0.6082  0.0031
  507TMC3    C1 7530   4.388   3.844  13.504  0.0917  0.5252 -0.9312
  507TMC3    C2 7531   4.299   3.952  13.510 -0.3473 -0.3660  0.4994
  507TMC3    C3 7532   4.358   4.067  13.478 -0.1515 -0.1460  0.1221
  507TMC3    C4 7533   4.526   3.842  13.494 -0.7411 -0.2052 -0.6625
  507TMC3    C5 7534   4.573   3.962  13.468 -0.3989 -0.0689  0.6162
  507TMC3    C6 7535   4.490   4.072  13.451 -0.3405  0.1884  0.0579
  507TMC3     C 7536   4.329   3.712  13.530 -0.1392  0.4318  0.2636
  507TMC3     O 7537   4.390   3.615  13.478  0.1614  0.2400  0.0198
  507TMC3     H 7538   4.196   3.943  13.542 -0.9074  1.6854 -0.7371
  507TMC3    H1 7539   4.584   3.752  13.482 -0.6797 -0.1383 -0.8618
  507TMC3    H2 7540   4.534   4.170  13.435 -0.3556  0.0613 -0.7289
  507TMC3    C7 7541   4.681   3.993  13.558 -0.1873  0.0330 -0.1697
  507TMC3    C8 7542   4.316   4.167  13.574  0.4067 -0.2085 -0.6338
  507TMC3    O1 7543   4.688   4.110  13.579 -0.2810 -0.2138  0.1178
  507TMC3    O2 7544   4.257   4.129  13.672  0.0348 -0.2216 -0.1679
  508MPD2     C 7545   1.037   1.454  16.103  0.5795  0.2455  0.0478
  508MPD2    C1 7546   1.114   1.569  16.112 -1.0723  0.2419 -0.6646
  508MPD2    C2 7547   1.139   1.639  16.000 -0.2295 -0.2057 -0.0813
  508MPD2    C3 7548   1.079   1.614  15.880 -0.5209 -0.0232 -0.3903
  508MPD2    C4 7549   0.997   1.505  15.877 -0.6333 -0.1467 -0.2085
  508MPD2    C5 7550   0.988   1.418  15.984  0.1151  0.2186 -0.3215
  508MPD2     H 7551   1.199   1.729  16.014 -2.1543  1.0682 -0.0182
  508MPD2    H1 7552   0.935   1.480  15.791 -2.4976  0.5703  0.9163
  508MPD2    H2 7553   1.012   1.397  16.191 -0.1712 -0.8308 -0.8644
  508MPD2    H3 7554   0.917   1.338  15.969 -0.3140  0.6540 -0.6393
  508MPD2     N 7555   1.106   1.699  15.769 -0.8562 -0.0820  0.5189
  508MPD2    H5 7556   1.177   1.770  15.785 -0.1309  0.0703 -3.5188
  508MPD2    N1 7557   1.161   1.623  16.236 -0.0987  0.3485 -0.6607
  508MPD2    H7 7558   1.207   1.713  16.229 -0.6934  0.6277 -0.9895
  509TMC3    C1 7559   0.993   2.012  15.471  0.5378  0.4642 -0.0820
  509TMC3    C2 7560   1.113   2.022  15.410 -0.6079  0.6209  0.1568
  509TMC3    C3 7561   1.215   1.936  15.442  0.0958 -0.4960  0.5629
  509TMC3    C4 7562   0.969   1.904  15.549  0.9210 -0.9680  0.4445
  509TMC3    C5 7563   1.067   1.817  15.578 -0.8834  0.0780  0.4137
  509TMC3    C6 7564   1.198   1.832  15.539 -0.4783 -0.0972 -0.5282
  509TMC3     C 7565   0.876   2.087  15.428  0.6060 -0.2137  0.3916
  509TMC3     O 7566   0.776   2.016  15.434  0.5658  0.0176 -0.3391
  509TMC3     H 7567   1.133   2.094  15.332 -2.3532  3.7823  2.6200
  509TMC3    H1 7568   0.869   1.874  15.575  0.2935  0.1401 -0.7136
  509TMC3    H2 7569   1.279   1.764  15.564 -0.2192  1.2387  2.3474
  509TMC3    C7 7570   1.040   1.697  15.653 -0.4916  0.5966  0.9486
  509TMC3    C8 7571   1.355   1.981  15.433 -0.4959  0.2043 -0.1699
  509TMC3    O1 7572   0.942   1.628  15.620 -0.3725  0.8666  0.4625
  509TMC3    O2 7573   1.441   1.893  15.435 -0.2161  0.3555  0.1696
  510MPD2     C 7574   3.736   3.614  14.517 -0.2130  0.5182  0.9771
  510MPD2    C1 7575   3.816   3.523  14.591 -0.8989  0.4976  0.0896
  510MPD2    C2 7576   3.945   3.499  14.547 -0.0638 -0.5054  0.3013
  510MPD2    C3 7577   3.994   3.553  14.433 -0.3071  0.1698 -0.4304
  510MPD2    C4 7578   3.924   3.644  14.365  0.4775 -0.6224  0.2190
  510MPD2    C5 7579   3.799   3.674  14.409  0.1083  0.5139  0.2687
  510MPD2     H 7580   4.000   3.429  14.609 -0.0587 -1.6865 -1.0460
  510MPD2    H1 7581   3.954   3.690  14.271  1.2225 -0.5022  0.5139
  510MPD2    H2 7582   3.643   3.656  14.553  0.1963 -0.2937  2.9801
  510MPD2    H3 7583   3.746   3.748  14.350  1.6098  2.7051  1.6899
  510MPD2     N 7584   4.124   3.509  14.395 -0.6651  0.5722  0.1964
  510MPD2    H5 7585   4.169   3.457  14.470 -1.2663  0.6164  0.5890
  510MPD2    N1 7586   3.754   3.476  14.708 -0.3720 -0.0105 -0.3407
  510MPD2    H7 7587   3.662   3.514  14.727 -0.2202  0.3524 -0.3138
  511TMC3    C1 7588   3.711   3.348  14.903 -0.0657  0.2337  0.1937
  511TMC3    C2 7589   3.650   3.444  14.975  0.6199  0.2438 -0.4255
  511TMC3    C3 7590   3.594   3.406  15.092  0.1333  0.5994 -0.3537
  511TMC3    C4 7591   3.731   3.223  14.952  0.1896 -0.5070  0.6519
  511TMC3    C5 7592   3.678   3.189  15.076  0.9109 -0.4133  0.5920
  511TMC3    C6 7593   3.599   3.274  15.146 -0.2550 -0.4169 -0.2486
  511TMC3     C 7594   3.808   3.393  14.804 -0.2682  0.2356  0.4951
  511TMC3     O 7595   3.912   3.330  14.801 -0.0219 -0.3368  0.5026
  511TMC3     H 7596   3.669   3.548  14.951  0.0855 -0.5090 -4.1635
  511TMC3    H1 7597   3.798   3.160  14.895  1.7244 -0.7994  2.7547
  511TMC3    H2 7598   3.580   3.269  15.253 -0.6549 -0.2058 -0.3122
  511TMC3    C7 7599   3.726   3.075  15.150  0.3963 -0.1216  0.3724
  511TMC3    C8 7600   3.639   3.491  15.194  0.2498  0.1814  0.2166
  511TMC3    O1 7601   3.807   3.003  15.081 -0.7061  0.9857 -0.4042
  511TMC3    O2 7602   3.753   3.457  15.232 -0.0430  0.3753  0.4042
  512TMC3    C1 7603   2.657   2.430  13.929  0.1645 -0.3582  0.2899
  512TMC3    C2 7604   2.746   2.529  13.922 -0.4634 -1.2230  0.4158
  512TMC3    C3 7605   2.820   2.546  13.807  0.2891  0.5198 -0.2133
  512TMC3    C4 7606   2.632   2.347  13.820 -0.0211  0.4782 -0.2740
  512TMC3    C5 7607   2.708   2.370  13.707  0.1820  0.4563  0.6872
  512TMC3    C6 7608   2.811   2.458  13.703  0.0136  0.4529  0.7198
  512TMC3     C 7609   2.567   2.425  14.039 -0.9092  0.0057  1.0510
  512TMC3     O 7610   2.556   2.520  14.113 -0.1537  0.2916 -0.2801
  512TMC3     H 7611   2.761   2.588  14.011  1.2214  0.8952 -1.2696
  512TMC3    H1 7612   2.551   2.275  13.813 -0.5927  1.2793 -1.8808
  512TMC3    H2 7613   2.879   2.468  13.618 -0.3433  1.7861  0.5849
  512TMC3    C7 7614   2.666   2.291  13.594 -0.5564 -0.6254  0.0702
  512TMC3    C8 7615   2.954   2.562  13.841 -0.3703 -0.5935  0.2334
  512TMC3    O1 7616   2.639   2.358  13.494 -0.4783  0.1154 -0.9831
  512TMC3    O2 7617   3.015   2.460  13.806  0.1169 -0.2274 -0.1717
  513MPD2     C 7618   4.013   2.819  12.829 -0.2341  0.2846 -0.1667
  513MPD2    C1 7619   4.126   2.763  12.775 -0.6198 -0.3350 -0.7865
  513MPD2    C2 7620   4.242   2.761  12.847 -0.1527 -0.0440 -0.4931
  513MPD2    C3 7621   4.239   2.796  12.986  0.1902 -0.1387  0.0011
  513MPD2    C4 7622   4.127   2.857  13.042  0.0001 -0.0691  0.2635
  513MPD2    C5 7623   4.015   2.875  12.959 -0.7467  0.1993 -0.2206
  513MPD2     H 7624   4.331   2.715  12.805  0.3819  0.6695 -0.1396
  513MPD2    H1 7625   4.123   2.892  13.144  4.2523  0.7266  0.1568
  513MPD2    H2 7626   3.920   2.823  12.774 -0.4591  1.6043  0.2977
  513MPD2    H3 7627   3.924   2.920  12.997 -2.5243 -2.6346 -1.1056
  513MPD2     N 7628   4.360   2.767  13.059  0.2455  0.2877 -0.0605
  513MPD2    H5 7629   4.432   2.723  13.003 -0.4031 -1.9927  0.8683
  513MPD2    N1 7630   4.124   2.721  12.642 -1.1476  0.5958 -0.2637
  513MPD2    H7 7631   4.054   2.760  12.578 -0.2788 -2.2174 -2.9271
  514TMC3    C1 7632   4.191   2.602  12.453 -0.3621 -0.1033  0.2335
  514TMC3    C2 7633   4.227   2.712  12.386 -0.6399  0.2173 -0.2095
  514TMC3    C3 7634   4.298   2.695  12.267 -0.6489 -0.1332 -0.5491
  514TMC3    C4 7635   4.231   2.470  12.409 -0.3273  0.0386 -0.2268
  514TMC3    C5 7636   4.317   2.460  12.303  0.3252  0.1191  0.1713
  514TMC3    C6 7637   4.344   2.573  12.227 -0.2176 -0.5588  0.1413
  514TMC3     C 7638   4.202   2.619  12.591  0.7511 -0.1348 -0.1492
  514TMC3     O 7639   4.258   2.525  12.650  0.4119  0.5988  0.6227
  514TMC3     H 7640   4.193   2.812  12.409  1.9261  0.8348  0.9366
  514TMC3    H1 7641   4.211   2.382  12.469 -1.8620  0.0921 -0.6818
  514TMC3    H2 7642   4.420   2.568  12.150  0.0118 -2.3547  0.4763
  514TMC3    C7 7643   4.453   2.408  12.340 -0.1124  0.1486  0.0276
  514TMC3    C8 7644   4.362   2.816  12.215 -0.1180 -0.5446 -0.2671
  514TMC3    O1 7645   4.533   2.377  12.250  0.4529 -0.7859  0.1876
  514TMC3    O2 7646   4.373   2.917  12.290  0.6020  0.0228  0.1670
  515MPD2     C 7647   2.244   0.543  14.663 -0.6530 -0.2968  0.1381
  515MPD2    C1 7648   2.261   0.413  14.696  0.1996  0.2309  0.8956
  515MPD2    C2 7649   2.361   0.384  14.789 -0.3110  0.1197 -0.3304
  515MPD2    C3 7650   2.455   0.477  14.816  0.4984 -0.1280 -0.0085
  515MPD2    C4 7651   2.433   0.608  14.779 -0.4693 -0.3318  0.6767
  515MPD2    C5 7652   2.331   0.640  14.698  0.1622  0.0151 -0.1543
  515MPD2     H 7653   2.375   0.284  14.826  1.2685  0.5007  0.0845
  515MPD2    H1 7654   2.507   0.687  14.786  1.7398 -2.1691 -1.6254
  515MPD2    H2 7655   2.162   0.573  14.599  1.0916  0.8068 -1.6009
  515MPD2    H3 7656   2.327   0.733  14.644  0.4880  0.9045  1.3622
  515MPD2     N 7657   2.576   0.451  14.885  0.2818  0.5420  0.3208
  515MPD2    H5 7658   2.637   0.524  14.920  2.9104 -1.3369 -0.2475
  515MPD2    N1 7659   2.178   0.305  14.673  0.2687  0.2974  0.4407
  515MPD2    H7 7660   2.215   0.218  14.710 -1.2431 -0.9947 -1.1109
  516TMC3    C1 7661   2.005   0.166  14.588 -0.7533 -0.1003 -0.4701
  516TMC3    C2 7662   1.912   0.151  14.482  0.3372  0.6121 -0.1795
  516TMC3    C3 7663   1.874   0.023  14.454  0.7767  0.7296 -0.7213
  516TMC3    C4 7664   2.046   0.059  14.660  0.1024  0.2427 -0.1562
  516TMC3    C5 7665   1.997   4.664  14.630  0.5382  0.5919  0.0442
  516TMC3    C6 7666   1.911   4.640  14.523  0.7199 -0.3674 -0.3282
  516TMC3     C 7667   2.065   0.302  14.597  0.2978  0.0578 -0.6196
  516TMC3     O 7668   2.005   0.383  14.528  0.0491 -0.1022  0.3666
  516TMC3     H 7669   1.873   0.240  14.435  0.3311  0.9132  0.4018
  516TMC3    H1 7670   2.092   0.078  14.756 -0.2550 -1.9896  0.4616
  516TMC3    H2 7671   1.882   4.542  14.487  1.0394 -0.0273 -1.5014
  516TMC3    C7 7672   2.039   4.551  14.704  0.7229  0.4475 -0.5264
  516TMC3    C8 7673   1.776   0.004  14.348 -0.3147  0.3421 -0.5502
  516TMC3    O1 7674   1.962   4.458  14.715 -0.2938 -0.2646 -0.5770
  516TMC3    O2 7675   1.758   4.615  14.304  0.7687  0.0362 -0.4405
  517MPD2     C 7676   1.958   1.663   0.186  0.4655 -0.1958 -0.4341
  517MPD2    C1 7677   2.069   1.701   0.112 -0.2058 -0.2855 -0.3642
  517MPD2    C2 7678   2.105   1.833   0.112  0.0623 -0.7246  0.7405
  517MPD2    C3 7679   2.028   1.928   0.177 -0.9190 -0.9511  0.4201
  517MPD2    C4 7680   1.917   1.889   0.247  0.2878  0.6261  0.4072
  517MPD2    C5 7681   1.880   1.755   0.244  0.0113 -0.3320  0.0735
  517MPD2     H 7682   2.193   1.861   0.055 -1.0223 -0.3877 -0.7585
  517MPD2    H1 7683   1.844   1.956   0.292 -0.6986  0.6660 -1.2311
  517MPD2    H2 7684   1.919   1.562   0.184 -0.2997  0.0630  1.9954
  517MPD2    H3 7685   1.787   1.728   0.293 -0.8639 -0.0247 -1.4448
  517MPD2     N 7686   2.072   2.065   0.194 -0.4210  0.7274  0.5862
  517MPD2    H5 7687   2.034   2.125   0.267  0.0461  2.5598 -0.6675
  517MPD2    N1 7688   2.140   1.609   0.035 -0.4191 -0.3170 -0.1777
  517MPD2    H7 7689   2.229   1.637  17.696  0.4494  0.7914  2.4047
  518TMC3    C1 7690   2.200   1.390  17.672 -0.1132 -0.3922 -0.4342
  518TMC3    C2 7691   2.170   1.271  17.612  0.7548 -0.5120 -0.3661
  518TMC3    C3 7692   2.274   1.185  17.567 -0.1462  1.0183 -0.1102
  518TMC3    C4 7693   2.333   1.420  17.700  0.2904 -0.4112 -0.4733
  518TMC3    C5 7694   2.436   1.348  17.655 -0.1202  0.0393 -0.3343
  518TMC3    C6 7695   2.403   1.224  17.596  0.0077 -0.4899 -0.2866
  518TMC3     C 7696   2.092   1.479   0.006 -0.1340 -0.1994 -0.0884
  518TMC3     O 7697   1.981   1.431   0.019  0.0496 -0.5070  0.0915
  518TMC3     H 7698   2.067   1.253  17.584  0.2259 -1.8625  2.3697
  518TMC3    H1 7699   2.359   1.512   0.048 -0.3070  1.1061 -2.9659
  518TMC3    H2 7700   2.483   1.157  17.566 -2.0152 -2.1780 -1.8982
  518TMC3    C7 7701   2.575   1.395  17.675  0.2550 -0.1873 -0.2316
  518TMC3    C8 7702   2.273   1.036  17.580  0.3084  0.4185  0.0894
  518TMC3    O1 7703   2.594   1.469   0.067  0.2916  0.0180  0.3430
  518TMC3    O2 7704   2.379   0.974  17.560  0.5252  0.2382  0.0005
  519MPD2     C 7705   3.905   4.662  14.574 -1.1060  0.1833  0.2288
  519MPD2    C1 7706   3.858   4.642  14.444  0.4683  0.0628 -0.1428
  519MPD2    C2 7707   3.892   4.526  14.375  0.1065  0.5214  0.8910
  519MPD2    C3 7708   3.961   4.426  14.439 -0.1075 -0.4798 -0.4625
  519MPD2    C4 7709   4.016   4.445  14.565  0.0948 -0.3664 -0.3897
  519MPD2    C5 7710   3.984   4.563  14.629 -0.2343  0.1721  0.4171
  519MPD2     H 7711   3.865   4.515  14.271  1.4132  1.5310  0.4495
  519MPD2    H1 7712   4.081   4.376  14.617 -1.0110 -0.7406  0.4943
  519MPD2    H2 7713   3.892   0.032  14.624  0.1421  1.2528 -1.4946
  519MPD2    H3 7714   4.024   4.591  14.725 -1.3121 -0.0110  0.9118
  519MPD2     N 7715   3.973   4.301  14.386 -0.0931 -0.5918 -1.1896
  519MPD2    H5 7716   4.034   4.229  14.423  0.8315 -0.7875 -3.1310
  519MPD2    N1 7717   3.777   0.019  14.387 -0.0522  0.7775 -0.7503
  519MPD2    H7 7718   3.735   0.090  14.446 -0.4641  0.2470 -0.4003
  520TMC3    C1 7719   3.917   4.123  14.238 -0.3122  0.0844 -0.6518
  520TMC3    C2 7720   3.824   4.067  14.155  0.7692 -0.2714  0.1568
  520TMC3    C3 7721   3.867   3.966  14.076  0.3894 -0.0826 -0.3390
  520TMC3    C4 7722   4.036   4.066  14.268  0.1984 -0.8923 -0.6076
  520TMC3    C5 7723   4.064   3.955  14.195 -0.0365  0.3470  0.0600
  520TMC3    C6 7724   3.992   3.910  14.083 -0.2599  0.6997  0.4953
  520TMC3     C 7725   3.885   4.256  14.287  0.2746 -0.2013 -0.3865
  520TMC3     O 7726   3.787   4.304  14.233 -0.1685  0.5086  0.4068
  520TMC3     H 7727   3.722   4.103  14.151  0.3556 -1.2248  2.7832
  520TMC3    H1 7728   4.114   4.115  14.327  0.1268 -0.5050 -0.8347
  520TMC3    H2 7729   4.018   3.812  14.043 -1.4133  0.2448  0.8593
  520TMC3    C7 7730   4.202   3.913  14.210 -0.3910  0.4263  0.7967
  520TMC3    C8 7731   3.788   3.928  13.948 -0.4218  0.0954  0.3880
  520TMC3    O1 7732   4.271   3.949  14.307 -0.0083  0.0777 -0.8865
  520TMC3    O2 7733   3.837   3.840  13.876 -0.0206  0.6625  0.2128
  521MPD2     C 7734   4.379   2.201  17.453  0.5516  0.4497  0.2896
  521MPD2    C1 7735   4.381   2.206  17.317  0.3161  0.3095  0.8143
  521MPD2    C2 7736   4.482   2.133  17.256 -0.2960  0.4134 -0.1048
  521MPD2    C3 7737   4.584   2.070  17.323 -0.2640  0.3476 -0.4564
  521MPD2    C4 7738   4.574   2.055  17.456 -0.5119  0.2114 -0.2208
  521MPD2    C5 7739   4.472   2.118  17.513 -0.0712  0.2714  0.1731
  521MPD2     H 7740   4.495   2.147  17.149 -0.8257 -2.6106 -0.5670
  521MPD2    H1 7741   4.643   1.997  17.515  2.7930  1.6161 -2.7274
  521MPD2    H2 7742   4.303   2.251  17.512 -1.3119 -2.6182  0.4654
  521MPD2    H3 7743   4.477   2.125  17.621 -1.1294 -3.3105  0.4629
  521MPD2     N 7744   4.698   2.027  17.242 -0.3611  0.1037  0.3857
  521MPD2    H5 7745   4.698   2.047  17.142  1.0215  0.4029  0.4521
  521MPD2    N1 7746   4.277   2.281  17.252 -0.4327 -0.2877  0.1012
  521MPD2    H7 7747   4.209   2.322  17.315 -0.3997  0.7614 -0.5606
  522TMC3    C1 7748   0.193   1.952  17.181  0.6145  0.6241  0.0062
  522TMC3    C2 7749   0.308   1.883  17.228 -0.0601 -0.5285  0.4838
  522TMC3    C3 7750   0.422   1.912  17.155 -0.2091 -0.1847  0.0674
  522TMC3    C4 7751   0.185   2.029  17.072  0.1351  0.1038 -0.1276
  522TMC3    C5 7752   0.297   2.034  16.997  0.4890  1.2652 -0.0974
  522TMC3    C6 7753   0.413   1.979  17.036  0.0860  0.2036 -0.2062
  522TMC3     C 7754   0.088   1.960  17.289 -0.1558 -0.6329 -0.3529
  522TMC3     O 7755   0.121   1.933  17.404  0.3977  0.5340 -0.2409
  522TMC3     H 7756   0.311   1.832  17.324 -2.9992  0.1776  0.9597
  522TMC3    H1 7757   0.089   2.071  17.044 -0.7304 -3.5820 -2.7196
  522TMC3    H2 7758   0.504   1.987  16.978 -0.0127 -0.6580 -0.4802
  522TMC3    C7 7759   0.289   2.126  16.880 -0.2059 -0.5216  0.2659
  522TMC3    C8 7760   0.527   1.816  17.174 -0.6353 -0.4245  0.4912
  522TMC3    O1 7761   0.194   2.204  16.882  0.1920  0.9251  0.2351
  522TMC3    O2 7762   0.526   1.727  17.261 -0.3027  0.1764 -0.3775
  523MPD2     C 7763   2.324   1.561   9.839  0.2941 -0.9699 -0.3203
  523MPD2    C1 7764   2.432   1.607   9.912  0.3585 -0.0481  0.4507
  523MPD2    C2 7765   2.470   1.740   9.902 -0.0137 -0.3061  0.0306
  523MPD2    C3 7766   2.408   1.827   9.814  0.1478 -0.2907  0.3853
  523MPD2    C4 7767   2.290   1.785   9.759  0.2222 -0.0062 -1.1381
  523MPD2    C5 7768   2.251   1.652   9.767 -0.1863  0.0735  0.2993
  523MPD2     H 7769   2.557   1.785   9.948  1.3890 -1.0451 -1.8987
  523MPD2    H1 7770   2.222   1.854   9.710 -0.3593 -1.0434 -1.8132
  523MPD2    H2 7771   2.297   1.456   9.841  0.5219 -1.0729 -2.1191
  523MPD2    H3 7772   2.163   1.621   9.711  0.0508 -1.1625  0.6232
  523MPD2     N 7773   2.430   1.965   9.818  0.0935 -0.1129 -0.0238
  523MPD2    H5 7774   2.370   2.019   9.756 -0.0326 -0.1457  0.0688
  523MPD2    N1 7775   2.499   1.508   9.993  0.4963  0.6388  0.2822
  523MPD2    H7 7776   2.458   1.416  10.001 -1.6719  1.4217 -1.9491
  524TMC3    C1 7777   2.541   2.166   9.854  0.1761 -0.3363  0.4669
  524TMC3    C2 7778   2.648   2.233   9.803  0.2033 -0.5722  0.1794
  524TMC3    C3 7779   2.631   2.364   9.785  0.6160 -0.4597 -0.0545
  524TMC3    C4 7780   2.431   2.226   9.898  0.4847  0.0424  0.2237
  524TMC3    C5 7781   2.418   2.358   9.882 -0.5761 -0.1110  0.5485
  524TMC3    C6 7782   2.520   2.435   9.820  0.2166 -0.0591  0.2376
  524TMC3     C 7783   2.550   2.021   9.871 -0.6280 -0.1452  0.0359
  524TMC3     O 7784   2.660   1.971   9.888  0.1473  0.0828  0.5677
  524TMC3     H 7785   2.731   2.182   9.755 -0.2802 -1.8134  0.6507
  524TMC3    H1 7786   2.361   2.167   9.956  0.2923  1.6911  1.6536
  524TMC3    H2 7787   2.519   2.544   9.824  0.6628 -0.0816  0.9160
  524TMC3    C7 7788   2.285   2.408   9.906 -0.6042 -0.4637  0.0350
  524TMC3    C8 7789   2.734   2.444   9.720 -0.8065 -0.4368  0.8173
  524TMC3    O1 7790   2.227   2.344   9.997  0.2060 -0.5032  0.2459
  524TMC3    O2 7791   2.698   2.551   9.682 -0.1489 -0.3513 -0.6717
  525MPD2     C 7792   0.280   4.010  14.617  0.2163 -0.0674  0.1708
  525MPD2    C1 7793   0.416   4.036  14.618 -0.6025 -0.0090  0.3682
  525MPD2    C2 7794   0.466   4.161  14.582  0.2178 -0.1267 -0.0445
  525MPD2    C3 7795   0.376   4.256  14.542 -0.2476 -0.7807  0.1643
  525MPD2    C4 7796   0.243   4.240  14.550 -0.6201  1.2045  0.0274
  525MPD2    C5 7797   0.193   4.116  14.581  0.6714 -0.4152 -0.3535
  525MPD2     H 7798   0.569   4.189  14.599  0.9177 -1.1927 -2.5843
  525MPD2    H1 7799   0.176   4.320  14.522 -0.3413  0.5986 -2.3278
  525MPD2    H2 7800   0.236   3.923  14.664 -0.9232  1.0057  1.0811
  525MPD2    H3 7801   0.086   4.102  14.570  0.6916  0.0255 -1.1526
  525MPD2     N 7802   0.407   4.396  14.520 -0.1156 -0.0247  0.1593
  525MPD2    H5 7803   0.326   4.457  14.530  0.3714  0.8746 -1.5193
  525MPD2    N1 7804   0.504   3.927  14.650 -0.2079 -0.1963  0.0943
  525MPD2    H7 7805   0.602   3.953  14.656  0.0169 -0.7511 -1.1791
  526TMC3    C1 7806   0.593   3.736  14.729  0.6031 -0.3918  0.2533
  526TMC3    C2 7807   0.573   3.641  14.828  0.1424  0.7253 -0.8766
  526TMC3    C3 7808   0.681   3.579  14.887 -0.1475  0.8644 -0.0981
  526TMC3    C4 7809   0.718   3.764  14.680  0.4559  0.0514 -0.2020
  526TMC3    C5 7810   0.812   3.686  14.730 -0.3263  0.2298  0.0128
  526TMC3    C6 7811   0.804   3.597  14.834 -0.0416 -0.3211  0.3184
  526TMC3     C 7812   0.476   3.805  14.694 -0.2945 -0.6475  0.5147
  526TMC3     O 7813   0.370   3.746  14.708 -0.4482 -0.2558 -0.6646
  526TMC3     H 7814   0.472   3.639  14.868  1.2765 -0.1055  1.9685
  526TMC3    H1 7815   0.724   3.834  14.598  1.4513  0.1262 -0.0689
  526TMC3    H2 7816   0.895   3.570  14.885  0.2931  0.0561 -0.0811
  526TMC3    C7 7817   0.943   3.714  14.672  0.0757  0.0442  0.3306
  526TMC3    C8 7818   0.683   3.564  15.029 -0.2378 -0.0572  0.1466
  526TMC3    O1 7819   0.967   3.823  14.624  0.0574 -0.2950 -0.1357
  526TMC3    O2 7820   0.791   3.540  15.082 -0.2403  0.0554 -0.2418
  527MPD2     C 7821   3.331   2.214   1.225 -0.2721  0.3628  0.1903
  527MPD2    C1 7822   3.412   2.106   1.253 -0.1604 -0.2763  0.3361
  527MPD2    C2 7823   3.526   2.093   1.177 -0.8980  0.1955 -0.2689
  527MPD2    C3 7824   3.561   2.187   1.078 -0.0089 -0.5988  0.2608
  527MPD2    C4 7825   3.479   2.302   1.060 -0.0621 -0.0512 -0.0482
  527MPD2    C5 7826   3.358   2.302   1.127 -0.4330  0.6425 -0.2489
  527MPD2     H 7827   3.583   2.003   1.199  0.5961  0.7376 -2.0009
  527MPD2    H1 7828   3.503   2.374   0.982 -1.1905 -0.9788 -1.2677
  527MPD2    H2 7829   3.230   2.220   1.264 -0.1280  0.3431  0.5733
  527MPD2    H3 7830   3.285   2.380   1.107  0.7316  1.7332 -0.2438
  527MPD2     N 7831   3.682   2.168   1.014  0.7754  0.1217 -0.2594
  527MPD2    H5 7832   3.718   2.073   1.020  1.5661  0.4449  0.0862
  527MPD2    N1 7833   3.387   2.012   1.360  0.0892 -0.2137 -0.0147
  527MPD2    H7 7834   3.470   1.960   1.385  0.9064  1.3556  0.5952
  528TMC3    C1 7835   3.277   1.910   1.544 -0.0922 -0.3046 -0.7910
  528TMC3    C2 7836   3.395   1.851   1.578 -0.0845  0.5121  0.1249
  528TMC3    C3 7837   3.392   1.755   1.678 -0.7593 -0.3135 -0.0065
  528TMC3    C4 7838   3.164   1.892   1.618 -0.0978  0.2388 -0.2460
  528TMC3    C5 7839   3.167   1.794   1.716 -0.0861 -0.5972  0.2205
  528TMC3    C6 7840   3.278   1.718   1.749  0.4567 -0.1358 -0.5858
  528TMC3     C 7841   3.276   2.016   1.441 -0.1063  0.6978  0.5236
  528TMC3     O 7842   3.180   2.086   1.443  0.1112  0.1164 -0.5507
  528TMC3     H 7843   3.490   1.870   1.530 -1.0690 -0.8356 -2.3592
  528TMC3    H1 7844   3.080   1.955   1.592 -0.1553  0.1377 -0.3060
  528TMC3    H2 7845   3.279   1.641   1.825 -1.6449 -0.3275 -0.7396
  528TMC3    C7 7846   3.049   1.770   1.800  0.1886 -0.6467  0.2035
  528TMC3    C8 7847   3.515   1.691   1.709  0.4757  0.2682  0.2317
  528TMC3    O1 7848   3.055   1.686   1.889 -0.2498  0.0373  0.6467
  528TMC3    O2 7849   3.612   1.703   1.633  0.0721 -0.5771  0.2165
  529MPD2     C 7850   1.657   0.410   0.818  0.6094  0.0587 -0.6344
  529MPD2    C1 7851   1.534   0.351   0.807 -0.0181 -0.1662  1.2970
  529MPD2    C2 7852   1.446   0.394   0.712  0.1622 -0.0884  0.8828
  529MPD2    C3 7853   1.475   0.498   0.627  0.3276 -0.0019 -0.1032
  529MPD2    C4 7854   1.605   0.541   0.630  0.3099 -0.7837 -0.9471
  529MPD2    C5 7855   1.691   0.493   0.725  0.5812  0.5096  0.0606
  529MPD2     H 7856   1.344   0.359   0.709 -0.1912  0.8909  1.3419
  529MPD2    H1 7857   1.645   0.613   0.559 -1.1055 -0.1739 -1.1208
  529MPD2    H2 7858   1.735   0.392   0.891 -0.1988  1.2654  0.5593
  529MPD2    H3 7859   1.785   0.546   0.732  1.2566 -0.6298 -0.5230
  529MPD2     N 7860   1.398   0.537   0.510 -0.6577 -0.1581 -0.3075
  529MPD2    H5 7861   1.436   0.619   0.463  0.4764  0.7015  2.1406
  529MPD2    N1 7862   1.486   0.248   0.891 -0.3954  0.9747 -0.6346
  529MPD2    H7 7863   1.387   0.227   0.885 -0.3650  0.1021  2.0103
  530TMC3    C1 7864   1.510   0.043   1.021  0.5352  0.0512 -0.3006
  530TMC3    C2 7865   1.551   0.008   1.145  0.0358 -0.2964 -0.1855
  530TMC3    C3 7866   1.466   4.653   1.208 -0.1662 -0.0407  0.1692
  530TMC3    C4 7867   1.401   4.725   0.954  0.2548  0.4482 -0.3711
  530TMC3    C5 7868   1.316   4.645   1.022  0.2012  0.1812 -0.0484
  530TMC3    C6 7869   1.344   4.618   1.157  0.3259  0.3267 -0.3429
  530TMC3     C 7870   1.568   0.178   0.975 -0.4532 -0.4507  0.3152
  530TMC3     O 7871   1.679   0.210   1.022 -0.2896 -0.8128  0.6768
  530TMC3     H 7872   1.649   0.030   1.184 -0.1657  1.4316 -0.6190
  530TMC3    H1 7873   1.379   0.005   0.848 -1.1673 -0.0900 -0.1066
  530TMC3    H2 7874   1.283   4.543   1.206 -0.5408  1.2093 -0.0683
  530TMC3    C7 7875   1.190   4.604   0.965 -0.9761 -0.3401 -0.3379
  530TMC3    C8 7876   1.518   4.599   1.339 -0.6723 -0.4077  0.3104
  530TMC3    O1 7877   1.158   4.618   0.847 -0.1765  0.3633 -0.4386
  530TMC3    O2 7878   1.639   4.593   1.351 -0.3581  0.1718 -0.3136
  531MPD2     C 7879   0.097   2.393  12.701 -0.7369 -0.8481  0.4252
  531MPD2    C1 7880   4.712   2.449  12.756  0.3334 -0.1503  0.5971
  531MPD2    C2 7881   4.589   2.445  12.686 -0.4732 -0.0257  0.1733
  531MPD2    C3 7882   4.592   2.403  12.551  0.0434 -0.1230  0.6393
  531MPD2    C4 7883   4.708   2.353  12.498 -0.4043  1.0846 -0.3243
  531MPD2    C5 7884   0.094   2.348  12.575  0.7840  0.2126 -0.1425
  531MPD2     H 7885   4.495   2.477  12.728 -0.5385  1.8572 -1.4076
  531MPD2    H1 7886   4.708   2.310  12.398  0.8671  1.5798 -0.5375
  531MPD2    H2 7887   0.189   2.387  12.758  0.1989  2.3052 -0.7671
  531MPD2    H3 7888   0.183   2.315  12.521  2.0536 -1.6883  3.1258
  531MPD2     N 7889   4.470   2.426  12.481  0.0378 -0.2802 -0.0994
  531MPD2    H5 7890   4.390   2.449  12.539 -1.0751 -0.6076 -1.5181
  531MPD2    N1 7891   0.001   2.504  12.886 -0.0237 -0.1984 -0.6674
  531MPD2    H7 7892   0.087   2.487  12.938 -0.3455  0.0894 -0.0297
  532TMC3    C1 7893   4.666   2.615  13.087 -0.5704  0.2202  0.0750
  532TMC3    C2 7894   4.552   2.645  13.149  0.1577 -0.0129 -0.4083
  532TMC3    C3 7895   4.519   2.757  13.210  0.0458 -0.7953 -0.6255
  532TMC3    C4 7896   0.041   2.702  13.101 -0.2875 -0.1324  0.3289
  532TMC3    C5 7897   0.013   2.810  13.180 -0.2911 -0.5342  0.6428
  532TMC3    C6 7898   4.621   2.852  13.218 -0.1872 -0.4167 -0.8190
  532TMC3     C 7899   4.631   2.584  12.949  0.3897 -0.1772  0.0534
  532TMC3     O 7900   4.528   2.631  12.908 -0.3857 -0.0037  0.9807
  532TMC3     H 7901   4.481   2.564  13.158 -0.4048  0.5941  0.6139
  532TMC3    H1 7902   0.126   2.700  13.034 -0.0052  2.0661  0.6261
  532TMC3    H2 7903   4.600   2.943  13.273 -0.0020  0.5731 -2.3661
  532TMC3    C7 7904   0.128   2.878  13.246  0.1481  0.2271  0.2899
  532TMC3    C8 7905   4.393   2.808  13.180 -0.1108 -0.2431  0.2871
  532TMC3    O1 7906   0.118   2.983  13.316  0.0600 -0.1805 -0.2042
  532TMC3    O2 7907   4.344   2.895  13.254  1.2097 -0.7087 -0.4387
  533TMC3    C1 7908   0.548   4.578  14.549  0.1480  0.3737  0.6527
  533TMC3    C2 7909   0.673   4.637  14.544 -0.2000 -0.5421  0.0028
  533TMC3    C3 7910   0.706   0.021  14.628 -0.4115 -0.2265  0.2614
  533TMC3    C4 7911   0.459   4.621  14.643 -0.0714  0.1142 -0.0734
  533TMC3    C5 7912   0.496   4.720  14.733  0.3658  0.2261 -0.7560
  533TMC3    C6 7913   0.606   0.066  14.718 -0.1316  0.2976 -0.6270
  533TMC3     C 7914   0.540   4.444  14.500 -0.8883  0.3645  0.9957
  533TMC3     O 7915   0.645   4.388  14.469 -0.0441  0.5600 -0.7363
  533TMC3     H 7916   0.746   4.601  14.472 -2.7330  1.0708 -3.3797
  533TMC3    H1 7917   0.363   4.579  14.672  0.4626 -0.5685  0.6978
  533TMC3    H2 7918   0.622   0.160  14.770  0.9937 -0.1429 -0.1756
  533TMC3    C7 7919   0.501   4.642  14.860  0.9057 -0.3314 -0.2698
  533TMC3    C8 7920   0.838   0.078  14.643  0.4727  0.1357  0.5468
  533TMC3    O1 7921   0.470   4.521  14.866 -0.5071  0.2974 -0.3175
  533TMC3    O2 7922   0.852   0.153  14.741  0.1085  0.6878 -0.1276
  534MPD2     C 7923   3.141   0.685   1.546 -0.5865  0.0443 -0.1119
  534MPD2    C1 7924   3.208   0.765   1.454  0.3252  0.1836  0.4809
  534MPD2    C2 7925   3.173   0.758   1.322  1.0813  0.3089  0.1705
  534MPD2    C3 7926   3.059   0.685   1.292 -0.1964  0.5257  0.1012
  534MPD2    C4 7927   2.993   0.602   1.383  0.5399 -0.2595  0.3035
  534MPD2    C5 7928   3.040   0.602   1.508 -0.0193  0.2448  0.1656
  534MPD2     H 7929   3.227   0.811   1.244  1.8629 -0.2064  0.3642
  534MPD2    H1 7930   2.911   0.535   1.359  0.1227  0.2985  0.1686
  534MPD2    H2 7931   3.163   0.692   1.652 -0.3829  2.5402 -0.3253
  534MPD2    H3 7932   2.995   0.540   1.585 -0.0485 -1.1476 -0.9550
  534MPD2     N 7933   2.999   0.684   1.164  0.4066 -0.0314 -0.4783
  534MPD2    H5 7934   2.918   0.624   1.161  0.8644 -0.6661 -0.1555
  534MPD2    N1 7935   3.317   0.846   1.484  0.2575 -0.0931  0.2130
  534MPD2    H7 7936   3.357   0.909   1.415 -1.5535 -0.3723 -1.0907
  535TMC3    C1 7937   2.982   0.677   0.919  0.0625 -0.5644  0.1887
  535TMC3    C2 7938   2.848   0.638   0.915  0.4557  0.9147  0.0932
  535TMC3    C3 7939   2.791   0.615   0.794  0.4620  0.2839  1.0205
  535TMC3    C4 7940   3.048   0.686   0.801 -0.3387  0.1031  0.2270
  535TMC3    C5 7941   3.000   0.653   0.680  0.3370  0.6295  0.5892
  535TMC3    C6 7942   2.865   0.609   0.678  0.5274 -0.6602  1.1642
  535TMC3     C 7943   3.057   0.719   1.044  0.7825 -0.3780  0.3320
  535TMC3     O 7944   3.162   0.776   1.021 -0.0296  0.4700  0.0049
  535TMC3     H 7945   2.787   0.638   1.005 -1.9240 -0.3464 -1.5201
  535TMC3    H1 7946   3.154   0.709   0.806 -0.1865 -0.6265  0.3685
  535TMC3    H2 7947   2.820   0.577   0.585  1.4543 -0.2523  0.5757
  535TMC3    C7 7948   3.081   0.682   0.565 -0.2553 -0.4581 -0.5860
  535TMC3    C8 7949   2.658   0.562   0.784 -0.0893 -0.0862  0.1222
  535TMC3    O1 7950   3.198   0.712   0.589  0.9812 -0.9669 -0.4115
  535TMC3    O2 7951   2.634   0.479   0.703  0.4328 -0.2318 -0.2457
  536MPD2     C 7952   2.508   3.908  16.503 -0.1155 -0.2897 -0.9016
  536MPD2    C1 7953   2.388   3.844  16.538  0.3712 -0.3835 -0.0613
  536MPD2    C2 7954   2.288   3.817  16.441  0.1054  0.0146  0.4156
  536MPD2    C3 7955   2.308   3.865  16.311  0.4607  0.6987 -0.0634
  536MPD2    C4 7956   2.430   3.922  16.279 -0.4659 -0.8310 -0.2065
  536MPD2    C5 7957   2.526   3.943  16.370 -0.5182 -0.2845 -0.1973
  536MPD2     H 7958   2.198   3.764  16.471  0.6201 -0.6182  0.8388
  536MPD2    H1 7959   2.442   3.951  16.175 -3.0206  1.2884  0.0725
  536MPD2    H2 7960   2.585   3.926  16.577  1.8549  0.0594 -3.0359
  536MPD2    H3 7961   2.621   3.979  16.332 -0.9220  1.2289  0.2181
  536MPD2     N 7962   2.204   3.866  16.213 -0.1126 -0.0730  0.2075
  536MPD2    H5 7963   2.231   3.911  16.126  0.6075  0.3437  0.6472
  536MPD2    N1 7964   2.360   3.821  16.674 -0.3923 -0.1410  0.3247
  536MPD2    H7 7965   2.424   3.856  16.745  1.7697 -1.4730 -0.9776
  537TMC3    C1 7966   2.224   3.792  16.876 -0.4016 -0.8824 -0.4813
  537TMC3    C2 7967   2.292   3.891  16.942 -0.1763 -0.1608 -0.3580
  537TMC3    C3 7968   2.252   3.905  17.077  0.1822 -0.3183  0.0785
  537TMC3    C4 7969   2.128   3.710  16.936  0.5249 -0.1196 -0.2863
  537TMC3    C5 7970   2.103   3.729  17.069  0.0239 -0.7100  0.1920
  537TMC3    C6 7971   2.166   3.821  17.141  0.1722  0.2838 -0.3084
  537TMC3     C 7972   2.236   3.783  16.729 -0.2235  0.0968 -0.3989
  537TMC3     O 7973   2.135   3.743  16.673 -0.2805  0.1234  0.3670
  537TMC3     H 7974   2.366   3.959  16.903 -0.9711  1.1966  0.4700
  537TMC3    H1 7975   2.076   3.631  16.884  0.3221 -0.8799  1.0611
  537TMC3    H2 7976   2.139   3.841  17.244 -1.4600 -0.4604 -0.5828
  537TMC3    C7 7977   1.994   3.660  17.132 -0.7314  0.1483 -0.4325
  537TMC3    C8 7978   2.349   3.964  17.171 -0.0586  0.5879  0.2740
  537TMC3    O1 7979   1.934   3.709  17.223  0.2325  0.3062 -0.1127
  537TMC3    O2 7980   2.360   3.906  17.277  0.3143 -0.7539 -0.4569
  538TMC3    C1 7981   3.497   1.527  11.263  0.2994  0.2281  0.5319
  538TMC3    C2 7982   3.605   1.454  11.219  0.4214 -0.3595 -0.6180
  538TMC3    C3 7983   3.648   1.479  11.093 -0.2094  0.5397  0.4761
  538TMC3    C4 7984   3.425   1.605  11.180  0.4154  0.1798 -0.0337
  538TMC3    C5 7985   3.462   1.624  11.051  0.5765 -0.0718 -0.7919
  538TMC3    C6 7986   3.576   1.566  10.999 -0.3858 -0.9578 -0.9268
  538TMC3     C 7987   3.459   1.517  11.404  0.1861 -0.5341 -0.0633
  538TMC3     O 7988   3.389   1.606  11.453  0.0746 -0.2674  0.3400
  538TMC3     H 7989   3.670   1.399  11.285  0.1482 -0.6254 -0.5681
  538TMC3    H1 7990   3.334   1.655  11.208  1.1550  0.2994  2.1436
  538TMC3    H2 7991   3.610   1.585  10.897  0.6369 -1.7288 -0.7243
  538TMC3    C7 7992   3.365   1.680  10.957 -0.2239  0.2050 -0.4666
  538TMC3    C8 7993   3.789   1.451  11.073 -0.4902 -0.0824 -0.0037
  538TMC3    O1 7994   3.291   1.768  10.997 -0.0257  0.2439  0.4745
  538TMC3    O2 7995   3.855   1.462  11.176  0.0326 -0.3472  0.0093
  539MPD2     C 7996   3.232   0.979  11.938  0.0208 -0.2320  0.0960
  539MPD2    C1 7997   3.193   0.972  11.806 -0.0200  0.0849  0.1257
  539MPD2    C2 7998   3.137   1.085  11.746  0.7970 -0.7350 -0.7487
  539MPD2    C3 7999   3.108   1.205  11.811  0.4791  0.0911  0.2330
  539MPD2    C4 8000   3.136   1.204  11.947  0.2974  0.3392  1.0122
  539MPD2    C5 8001   3.190   1.092  12.009  0.2766  0.3745 -0.1390
  539MPD2     H 8002   3.101   1.073  11.644 -0.5551 -1.1560 -0.2354
  539MPD2    H1 8003   3.130   1.298  12.001 -1.8730  0.4936  0.5387
  539MPD2    H2 8004   3.280   0.899  11.993  3.0251  1.5922  0.1282
  539MPD2    H3 8005   3.227   1.093  12.111 -2.1065  2.4942  0.7211
  539MPD2     N 8006   3.048   1.317  11.747  0.2799 -0.1617  0.6363
  539MPD2    H5 8007   3.024   1.393  11.810 -0.6394 -0.0841  0.1953
  539MPD2    N1 8008   3.203   0.853  11.735  0.1986 -0.1508  0.9046
  539MPD2    H7 8009   3.157   0.851  11.645 -0.0479  1.9985  0.9831
  540TMC3    C1 8010   3.015   1.469  11.574  0.6495  0.3080  0.0540
  540TMC3    C2 8011   3.036   1.495  11.442 -0.7173  0.2091 -0.9723
  540TMC3    C3 8012   3.023   1.624  11.399 -0.3080  0.0688  0.1088
  540TMC3    C4 8013   2.982   1.568  11.666  0.3948 -0.0087  0.4926
  540TMC3    C5 8014   2.978   1.696  11.620 -0.9966 -0.3580  0.1270
  540TMC3    C6 8015   3.008   1.730  11.492  0.0566 -0.3523  0.0930
  540TMC3     C 8016   3.035   1.331  11.611 -0.5689  0.2810  0.1232
  540TMC3     O 8017   3.071   1.256  11.521  0.4450 -0.8612  0.3527
  540TMC3     H 8018   3.073   1.415  11.379 -0.8536  0.1278 -0.9463
  540TMC3    H1 8019   2.971   1.547  11.772  0.0773  3.4740  1.1343
  540TMC3    H2 8020   2.991   1.833  11.461  0.7544  0.9060  3.8884
  540TMC3    C7 8021   2.926   1.788  11.714  0.3054  0.4094  0.0450
  540TMC3    C8 8022   2.988   1.650  11.261 -0.0692  0.3771  0.0448
  540TMC3    O1 8023   2.842   1.740  11.790 -0.0518 -0.2762 -0.1232
  540TMC3    O2 8024   3.028   1.743  11.196 -0.1767 -0.0241  0.9730
  541MPD2     C 8025   1.256   2.812  13.264 -0.0910  0.2593  0.3706
  541MPD2    C1 8026   1.360   2.724  13.242 -0.1423 -0.3915  0.5867
  541MPD2    C2 8027   1.432   2.737  13.120 -0.2912  0.0616  0.7299
  541MPD2    C3 8028   1.435   2.851  13.048  0.8843 -0.2005  0.5620
  541MPD2    C4 8029   1.337   2.947  13.078 -0.4372 -0.5578 -0.5107
  541MPD2    C5 8030   1.257   2.924  13.185  0.6260 -0.2069  0.4210
  541MPD2     H 8031   1.495   2.655  13.087  0.3235  0.8463 -0.0451
  541MPD2    H1 8032   1.333   3.046  13.034 -0.5373  0.1901  1.1890
  541MPD2    H2 8033   1.187   2.799  13.347 -0.3834  0.2880  0.1315
  541MPD2    H3 8034   1.180   2.996  13.209  0.8199 -0.2247  1.1080
  541MPD2     N 8035   1.501   2.875  12.925 -0.1584  0.5477 -0.2732
  541MPD2    H5 8036   1.478   2.964  12.882  1.0895  2.1236  2.3020
  541MPD2    N1 8037   1.376   2.615  13.326  0.4224 -0.2565  0.0222
  541MPD2    H7 8038   1.321   2.613  13.411  1.2182 -0.8156  0.5360
  542TMC3    C1 8039   1.622   2.823  12.740 -1.2393 -0.1287  0.2253
  542TMC3    C2 8040   1.681   2.726  12.660 -0.2913 -0.0136  0.2321
  542TMC3    C3 8041   1.736   2.760  12.539  0.4697 -0.2504 -0.1398
  542TMC3    C4 8042   1.626   2.959  12.708  0.1013 -0.8894 -0.0015
  542TMC3    C5 8043   1.667   2.983  12.575  0.4638 -0.3053  0.3525
  542TMC3    C6 8044   1.738   2.892  12.503 -0.4984  0.5337  0.5036
  542TMC3     C 8045   1.588   2.782  12.868 -0.7590  0.2402 -0.4034
  542TMC3     O 8046   1.621   2.670  12.906  0.1063 -0.9886 -0.5205
  542TMC3     H 8047   1.702   2.628  12.702  1.6180 -0.2955 -1.3939
  542TMC3    H1 8048   1.584   3.040  12.767 -1.0346 -1.7762  0.3971
  542TMC3    H2 8049   1.782   2.919  12.408 -2.1518 -0.0400 -0.4142
  542TMC3    C7 8050   1.629   3.115  12.519  0.1888  0.1638 -0.7302
  542TMC3    C8 8051   1.750   2.666  12.424  0.1238  0.0936  0.0241
  542TMC3    O1 8052   1.543   3.178  12.581 -0.2179 -0.1866 -0.5996
  542TMC3    O2 8053   1.745   2.718  12.312  0.2667  0.0191  0.2521
  543TMC3    C1 8054   0.727   4.123  17.519 -0.1008 -0.5484  0.2767
  543TMC3    C2 8055   0.598   4.161  17.552 -0.3699  0.0046  0.2210
  543TMC3    C3 8056   0.539   4.105  17.666  0.2565  0.7180 -0.3416
  543TMC3    C4 8057   0.796   4.038  17.605  0.6218 -0.0284 -0.3632
  543TMC3    C5 8058   0.739   3.999   0.022 -0.4745 -0.8114  0.0777
  543TMC3    C6 8059   0.611   4.038   0.055 -0.1176 -1.5326  0.3301
  543TMC3     C 8060   0.779   4.155  17.384 -0.3868  0.9968 -0.0638
  543TMC3     O 8061   0.893   4.114  17.353  0.6705 -0.0290  0.1367
  543TMC3     H 8062   0.534   4.211  17.480  0.5618  0.2669 -0.4261
  543TMC3    H1 8063   0.898   4.014  17.578 -0.0541 -2.8055 -0.4783
  543TMC3    H2 8064   0.568   4.009   0.150 -1.3340  0.4823  0.3935
  543TMC3    C7 8065   0.812   3.908   0.098  0.5242  0.3861 -0.1284
  543TMC3    C8 8066   0.395   4.108  17.682  1.0715 -0.4183  0.1242
  543TMC3    O1 8067   0.901   3.844   0.042  0.6177  0.4222  0.0607
  543TMC3    O2 8068   0.343   4.019   0.044  1.0631  0.1423  0.2622
  544MPD2     C 8069   4.650   4.148  17.527 -0.0736 -0.5022 -0.5696
  544MPD2    C1 8070   0.003   4.042  17.552  0.2170 -1.1607 -1.1187
  544MPD2    C2 8071   0.138   4.061  17.576 -0.0825  0.2789  0.3115
  544MPD2    C3 8072   0.193   4.187  17.582 -0.2478 -0.4969 -0.1488
  544MPD2    C4 8073   0.109   4.297  17.551 -0.5255  0.3089 -0.5456
  544MPD2    C5 8074   4.705   4.275  17.526 -0.5578 -0.1518 -0.1919
  544MPD2     H 8075   0.191   3.967  17.589  0.2816  0.2708 -1.2543
  544MPD2    H1 8076   0.142   4.400  17.550  1.4445 -0.3133  0.9845
  544MPD2    H2 8077   4.546   4.145  17.497  0.0124 -1.4742 -0.7831
  544MPD2    H3 8078   4.640   4.358  17.497  0.9559 -0.1792 -3.7376
  544MPD2     N 8079   0.331   4.206  17.615  0.5284 -0.0764  0.1861
  544MPD2    H5 8080   0.382   4.291  17.592 -0.2579  0.4669  0.4220
  544MPD2    N1 8081   4.681   3.907  17.547 -0.7259 -0.7708  0.0277
  544MPD2    H7 8082   0.016   3.829  17.572  1.2143  0.2962 -1.3195
  545TMC3    C1 8083   4.554   3.725  17.480  0.6061 -0.2485  0.0566
  545TMC3    C2 8084   4.663   3.675  17.407  0.2785  0.1290  0.4353
  545TMC3    C3 8085   4.705   3.547  17.436 -0.6301  0.5287 -0.0835
  545TMC3    C4 8086   4.504   3.657  17.584  0.3427  0.5963  0.1508
  545TMC3    C5 8087   4.552   3.535  17.609 -0.1882 -0.5257 -1.0035
  545TMC3    C6 8088   4.655   3.473  17.538  0.3525  0.0637  0.0344
  545TMC3     C 8089   4.556   3.873  17.501  0.1503 -0.2860 -0.2053
  545TMC3     O 8090   4.474   3.952  17.458 -0.7070  0.0055  1.2522
  545TMC3     H 8091   4.700   3.738  17.326  0.0685  1.1607  1.1372
  545TMC3    H1 8092   4.437   3.708  17.652  1.8668  0.7208  1.5851
  545TMC3    H2 8093   4.681   3.368  17.551 -0.7326 -0.2218 -0.0674
  545TMC3    C7 8094   4.524   3.475   0.037  0.2614  0.3528  1.0549
  545TMC3    C8 8095   0.094   3.488  17.362  0.1212  0.1589 -0.1874
  545TMC3    O1 8096   4.442   3.535   0.100  0.2610  0.1501  0.1500
  545TMC3    O2 8097   0.137   3.382  17.398  0.1145 -0.1314 -0.1514
  546MPD2     C 8098   2.150   4.284   0.292  0.4178 -0.3727  0.3977
  546MPD2    C1 8099   2.192   4.319   0.163 -0.2275 -0.4881 -0.5241
  546MPD2    C2 8100   2.249   4.444   0.146 -0.0262  0.5011  0.3120
  546MPD2    C3 8101   2.257   4.534   0.250  0.3117  0.1833  0.3259
  546MPD2    C4 8102   2.208   4.498   0.369 -0.1908 -0.6520  0.0907
  546MPD2    C5 8103   2.164   4.374   0.396 -0.6709 -0.9342  0.1150
  546MPD2     H 8104   2.278   4.476   0.047  1.1954  2.0888  1.1889
  546MPD2    H1 8105   2.209   4.572   0.449 -1.2389  0.8075 -1.2385
  546MPD2    H2 8106   2.115   4.183   0.306 -1.5813  0.2392 -0.1483
  546MPD2    H3 8107   2.139   4.350   0.498 -2.6617  1.3341  0.1853
  546MPD2     N 8108   2.320   4.663   0.237  0.2230  0.2245 -0.7501
  546MPD2    H5 8109   2.304   0.005   0.311 -0.6498  0.2796 -0.9805
  546MPD2    N1 8110   2.175   4.216   0.063 -0.3044 -0.1868  0.5100
  546MPD2    H7 8111   2.151   4.124   0.099 -0.7945 -0.0123  0.6305
  547TMC3    C1 8112   2.111   4.132  17.547 -0.4003 -0.5865  0.1173
  547TMC3    C2 8113   2.072   4.171  17.422 -0.0185 -0.0218  0.3807
  547TMC3    C3 8114   1.975   4.093  17.356 -0.1823  0.0019  0.0206
  547TMC3    C4 8115   2.047   4.030  17.612  0.8341 -1.0204  0.4400
  547TMC3    C5 8116   1.978   3.941  17.534  0.4040  0.1270  0.8233
  547TMC3    C6 8117   1.944   3.969  17.408  0.2994 -0.6111 -0.2895
  547TMC3     C 8118   2.191   4.229  17.631  0.5101  0.3117  0.1998
  547TMC3     O 8119   2.239   4.316  17.564  0.0534  0.3961 -0.1304
  547TMC3     H 8120   2.107   4.267  17.384  0.7698  0.3299  1.9920
  547TMC3    H1 8121   2.076   4.006   0.011 -1.0394 -0.8719  1.0089
  547TMC3    H2 8122   1.875   3.906  17.353  0.8321  0.5642 -2.3004
  547TMC3    C7 8123   1.919   3.828  17.601 -0.4731  0.3116  0.3672
  547TMC3    C8 8124   1.968   4.106  17.207 -0.1154 -0.9989 -0.7754
  547TMC3    O1 8125   1.911   3.846   0.024  0.3288  0.0575  0.4089
  547TMC3    O2 8126   2.047   4.186  17.157  0.1060  0.0334 -0.1721
  548MPD2     C 8127   1.972   3.948  12.721  0.6531 -0.4135 -0.1911
  548MPD2    C1 8128   1.894   3.858  12.795 -0.4343  0.3944 -0.7323
  548MPD2    C2 8129   1.948   3.735  12.819  0.0677 -0.2352 -0.3332
  548MPD2    C3 8130   2.070   3.692  12.775 -0.7561 -0.1893  0.3362
  548MPD2    C4 8131   2.145   3.781  12.702  0.1593 -0.4188  0.8871
  548MPD2    C5 8132   2.090   3.908  12.668  0.3384 -0.5317  0.5608
  548MPD2     H 8133   1.881   3.667  12.871 -1.1623  0.1779 -1.3914
  548MPD2    H1 8134   2.239   3.753  12.656  0.0784  1.9005 -0.7073
  548MPD2    H2 8135   1.927   4.046  12.713 -1.9740 -1.5482  0.5151
  548MPD2    H3 8136   2.149   3.967  12.599  0.0327 -1.4119 -0.4584
  548MPD2     N 8137   2.108   3.558  12.807  0.1933 -0.7731 -0.6212
  548MPD2    H5 8138   2.052   3.498  12.866  0.3713 -2.1356 -1.8434
  548MPD2    N1 8139   1.766   3.903  12.837  0.1033 -0.3851  0.5401
  548MPD2    H7 8140   1.744   4.001  12.824  0.4036 -0.0138  2.8563
  549TMC3    C1 8141   1.546   3.887  12.929  1.0802 -0.4307  0.0299
  549TMC3    C2 8142   1.501   4.000  12.866 -0.3994 -0.2147  0.6898
  549TMC3    C3 8143   1.363   4.024  12.870  0.0142  0.1681 -0.0120
  549TMC3    C4 8144   1.459   3.821  13.015  0.3261 -0.5847  0.2540
  549TMC3    C5 8145   1.325   3.836  13.005  0.3507 -0.6841 -0.4740
  549TMC3    C6 8146   1.272   3.945  12.936  0.4224  0.3946  0.1673
  549TMC3     C 8147   1.669   3.823  12.891 -0.4446  0.0357 -0.3077
  549TMC3     O 8148   1.669   3.703  12.909 -0.5409 -0.5420 -0.1795
  549TMC3     H 8149   1.550   4.046  12.780  0.2739  0.4658  1.4446
  549TMC3    H1 8150   1.493   3.730  13.062  1.8632 -0.3031 -0.3044
  549TMC3    H2 8151   1.170   3.981  12.942  0.4153  0.6416 -1.4401
  549TMC3    C7 8152   1.232   3.766  13.089 -0.5173  0.1148  0.1385
  549TMC3    C8 8153   1.319   4.139  12.806  0.8434  0.3660 -0.0399
  549TMC3    O1 8154   1.134   3.826  13.132 -0.3591  0.0853 -0.1316
  549TMC3    O2 8155   1.223   4.129  12.724  0.3118 -0.3867  0.2782
  550TMC3    C1 8156   0.988   2.614  12.160  0.3962  0.6296 -0.3774
  550TMC3    C2 8157   1.010   2.715  12.250 -0.9353 -0.5053 -0.0234
  550TMC3    C3 8158   0.952   2.837  12.218 -0.8840  0.0976  0.5064
  550TMC3    C4 8159   0.932   2.626  12.040 -0.3322 -0.4881 -0.5100
  550TMC3    C5 8160   0.879   2.748  12.010  0.0632 -0.4149 -0.7915
  550TMC3    C6 8161   0.889   2.854  12.099  0.7547 -0.2167  0.6128
  550TMC3     C 8162   1.047   2.485  12.178 -0.1108  0.0596 -0.0112
  550TMC3     O 8163   1.159   2.481  12.228 -0.4437 -0.0212 -0.5808
  550TMC3     H 8164   1.079   2.691  12.330 -0.8508 -2.2671 -0.6257
  550TMC3    H1 8165   0.923   2.545  11.969 -0.1471 -0.8817 -0.0780
  550TMC3    H2 8166   0.855   2.951  12.066 -2.3324 -1.3039  0.5850
  550TMC3    C7 8167   0.786   2.752  11.898 -0.3571 -0.3606 -0.1681
  550TMC3    C8 8168   0.889   2.916  12.323 -0.3349  0.0753  1.2053
  550TMC3    O1 8169   0.748   2.642  11.859  0.2573  0.0451 -0.0011
  550TMC3    O2 8170   0.795   2.987  12.290  0.1678 -0.0702  0.2653
  551TMC3    C1 8171   2.903   0.528  13.540  0.0534 -0.0309  0.0179
  551TMC3    C2 8172   2.945   0.586  13.429 -0.4878  0.1102 -0.1977
  551TMC3    C3 8173   3.019   0.700  13.427  0.4000 -0.8112  0.4062
  551TMC3    C4 8174   2.921   0.586  13.657  0.1970  0.0549  0.6425
  551TMC3    C5 8175   2.997   0.700  13.658 -0.0889  0.5238  0.3061
  551TMC3    C6 8176   3.034   0.759  13.550 -0.1779  0.0764  0.2791
  551TMC3     C 8177   2.818   0.410  13.527  0.0328 -0.7354 -0.4227
  551TMC3     O 8178   2.756   0.407  13.422 -0.2871 -0.5171 -0.0347
  551TMC3     H 8179   2.928   0.537  13.334  2.2452 -0.5053 -0.3833
  551TMC3    H1 8180   2.886   0.536  13.747  1.8006  1.8550  2.3014
  551TMC3    H2 8181   3.104   0.840  13.567 -0.8768  0.5960  0.6851
  551TMC3    C7 8182   3.026   0.760  13.783  0.4559  0.3799 -0.6272
  551TMC3    C8 8183   3.001   0.786  13.315 -0.3821  0.4245  0.3479
  551TMC3    O1 8184   3.045   0.687  13.881 -0.3447  0.9444  0.0711
  551TMC3    O2 8185   2.966   0.724  13.218  0.0656  0.5314 -0.1455
  552MPD2     C 8186   0.005   2.604  13.535 -0.1725  0.0421  0.2341
  552MPD2    C1 8187   0.001   2.493  13.618  0.0497 -0.2119 -0.7350
  552MPD2    C2 8188   0.091   2.484  13.725 -0.3598 -0.3895 -0.1646
  552MPD2    C3 8189   0.181   2.584  13.754  0.6412 -0.1009 -0.7300
  552MPD2    C4 8190   0.183   2.695  13.667  0.1396 -0.2466  0.2535
  552MPD2    C5 8191   0.098   2.700  13.565  0.1412  0.1085 -0.3238
  552MPD2     H 8192   0.080   2.392  13.782  3.0219 -0.1965  0.7821
  552MPD2    H1 8193   0.255   2.776  13.676 -0.0041  0.1793 -2.4210
  552MPD2    H2 8194   4.660   2.622  13.455 -0.9890 -1.2680  0.6583
  552MPD2    H3 8195   0.101   2.791  13.506 -2.3317 -1.2763 -2.6285
  552MPD2     N 8196   0.270   2.578  13.859  0.2303 -0.6053  0.0018
  552MPD2    H5 8197   0.309   2.670  13.880 -0.3263 -0.4722  0.4498
  552MPD2    N1 8198   4.628   2.393  13.595 -0.1725  0.3178  0.0613
  552MPD2    H7 8199   4.635   2.313  13.658  1.7022  2.4712  2.5817
  553TMC3    C1 8200   4.541   2.241  13.442  0.7468  0.3061 -0.7965
  553TMC3    C2 8201   4.561   2.222  13.311  0.0272  0.3376  0.5314
  553TMC3    C3 8202   4.664   2.147  13.265  0.4165 -0.2026 -0.2835
  553TMC3    C4 8203   4.605   2.159  13.531  0.3859  0.2230 -0.9515
  553TMC3    C5 8204   4.710   2.089  13.485  0.3543 -0.0736 -0.2171
  553TMC3    C6 8205   0.018   2.088  13.355 -0.1737  0.0189  0.9319
  553TMC3     C 8206   4.564   2.375  13.469 -0.0692 -0.2537 -0.1775
  553TMC3     O 8207   4.558   2.447  13.370  0.2249  0.0559  0.8823
  553TMC3     H 8208   4.518   2.286  13.236 -2.3906 -0.9975  0.7771
  553TMC3    H1 8209   4.597   2.175  13.638 -1.8505 -0.0924 -1.0818
  553TMC3    H2 8210   0.108   2.046  13.312 -0.1435  2.0822 -1.0685
  553TMC3    C7 8211   0.106   2.113  13.561 -0.4284 -0.2441 -0.3604
  553TMC3    C8 8212   0.034   2.216  13.184  0.2553  0.1657  1.1781
  553TMC3    O1 8213   0.113   2.103  13.684 -0.4055 -0.0575 -0.0076
  553TMC3    O2 8214   0.116   2.293  13.239 -0.4046 -0.0337 -0.1916
  554TMC3    C1 8215   2.610   1.311  11.764 -0.0172 -0.0034 -0.2497
  554TMC3    C2 8216   2.529   1.218  11.715 -0.0481  0.1822 -0.4335
  554TMC3    C3 8217   2.518   1.218  11.578 -0.2862 -0.0493 -0.0076
  554TMC3    C4 8218   2.668   1.411  11.702 -0.0780  0.1520 -0.4791
  554TMC3    C5 8219   2.662   1.413  11.569  0.3706  0.1557  0.4428
  554TMC3    C6 8220   2.586   1.317  11.512  0.1241  0.7349 -0.2085
  554TMC3     C 8221   2.671   1.290  11.894  0.6201  0.2950 -0.3255
  554TMC3     O 8222   2.766   1.350  11.924 -0.0543  0.9513  0.0691
  554TMC3     H 8223   2.477   1.145  11.775 -1.1680  0.0589 -1.5634
  554TMC3    H1 8224   2.716   1.494  11.754  0.2773 -1.3897  1.6495
  554TMC3    H2 8225   2.583   1.331  11.405  1.1172 -1.2406 -0.5013
  554TMC3    C7 8226   2.662   1.539  11.489  0.1030  0.4177 -0.0853
  554TMC3    C8 8227   2.393   1.187  11.513 -0.6101  0.3514  0.1582
  554TMC3    O1 8228   2.694   1.519  11.370 -0.2819 -0.5194 -0.1454
  554TMC3    O2 8229   2.394   1.203  11.393 -0.2265  0.1682  0.0603
  555TMC3    C1 8230   1.525   1.166  15.117 -0.2855  0.3510  0.1861
  555TMC3    C2 8231   1.632   1.184  15.205 -0.6643 -0.6085  0.5859
  555TMC3    C3 8232   1.657   1.092  15.303 -0.0674 -0.0374 -0.0016
  555TMC3    C4 8233   1.436   1.061  15.129 -0.3759  0.2578 -0.8098
  555TMC3    C5 8234   1.466   0.972  15.227 -0.2770 -0.1051 -0.3252
  555TMC3    C6 8235   1.577   0.980  15.309 -0.1989 -0.0733  0.3119
  555TMC3     C 8236   1.484   1.281  15.032 -0.3269  0.3965  0.3189
  555TMC3     O 8237   1.567   1.371  15.021 -1.0530  0.4029  0.6936
  555TMC3     H 8238   1.705   1.255  15.169  2.3280 -3.8070  0.3676
  555TMC3    H1 8239   1.376   1.038  15.041 -4.1246  3.4871  0.8451
  555TMC3    H2 8240   1.599   0.903  15.382  1.9666  0.1894 -0.0725
  555TMC3    C7 8241   1.392   0.859  15.245 -0.2930  0.0145 -0.1586
  555TMC3    C8 8242   1.757   1.133  15.404 -0.4342  0.4773 -0.2878
  555TMC3    O1 8243   1.433   0.776  15.324 -0.4125 -0.4036 -0.2468
  555TMC3    O2 8244   1.840   1.218  15.371  0.3188  0.4029 -0.3417
  556MPD2     C 8245   4.225   2.314  10.671  0.0375  0.2020 -0.1895
  556MPD2    C1 8246   4.199   2.200  10.750 -0.4096  0.3936  0.0061
  556MPD2    C2 8247   4.145   2.093  10.682 -0.0402  0.1797  0.5255
  556MPD2    C3 8248   4.125   2.094  10.548 -0.2572 -0.2751 -0.3179
  556MPD2    C4 8249   4.141   2.211  10.476 -0.4736 -0.0693 -0.1662
  556MPD2    C5 8250   4.197   2.322  10.537  0.6055  0.5668 -0.8308
  556MPD2     H 8251   4.129   2.001  10.737  1.5499  0.0090  0.6840
  556MPD2    H1 8252   4.118   2.219  10.370 -0.0717  0.1727 -0.2371
  556MPD2    H2 8253   4.275   2.401  10.712  0.8120 -0.4147  0.1660
  556MPD2    H3 8254   4.217   2.416  10.488 -1.2514  1.0079 -0.7299
  556MPD2     N 8255   4.075   1.970  10.499 -0.5092  0.8914  0.1754
  556MPD2    H5 8256   4.055   1.896  10.565 -0.3082 -0.0984 -0.8820
  556MPD2    N1 8257   4.235   2.196  10.892 -0.1190  0.1975 -0.1048
  556MPD2    H7 8258   4.293   2.272  10.926  1.2347 -1.3578  1.0687
  557TMC3    C1 8259   4.017   1.810  10.335 -0.7618 -0.5092 -0.2035
  557TMC3    C2 8260   3.967   1.778  10.209  0.3661  0.2788 -0.6053
  557TMC3    C3 8261   3.944   1.643  10.182 -0.2765  0.0311  0.2119
  557TMC3    C4 8262   4.070   1.718  10.422  0.0635 -0.0724  0.4922
  557TMC3    C5 8263   4.053   1.588  10.377 -0.0479 -1.0808  0.6729
  557TMC3    C6 8264   3.995   1.546  10.262 -0.8619 -0.0577  0.6904
  557TMC3     C 8265   4.039   1.952  10.367  0.5093  0.1626 -0.0227
  557TMC3     O 8266   4.020   2.038  10.280  0.6428 -0.3784 -0.3519
  557TMC3     H 8267   3.915   1.853  10.151  0.4575 -0.4210 -1.5957
  557TMC3    H1 8268   4.134   1.740  10.507  0.3501 -1.0988  0.5472
  557TMC3    H2 8269   3.990   1.439  10.243  0.5770 -0.0629  0.3718
  557TMC3    C7 8270   4.034   1.489  10.480  0.0272  0.6084  0.0450
  557TMC3    C8 8271   3.852   1.607  10.082  0.3003  0.2260 -0.0675
  557TMC3    O1 8272   3.950   1.399  10.462 -0.1816 -0.2378  0.5721
  557TMC3    O2 8273   3.773   1.691  10.042  0.3774 -0.4010 -0.3052
  558TMC3    C1 8274   1.818   4.545  10.334  0.0603  0.2566  0.0839
  558TMC3    C2 8275   1.722   4.629  10.383  0.3309  0.1899 -0.2817
  558TMC3    C3 8276   1.593   4.594  10.358  0.1328  0.0693  0.4948
  558TMC3    C4 8277   1.786   4.443  10.247  0.0810 -0.2369  0.2235
  558TMC3    C5 8278   1.655   4.429  10.211 -0.6300  0.6221 -0.2301
  558TMC3    C6 8279   1.563   4.498  10.268  0.4584 -0.0845  0.0922
  558TMC3     C 8280   1.948   4.545  10.401 -0.1452 -0.8788  0.6271
  558TMC3     O 8281   1.991   4.658  10.425  0.1357  0.2913  0.2028
  558TMC3     H 8282   1.741   4.694  10.468  0.0060  0.6631 -0.5694
  558TMC3    H1 8283   1.864   4.387  10.197  0.6470 -0.9903  1.9255
  558TMC3    H2 8284   1.458   4.473  10.257  1.2900 -2.0969 -3.0451
  558TMC3    C7 8285   1.624   4.311  10.140 -0.1524 -0.0679 -0.6981
  558TMC3    C8 8286   1.486   4.636  10.448  0.5965  0.4530  0.2196
  558TMC3    O1 8287   1.708   4.223  10.134  0.7432  0.4301 -0.4819
  558TMC3    O2 8288   1.373   4.644  10.400 -0.2693 -0.4494  0.2059
  559MPD2     C 8289   1.937   0.891  10.884  0.1010  0.0128 -0.2114
  559MPD2    C1 8290   1.854   0.805  10.953 -0.7926  0.1739  0.0581
  559MPD2    C2 8291   1.896   0.747  11.072  0.0075 -0.1383 -0.4544
  559MPD2    C3 8292   2.008   0.790  11.134  0.0377 -0.2359  0.4621
  559MPD2    C4 8293   2.092   0.889  11.062 -0.0907  0.2315  0.2678
  559MPD2    C5 8294   2.059   0.926  10.931  0.5260  0.0355 -0.0259
  559MPD2     H 8295   1.835   0.685  11.136  1.4786 -1.1771 -0.0586
  559MPD2    H1 8296   2.189   0.921  11.098 -0.0968 -0.1637  0.6384
  559MPD2    H2 8297   1.900   0.929  10.789  0.4821 -3.0172 -1.5667
  559MPD2    H3 8298   2.119   1.000  10.881 -1.9580  0.6575 -2.0891
  559MPD2     N 8299   2.041   0.737  11.265 -0.0838  0.3218  0.1828
  559MPD2    H5 8300   1.974   0.667  11.296 -0.8129  0.9438  0.0316
  559MPD2    N1 8301   1.724   0.792  10.904 -0.1440 -0.0660  0.3625
  559MPD2    H7 8302   1.700   0.845  10.821  1.3425  1.1531  0.7064
  560TMC3    C1 8303   2.165   0.707  11.454 -0.6931  0.1366 -0.2949
  560TMC3    C2 8304   2.135   0.575  11.471  0.3797  0.3751  0.1135
  560TMC3    C3 8305   2.152   0.516  11.592  0.1721  0.2409 -0.2345
  560TMC3    C4 8306   2.222   0.775  11.556  0.0521  0.0673 -0.2135
  560TMC3    C5 8307   2.241   0.718  11.680 -0.1602  0.2037  0.8399
  560TMC3    C6 8308   2.198   0.588  11.704 -0.4334  0.3243  0.6144
  560TMC3     C 8309   2.156   0.776  11.326  0.0313 -0.1084  0.5817
  560TMC3     O 8310   2.239   0.862  11.309  0.2289  0.0806  0.0220
  560TMC3     H 8311   2.104   0.519  11.383 -0.5676 -0.8674  1.2399
  560TMC3    H1 8312   2.233   0.881  11.535  0.3778 -0.1191 -0.9664
  560TMC3    H2 8313   2.183   0.558  11.807 -0.0199 -1.6651  0.0930
  560TMC3    C7 8314   2.354   0.761  11.757 -0.1892  0.3508  0.3868
  560TMC3    C8 8315   2.094   0.380  11.607  0.7279  0.1059  0.4613
  560TMC3    O1 8316   2.372   0.735  11.874 -0.1989  0.0689  0.1667
  560TMC3    O2 8317   2.068   0.328  11.496 -0.6075  0.5632 -0.7391
  561TMC3    C1 8318   4.664   4.087  11.126  0.4002  0.4101 -0.0737
  561TMC3    C2 8319   4.613   3.999  11.224  0.2625 -0.2679 -0.1528
  561TMC3    C3 8320   4.524   4.052  11.315  0.3371  0.0354 -0.5458
  561TMC3    C4 8321   4.630   4.218  11.130  0.0241  0.2496  0.0772
  561TMC3    C5 8322   4.554   4.267  11.234  0.2421 -0.4676  0.1542
  561TMC3    C6 8323   4.508   4.184  11.327 -0.0728  1.0352  0.7109
  561TMC3     C 8324   0.013   4.033  11.016 -0.4254 -0.0436 -0.4032
  561TMC3     O 8325   0.013   4.103  10.919 -0.6143  0.6129 -0.0653
  561TMC3     H 8326   4.646   3.896  11.230 -1.9834 -1.0041 -0.5278
  561TMC3    H1 8327   4.665   4.284  11.051 -0.9271  0.0942 -0.4763
  561TMC3    H2 8328   4.452   4.226  11.410 -2.8228 -2.6751  0.7112
  561TMC3    C7 8329   4.504   4.407  11.240  0.0913 -0.2653 -0.0609
  561TMC3    C8 8330   4.459   3.961  11.408 -0.0316 -0.0343  0.1767
  561TMC3    O1 8331   4.396   4.415  11.292 -0.2886 -0.3841 -0.5081
  561TMC3    O2 8332   4.525   3.868  11.440  0.1240  0.1615 -0.2802
  562TMC3    C1 8333   1.533   1.291  15.609  0.4067 -0.3939  0.9002
  562TMC3    C2 8334   1.537   1.394  15.521 -0.1452  0.5884 -0.4586
  562TMC3    C3 8335   1.434   1.403  15.431  0.1724  0.2128  0.7864
  562TMC3    C4 8336   1.438   1.190  15.609 -0.0151  0.2517  0.2701
  562TMC3    C5 8337   1.346   1.197  15.509  0.0005  0.2909  0.2002
  562TMC3    C6 8338   1.343   1.304  15.422 -0.7974 -0.8829  0.5129
  562TMC3     C 8339   1.638   1.281  15.709  0.1058 -0.7362  0.0602
  562TMC3     O 8340   1.714   1.376  15.708  0.2205 -0.0876 -0.4627
  562TMC3     H 8341   1.597   1.484  15.526  0.4053  0.1517  0.7168
  562TMC3    H1 8342   1.453   1.097  15.664 -1.5078 -0.6155 -0.7684
  562TMC3    H2 8343   1.269   1.314  15.343 -1.0559 -1.1125  0.7287
  562TMC3    C7 8344   1.235   1.107  15.507 -0.4178  0.0682 -0.1312
  562TMC3    C8 8345   1.418   1.525  15.355  0.5098  0.6393 -0.0899
  562TMC3    O1 8346   1.150   1.127  15.419 -0.2361  0.1361 -0.6491
  562TMC3    O2 8347   1.525   1.572  15.316 -0.2604 -0.5310 -0.3292
  563MPD2     C 8348   3.280   3.126  15.836  0.4537 -0.1175  0.0523
  563MPD2    C1 8349   3.259   3.176  15.963  0.2142 -0.7606  0.1803
  563MPD2    C2 8350   3.376   3.205  16.035  0.6110 -0.9777  0.0740
  563MPD2    C3 8351   3.502   3.190  15.975  0.2835 -0.4652  0.1295
  563MPD2    C4 8352   3.515   3.155  15.845 -0.2300  0.4254 -0.5184
  563MPD2    C5 8353   3.405   3.128  15.769 -0.3424 -0.5130 -0.9390
  563MPD2     H 8354   3.374   3.228  16.141 -1.1994 -0.3806 -0.0947
  563MPD2    H1 8355   3.609   3.130  15.798  0.2825 -0.8311  1.1901
  563MPD2    H2 8356   3.201   3.102  15.767 -0.9585  1.1685  1.2045
  563MPD2    H3 8357   3.410   3.089  15.668  1.4253 -0.4154 -0.8831
  563MPD2     N 8358   3.608   3.219  16.064 -0.3305 -0.2871 -0.0616
  563MPD2    H5 8359   3.585   3.247  16.159  0.1469  1.9043 -0.5712
  563MPD2    N1 8360   3.124   3.172  16.013  0.5905  0.4979  0.1425
  563MPD2    H7 8361   3.052   3.140  15.949 -0.7418  0.5843  1.6125
  564TMC3    C1 8362   2.971   3.152  16.185  0.3015 -0.4142  0.0837
  564TMC3    C2 8363   2.896   3.072  16.104  0.2441  0.6012 -0.0019
  564TMC3    C3 8364   2.822   2.981  16.170 -0.0688 -0.5887 -0.7907
  564TMC3    C4 8365   2.963   3.141  16.322  0.3164 -0.1797  0.2923
  564TMC3    C5 8366   2.895   3.038  16.383  0.2811  0.0715  0.4820
  564TMC3    C6 8367   2.822   2.962  16.309 -0.7665 -0.3104  0.0599
  564TMC3     C 8368   3.093   3.216  16.140  0.8808 -0.4381 -0.2816
  564TMC3     O 8369   3.157   3.280  16.225 -0.0136 -1.0331  0.3189
  564TMC3     H 8370   2.908   3.066  15.996 -1.9844 -0.6763 -0.1709
  564TMC3    H1 8371   3.013   3.212  16.388  0.7430  0.2514 -0.5001
  564TMC3    H2 8372   2.765   2.885  16.359  1.3311 -0.7486  1.8131
  564TMC3    C7 8373   2.992   2.962  16.463  0.1136  0.0726 -0.5386
  564TMC3    C8 8374   2.797   2.857  16.097  0.7820 -0.1615  0.5581
  564TMC3    O1 8375   3.058   3.026  16.542  0.8708  0.3391  0.2084
  564TMC3    O2 8376   2.828   2.751  16.151 -0.6744  0.0615 -0.7781
  565TMC3    C1 8377   3.152   3.906  10.237  0.7148  0.3397 -0.8461
  565TMC3    C2 8378   3.120   3.779  10.196 -0.0699  0.3987  0.0383
  565TMC3    C3 8379   2.993   3.751  10.147  0.8105 -1.0257 -0.8463
  565TMC3    C4 8380   3.064   4.013  10.220  0.8857 -0.5649  0.2367
  565TMC3    C5 8381   2.950   3.985  10.157 -0.0508  0.2709  0.7331
  565TMC3    C6 8382   2.909   3.856  10.128  0.2203 -0.1705  0.5954
  565TMC3     C 8383   3.288   3.940  10.282 -0.6475 -0.6955 -0.6083
  565TMC3     O 8384   3.325   4.058  10.273 -0.6967 -0.5420  0.7905
  565TMC3     H 8385   3.195   3.702  10.191 -2.0383 -1.5463  0.5607
  565TMC3    H1 8386   3.085   4.111  10.263 -0.7847 -0.7815  1.5089
  565TMC3    H2 8387   2.835   3.836  10.051 -1.7606  0.7869  2.2709
  565TMC3    C7 8388   2.858   4.088  10.130 -0.0917 -0.0301  0.1572
  565TMC3    C8 8389   2.970   3.620  10.094 -0.0747  0.7373 -0.4041
  565TMC3    O1 8390   2.892   4.203  10.118  0.0192 -0.1227 -0.3017
  565TMC3    O2 8391   3.065   3.545  10.082 -0.2866  0.1482 -0.3741
  566MPD2     C 8392   0.038   0.829  14.545 -0.5222 -0.0431  0.2822
  566MPD2    C1 8393   0.071   0.915  14.438 -0.0372  0.0850  0.5024
  566MPD2    C2 8394   0.011   0.901  14.317 -0.4456  0.1409  0.0750
  566MPD2    C3 8395   4.674   0.782  14.285  0.1633  0.4045  0.0461
  566MPD2    C4 8396   4.647   0.693  14.384  0.0415 -0.3973 -0.1953
  566MPD2    C5 8397   4.683   0.727  14.511  0.0741 -0.2741 -0.3498
  566MPD2     H 8398   0.038   0.964  14.232  0.1337  1.4327  1.2082
  566MPD2    H1 8399   4.592   0.601  14.369  1.0195 -1.0377  0.0860
  566MPD2    H2 8400   0.060   0.842  14.650  1.1551  2.3197 -0.3579
  566MPD2    H3 8401   4.661   0.655  14.589 -3.1082 -0.2861 -1.2695
  566MPD2     N 8402   4.643   0.758  14.149  0.1891 -0.1056  0.4613
  566MPD2    H5 8403   4.684   0.828  14.089 -0.5687 -1.2123 -1.3378
  566MPD2    N1 8404   0.176   1.007  14.465 -0.5938  0.8571  0.5226
  566MPD2    H7 8405   0.221   0.999  14.556 -1.2704  0.2943  0.8118
  567TMC3    C1 8406   0.368   1.127  14.394 -0.0567  0.8371 -0.2577
  567TMC3    C2 8407   0.405   1.207  14.295  0.0370 -0.0305  0.6702
  567TMC3    C3 8408   0.538   1.206  14.257 -0.0821 -0.5048 -0.0975
  567TMC3    C4 8409   0.446   1.045  14.467  0.0816  0.5962 -0.1258
  567TMC3    C5 8410   0.580   1.050  14.431  0.0551 -0.4509  0.3503
  567TMC3    C6 8411   0.629   1.125  14.324 -0.1492  0.1124  0.1119
  567TMC3     C 8412   0.224   1.094  14.376  0.2214 -0.3162  0.3734
  567TMC3     O 8413   0.159   1.149  14.284 -0.2082  0.2318  0.1439
  567TMC3     H 8414   0.340   1.275  14.241 -0.6420 -1.7796 -0.7072
  567TMC3    H1 8415   0.406   0.968  14.532 -1.4911 -0.5157 -2.4138
  567TMC3    H2 8416   0.736   1.116  14.311  0.1448  3.0246  0.4849
  567TMC3    C7 8417   0.666   0.954  14.498 -1.1248  0.2151 -0.1070
  567TMC3    C8 8418   0.577   1.274  14.136  0.3359 -0.4118 -0.2153
  567TMC3    O1 8419   0.772   0.920  14.447  0.7996 -0.1432 -0.6295
  567TMC3    O2 8420   0.484   1.340  14.088 -1.0979 -0.3484  0.5796
  568MPD2     C 8421   2.974   1.630  16.287  0.5442 -0.6968 -0.3643
  568MPD2    C1 8422   2.922   1.693  16.397  0.0243  0.6422  0.1524
  568MPD2    C2 8423   2.830   1.793  16.376  0.5133  0.0255  0.2144
  568MPD2    C3 8424   2.784   1.833  16.250  0.7638  0.3737  0.0924
  568MPD2    C4 8425   2.844   1.762  16.150 -0.1234 -0.2015  0.8584
  568MPD2    C5 8426   2.937   1.660  16.161  0.2606 -0.1556 -0.5992
  568MPD2     H 8427   2.791   1.841  16.465  0.1799 -3.3587  1.9261
  568MPD2    H1 8428   2.809   1.794  16.052 -0.1622 -1.0147  0.6039
  568MPD2    H2 8429   3.041   1.545  16.294 -1.7123 -2.4291 -0.1736
  568MPD2    H3 8430   2.973   1.615  16.069 -0.2777 -1.1583 -0.3219
  568MPD2     N 8431   2.690   1.937  16.230  0.2320 -0.4638  0.0665
  568MPD2    H5 8432   2.673   1.990  16.315  2.5612  0.1557  0.1636
  568MPD2    N1 8433   2.963   1.642  16.520  0.0264  0.6358 -0.4166
  568MPD2    H7 8434   3.041   1.579  16.508 -1.3369 -1.0842 -0.1584
  569TMC3    C1 8435   2.563   2.106  16.105 -0.1931  0.1943 -0.2307
  569TMC3    C2 8436   2.546   2.183  16.217  0.1885 -0.3143 -0.5830
  569TMC3    C3 8437   2.450   2.286  16.213 -0.3996 -0.7170  0.2201
  569TMC3    C4 8438   2.509   2.153  15.983  0.3811 -0.0354  0.2171
  569TMC3    C5 8439   2.417   2.257  15.984 -0.1799 -0.3497 -0.2193
  569TMC3    C6 8440   2.380   2.314  16.101 -0.5229 -0.5210  0.0471
  569TMC3     C 8441   2.642   1.977  16.108  0.0785 -0.0986  0.2454
  569TMC3     O 8442   2.650   1.921  16.000 -0.7711 -0.0386  0.0576
  569TMC3     H 8443   2.575   2.142  16.313 -0.4870  0.8588  0.1250
  569TMC3    H1 8444   2.514   2.095  15.892  0.9871 -0.9188  0.8176
  569TMC3    H2 8445   2.302   2.389  16.108  0.6721  0.6852  0.4463
  569TMC3    C7 8446   2.450   2.357  15.885 -0.2680 -0.3373 -0.0955
  569TMC3    C8 8447   2.485   2.402  16.289 -0.7172  0.0674  0.1353
  569TMC3    O1 8448   2.474   2.316  15.774  0.0913 -0.4555 -0.2985
  569TMC3    O2 8449   2.456   2.507  16.229 -0.0963 -0.1428  0.8878
  570TMC3    C1 8450   2.253   0.403  16.269  0.6657 -0.1036  0.1680
  570TMC3    C2 8451   2.282   0.416  16.137  0.0925 -0.0160  0.2531
  570TMC3    C3 8452   2.306   0.538  16.082 -0.4278  0.3525 -0.1827
  570TMC3    C4 8453   2.271   0.516  16.351 -0.2963 -0.0535 -0.0745
  570TMC3    C5 8454   2.300   0.638  16.302  0.3117  0.6474 -0.4868
  570TMC3    C6 8455   2.320   0.649  16.164 -0.1341  0.6344  0.1142
  570TMC3     C 8456   2.160   0.301  16.316  0.0707 -0.4551 -0.5149
  570TMC3     O 8457   2.125   0.229  16.226  0.2530  0.3391  0.2402
  570TMC3     H 8458   2.268   0.328  16.074 -0.0054  0.1265  0.0758
  570TMC3    H1 8459   2.263   0.509  16.459  0.7903 -0.2851 -0.0148
  570TMC3    H2 8460   2.347   0.743  16.117 -0.0417  0.1459 -0.8095
  570TMC3    C7 8461   2.272   0.756  16.379  0.2631  0.0789 -0.4701
  570TMC3    C8 8462   2.355   0.549  15.945  0.2483  0.0940 -0.0260
  570TMC3    O1 8463   2.300   0.740  16.501 -0.5098  0.1708 -0.1533
  570TMC3    O2 8464   2.389   0.661  15.905  0.2156 -0.6530 -0.1897
  571MPD2     C 8465   4.405   1.344   0.196  0.0658 -0.6285  0.0846
  571MPD2    C1 8466   4.367   1.447   0.280 -0.8273  0.2367  0.2602
  571MPD2    C2 8467   4.408   1.576   0.264 -0.0902  0.2390  0.5768
  571MPD2    C3 8468   4.496   1.608   0.161  0.1728  0.0872 -0.1386
  571MPD2    C4 8469   4.535   1.503   0.074 -0.2542  0.0232 -0.2877
  571MPD2    C5 8470   4.492   1.373   0.097  0.5257 -0.0429 -0.4373
  571MPD2     H 8471   4.368   1.658   0.324 -0.8766 -0.0209  0.4018
  571MPD2    H1 8472   4.605   1.523  17.696  0.2798  0.7865  0.3691
  571MPD2    H2 8473   4.355   1.249   0.211 -0.6082 -0.0063  1.7543
  571MPD2    H3 8474   4.511   1.301   0.018 -1.8341 -1.1221 -0.0217
  571MPD2     N 8475   4.538   1.737   0.141 -0.8334 -0.0561 -0.7570
  571MPD2    H5 8476   4.595   1.765   0.062  1.7449  1.5809  1.6926
  571MPD2    N1 8477   4.281   1.422   0.395 -0.3593  0.1819  0.4653
  571MPD2    H7 8478   4.264   1.326   0.424  1.2899 -0.3128 -0.1893
  572TMC3    C1 8479   4.567   1.969   0.188 -0.0524  0.1426 -0.4186
  572TMC3    C2 8480   4.677   1.968   0.102 -0.6197  0.5817 -0.4492
  572TMC3    C3 8481   0.018   2.086   0.095  0.1492 -0.7889 -0.2225
  572TMC3    C4 8482   4.508   2.087   0.234 -0.2111  0.2113  0.5081
  572TMC3    C5 8483   4.569   2.201   0.195  0.1340 -0.3677 -0.1531
  572TMC3    C6 8484   4.685   2.202   0.124 -0.0528 -0.3220  0.3097
  572TMC3     C 8485   4.510   1.844   0.229  0.1887 -0.3548  0.8236
  572TMC3     O 8486   4.467   1.845   0.344 -0.4675 -0.0108 -0.5592
  572TMC3     H 8487   0.014   1.881   0.088 -1.5364 -0.2733  0.7021
  572TMC3    H1 8488   4.410   2.085   0.278  0.4513  0.0518  1.9771
  572TMC3    H2 8489   0.012   2.297   0.116 -1.2695  0.4351  1.2769
  572TMC3    C7 8490   4.576   2.297   0.306 -0.4265  0.3336 -0.1379
  572TMC3    C8 8491   0.170   2.078   0.097  0.1805  0.5339  0.2389
  572TMC3    O1 8492   4.599   2.263   0.420 -0.4259 -0.0260 -0.3254
  572TMC3    O2 8493   0.227   1.980   0.053  0.2358 -0.5016 -0.2096
  573MPD2     C 8494   1.151   3.035   0.917 -0.7750  0.6196  0.2313
  573MPD2    C1 8495   1.032   3.089   0.958 -0.2258 -0.1944 -0.2192
  573MPD2    C2 8496   0.926   3.080   0.869 -0.8866 -0.0603 -0.3668
  573MPD2    C3 8497   0.935   3.018   0.744 -1.1078 -0.4358  0.1229
  573MPD2    C4 8498   1.058   2.968   0.708  0.4165  0.0495 -0.1239
  573MPD2    C5 8499   1.161   2.976   0.796 -0.4985 -0.3453  0.1782
  573MPD2     H 8500   0.832   3.128   0.890 -0.4785 -0.5482  2.5660
  573MPD2    H1 8501   1.080   2.920   0.613  0.3564  0.5023 -0.3641
  573MPD2    H2 8502   1.226   3.019   0.994 -1.6194  0.9199  1.1099
  573MPD2    H3 8503   1.261   2.943   0.773 -0.1070  1.1942 -0.2995
  573MPD2     N 8504   0.834   3.037   0.642  0.4353 -0.6198 -0.0255
  573MPD2    H5 8505   0.857   3.016   0.546 -2.3126  1.5850 -1.1829
  573MPD2    N1 8506   1.022   3.165   1.081  0.0955  0.9109  0.2201
  573MPD2    H7 8507   1.115   3.183   1.119 -0.1265 -0.5887  1.4902
  574TMC3    C1 8508   0.606   3.053   0.554  0.5531  0.5741 -0.2415
  574TMC3    C2 8509   0.470   3.067   0.572  0.4127  0.8092 -0.9490
  574TMC3    C3 8510   0.395   3.071   0.461 -0.3717 -0.0079  0.0450
  574TMC3    C4 8511   0.669   3.048   0.431  0.1635  0.2146  0.2001
  574TMC3    C5 8512   0.584   3.047   0.328 -0.2874  0.3000 -0.2345
  574TMC3    C6 8513   0.451   3.058   0.337 -0.0093  0.5345 -0.3659
  574TMC3     C 8514   0.697   3.066   0.664 -0.3727 -0.3095 -0.3083
  574TMC3     O 8515   0.632   3.077   0.772  0.2278 -0.8395  0.0441
  574TMC3     H 8516   0.437   3.089   0.673  0.4251 -0.3106 -0.7002
  574TMC3    H1 8517   0.774   3.052   0.404 -0.3010 -1.7844 -1.9604
  574TMC3    H2 8518   0.396   3.051   0.243  1.1328 -1.1616 -0.9163
  574TMC3    C7 8519   0.652   3.035   0.198 -0.3483  0.7297 -0.5388
  574TMC3    C8 8520   0.247   3.085   0.474 -0.1562  0.0997 -0.0614
  574TMC3    O1 8521   0.748   2.958   0.195 -0.3514  0.2026  0.3115
  574TMC3    O2 8522   0.187   3.069   0.577 -0.0657 -0.3284 -0.2511
  575TMC3    C1 8523   3.238   2.855   9.992  0.2633 -0.2367 -0.6875
  575TMC3    C2 8524   3.150   2.752  10.015 -0.2802  0.6964  0.5056
  575TMC3    C3 8525   3.013   2.768   9.991  0.8292 -0.1274 -0.2331
  575TMC3    C4 8526   3.198   2.976   9.933 -0.7713  0.2306  0.0096
  575TMC3    C5 8527   3.065   2.987   9.910 -0.9727 -0.8381  0.1209
  575TMC3    C6 8528   2.970   2.880   9.931 -0.1761 -0.3214 -0.6568
  575TMC3     C 8529   3.378   2.844  10.031 -0.2410 -0.8711 -1.0369
  575TMC3     O 8530   3.393   2.736  10.095 -0.1267 -0.7209 -0.5064
  575TMC3     H 8531   3.187   2.667  10.072 -2.8461  0.6111  2.0570
  575TMC3    H1 8532   3.265   3.049   9.891  1.3408 -0.7954  1.6173
  575TMC3    H2 8533   2.866   2.900   9.907 -0.2667  1.8830  1.6533
  575TMC3    C7 8534   3.019   3.118   9.919 -0.0468 -0.4764 -0.0460
  575TMC3    C8 8535   2.912   2.662  10.002 -0.3270  0.3404 -0.4384
  575TMC3    O1 8536   3.105   3.192   9.970  0.8050 -0.0113  0.1538
  575TMC3    O2 8537   2.792   2.682   9.988 -0.8709 -0.3570  0.1264
  576MPD2     C 8538   3.664   4.339  12.480  0.1520 -0.3498 -0.2670
  576MPD2    C1 8539   3.744   4.411  12.393 -0.4218 -0.0665  0.6227
  576MPD2    C2 8540   3.869   4.453  12.438 -0.1637  0.2653  0.3249
  576MPD2    C3 8541   3.913   4.429  12.565 -0.9315 -0.0899  0.9822
  576MPD2    C4 8542   3.825   4.363  12.654  0.8919 -0.1767 -0.1548
  576MPD2    C5 8543   3.704   4.321  12.605  0.3109 -0.0585  0.3854
  576MPD2     H 8544   3.935   4.496  12.364 -0.6256  0.6336  0.1244
  576MPD2    H1 8545   3.850   4.339  12.757  0.3231  0.4255  0.1304
  576MPD2    H2 8546   3.564   4.318  12.444 -0.4829 -0.5651  1.5974
  576MPD2    H3 8547   3.651   4.257  12.674 -1.6175 -1.0508 -1.9837
  576MPD2     N 8548   4.042   4.456  12.599 -0.6309  0.1915  0.5694
  576MPD2    H5 8549   4.092   4.509  12.528  1.0539 -2.4492 -0.2096
  576MPD2    N1 8550   3.726   4.421  12.253  0.0283 -0.0793 -0.5740
  576MPD2    H7 8551   3.790   4.481  12.201 -1.6839  1.1326 -1.2767
  577TMC3    C1 8552   3.695   4.323  12.044  0.0259 -0.0473 -0.3149
  577TMC3    C2 8553   3.730   4.198  11.998  0.7535 -0.1478 -0.6537
  577TMC3    C3 8554   3.809   4.204  11.889 -0.2425 -0.2958  0.2480
  577TMC3    C4 8555   3.711   4.442  11.972 -0.5233  0.3808 -0.2285
  577TMC3    C5 8556   3.781   4.432  11.857  0.2312 -0.0675  0.5726
  577TMC3    C6 8557   3.829   4.315  11.814  0.5930  0.1468 -0.0815
  577TMC3     C 8558   3.641   4.341  12.178  1.0270  0.0702 -0.7578
  577TMC3     O 8559   3.562   4.261  12.228 -0.1027 -0.7433 -0.0008
  577TMC3     H 8560   3.719   4.104  12.051  1.9752 -0.5741 -1.1536
  577TMC3    H1 8561   3.666   4.537  12.000  0.4180  0.5890  0.5643
  577TMC3    H2 8562   3.886   4.316  11.721  0.5180  2.0451 -0.1084
  577TMC3    C7 8563   3.806   4.543  11.767 -0.0603  0.6429 -0.0999
  577TMC3    C8 8564   3.892   4.091  11.860 -0.1459 -0.5355  0.3013
  577TMC3    O1 8565   3.920   4.543  11.721 -0.3087  0.1361  0.1313
  577TMC3    O2 8566   3.887   3.994  11.934 -0.0342  0.1601 -0.1372
  578MPD2     C 8567   1.589   0.751   0.151 -0.1829 -0.5326  0.0030
  578MPD2    C1 8568   1.655   0.786   0.263 -0.0358  0.6067 -0.1990
  578MPD2    C2 8569   1.717   0.689   0.337  0.4873 -0.2810 -0.2511
  578MPD2    C3 8570   1.723   0.560   0.294 -0.8780  0.1265  0.6234
  578MPD2    C4 8571   1.641   0.522   0.187  1.0376 -0.7852 -0.2423
  578MPD2    C5 8572   1.582   0.623   0.113  0.1058 -0.6627 -0.0999
  578MPD2     H 8573   1.763   0.726   0.429 -1.4667  0.8333  0.2827
  578MPD2    H1 8574   1.640   0.422   0.147 -1.6588 -0.4579 -1.0006
  578MPD2    H2 8575   1.554   0.824   0.079 -0.0011 -0.1421  0.3046
  578MPD2    H3 8576   1.538   0.599   0.016  0.5871 -1.5642 -0.0928
  578MPD2     N 8577   1.798   0.468   0.374 -0.5562  0.2429 -0.2880
  578MPD2    H5 8578   1.876   0.512   0.420 -0.4150  0.9503 -1.1956
  578MPD2    N1 8579   1.646   0.921   0.307 -0.4237 -0.2148 -0.3585
  578MPD2    H7 8580   1.699   0.937   0.393  0.6099  0.2789 -1.0915
  579TMC3    C1 8581   1.853   0.265   0.491 -0.8526  0.2385  0.2287
  579TMC3    C2 8582   1.936   0.336   0.575 -0.4571 -0.3086  0.3298
  579TMC3    C3 8583   1.958   0.293   0.702 -0.5376  0.2955  0.4076
  579TMC3    C4 8584   1.786   0.151   0.534 -0.6178 -0.0263 -0.2030
  579TMC3    C5 8585   1.810   0.113   0.666 -0.4401  0.6449  0.0537
  579TMC3    C6 8586   1.894   0.179   0.745  0.5744  0.1452  0.6762
  579TMC3     C 8587   1.771   0.336   0.394 -0.8945 -0.2260 -0.6433
  579TMC3     O 8588   1.682   0.271   0.343 -0.0553  0.3692  0.3065
  579TMC3     H 8589   1.967   0.438   0.552  1.1669 -1.3387 -2.0626
  579TMC3    H1 8590   1.730   0.090   0.464  0.3712  0.5197 -1.4591
  579TMC3    H2 8591   1.913   0.147   0.847 -0.5431  2.7875  1.7024
  579TMC3    C7 8592   1.726   4.725   0.723  0.2774 -0.4272 -0.1212
  579TMC3    C8 8593   2.021   0.374   0.808  0.1770  0.2353 -0.1362
  579TMC3    O1 8594   1.770   4.685   0.831 -0.0923  0.0424 -0.0429
  579TMC3    O2 8595   1.989   0.360   0.928  0.7221  0.0795  0.1716
  580TMC3    C1 8596   1.930   3.536  12.472 -0.7600  0.7207 -0.0148
  580TMC3    C2 8597   2.044   3.524  12.405 -1.2546 -0.6000  0.3467
  580TMC3    C3 8598   2.128   3.420  12.432  0.2309  0.0958  0.1787
  580TMC3    C4 8599   1.876   3.437  12.551  0.0129 -0.2482 -0.8444
  580TMC3    C5 8600   1.948   3.325  12.570  0.5362  0.0050 -0.0383
  580TMC3    C6 8601   2.076   3.319  12.513  0.0624  1.1571  0.5718
  580TMC3     C 8602   1.845   3.645  12.419  0.0564 -0.2686 -0.7845
  580TMC3     O 8603   1.891   3.705  12.318  0.2178  0.3508 -0.3678
  580TMC3     H 8604   2.087   3.608  12.351 -1.4735 -0.0981  0.9495
  580TMC3    H1 8605   1.771   3.433  12.576  0.4916 -2.2856  0.8670
  580TMC3    H2 8606   2.138   3.232  12.530 -0.9314  0.6300  1.4465
  580TMC3    C7 8607   1.908   3.230  12.673 -0.0680  0.4058  0.3439
  580TMC3    C8 8608   2.228   3.376  12.333  1.2677  0.0595  0.1480
  580TMC3    O1 8609   1.820   3.268  12.747 -0.3029  0.2045 -0.0815
  580TMC3    O2 8610   2.289   3.278  12.372 -0.1433 -0.0127 -0.2604
  581MPD2     C 8611   3.892   4.103  14.753 -0.1201  0.3574 -0.1471
  581MPD2    C1 8612   3.882   4.159  14.883 -0.3093  0.1461  0.0411
  581MPD2    C2 8613   3.765   4.222  14.914  0.4012 -0.7345  0.5250
  581MPD2    C3 8614   3.662   4.236  14.817  0.6049 -0.1999 -0.2225
  581MPD2    C4 8615   3.671   4.171  14.694 -0.1762  0.0549  0.5986
  581MPD2    C5 8616   3.786   4.103  14.667  0.1444 -0.0014  1.2331
  581MPD2     H 8617   3.752   4.276  15.008 -2.2147 -1.7365  0.7477
  581MPD2    H1 8618   3.593   4.185  14.620  0.9777  0.5403 -0.5149
  581MPD2    H2 8619   3.982   4.051  14.722  0.5302  0.0059  2.2953
  581MPD2    H3 8620   3.796   4.056  14.569 -0.8909 -0.0361  1.1406
  581MPD2     N 8621   3.552   4.332  14.840 -0.0839  0.3170 -0.4534
  581MPD2    H5 8622   3.555   4.389  14.924  0.9965 -0.0574 -0.2338
  581MPD2    N1 8623   3.988   4.137  14.974 -0.1206 -0.0113  0.0156
  581MPD2    H7 8624   4.063   4.079  14.940 -0.4695  0.8424 -2.2519
  582TMC3    C1 8625   4.089   4.102  15.183  0.4852 -0.4872 -0.3479
  582TMC3    C2 8626   4.103   4.133  15.315  0.1042  0.3398 -0.2500
  582TMC3    C3 8627   4.129   4.031  15.400  0.6393 -0.3057 -0.1003
  582TMC3    C4 8628   4.112   3.976  15.139 -0.2480 -0.4428 -0.9236
  582TMC3    C5 8629   4.136   3.872  15.235  0.1306 -0.3591 -0.3674
  582TMC3    C6 8630   4.148   3.902  15.366 -0.0988 -0.1013 -0.0582
  582TMC3     C 8631   3.983   4.170  15.112 -0.0699 -0.7556  0.3709
  582TMC3     O 8632   3.893   4.214  15.181 -0.2013 -0.8326 -0.1287
  582TMC3     H 8633   4.066   4.226  15.357  0.2338  0.5422 -0.5790
  582TMC3    H1 8634   4.134   3.953  15.035 -1.7413 -3.8806 -0.4523
  582TMC3    H2 8635   4.171   3.821  15.434  0.3591  1.6685  1.8874
  582TMC3    C7 8636   4.130   3.733  15.205  1.1617 -0.5531  0.3174
  582TMC3    C8 8637   4.090   4.061  15.537 -0.2456  0.7580  0.8087
  582TMC3    O1 8638   4.219   3.668  15.262 -0.7912  0.1123  0.5904
  582TMC3    O2 8639   4.129   4.170  15.578 -0.1253 -0.2617  0.0103
  583MPD2     C 8640   4.156   0.770  16.808  0.5767  0.8976  0.1104
  583MPD2    C1 8641   4.199   0.875  16.735  0.1380 -0.4930 -0.5790
  583MPD2    C2 8642   4.156   1.000  16.777  0.0244 -0.5991 -0.4686
  583MPD2    C3 8643   4.088   1.021  16.895  0.5522 -0.2930 -0.0495
  583MPD2    C4 8644   4.029   0.912  16.957 -0.1342 -0.0324 -0.0631
  583MPD2    C5 8645   4.068   0.784  16.919 -0.2870  0.2795 -0.0280
  583MPD2     H 8646   4.182   1.087  16.718 -2.9155 -0.5126 -1.6376
  583MPD2    H1 8647   3.953   0.910  17.035 -1.1523  1.1874 -1.0145
  583MPD2    H2 8648   4.177   0.667  16.781  0.1734  1.7150 -3.3099
  583MPD2    H3 8649   4.032   0.692  16.964  1.0218 -0.6666 -0.9255
  583MPD2     N 8650   4.049   1.148  16.941 -0.4347  1.0413 -0.0227
  583MPD2    H5 8651   4.084   1.218  16.876  0.5079 -0.7625 -1.4620
  583MPD2    N1 8652   4.291   0.863  16.634  0.1133  0.0728  0.4446
  583MPD2    H7 8653   4.321   0.952  16.595  0.3691 -0.7608 -1.2855
  584TMC3    C1 8654   3.974   1.315  17.086 -0.1703 -0.2845  1.1745
  584TMC3    C2 8655   3.953   1.398  16.982 -0.7397  0.0258 -0.4160
  584TMC3    C3 8656   3.892   1.518  17.005  0.4492  0.3326 -0.4494
  584TMC3    C4 8657   3.936   1.350  17.216  0.3648  0.1485  0.0290
  584TMC3    C5 8658   3.883   1.475  17.235 -0.6091  0.4850  0.0281
  584TMC3    C6 8659   3.850   1.554  17.131  0.0728 -0.1182  0.2470
  584TMC3     C 8660   4.001   1.173  17.070  0.5923 -0.2436 -0.2555
  584TMC3     O 8661   4.005   1.098  17.167 -0.4821 -0.2797 -0.3713
  584TMC3     H 8662   3.970   1.368  16.879 -2.4368  1.4594 -1.1197
  584TMC3    H1 8663   3.935   1.269  17.288 -2.0944  1.3716  1.3670
  584TMC3    H2 8664   3.809   1.655  17.129  0.8973  0.1966 -0.4809
  584TMC3    C7 8665   3.848   1.503  17.379 -0.4097  0.3464 -0.6585
  584TMC3    C8 8666   3.913   1.632  16.918  0.5301  0.0821 -0.2839
  584TMC3    O1 8667   3.871   1.414  17.467  0.0270 -0.2110  0.0700
  584TMC3    O2 8668   4.024   1.685  16.912 -0.1226  0.5585  0.0978
  585MPD2     C 8669   3.560   0.634   0.497  0.4080 -0.9735  0.0415
  585MPD2    C1 8670   3.637   0.601   0.391 -0.0487  0.5923 -0.5468
  585MPD2    C2 8671   3.606   0.487   0.324 -0.0581  0.0435  0.1437
  585MPD2    C3 8672   3.487   0.418   0.355 -0.3113 -0.6406 -0.0860
  585MPD2    C4 8673   3.404   0.455   0.459  1.1574 -0.5363 -0.6411
  585MPD2    C5 8674   3.444   0.563   0.526  0.3662  0.0767  0.5275
  585MPD2     H 8675   3.678   0.452   0.252 -1.2367 -1.4450 -0.3191
  585MPD2    H1 8676   3.308   0.413   0.488  1.6432 -0.4336  1.1167
  585MPD2    H2 8677   3.582   0.719   0.559  1.4321 -0.8380 -0.5141
  585MPD2    H3 8678   3.387   0.602   0.610  1.6695  0.4551  1.2439
  585MPD2     N 8679   3.433   0.324   0.270 -0.9188  0.9347 -0.5929
  585MPD2    H5 8680   3.334   0.310   0.285 -0.5193  0.6220  1.6998
  585MPD2    N1 8681   3.751   0.680   0.352  0.1128  0.0308 -0.1750
  585MPD2    H7 8682   3.795   0.735   0.425 -1.0512  1.1498 -0.3120
  586TMC3    C1 8683   3.404   0.192   0.080  0.0758 -0.1377 -1.1652
  586TMC3    C2 8684   3.472   0.147  17.669 -0.3487 -0.5306 -0.7769
  586TMC3    C3 8685   3.395   0.071  17.587 -1.2306  0.0986  0.2100
  586TMC3    C4 8686   3.268   0.176   0.110  1.1612  0.8010 -0.7224
  586TMC3    C5 8687   3.195   0.106   0.014 -0.2182  0.4440 -0.6272
  586TMC3    C6 8688   3.258   0.050  17.603  0.0773 -0.4008 -0.2746
  586TMC3     C 8689   3.494   0.259   0.168 -0.8105  0.1132  0.2036
  586TMC3     O 8690   3.617   0.246   0.162  0.3457 -0.3983 -0.1516
  586TMC3     H 8691   3.581   0.147  17.661 -0.2954 -0.0134 -0.1189
  586TMC3    H1 8692   3.232   0.202   0.209  3.3055 -4.2969  1.3953
  586TMC3    H2 8693   3.191   0.005  17.531  0.8767  0.0718 -1.2989
  586TMC3    C7 8694   3.056   0.069   0.045 -0.1866  0.0931 -0.1146
  586TMC3    C8 8695   3.467   4.708  17.499  0.3742 -0.0080 -0.3131
  586TMC3    O1 8696   3.016   4.697  17.682  0.6119 -0.6301 -0.5894
  586TMC3    O2 8697   3.582   4.725  17.466  0.1740  0.7159 -0.9811
  587TMC3    C1 8698   0.823   3.703  16.772  0.5507  0.2580 -0.4015
  587TMC3    C2 8699   0.728   3.787  16.829  0.0915 -0.7282  0.5706
  587TMC3    C3 8700   0.773   3.878  16.916  0.3707 -0.2337  0.4486
  587TMC3    C4 8701   0.962   3.705  16.801  0.1098 -0.1004 -0.4986
  587TMC3    C5 8702   0.998   3.807  16.886  1.3737 -0.5012 -0.6649
  587TMC3    C6 8703   0.910   3.887  16.943 -0.5218  0.4393 -0.8334
  587TMC3     C 8704   0.772   3.573  16.731 -0.2005 -0.0818  0.6202
  587TMC3     O 8705   0.842   3.474  16.754  0.2793 -0.3538  0.0245
  587TMC3     H 8706   0.623   3.763  16.819 -0.2808  0.8736  0.7752
  587TMC3    H1 8707   1.033   3.632  16.764 -1.1747 -0.8194 -1.5484
  587TMC3    H2 8708   0.946   3.959  17.015 -0.4377 -1.6671  1.2122
  587TMC3    C7 8709   1.135   3.807  16.928  0.5719 -0.1164  0.0032
  587TMC3    C8 8710   0.689   3.919  17.024  0.5594  0.0302 -0.7897
  587TMC3    O1 8711   1.157   3.861  17.037  0.5849 -0.1204  0.5140
  587TMC3    O2 8712   0.736   3.918  17.138 -0.2745 -0.0442 -0.8789
  588TMC3    C1 8713   3.085   0.768  10.165  0.0232 -0.6981  0.7073
  588TMC3    C2 8714   3.107   0.654  10.098 -0.4153  0.2903 -0.1135
  588TMC3    C3 8715   3.201   0.568  10.137 -0.1134  0.6440 -0.2933
  588TMC3    C4 8716   3.169   0.793  10.268  0.1867 -0.4701  0.3971
  588TMC3    C5 8717   3.270   0.702  10.305  0.0453  0.6408  0.1040
  588TMC3    C6 8718   3.290   0.588  10.234 -0.2268 -0.1857 -0.0258
  588TMC3     C 8719   3.031   0.878  10.088 -0.0652  0.5335  0.0015
  588TMC3     O 8720   2.957   0.855   9.990 -0.5840 -0.6216 -0.4628
  588TMC3     H 8721   3.035   0.630  10.021  0.6031 -0.6853 -0.7609
  588TMC3    H1 8722   3.151   0.885  10.321 -1.1739 -1.0191  0.8864
  588TMC3    H2 8723   3.356   0.513  10.276 -1.7177  0.9322  4.3319
  588TMC3    C7 8724   3.389   0.756  10.369  0.1925  0.0803  0.6197
  588TMC3    C8 8725   3.178   0.432  10.084  0.5069  0.1337  0.4666
  588TMC3    O1 8726   3.469   0.681  10.429 -0.2148  0.2028 -0.1280
  588TMC3    O2 8727   3.068   0.409  10.036  0.3524 -0.2445 -0.2561
  589TMC3    C1 8728   2.139   3.318   1.444 -0.1694  0.8373  0.4567
  589TMC3    C2 8729   2.235   3.314   1.533  0.6691 -0.0241  0.2047
  589TMC3    C3 8730   2.330   3.215   1.522 -0.4337 -0.0557  0.1345
  589TMC3    C4 8731   2.127   3.232   1.332  0.5150 -0.0698  0.0837
  589TMC3    C5 8732   2.230   3.141   1.322  0.3215  0.1440  0.5798
  589TMC3    C6 8733   2.334   3.135   1.401 -0.6244  0.4132  0.8346
  589TMC3     C 8734   2.045   3.428   1.440  0.1681  0.2725  0.6228
  589TMC3     O 8735   1.995   3.463   1.331 -0.3967 -0.6531 -0.2626
  589TMC3     H 8736   2.247   3.382   1.616  1.4069 -0.5520  0.5196
  589TMC3    H1 8737   2.043   3.240   1.264  1.8432 -0.4986 -1.6042
  589TMC3    H2 8738   2.398   3.049   1.384 -2.6012 -0.5762 -1.6450
  589TMC3    C7 8739   2.221   3.074   1.197  1.0013  0.0670 -0.3042
  589TMC3    C8 8740   2.426   3.201   1.629 -0.2137 -0.5407  0.1035
  589TMC3    O1 8741   2.115   3.066   1.143 -0.1704 -0.0972  0.0138
  589TMC3    O2 8742   2.404   3.274   1.726  0.3644 -0.3347 -0.5407
  590MPD2     C 8743   1.248   2.337  16.603 -0.3769  1.0781  0.0653
  590MPD2    C1 8744   1.343   2.247  16.550 -0.3074  1.1307  0.5897
  590MPD2    C2 8745   1.449   2.295  16.479 -0.7616 -1.0059 -0.1476
  590MPD2    C3 8746   1.458   2.433  16.447 -0.6336 -0.5104 -0.3226
  590MPD2    C4 8747   1.358   2.519  16.496 -0.7489 -0.1346 -0.2786
  590MPD2    C5 8748   1.264   2.472  16.582  0.2178 -0.2709  0.1749
  590MPD2     H 8749   1.518   2.233  16.423 -1.8988 -2.4924  0.0942
  590MPD2    H1 8750   1.346   2.626  16.487  0.1995  0.1131  1.4032
  590MPD2    H2 8751   1.166   2.311  16.668  0.9308 -2.0466  0.4492
  590MPD2    H3 8752   1.185   2.536  16.619 -1.4307 -1.4873 -1.2353
  590MPD2     N 8753   1.572   2.479  16.370  0.0817 -0.3257  0.2498
  590MPD2    H5 8754   1.649   2.419  16.341 -0.6512 -0.5616 -1.2270
  590MPD2    N1 8755   1.308   2.110  16.563  0.6047 -0.3646 -0.5933
  590MPD2    H7 8756   1.222   2.086  16.612  1.0232  0.3086  0.4856
  591TMC3    C1 8757   1.706   2.618  16.237  0.0378 -0.5552  0.0395
  591TMC3    C2 8758   1.817   2.546  16.286 -0.7868 -0.2524 -0.0655
  591TMC3    C3 8759   1.931   2.565  16.210 -0.2665 -0.3353 -0.0635
  591TMC3    C4 8760   1.705   2.699  16.128 -0.2635  0.4945  0.3258
  591TMC3    C5 8761   1.822   2.711  16.052  0.2351  0.3681 -0.3709
  591TMC3    C6 8762   1.934   2.638  16.091 -0.3823  0.1113  0.6381
  591TMC3     C 8763   1.579   2.605  16.310 -0.2040  0.4428  0.1741
  591TMC3     O 8764   1.492   2.697  16.303 -0.4261 -0.3591  0.3651
  591TMC3     H 8765   1.817   2.489  16.378  1.0280 -2.3307 -1.3447
  591TMC3    H1 8766   1.617   2.758  16.106  0.2963  1.2640  0.1257
  591TMC3    H2 8767   2.031   2.643  16.042  0.0629  0.2659  1.5177
  591TMC3    C7 8768   1.815   2.785  15.919 -0.0444 -0.4686 -0.5443
  591TMC3    C8 8769   2.012   2.454  16.201  0.3674 -0.0889 -0.1682
  591TMC3    O1 8770   1.717   2.779  15.854  0.1463 -0.7401 -0.4202
  591TMC3    O2 8771   2.041   2.413  16.089 -0.2479  0.6247  0.0193
  592MPD2     C 8772   2.650   2.873  11.578 -1.0150  0.1728  0.1180
  592MPD2    C1 8773   2.631   2.941  11.693  0.0517  0.1355 -0.1579
  592MPD2    C2 8774   2.560   2.889  11.800 -0.8335  0.1535  0.6639
  592MPD2    C3 8775   2.495   2.766  11.786  0.2082 -0.3832  0.0464
  592MPD2    C4 8776   2.513   2.695  11.668 -0.5934  0.3132 -0.0086
  592MPD2    C5 8777   2.594   2.748  11.566 -0.2482 -0.1975  0.9705
  592MPD2     H 8778   2.558   2.939  11.896 -0.0554  0.1391  0.6919
  592MPD2    H1 8779   2.468   2.597  11.654 -1.1358  0.6881 -0.8950
  592MPD2    H2 8780   2.699   2.920  11.493  1.1556  0.5630  1.5823
  592MPD2    H3 8781   2.601   2.693  11.473 -2.0980  1.9760 -0.4590
  592MPD2     N 8782   2.417   2.720  11.897 -0.0236 -0.2778  0.9370
  592MPD2    H5 8783   2.411   2.785  11.975 -1.5037  0.9790 -0.2240
  592MPD2    N1 8784   2.682   3.076  11.688 -0.8436  0.0915 -0.0653
  592MPD2    H7 8785   2.688   3.113  11.594 -1.1103  0.1589 -0.0567
  593TMC3    C1 8786   2.717   3.302  11.761  0.1137  0.1024  0.3899
  593TMC3    C2 8787   2.694   3.402  11.861  0.1692  0.5898 -0.4061
  593TMC3    C3 8788   2.737   3.529  11.838  0.5884  0.6178 -0.5771
  593TMC3    C4 8789   2.795   3.335  11.643 -0.2432  0.1930  0.0918
  593TMC3    C5 8790   2.835   3.464  11.631  0.4399 -0.7868  0.0692
  593TMC3    C6 8791   2.798   3.562  11.724  0.0855  0.1663  0.1020
  593TMC3     C 8792   2.698   3.162  11.794 -0.1246  0.0389  0.0553
  593TMC3     O 8793   2.698   3.132  11.913  0.0979 -0.2454 -0.2247
  593TMC3     H 8794   2.638   3.372  11.949  0.7905  0.6971  0.0219
  593TMC3    H1 8795   2.835   3.254  11.582  3.0170  1.5163  0.4577
  593TMC3    H2 8796   2.816   3.668  11.705 -0.0298  0.4248  1.4464
  593TMC3    C7 8797   2.927   3.501  11.531  0.1078  0.6787  0.6039
  593TMC3    C8 8798   2.696   3.624  11.942  0.1638  0.0058  0.3967
  593TMC3    O1 8799   2.957   3.620  11.531  0.2293  0.2779  0.1592
  593TMC3    O2 8800   2.614   3.588  12.026  0.3410  0.5470  0.4704
  594MPD2     C 8801   0.911   2.541  13.926 -0.6043 -0.0307 -0.1040
  594MPD2    C1 8802   0.871   2.621  14.026  0.2531 -0.1335 -0.3177
  594MPD2    C2 8803   0.957   2.698  14.102 -0.4357 -0.5490 -0.2428
  594MPD2    C3 8804   1.090   2.710  14.069  0.6495 -0.1106 -0.8055
  594MPD2    C4 8805   1.130   2.637  13.962  0.1177  0.3387  0.8203
  594MPD2    C5 8806   1.044   2.554  13.892 -0.0484 -0.4377 -0.7256
  594MPD2     H 8807   0.926   2.754  14.189  0.8613  0.4367 -0.4305
  594MPD2    H1 8808   1.234   2.635  13.930  0.1285 -0.1583  0.8806
  594MPD2    H2 8809   0.846   2.492  13.854 -0.7627 -0.4232  0.3064
  594MPD2    H3 8810   1.089   2.495  13.812 -0.2708 -2.7430  0.8406
  594MPD2     N 8811   1.178   2.795  14.149 -0.7349 -0.3061  0.0856
  594MPD2    H5 8812   1.143   2.822  14.241  2.8886  2.0449  0.8226
  594MPD2    N1 8813   0.729   2.625  14.052 -0.4014  0.2888  0.2733
  594MPD2    H7 8814   0.672   2.565  13.992 -0.2827  0.4867 -0.0395
  595TMC3    C1 8815   1.571   3.024  14.279  0.6272  0.3101  0.3242
  595TMC3    C2 8816   1.508   2.928  14.208 -0.1048  0.3871  0.2644
  595TMC3    C3 8817   1.365   2.925  14.210  0.3059 -0.1079 -0.3581
  595TMC3    C4 8818   1.498   3.107  14.358 -0.0363  0.3208 -0.4393
  595TMC3    C5 8819   1.363   3.101  14.364  0.0926  0.1788  0.0095
  595TMC3    C6 8820   1.289   3.013  14.289 -0.5473  0.1598  0.3205
  595TMC3     C 8821   1.711   3.030  14.291 -0.6239  0.1039 -0.4286
  595TMC3     O 8822   1.757   3.134  14.337 -0.3977 -0.5045 -0.3180
  595TMC3     H 8823   1.563   2.858  14.146 -1.0422 -0.3868  0.3142
  595TMC3    H1 8824   1.551   3.173  14.426 -1.0648  1.6384 -0.9205
  595TMC3    H2 8825   1.180   3.017  14.291 -0.5674  0.6974 -1.8819
  595TMC3    C7 8826   1.289   3.205  14.430  0.1145  0.6687  0.0291
  595TMC3    C8 8827   1.304   2.843  14.114 -0.6576 -0.0917 -0.3744
  595TMC3    O1 8828   1.177   3.179  14.467 -0.1344  0.3178  0.2238
  595TMC3    O2 8829   1.376   2.820  14.017 -0.6165 -0.0584 -0.0404
  596MPD2     C 8830   0.712   1.079  16.758  0.1892 -0.8271 -0.3034
  596MPD2    C1 8831   0.650   1.170  16.676  0.0650  0.3914  0.6694
  596MPD2    C2 8832   0.629   1.136  16.548 -0.1188  0.2170  1.0378
  596MPD2    C3 8833   0.644   1.009  16.505 -0.9478  0.9743  0.3227
  596MPD2    C4 8834   0.698   0.916  16.589  0.2576 -0.4824 -0.0525
  596MPD2    C5 8835   0.732   0.952  16.712  0.3213 -0.1793 -0.0370
  596MPD2     H 8836   0.579   1.213  16.489  1.6422  2.0541  1.9427
  596MPD2    H1 8837   0.715   0.812  16.564  2.3834  0.0188 -0.6950
  596MPD2    H2 8838   0.742   1.109  16.858 -2.8514  1.1819  0.0404
  596MPD2    H3 8839   0.769   0.864  16.763  0.0107 -0.7171 -0.7386
  596MPD2     N 8840   0.597   0.973  16.374 -0.0589 -0.0370  0.4157
  596MPD2    H5 8841   0.608   0.877  16.345  0.7499 -0.0161  0.6704
  596MPD2    N1 8842   0.612   1.296  16.721 -0.4638  0.0322 -0.5635
  596MPD2    H7 8843   0.581   1.370  16.658 -0.5246  1.0084  0.6079
  597TMC3    C1 8844   0.548   1.469  16.864  0.2806 -0.9718 -0.6995
  597TMC3    C2 8845   0.605   1.565  16.780  0.7908 -0.6936  1.6260
  597TMC3    C3 8846   0.525   1.674  16.766 -0.7673 -0.3752  0.2413
  597TMC3    C4 8847   0.419   1.482  16.918 -0.1274 -0.2543 -0.5452
  597TMC3    C5 8848   0.355   1.601  16.908  0.6696  0.1485  0.0582
  597TMC3    C6 8849   0.404   1.696  16.828  0.1393  0.2565 -0.5326
  597TMC3     C 8850   0.592   1.332  16.849 -0.0963  0.0943  0.5165
  597TMC3     O 8851   0.577   1.260  16.946 -0.1547  0.3952 -0.0347
  597TMC3     H 8852   0.701   1.545  16.735  1.3163  1.3154  1.8885
  597TMC3    H1 8853   0.380   1.409  16.988 -0.1582 -0.0499 -0.3500
  597TMC3    H2 8854   0.347   1.788  16.823  0.3822  0.4337 -0.0200
  597TMC3    C7 8855   0.223   1.606  16.964 -0.1901 -0.0840  0.2066
  597TMC3    C8 8856   0.586   1.797  16.718 -0.4714  0.4298  0.3198
  597TMC3    O1 8857   0.187   1.519  17.045 -0.1276 -0.6833 -0.4029
  597TMC3    O2 8858   0.559   1.902  16.771 -0.4447  0.0494  0.3797
  598TMC3    C1 8859   3.499   2.828  16.142 -0.5385 -1.2846 -0.3892
  598TMC3    C2 8860   3.381   2.756  16.150 -0.1971 -0.2434  0.2137
  598TMC3    C3 8861   3.328   2.721  16.032  0.1791  0.1086  0.2498
  598TMC3    C4 8862   3.554   2.856  16.026 -0.0183 -0.6272  0.4121
  598TMC3    C5 8863   3.494   2.828  15.908  0.3501 -0.1357  0.2940
  598TMC3    C6 8864   3.379   2.756  15.910  0.2577 -0.7399 -0.1809
  598TMC3     C 8865   3.554   2.876  16.262 -0.5392 -0.4798  0.5675
  598TMC3     O 8866   3.484   2.883  16.357  0.0591  0.0268 -0.0775
  598TMC3     H 8867   3.342   2.718  16.243 -0.6172 -1.0948 -0.3029
  598TMC3    H1 8868   3.634   2.928  16.017 -0.7549  0.3196  1.4494
  598TMC3    H2 8869   3.330   2.726  15.818  0.2804  0.2293 -0.5061
  598TMC3    C7 8870   3.589   2.816  15.796 -0.9790 -0.2909 -0.3839
  598TMC3    C8 8871   3.241   2.607  16.031  0.2866 -0.2113  0.0917
  598TMC3    O1 8872   3.702   2.790  15.834  0.2277 -0.2158  0.6119
  598TMC3    O2 8873   3.258   2.528  16.118 -0.2932  0.1621  0.6029
  599MPD2     C 8874   2.811   0.512  15.868  1.1650 -0.4745 -0.6252
  599MPD2    C1 8875   2.896   0.418  15.911  0.0936  0.5582 -0.2939
  599MPD2    C2 8876   2.919   0.388  16.043 -0.8170  0.1234  0.2543
  599MPD2    C3 8877   2.825   0.437  16.135 -0.2230 -0.4550 -0.0950
  599MPD2    C4 8878   2.730   0.534  16.092  0.0456 -0.4202 -0.3229
  599MPD2    C5 8879   2.732   0.570  15.961  0.5928  0.1993  0.2230
  599MPD2     H 8880   3.009   0.337  16.074  1.3536  3.2524 -0.9751
  599MPD2    H1 8881   2.650   0.569  16.156 -1.8441 -0.9594 -2.3862
  599MPD2    H2 8882   2.803   0.549  15.767 -0.2249  0.3858 -0.2073
  599MPD2    H3 8883   2.672   0.660  15.948  1.8547  0.9688 -0.3734
  599MPD2     N 8884   2.832   0.409  16.272 -0.1565  0.0810  0.3892
  599MPD2    H5 8885   2.779   0.467  16.336 -2.3583  0.0598 -1.4228
  599MPD2    N1 8886   2.990   0.366  15.823  0.2547 -0.4818 -0.3281
  599MPD2    H7 8887   2.991   0.402  15.728 -0.5483 -0.8080 -0.4571
  600TMC3    C1 8888   2.882   0.298  16.483 -0.1483 -0.4527 -0.3753
  600TMC3    C2 8889   2.853   0.176  16.535  0.1169  0.1489  0.4045
  600TMC3    C3 8890   2.800   0.177  16.655 -0.1612  0.3030 -0.1426
  600TMC3    C4 8891   2.873   0.414  16.551 -0.2657 -0.3237 -0.0054
  600TMC3    C5 8892   2.823   0.401  16.679  0.2088  0.7704  0.0780
  600TMC3    C6 8893   2.787   0.282  16.735 -0.0677 -0.0334  0.4520
  600TMC3     C 8894   2.901   0.306  16.338  0.1197  0.5948 -0.4651
  600TMC3     O 8895   2.958   0.206  16.291  0.0968 -0.2476  0.2200
  600TMC3     H 8896   2.877   0.084  16.482 -0.6386  0.6333 -0.7833
  600TMC3    H1 8897   2.894   0.512  16.510 -1.5117 -0.0454  0.0055
  600TMC3    H2 8898   2.739   0.272  16.832 -0.1838  1.3991  0.5420
  600TMC3    C7 8899   2.786   0.526  16.748 -0.3732  0.2948  0.1040
  600TMC3    C8 8900   2.754   0.048  16.704  0.2234  0.4438 -0.9050
  600TMC3    O1 8901   2.688   0.519  16.820  0.2685  0.4187 -1.0426
  600TMC3    O2 8902   2.778   0.029  16.824  0.5026  0.4594  0.7765
  601MPD2     C 8903   4.517   2.799   0.424  0.0301  0.3191 -0.1252
  601MPD2    C1 8904   4.509   2.778   0.288  0.2310  0.0822 -0.2479
  601MPD2    C2 8905   4.537   2.651   0.238  0.4346 -0.2476 -0.3432
  601MPD2    C3 8906   4.570   2.548   0.317  0.1865  0.0683 -0.5148
  601MPD2    C4 8907   4.575   2.559   0.454 -0.6073  0.1995  0.0969
  601MPD2    C5 8908   4.557   2.690   0.503 -0.1679  0.3464  0.2991
  601MPD2     H 8909   4.540   2.641   0.130 -2.0630  0.8653 -0.5075
  601MPD2    H1 8910   4.610   2.476   0.513 -0.7484 -0.7609 -1.1746
  601MPD2    H2 8911   4.508   2.900   0.463 -2.5527  0.2758 -0.5687
  601MPD2    H3 8912   4.565   2.700   0.610 -0.0474 -1.2572  0.4361
  601MPD2     N 8913   4.573   2.427   0.248  0.2648 -0.1587 -0.4249
  601MPD2    H5 8914   4.562   2.436   0.148  2.9422 -3.5247 -1.0315
  601MPD2    N1 8915   4.472   2.884   0.205  0.6446 -0.3158  0.0073
  601MPD2    H7 8916   4.485   2.860   0.107  0.9405 -0.9349  0.1951
  602TMC3    C1 8917   4.352   3.068   0.128  0.4824 -0.1035 -0.7306
  602TMC3    C2 8918   4.243   3.155   0.160 -0.1082  0.3013 -0.4393
  602TMC3    C3 8919   4.216   3.259   0.082  0.3326  0.4693 -0.2473
  602TMC3    C4 8920   4.428   3.082   0.018  0.4291  0.0129 -0.3291
  602TMC3    C5 8921   4.396   3.188  17.641  0.1940 -0.3570  0.0341
  602TMC3    C6 8922   4.296   3.274  17.673 -0.7808 -0.1360 -0.2748
  602TMC3     C 8923   4.386   2.988   0.239  0.2799 -0.4094  0.2541
  602TMC3     O 8924   4.334   3.017   0.347  0.0884 -0.3607  0.5049
  602TMC3     H 8925   4.176   3.131   0.242  2.2339  1.6210  1.8692
  602TMC3    H1 8926   4.524   3.034   0.010  1.9716  2.8999  0.7409
  602TMC3    H2 8927   4.285   3.366  17.617  1.8283  0.7544  0.6999
  602TMC3    C7 8928   4.447   3.185  17.503  0.4313 -0.1421 -0.0711
  602TMC3    C8 8929   4.103   3.347   0.102  0.1592 -0.2667  0.4269
  602TMC3    O1 8930   4.539   3.110  17.471 -0.1130  0.0812  0.1235
  602TMC3    O2 8931   4.084   3.400   0.209  0.2997  0.6810 -0.3481
  603TMC3    C1 8932   3.835   2.730  11.057  0.0676 -0.0522  0.3813
  603TMC3    C2 8933   3.890   2.747  11.176  0.1672  0.2965 -0.1722
  603TMC3    C3 8934   3.919   2.879  11.212 -0.1369 -0.3092 -0.6365
  603TMC3    C4 8935   3.816   2.829  10.966  0.2834 -0.1808  0.5255
  603TMC3    C5 8936   3.848   2.954  11.004  0.6044  0.3728  0.4287
  603TMC3    C6 8937   3.892   2.984  11.129 -0.3247  0.1335  0.0879
  603TMC3     C 8938   3.750   2.618  11.034  0.1757  0.0220 -0.2778
  603TMC3     O 8939   3.652   2.639  10.970  0.7724 -0.3328 -0.2820
  603TMC3     H 8940   3.891   2.669  11.252 -0.4155  0.1646 -0.3044
  603TMC3    H1 8941   3.781   2.788  10.872  1.8005  0.3367 -0.2766
  603TMC3    H2 8942   3.922   3.085  11.151 -0.3370 -0.1212  1.2729
  603TMC3    C7 8943   3.863   3.048  10.894 -0.5389  0.1679  0.0502
  603TMC3    C8 8944   3.911   2.903  11.353  0.0259 -0.1245 -0.2240
  603TMC3    O1 8945   3.947   3.135  10.913 -1.0113  0.2871  0.6324
  603TMC3    O2 8946   3.967   2.819  11.425  0.1031 -0.4681 -0.1822
  604MPD2     C 8947   4.194   2.368  16.613 -0.1248  0.0030 -0.3885
  604MPD2    C1 8948   4.065   2.361  16.577  0.5434 -0.2384 -0.2574
  604MPD2    C2 8949   4.032   2.281  16.473 -0.4908 -0.5026 -0.6130
  604MPD2    C3 8950   4.123   2.189  16.424 -0.5409  0.7086 -0.7371
  604MPD2    C4 8951   4.257   2.189  16.466  0.0437 -0.3363 -0.3490
  604MPD2    C5 8952   4.285   2.283  16.561  0.9499  0.3209 -0.2481
  604MPD2     H 8953   3.927   2.279  16.447 -1.2929  3.3675  2.3592
  604MPD2    H1 8954   4.341   2.132  16.428 -0.3416  0.5706 -2.5625
  604MPD2    H2 8955   4.228   2.446  16.679 -2.1117  0.8803 -0.3965
  604MPD2    H3 8956   4.387   2.278  16.598  0.0631 -0.1210  2.0917
  604MPD2     N 8957   4.073   2.099  16.328  0.1589 -0.3570 -0.1580
  604MPD2    H5 8958   3.975   2.116  16.308  0.3080  1.3418  0.5300
  604MPD2    N1 8959   3.977   2.464  16.632  0.1543  0.0300 -0.2967
  604MPD2    H7 8960   4.015   2.527  16.702  0.1933 -1.8273  1.3480
  605TMC3    C1 8961   3.787   2.605  16.675 -0.8000 -1.1689 -0.0951
  605TMC3    C2 8962   3.859   2.689  16.752  0.0857 -0.0839 -0.1311
  605TMC3    C3 8963   3.792   2.783  16.832  0.0871 -0.1916  0.0765
  605TMC3    C4 8964   3.649   2.629  16.659 -0.3426 -0.1046 -0.0479
  605TMC3    C5 8965   3.589   2.730  16.731  0.3133  0.0628  0.4406
  605TMC3    C6 8966   3.656   2.802  16.825  0.3819 -0.0209  0.6720
  605TMC3     C 8967   3.844   2.491  16.599  0.7607  0.2645 -0.0368
  605TMC3     O 8968   3.776   2.439  16.509  0.3294  0.0808 -0.2464
  605TMC3     H 8969   3.966   2.693  16.733 -0.4542  1.2837 -2.8582
  605TMC3    H1 8970   3.597   2.580  16.578  0.0918  1.1106 -1.0548
  605TMC3    H2 8971   3.604   2.866  16.895 -0.5158  1.7088 -1.5820
  605TMC3    C7 8972   3.454   2.766  16.688  0.1694  0.1357  0.1934
  605TMC3    C8 8973   3.870   2.900  16.880 -0.0527 -0.1122  0.0582
  605TMC3    O1 8974   3.416   2.879  16.700 -0.3174  0.3735 -0.6565
  605TMC3    O2 8975   3.805   2.996  16.909 -0.9341  0.9181 -0.1731
  606TMC3    C1 8976   0.663   0.220  16.931 -0.3351  1.3393 -0.2119
  606TMC3    C2 8977   0.715   0.260  17.054  0.4045  0.2223 -0.7466
  606TMC3    C3 8978   0.653   0.224  17.170 -0.2166  0.8953  0.1152
  606TMC3    C4 8979   0.555   0.141  16.931  0.5757  0.6711  0.4513
  606TMC3    C5 8980   0.494   0.114  17.051 -0.5180  0.0157  0.8711
  606TMC3    C6 8981   0.537   0.153  17.175 -0.0283  0.1167 -0.3697
  606TMC3     C 8982   0.741   0.233  16.802 -0.4841  0.1771  0.2198
  606TMC3     O 8983   0.861   0.235  16.827 -0.2793  0.1234  1.3456
  606TMC3     H 8984   0.815   0.302  17.053  0.0212  1.2007  2.0627
  606TMC3    H1 8985   0.522   0.094  16.839  3.0393 -0.9134  0.3737
  606TMC3    H2 8986   0.491   0.121  17.268  0.7066 -1.2515 -0.4825
  606TMC3    C7 8987   0.437   4.710  17.052  0.1457  0.1843 -0.0395
  606TMC3    C8 8988   0.738   0.247  17.288  0.7428 -0.0948  0.9397
  606TMC3    O1 8989   0.522   4.630  17.011 -0.6017 -0.0267 -0.1157
  606TMC3    O2 8990   0.825   0.335  17.287  0.4168  0.4705 -0.4705
  607MPD2     C 8991   2.857   2.712  11.841 -0.5614 -0.7781  0.3658
  607MPD2    C1 8992   2.928   2.809  11.917 -0.3378  0.4100  0.2536
  607MPD2    C2 8993   2.916   2.805  12.055  0.5686 -0.1825  0.0973
  607MPD2    C3 8994   2.824   2.724  12.116  0.0715  0.1845  0.4229
  607MPD2    C4 8995   2.750   2.642  12.035  1.3106 -0.9257 -0.2159
  607MPD2    C5 8996   2.767   2.630  11.901  0.1185 -0.2344  0.0933
  607MPD2     H 8997   2.970   2.879  12.114  0.1589  0.1779  0.0213
  607MPD2    H1 8998   2.682   2.578  12.089  0.5568  1.1861  1.3471
  607MPD2    H2 8999   2.878   2.709  11.735 -0.3781 -1.6116  0.4275
  607MPD2    H3 9000   2.709   2.557  11.846 -0.7824  0.9993 -0.5941
  607MPD2     N 9001   2.803   2.744  12.257 -0.0897  0.0932 -0.2709
  607MPD2    H5 9002   2.883   2.784  12.304 -1.0690 -0.1318  1.6070
  607MPD2    N1 9003   3.009   2.913  11.866 -0.6498 -0.5712 -0.2966
  607MPD2    H7 9004   3.047   2.977  11.935  1.1113 -0.0524 -1.7678
  608TMC3    C1 9005   3.055   3.089  11.727 -0.0440  0.2868  0.5878
  608TMC3    C2 9006   3.031   3.168  11.831 -0.0253  0.5427  0.3084
  608TMC3    C3 9007   3.098   3.284  11.835  0.0579  0.4004  0.2776
  608TMC3    C4 9008   3.138   3.131  11.625 -0.1019 -0.7556  0.4301
  608TMC3    C5 9009   3.194   3.253  11.631  0.0645  0.2766  0.1498
  608TMC3    C6 9010   3.177   3.336  11.735  0.1543  0.0581 -0.0205
  608TMC3     C 9011   3.023   2.949  11.733  0.2013  0.4034  0.7356
  608TMC3     O 9012   3.003   2.893  11.626 -0.3297  0.1786  0.0522
  608TMC3     H 9013   2.962   3.135  11.908 -2.8792 -0.3568 -2.6254
  608TMC3    H1 9014   3.143   3.070  11.535  0.0745 -1.2911  0.8039
  608TMC3    H2 9015   3.221   3.434  11.747  1.1257 -0.4196  0.3727
  608TMC3    C7 9016   3.295   3.282  11.531  0.0227 -0.1600 -0.2426
  608TMC3    C8 9017   3.067   3.368  11.950 -0.1272 -0.5879 -0.1374
  608TMC3    O1 9018   3.298   3.204  11.438  0.6023 -0.6386  0.1408
  608TMC3    O2 9019   3.052   3.487  11.934 -0.3888 -0.5041 -0.3046
  609TMC3    C1 9020   1.256   2.622   9.262 -0.1932 -0.1575 -0.0686
  609TMC3    C2 9021   1.305   2.697   9.162  0.2728 -0.1897  0.3329
  609TMC3    C3 9022   1.411   2.657   9.099 -0.2640 -0.6128 -0.5676
  609TMC3    C4 9023   1.326   2.512   9.310  0.2642  0.0255  0.3751
  609TMC3    C5 9024   1.440   2.474   9.248  0.2128  0.3323 -0.0878
  609TMC3    C6 9025   1.486   2.550   9.145 -0.8161  0.4865 -0.3931
  609TMC3     C 9026   1.122   2.638   9.313  0.1874 -0.5757 -0.2634
  609TMC3     O 9027   1.033   2.685   9.243 -0.1178 -0.7819  0.2959
  609TMC3     H 9028   1.234   2.767   9.119 -1.0773 -1.2667  0.8245
  609TMC3    H1 9029   1.286   2.441   9.382  0.2259 -0.1642  0.1632
  609TMC3    H2 9030   1.576   2.527   9.090  0.1120 -0.5584  1.5967
  609TMC3    C7 9031   1.527   2.384   9.303 -0.5408 -0.4212  0.0806
  609TMC3    C8 9032   1.477   2.757   9.016 -0.1440  0.1639  0.3776
  609TMC3    O1 9033   1.530   2.378   9.428 -0.5420  0.4493  0.4823
  609TMC3    O2 9034   1.581   2.725   8.963  0.3624 -0.4806 -0.7344
  610TMC3    C1 9035   3.218   3.099  12.788  0.4570 -0.1646  0.7917
  610TMC3    C2 9036   3.238   3.169  12.674 -0.5553 -0.6018  0.0232
  610TMC3    C3 9037   3.348   3.154  12.602  0.5132 -0.2450  0.5139
  610TMC3    C4 9038   3.302   2.996  12.816 -0.3123 -0.0121 -0.7658
  610TMC3    C5 9039   3.417   2.974  12.734 -0.3170 -0.0522 -0.2656
  610TMC3    C6 9040   3.446   3.059  12.630 -0.1816 -0.1282  0.3899
  610TMC3     C 9041   3.083   3.080  12.850  0.9205  0.6584 -0.4692
  610TMC3     O 9042   3.064   2.981  12.917  0.4802  0.3452  0.6784
  610TMC3     H 9043   3.161   3.241  12.649  0.4608  0.9714  1.4370
  610TMC3    H1 9044   3.284   2.927  12.898 -0.6392 -0.6352 -1.3599
  610TMC3    H2 9045   3.519   3.024  12.558 -0.6966  1.0211 -0.7107
  610TMC3    C7 9046   3.503   2.863  12.769  0.1001  0.2987 -0.7785
  610TMC3    C8 9047   3.371   3.237  12.490 -0.4203 -0.7521  0.4887
  610TMC3    O1 9048   3.624   2.880  12.775  0.1291 -0.2735  0.2431
  610TMC3    O2 9049   3.292   3.326  12.462  0.1381 -0.5138 -0.0837
  611MPD2     C 9050   2.941   2.589  10.381  0.1254 -1.6995  0.2234
  611MPD2    C1 9051   2.860   2.696  10.362 -0.1754  0.2468  0.0539
  611MPD2    C2 9052   2.918   2.822  10.339 -0.0450  0.2543 -0.0499
  611MPD2    C3 9053   3.056   2.829  10.336  0.5749  0.0015  0.3015
  611MPD2    C4 9054   3.132   2.716  10.350  0.0123 -0.1102  0.3884
  611MPD2    C5 9055   3.080   2.596  10.375  0.9735 -0.4712 -0.2378
  611MPD2     H 9056   2.867   2.916  10.325  1.5301  1.2413  0.8450
  611MPD2    H1 9057   3.240   2.720  10.338 -0.0837 -1.2271 -0.9778
  611MPD2    H2 9058   2.902   2.489  10.397 -1.4213 -1.0856  0.2940
  611MPD2    H3 9059   3.145   2.510  10.377 -0.6592 -1.7149 -0.4921
  611MPD2     N 9060   3.118   2.954  10.310  0.3389  0.1185  0.0111
  611MPD2    H5 9061   3.214   2.946  10.340  0.8158  0.5643 -1.3709
  611MPD2    N1 9062   2.722   2.686  10.370 -0.1312 -0.1892 -0.3454
  611MPD2    H7 9063   2.694   2.595  10.406  0.0419 -0.4377 -0.8310
  612TMC3    C1 9064   3.146   3.185  10.268  0.1885  0.1445  0.0900
  612TMC3    C2 9065   3.281   3.164  10.284  0.3867 -0.3340  0.2383
  612TMC3    C3 9066   3.362   3.275  10.321  0.4620  0.2458 -0.4784
  612TMC3    C4 9067   3.090   3.304  10.295  0.0651 -0.6792 -0.2531
  612TMC3    C5 9068   3.163   3.395  10.361 -0.4749  0.8635  0.5300
  612TMC3    C6 9069   3.301   3.379  10.368  0.4188  0.0953 -0.7506
  612TMC3     C 9070   3.059   3.072  10.257  0.5106  0.0815 -0.4471
  612TMC3     O 9071   2.943   3.092  10.215  0.1926  0.3151  0.3938
  612TMC3     H 9072   3.328   3.076  10.242  0.5737  0.4163 -1.1369
  612TMC3    H1 9073   2.988   3.321  10.264 -0.3807 -1.2463  0.8954
  612TMC3    H2 9074   3.367   3.453  10.412 -1.2250 -0.1623  2.1997
  612TMC3    C7 9075   3.113   3.523  10.417 -0.3481  0.4339  0.1995
  612TMC3    C8 9076   3.501   3.284  10.329 -0.1284 -0.7943  0.3609
  612TMC3    O1 9077   3.197   3.613  10.425  0.1823 -0.0071 -0.0039
  612TMC3    O2 9078   3.559   3.392  10.304  0.0403 -0.4661 -0.5674
  613MPD2     C 9079   1.678   0.444  16.622 -0.0201  0.4338  0.0124
  613MPD2    C1 9080   1.678   0.522  16.506  0.3780 -0.1911 -0.3036
  613MPD2    C2 9081   1.566   0.523  16.424  0.2707  0.6075 -0.1800
  613MPD2    C3 9082   1.462   0.442  16.457 -0.1177  0.8007  0.1801
  613MPD2    C4 9083   1.463   0.369  16.574  0.3296  0.2978  0.0651
  613MPD2    C5 9084   1.568   0.376  16.652 -0.2279 -0.6888  0.4028
  613MPD2     H 9085   1.555   0.567  16.325  2.7458 -1.9499 -1.5866
  613MPD2    H1 9086   1.377   0.316  16.612 -0.2414 -0.3038 -2.0288
  613MPD2    H2 9087   1.768   0.437  16.682  0.9532 -1.5299 -1.6591
  613MPD2    H3 9088   1.561   0.330  16.750 -0.7290 -1.5768 -0.0533
  613MPD2     N 9089   1.348   0.421  16.371 -0.6391 -0.0472  0.1072
  613MPD2    H5 9090   1.296   0.337  16.394  0.7331 -0.3281  2.1003
  613MPD2    N1 9091   1.804   0.565  16.454 -0.2959 -0.0310  1.0254
  613MPD2    H7 9092   1.884   0.543  16.513  0.3162 -0.0146  0.1998
  614TMC3    C1 9093   1.930   0.592  16.268  1.1213 -0.0116  0.0928
  614TMC3    C2 9094   1.911   0.471  16.217  0.1332 -0.0275 -0.6353
  614TMC3    C3 9095   1.910   0.451  16.083 -0.2281  0.0637  0.3615
  614TMC3    C4 9096   1.965   0.694  16.184 -0.9320 -0.1509  0.3199
  614TMC3    C5 9097   1.966   0.666  16.049 -0.5213  0.0887 -0.1489
  614TMC3    C6 9098   1.935   0.547  15.989 -0.7185 -0.1885 -0.4546
  614TMC3     C 9099   1.814   0.631  16.338 -0.8683 -0.3872  0.2470
  614TMC3     O 9100   1.732   0.700  16.283  0.4337  0.3935  0.1386
  614TMC3     H 9101   1.891   0.387  16.283 -0.7561 -0.1948 -1.1180
  614TMC3    H1 9102   1.978   0.796  16.219  1.4056 -0.4110  0.1907
  614TMC3    H2 9103   1.970   0.517  15.891  0.5041  0.9815 -0.3730
  614TMC3    C7 9104   2.020   0.772  15.975 -0.0985 -0.9354 -0.0356
  614TMC3    C8 9105   1.837   0.328  16.044  0.2981  0.3069  0.2621
  614TMC3    O1 9106   2.111   0.838  16.018 -0.1251  0.6360 -0.3962
  614TMC3    O2 9107   1.805   0.245  16.128 -0.3551  0.3498 -0.1234
  615MPD2     C 9108   0.795   2.918  16.257 -0.3628 -0.2695 -0.0295
  615MPD2    C1 9109   0.764   2.984  16.144  1.2012  0.3868  0.4778
  615MPD2    C2 9110   0.757   2.913  16.024 -0.3326 -0.3894 -0.5383
  615MPD2    C3 9111   0.765   2.774  16.018 -0.7760 -0.4522 -0.0190
  615MPD2    C4 9112   0.782   2.701  16.135 -0.0848 -0.1129 -0.1052
  615MPD2    C5 9113   0.799   2.779  16.252 -0.2107 -0.0660  0.0323
  615MPD2     H 9114   0.734   2.966  15.932  0.3182 -0.3286 -0.6608
  615MPD2    H1 9115   0.787   2.593  16.146  0.5949  0.0161  0.8684
  615MPD2    H2 9116   0.807   2.973  16.349  1.1559  0.1396 -0.4656
  615MPD2    H3 9117   0.813   2.731  16.348 -0.3781 -0.4041 -0.1132
  615MPD2     N 9118   0.747   2.696  15.901  0.1640  0.0895  0.5391
  615MPD2    H5 9119   0.738   2.596  15.913 -0.2819  0.1780  0.9280
  615MPD2    N1 9120   0.731   3.124  16.148 -0.7849 -0.6249 -0.1191
  615MPD2    H7 9121   0.690   3.155  16.061 -1.8251 -2.0123 -0.1307
  616TMC3    C1 9122   0.690   3.342  16.229 -0.0110  0.0569 -0.4453
  616TMC3    C2 9123   0.763   3.449  16.267  0.4212 -0.5287  0.0875
  616TMC3    C3 9124   0.716   3.572  16.224 -0.2110 -0.0561 -1.0349
  616TMC3    C4 9125   0.575   3.346  16.153  0.1417 -0.1992 -0.3109
  616TMC3    C5 9126   0.534   3.469  16.110  0.5071 -0.4832  0.3494
  616TMC3    C6 9127   0.606   3.577  16.146 -0.2998 -0.3451  1.1249
  616TMC3     C 9128   0.750   3.213  16.255 -0.5776  0.1151 -0.9308
  616TMC3     O 9129   0.835   3.193  16.342  0.2632 -0.0169 -0.2603
  616TMC3     H 9130   0.846   3.445  16.337  1.7188 -0.2820 -1.4448
  616TMC3    H1 9131   0.523   3.253  16.132  1.6818 -1.2719  0.5839
  616TMC3    H2 9132   0.585   3.672  16.099  0.8148 -0.5846  0.1160
  616TMC3    C7 9133   0.424   3.486  16.010 -0.5120  0.3381  0.3268
  616TMC3    C8 9134   0.813   3.678  16.198  0.3698 -0.7668 -0.4026
  616TMC3    O1 9135   0.432   3.590  15.949  0.1875 -0.2619  0.8779
  616TMC3    O2 9136   0.779   3.788  16.169 -0.2113  0.2578  0.1508
  617MPD2     C 9137   3.965   0.449  13.823 -0.0467 -0.0099  0.4097
  617MPD2    C1 9138   3.921   0.433  13.951  0.0742 -0.3494  0.7748
  617MPD2    C2 9139   3.790   0.470  13.983  0.8829 -0.1749  0.1956
  617MPD2    C3 9140   3.704   0.515  13.885  0.1341 -0.1390  0.4269
  617MPD2    C4 9141   3.748   0.536  13.758  0.3482 -0.5416  0.0930
  617MPD2    C5 9142   3.881   0.503  13.728  0.1280  0.2232 -0.2014
  617MPD2     H 9143   3.753   0.459  14.085 -0.0970  0.3684 -0.1097
  617MPD2    H1 9144   3.678   0.576  13.684  1.6116 -0.7419 -1.2107
  617MPD2    H2 9145   4.070   0.432  13.803 -0.5483 -1.6922 -0.8298
  617MPD2    H3 9146   3.920   0.517  13.628  2.8407 -1.8801  0.5583
  617MPD2     N 9147   3.569   0.553  13.908  0.4854 -0.2690  1.0989
  617MPD2    H5 9148   3.517   0.570  13.823 -0.0636  0.3837  1.5582
  617MPD2    N1 9149   4.014   0.381  14.049  0.5386  0.6108  0.0287
  617MPD2    H7 9150   4.112   0.371  14.023  0.6121 -1.3711  1.1247
  618TMC3    C1 9151   4.100   0.307  14.253  0.2855  0.3828 -0.3202
  618TMC3    C2 9152   4.111   0.182  14.300 -0.7699 -0.3779  0.0383
  618TMC3    C3 9153   4.233   0.121  14.290  0.5277  0.4032 -0.4963
  618TMC3    C4 9154   4.209   0.370  14.208  0.0180  0.1740 -0.1331
  618TMC3    C5 9155   4.327   0.310  14.185  0.1610  0.9772 -0.3811
  618TMC3    C6 9156   4.339   0.182  14.232 -0.4238 -0.0833 -0.1915
  618TMC3     C 9157   3.982   0.327  14.174 -0.0912  0.1036 -0.4163
  618TMC3     O 9158   3.872   0.299  14.221 -0.3182 -0.2260  0.0793
  618TMC3     H 9159   4.019   0.132  14.326  1.1569 -2.8185  2.0814
  618TMC3    H1 9160   4.197   0.473  14.176  1.9853  0.6992  0.8371
  618TMC3    H2 9161   4.429   0.121  14.222 -0.5537 -0.2764 -0.1858
  618TMC3    C7 9162   4.378   0.341  14.050 -0.4611  0.2907 -0.1619
  618TMC3    C8 9163   4.233   4.703  14.270  0.4273  0.4977 -0.2874
  618TMC3    O1 9164   4.303   0.405  13.981 -0.0180 -0.5526  0.6494
  618TMC3    O2 9165   4.342   4.651  14.300 -0.1924  0.3795 -0.4350
  619MPD2     C 9166   0.639   1.914  13.718  0.4805 -0.1726  0.4250
  619MPD2    C1 9167   0.582   1.936  13.598  0.5760  0.1604  0.5446
  619MPD2    C2 9168   0.468   1.867  13.557  0.5374 -0.3121  0.3913
  619MPD2    C3 9169   0.401   1.777  13.639 -0.4942 -0.2268  0.0740
  619MPD2    C4 9170   0.463   1.753  13.755 -0.2223  0.1650 -0.1555
  619MPD2    C5 9171   0.577   1.820  13.796  0.0515  0.0392  0.5138
  619MPD2     H 9172   0.434   1.902  13.461  0.6550 -2.1366 -0.2993
  619MPD2    H1 9173   0.418   1.689  13.830 -0.8133  2.6491  1.5990
  619MPD2    H2 9174   0.717   1.971  13.767 -0.0025  1.5170 -0.7910
  619MPD2    H3 9175   0.620   1.793  13.891 -1.2338  0.4802  1.2211
  619MPD2     N 9176   0.266   1.739  13.622  0.2489  0.4209  0.2327
  619MPD2    H5 9177   0.227   1.694  13.704  0.5954 -1.3311 -0.5717
  619MPD2    N1 9178   0.623   2.038  13.510 -0.2249  0.2257 -0.2185
  619MPD2    H7 9179   0.564   2.064  13.431 -1.1240  0.9476  0.6835
  620TMC3    C1 9180   0.738   2.211  13.401 -0.1628  0.2519  0.5756
  620TMC3    C2 9181   0.678   2.181  13.282 -0.4857  0.4169  0.3680
  620TMC3    C3 9182   0.677   2.279  13.186  0.3878  0.2333 -0.2708
  620TMC3    C4 9183   0.799   2.334  13.422  0.0094 -0.4335  0.2544
  620TMC3    C5 9184   0.790   2.434  13.331  0.3439  0.1319  0.4393
  620TMC3    C6 9185   0.734   2.400  13.211  0.1472  0.6332 -0.2425
  620TMC3     C 9186   0.739   2.114  13.512 -0.1394  0.0857 -0.2824
  620TMC3     O 9187   0.827   2.125  13.598  0.5312  0.6644 -0.0666
  620TMC3     H 9188   0.641   2.083  13.252 -0.5281  0.7471 -0.6649
  620TMC3    H1 9189   0.839   2.346  13.522 -1.0171 -1.3522  0.7749
  620TMC3    H2 9190   0.729   2.473  13.130 -1.3741  0.5163 -0.2522
  620TMC3    C7 9191   0.752   2.564  13.389 -0.0810 -0.0562  0.2657
  620TMC3    C8 9192   0.549   2.282  13.119 -0.2681  0.0901  0.2343
  620TMC3    O1 9193   0.810   2.605  13.489 -0.2673 -0.1035 -0.1733
  620TMC3    O2 9194   0.483   2.379  13.147  0.2120  0.2147  0.4200
  621MPD2     C 9195   0.424   1.859  10.947  0.0687  1.0873  0.2904
  621MPD2    C1 9196   0.404   1.846  10.813  0.8509 -0.4298 -0.4241
  621MPD2    C2 9197   0.356   1.951  10.737  0.1247 -0.2387 -0.1856
  621MPD2    C3 9198   0.334   2.071  10.801 -0.3618 -0.3665 -0.0440
  621MPD2    C4 9199   0.362   2.084  10.932 -0.3590 -0.2521  0.4662
  621MPD2    C5 9200   0.415   1.984  11.006  0.4618  0.0102 -1.0036
  621MPD2     H 9201   0.343   1.941  10.630 -2.1170 -2.2253  0.2876
  621MPD2    H1 9202   0.340   2.172  10.991 -0.8175 -1.6313  2.3436
  621MPD2    H2 9203   0.456   1.779  11.013  1.7025  0.9603 -0.6460
  621MPD2    H3 9204   0.446   1.999  11.108  5.4556 -4.3724 -1.8422
  621MPD2     N 9205   0.291   2.177  10.715  0.8199  0.0754 -0.5573
  621MPD2    H5 9206   0.291   2.156  10.616  0.2088 -0.3423 -0.4698
  621MPD2    N1 9207   0.406   1.726  10.742  1.1360  0.2734  0.2045
  621MPD2    H7 9208   0.380   1.729  10.644  0.1020  1.5911  0.5133
  622TMC3    C1 9209   0.425   1.493  10.702 -0.0170  0.2369  0.0864
  622TMC3    C2 9210   0.370   1.503  10.580 -0.3779 -0.1232 -0.5346
  622TMC3    C3 9211   0.416   1.408  10.487 -0.4492 -0.0875 -0.0369
  622TMC3    C4 9212   0.505   1.383  10.739 -0.1767  0.4116 -0.5896
  622TMC3    C5 9213   0.548   1.296  10.647 -0.8345  0.1471 -0.6430
  622TMC3    C6 9214   0.510   1.306  10.517 -0.2187  0.1118 -0.3050
  622TMC3     C 9215   0.432   1.602  10.803  0.0153 -0.4158 -0.2383
  622TMC3     O 9216   0.447   1.569  10.922  0.1527 -0.2176  0.0022
  622TMC3     H 9217   0.290   1.576  10.568  0.6700  0.6787 -2.6126
  622TMC3    H1 9218   0.559   1.375  10.832  0.7475  2.9753 -0.9074
  622TMC3    H2 9219   0.544   1.242  10.436 -0.9025  0.5410 -0.9343
  622TMC3    C7 9220   0.629   1.185  10.692 -0.0089 -0.2275  0.6335
  622TMC3    C8 9221   0.376   1.422  10.350 -0.1499 -0.2362  0.1475
  622TMC3    O1 9222   0.627   1.161  10.812 -0.0202 -0.1840  0.5308
  622TMC3    O2 9223   0.428   1.351  10.268  0.3472 -0.6866 -0.3407
  623MPD2     C 9224   4.436   3.145  16.039 -0.8586 -0.2611 -0.4036
  623MPD2    C1 9225   4.368   3.143  16.156 -0.1252 -0.9895 -0.1007
  623MPD2    C2 9226   4.444   3.106  16.269 -0.3104  0.4749 -0.3604
  623MPD2    C3 9227   4.577   3.065  16.253 -0.6312  0.0797 -0.0865
  623MPD2    C4 9228   4.654   3.081  16.135  0.8441 -0.2121  0.4613
  623MPD2    C5 9229   4.572   3.109  16.027  0.1863 -0.0431 -0.1025
  623MPD2     H 9230   4.380   3.094  16.355  2.4074 -0.2904  1.5389
  623MPD2    H1 9231   0.032   3.054  16.119  0.2877 -2.1941  0.1325
  623MPD2    H2 9232   4.374   3.161  15.951 -0.4812 -0.1000 -0.6426
  623MPD2    H3 9233   4.615   3.099  15.928 -2.3183  0.0394 -1.2014
  623MPD2     N 9234   4.635   3.016  16.377 -0.4066 -0.5457  0.0256
  623MPD2    H5 9235   4.567   3.018  16.453 -1.4534 -0.5540 -0.9024
  623MPD2    N1 9236   4.231   3.173  16.167 -0.5637  0.1256 -0.2679
  623MPD2    H7 9237   4.184   3.191  16.078  0.3664  0.2133 -0.7396
  624TMC3    C1 9238   0.117   2.729  16.655  0.4656 -0.6081 -0.1335
  624TMC3    C2 9239   0.028   2.766  16.756  0.2647  0.4575  0.1805
  624TMC3    C3 9240   4.672   2.872  16.742  0.8571 -0.2083 -0.9457
  624TMC3    C4 9241   0.126   2.799  16.539  0.2375 -0.5178  0.3151
  624TMC3    C5 9242   0.040   2.901  16.527 -0.0829  0.5915  0.3183
  624TMC3    C6 9243   4.673   2.937  16.623  0.9506  0.2621  0.3881
  624TMC3     C 9244   0.198   2.609  16.682  0.0862  0.0817 -0.5536
  624TMC3     O 9245   0.200   2.570  16.800 -0.5052 -0.0498 -0.3206
  624TMC3     H 9246   0.033   2.713  16.850 -1.1638 -0.2845 -0.1589
  624TMC3    H1 9247   0.190   2.768  16.458  0.5429  0.5616  0.1413
  624TMC3    H2 9248   4.594   3.012  16.614  1.3056  0.6525  0.5454
  624TMC3    C7 9249   0.029   2.953  16.395  0.1258 -0.2888  0.1631
  624TMC3    C8 9250   4.551   2.880  16.818  0.3291 -0.6760 -0.1321
  624TMC3    O1 9251   0.125   2.949  16.317  0.7302  0.1062  0.3449
  624TMC3    O2 9252   4.498   2.773  16.852 -0.1868 -0.3137  0.0228
  625MPD2     C 9253   0.021   3.593   0.509  0.4303 -0.5013 -0.3632
  625MPD2    C1 9254   0.007   3.645   0.634 -0.5619  0.9975 -0.7135
  625MPD2    C2 9255   0.105   3.612   0.727 -0.2390 -0.1715 -0.5238
  625MPD2    C3 9256   0.202   3.518   0.706  0.2454 -0.2468 -0.3027
  625MPD2    C4 9257   0.209   3.466   0.577  0.0162 -0.7732  0.5107
  625MPD2    C5 9258   0.124   3.511   0.482 -0.6746 -0.1472  0.5101
  625MPD2     H 9259   0.091   3.660   0.823 -1.3480  3.0112 -2.2791
  625MPD2    H1 9260   0.291   3.400   0.550 -0.4900 -2.0844  2.2360
  625MPD2    H2 9261   4.680   3.619   0.427  0.0905 -1.7445 -0.4790
  625MPD2    H3 9262   0.131   3.488   0.376  1.9671 -2.8412  1.2484
  625MPD2     N 9263   0.275   3.482   0.818 -0.1754  0.5801 -0.0580
  625MPD2    H5 9264   0.257   3.529   0.907 -1.7211  0.1595 -0.1535
  625MPD2    N1 9265   4.632   3.736   0.665 -0.0785  0.4725 -0.4212
  625MPD2    H7 9266   4.619   3.753   0.764 -2.1678 -1.9232 -0.2793
  626TMC3    C1 9267   4.461   3.907   0.629 -0.4095 -0.7268 -0.2491
  626TMC3    C2 9268   4.383   3.975   0.540 -0.4206  0.0091  0.3753
  626TMC3    C3 9269   4.284   4.064   0.591 -0.8532 -0.2401  0.2656
  626TMC3    C4 9270   4.460   3.932   0.761  0.1604  0.2957  0.1600
  626TMC3    C5 9271   4.366   4.020   0.810  0.8326 -0.4933  0.4216
  626TMC3    C6 9272   4.276   4.080   0.723  0.4244  0.0032  0.1949
  626TMC3     C 9273   4.556   3.811   0.574 -0.5501 -0.4460 -0.3201
  626TMC3     O 9274   4.527   3.778   0.459 -0.3978  0.3877 -0.0232
  626TMC3     H 9275   4.387   3.957   0.434  1.9889  1.2178  0.2554
  626TMC3    H1 9276   4.513   3.876   0.837  1.6628 -2.4464 -2.9230
  626TMC3    H2 9277   4.201   4.147   0.764  1.5931  0.6866  1.2244
  626TMC3    C7 9278   4.324   3.993   0.947  0.4961  0.2802  0.1932
  626TMC3    C8 9279   4.212   4.152   0.495  0.5937  0.0096  0.0055
  626TMC3    O1 9280   4.405   3.995   1.039  0.2585  0.3251  0.1059
  626TMC3    O2 9281   4.275   4.200   0.404  0.1299  0.1505  0.3707
  627MPD2     C 9282   2.763   4.378  14.555 -0.8621 -0.1647 -0.5117
  627MPD2    C1 9283   2.837   4.317  14.657 -0.1149 -0.1288 -0.2353
  627MPD2    C2 9284   2.802   4.194  14.710  0.2376  0.9285 -0.1773
  627MPD2    C3 9285   2.700   4.126  14.641 -0.4552  0.0298  1.0074
  627MPD2    C4 9286   2.628   4.185  14.534  0.0873  0.4017 -0.9238
  627MPD2    C5 9287   2.660   4.308  14.490  0.4163  0.3225 -0.1435
  627MPD2     H 9288   2.855   4.155  14.797  1.0627  1.0341 -0.6259
  627MPD2    H1 9289   2.554   4.123  14.485 -1.2132  0.3197  1.1728
  627MPD2    H2 9290   2.774   4.482  14.524  0.3561  0.8812  3.3389
  627MPD2    H3 9291   2.612   4.350  14.403 -2.2482  2.0757  2.1611
  627MPD2     N 9292   2.685   3.990  14.678 -0.3066  0.8476 -0.3272
  627MPD2    H5 9293   2.756   3.959  14.744 -1.2258  2.7991  1.5584
  627MPD2    N1 9294   2.947   4.374  14.723  0.3868  0.3910 -0.5722
  627MPD2    H7 9295   2.998   4.316  14.789  0.9795  0.6316 -0.8255
  628TMC3    C1 9296   3.127   4.514  14.752  0.3689  0.0169  0.3354
  628TMC3    C2 9297   3.210   4.405  14.769  0.4434  0.1391 -0.2262
  628TMC3    C3 9298   3.338   4.434  14.804  0.3935  0.2506 -0.0085
  628TMC3    C4 9299   3.171   4.643  14.738 -1.3566 -0.3343  0.2493
  628TMC3    C5 9300   3.307   4.665  14.768 -0.6981  0.3639  0.7989
  628TMC3    C6 9301   3.389   4.561  14.812  0.1142  0.6937 -0.4729
  628TMC3     C 9302   2.998   4.497  14.695 -0.1783  0.4316 -0.0253
  628TMC3     O 9303   2.944   4.587  14.633  0.3411 -0.5455 -0.4191
  628TMC3     H 9304   3.173   4.303  14.770  1.5688 -0.2290  2.7685
  628TMC3    H1 9305   3.100   4.725  14.749 -0.5497  0.8001 -3.2168
  628TMC3    H2 9306   3.495   4.569  14.829  0.3351  0.9754 -1.9947
  628TMC3    C7 9307   3.360   0.070  14.765  0.2927 -0.3165  0.7062
  628TMC3    C8 9308   3.431   4.323  14.778 -1.0095 -1.1411 -0.2281
  628TMC3    O1 9309   3.472   0.096  14.817 -0.1985  0.0135  0.8616
  628TMC3    O2 9310   3.384   4.234  14.705 -0.2592  0.0929 -0.1908
  629MPD2     C 9311   1.274   3.716  15.982  0.1459 -0.1969  0.8935
  629MPD2    C1 9312   1.263   3.599  16.048  0.5257 -0.0091 -1.1392
  629MPD2    C2 9313   1.146   3.580  16.119 -0.3752  0.5000 -0.2508
  629MPD2    C3 9314   1.045   3.666  16.122 -0.1142  0.6980  0.1973
  629MPD2    C4 9315   1.054   3.790  16.060 -0.2029  0.0601  0.4166
  629MPD2    C5 9316   1.171   3.813  15.989  1.1764  0.0149 -0.5268
  629MPD2     H 9317   1.146   3.492  16.183 -0.8434 -0.7025 -1.8958
  629MPD2    H1 9318   0.983   3.872  16.071 -1.5554 -1.2791  1.7245
  629MPD2    H2 9319   1.360   3.744  15.923  1.9883 -4.5530  1.5585
  629MPD2    H3 9320   1.186   3.905  15.932 -0.2559 -0.8975 -2.3628
  629MPD2     N 9321   0.932   3.616  16.182  0.4502  0.7392 -0.8583
  629MPD2    H5 9322   0.934   3.517  16.207  2.6884  0.4190 -2.3231
  629MPD2    N1 9323   1.368   3.507  16.042  0.0540 -0.0046 -0.0237
  629MPD2    H7 9324   1.450   3.534  15.990  0.5382  0.2717  0.8889
  630TMC3    C1 9325   1.451   3.277  16.045 -0.0285 -0.9530 -0.4597
  630TMC3    C2 9326   1.538   3.297  15.938  0.4073 -0.4248 -0.1735
  630TMC3    C3 9327   1.633   3.205  15.919 -0.4082  0.4095  0.0033
  630TMC3    C4 9328   1.456   3.163  16.125  0.2937  0.4726  0.1681
  630TMC3    C5 9329   1.556   3.072  16.106 -0.4079 -0.7563 -0.4443
  630TMC3    C6 9330   1.639   3.093  15.999 -0.3383  0.6146  0.2502
  630TMC3     C 9331   1.361   3.376  16.091 -0.2257 -0.3925 -0.5172
  630TMC3     O 9332   1.280   3.326  16.170  0.1075 -0.6283  0.1019
  630TMC3     H 9333   1.539   3.385  15.874  0.1656 -0.2221  0.1036
  630TMC3    H1 9334   1.420   3.169  16.227  2.8868  1.6618  1.0137
  630TMC3    H2 9335   1.723   3.029  15.977 -2.8376 -1.9858 -1.7392
  630TMC3    C7 9336   1.617   3.047  16.240  0.1038  0.6782 -0.5369
  630TMC3    C8 9337   1.769   3.267  15.919  0.1517  0.2915  0.0537
  630TMC3    O1 9338   1.544   3.007  16.329 -0.0735 -0.1295  0.4952
  630TMC3    O2 9339   1.816   3.258  16.031  0.1065  0.2990  0.6300
  631MPD2     C 9340   4.647   2.528  15.652  0.2739  0.7030 -0.1899
  631MPD2    C1 9341   4.708   2.545  15.531  0.5878  0.0327 -0.0533
  631MPD2    C2 9342   0.117   2.502  15.511 -0.0560  0.3581  0.3750
  631MPD2    C3 9343   0.187   2.453  15.616  0.0674  0.0824  0.2594
  631MPD2    C4 9344   0.128   2.425  15.740 -0.1928 -0.2200  0.8289
  631MPD2    C5 9345   4.720   2.468  15.755 -0.0987  0.4418  0.3536
  631MPD2     H 9346   0.176   2.516  15.421 -0.6500 -1.2755 -0.2700
  631MPD2    H1 9347   0.184   2.394  15.827 -0.0783  0.7984  1.1292
  631MPD2    H2 9348   4.543   2.554  15.671  0.4791  0.7376  0.8820
  631MPD2    H3 9349   4.665   2.448  15.846  0.8279 -0.7106  0.6553
  631MPD2     N 9350   0.321   2.441  15.583  0.2208  0.9782  0.4701
  631MPD2    H5 9351   0.340   2.457  15.484 -0.4685  0.2459  0.2225
  631MPD2    N1 9352   4.644   2.622  15.426 -0.5429  0.0492 -0.6713
  631MPD2    H7 9353   4.555   2.661  15.455 -0.1370 -0.7065  1.5715
  632TMC3    C1 9354   4.614   2.734  15.212 -0.4130  0.5792  0.5898
  632TMC3    C2 9355   4.544   2.843  15.270  0.0931  0.4737  0.0515
  632TMC3    C3 9356   4.521   2.956  15.195  1.0882  0.7949  0.5293
  632TMC3    C4 9357   4.666   2.744  15.083 -0.0751  0.0394  0.0033
  632TMC3    C5 9358   4.629   2.853  15.009 -0.1673 -0.7844  0.3079
  632TMC3    C6 9359   4.571   2.969  15.066  0.4686 -0.4612 -0.2626
  632TMC3     C 9360   4.697   2.651  15.300  0.5953  0.5350  0.4090
  632TMC3     O 9361   0.073   2.598  15.253  0.5156  0.6764 -0.1839
  632TMC3     H 9362   4.494   2.835  15.366  1.3371  0.1808  0.6655
  632TMC3    H1 9363   4.716   2.662  15.034 -0.1329  0.2140 -0.3422
  632TMC3    H2 9364   4.551   3.055  15.003  0.2421 -0.6830 -0.4902
  632TMC3    C7 9365   4.690   2.881  14.880  0.6769 -0.6841 -0.1835
  632TMC3    C8 9366   4.433   3.060  15.248  0.5589  0.5694 -0.9845
  632TMC3    O1 9367   4.616   2.925  14.797 -0.2554 -0.1973  0.3356
  632TMC3    O2 9368   4.402   3.057  15.366  0.6832  0.1129 -0.3252
  633MPD2     C 9369   4.189   0.470  17.289 -0.1853  0.3766  0.4879
  633MPD2    C1 9370   4.259   0.449  17.167 -0.1698 -0.0253 -0.1580
  633MPD2    C2 9371   4.273   0.329  17.105 -0.3490  0.6705  0.0471
  633MPD2    C3 9372   4.214   0.218  17.170  0.1061 -0.3472 -0.0469
  633MPD2    C4 9373   4.161   0.236  17.296 -0.3131  0.1123  0.1984
  633MPD2    C5 9374   4.156   0.361  17.355 -0.9136  0.0742 -0.5723
  633MPD2     H 9375   4.335   0.332  17.017 -1.2326  3.8176 -0.4812
  633MPD2    H1 9376   4.111   0.161  17.356  1.7072 -0.8731  0.6731
  633MPD2    H2 9377   4.175   0.568  17.333  1.2752  0.1398  1.4788
  633MPD2    H3 9378   4.108   0.376  17.450  0.9689  1.4366  0.1663
  633MPD2     N 9379   4.216   0.087  17.112 -0.4866  0.5516  0.0914
  633MPD2    H5 9380   4.194   0.006  17.168  2.3976  0.0176  0.4434
  633MPD2    N1 9381   4.325   0.547  17.097  0.6283 -0.6220  0.4683
  633MPD2    H7 9382   4.349   0.523  17.002  0.7441 -0.0326  0.3498
  634TMC3    C1 9383   4.427   0.741  17.039 -0.0013  0.5545 -0.5207
  634TMC3    C2 9384   4.508   0.668  16.957  0.2110  0.1792 -0.2951
  634TMC3    C3 9385   4.575   0.736  16.859 -0.3091 -0.1662 -0.2850
  634TMC3    C4 9386   4.428   0.877  17.032 -0.4196  0.5324 -0.5245
  634TMC3    C5 9387   4.509   0.943  16.944  0.7763 -0.4734 -0.8529
  634TMC3    C6 9388   4.587   0.877  16.854 -0.1081  0.8887 -0.0379
  634TMC3     C 9389   4.354   0.671  17.142  0.9207 -0.3625  0.0061
  634TMC3     O 9390   4.344   0.716  17.256  0.3629 -0.2110  0.7617
  634TMC3     H 9391   4.521   0.560  16.962 -0.1290  0.1677  0.4065
  634TMC3    H1 9392   4.341   0.930  17.071  1.4971  1.4487  2.4931
  634TMC3    H2 9393   4.647   0.923  16.776 -0.5649 -0.8505 -1.4151
  634TMC3    C7 9394   4.447   1.069  16.896 -1.3324  0.0424  0.4856
  634TMC3    C8 9395   4.656   0.650  16.774  0.7754  0.2098 -0.4042
  634TMC3    O1 9396   4.492   1.105  16.788 -0.2312  0.0324 -0.0179
  634TMC3    O2 9397   4.619   0.538  16.745 -0.0021  0.1585  0.3272
  635TMC3    C1 9398   4.113   1.445   0.562 -0.0054  0.3257 -0.2571
  635TMC3    C2 9399   4.135   1.318   0.611 -0.3658  0.1982 -0.6537
  635TMC3    C3 9400   4.060   1.278   0.714 -0.2607 -0.1016 -0.3064
  635TMC3    C4 9401   4.027   1.538   0.616 -0.2074  0.3732  0.4718
  635TMC3    C5 9402   3.960   1.503   0.724 -0.5755  0.6568  0.2631
  635TMC3    C6 9403   3.971   1.373   0.769 -0.0237  0.7545  0.2774
  635TMC3     C 9404   4.204   1.506   0.464 -0.3077 -0.3071  0.5029
  635TMC3     O 9405   4.182   1.623   0.444 -0.5119  0.2158  0.2289
  635TMC3     H 9406   4.214   1.259   0.567  1.4094  1.0947  1.3359
  635TMC3    H1 9407   4.000   1.637   0.578 -0.3967  0.3516  0.5489
  635TMC3    H2 9408   3.912   1.345   0.855  1.7269 -1.4664  0.7537
  635TMC3    C7 9409   3.866   1.593   0.785  0.1453 -0.0762 -0.9426
  635TMC3    C8 9410   4.065   1.143   0.784  1.0705 -0.3197  0.0729
  635TMC3    O1 9411   3.810   1.677   0.717 -0.3094  0.6551  0.0739
  635TMC3    O2 9412   3.992   1.132   0.884  0.3726  0.6130 -0.2790
  636MPD2     C 9413   1.042   0.883  15.517 -0.7868  0.1462  0.4276
  636MPD2    C1 9414   1.150   0.896  15.604  0.2649 -0.3948 -0.6147
  636MPD2    C2 9415   1.167   0.805  15.705 -0.2018 -0.6453 -0.0754
  636MPD2    C3 9416   1.090   0.691  15.719  0.5508 -0.3408 -0.0464
  636MPD2    C4 9417   0.984   0.686  15.630  0.5113 -0.4178  0.8828
  636MPD2    C5 9418   0.953   0.781  15.536  0.7066  0.1652  0.1760
  636MPD2     H 9419   1.258   0.819  15.762 -0.4165 -1.2192  0.4078
  636MPD2    H1 9420   0.917   0.602  15.641  0.9194 -0.7607  0.7395
  636MPD2    H2 9421   1.022   0.945  15.430 -0.4954 -2.8419 -1.7622
  636MPD2    H3 9422   0.871   0.772  15.466  1.8561 -0.1828 -1.1143
  636MPD2     N 9423   1.121   0.604  15.818  0.1954 -0.3894  0.2617
  636MPD2    H5 9424   1.203   0.624  15.875  1.1629  0.8556 -1.5719
  636MPD2    N1 9425   1.250   0.996  15.583  0.0800  0.0886  0.0279
  636MPD2    H7 9426   1.333   0.987  15.640 -0.4080  0.3343  0.7775
  637TMC3    C1 9427   1.087   0.431  15.985  1.1234 -0.3991  0.6106
  637TMC3    C2 9428   1.165   0.492  16.077  0.1820  0.0932  0.1693
  637TMC3    C3 9429   1.226   0.419  16.180 -0.6660  0.1907 -0.2443
  637TMC3    C4 9430   1.076   0.298  15.990 -0.4369  0.0257 -0.1481
  637TMC3    C5 9431   1.149   0.225  16.079  1.1628 -0.2332 -0.4453
  637TMC3    C6 9432   1.217   0.281  16.182 -0.1295 -0.5423  0.5461
  637TMC3     C 9433   1.054   0.489  15.851  0.1846 -0.1807  0.3089
  637TMC3     O 9434   0.966   0.428  15.797 -0.1210 -0.4399  0.1004
  637TMC3     H 9435   1.166   0.599  16.093 -1.3456  0.1667 -0.2666
  637TMC3    H1 9436   1.018   0.240  15.920  1.3702 -0.4552 -1.2469
  637TMC3    H2 9437   1.265   0.215  16.254 -0.0400 -0.5143  0.5121
  637TMC3    C7 9438   1.231   0.134  16.006 -0.0754 -0.2425 -0.7733
  637TMC3    C8 9439   1.316   0.493  16.256  0.0138  0.5768  0.5967
  637TMC3    O1 9440   1.179   0.079  15.908  0.3074  0.0549 -0.2816
  637TMC3    O2 9441   1.360   0.600  16.214  0.4263  0.1842  0.3042
  638MPD2     C 9442   0.691   0.034  15.165  0.2520  0.5826  0.3210
  638MPD2    C1 9443   0.629   4.666  15.073  0.6368  0.2647  0.4773
  638MPD2    C2 9444   0.606   4.536  15.123  0.4159  0.2507  0.2524
  638MPD2    C3 9445   0.642   4.500  15.253 -0.0001 -0.0035 -0.4093
  638MPD2    C4 9446   0.699   4.593  15.339  0.0084 -0.5351 -0.1538
  638MPD2    C5 9447   0.722   4.721  15.291 -0.1913 -0.2758  0.2538
  638MPD2     H 9448   0.573   4.455  15.060  1.0009  0.3920 -0.2411
  638MPD2    H1 9449   0.717   4.564  15.442  0.2503  2.6619  0.6899
  638MPD2    H2 9450   0.702   0.139  15.141  1.4723  0.0395 -1.4693
  638MPD2    H3 9451   0.767   0.063  15.362  0.1331  0.3634 -0.5617
  638MPD2     N 9452   0.620   4.366  15.290  0.2538  0.1746  0.2955
  638MPD2    H5 9453   0.557   4.314  15.231 -0.6709 -1.1578  2.4659
  638MPD2    N1 9454   0.575   4.714  14.951  0.1250 -0.2920  0.2739
  638MPD2    H7 9455   0.603   0.082  14.925 -1.2511 -0.2409 -1.0207
  639TMC3    C1 9456   0.672   4.163  15.377  0.1752  0.0460  0.2179
  639TMC3    C2 9457   0.573   4.114  15.306 -0.4232  0.8126 -0.4083
  639TMC3    C3 9458   0.595   3.998  15.237  0.1006 -0.0048 -0.3257
  639TMC3    C4 9459   0.794   4.103  15.382 -0.2053  0.5573 -0.2018
  639TMC3    C5 9460   0.809   3.982  15.322 -0.2539  0.2027 -0.5350
  639TMC3    C6 9461   0.712   3.927  15.249  0.5153 -0.4266 -0.3680
  639TMC3     C 9462   0.673   4.309  15.400  0.3719 -1.0626  0.1427
  639TMC3     O 9463   0.773   4.344  15.459 -0.6356 -0.3261 -0.3398
  639TMC3     H 9464   0.472   4.152  15.309 -0.6103  0.3724 -1.0351
  639TMC3    H1 9465   0.877   4.142  15.440 -0.6740 -0.4514  1.1616
  639TMC3    H2 9466   0.722   3.833  15.196 -1.4416 -1.0375  0.3487
  639TMC3    C7 9467   0.924   3.904  15.324  0.3502  1.1179  0.3940
  639TMC3    C8 9468   0.495   3.945  15.149  0.1023 -0.5510 -0.3077
  639TMC3    O1 9469   0.902   3.784  15.336 -0.7817 -0.3942  0.1376
  639TMC3    O2 9470   0.534   3.904  15.043  0.4522 -0.1098  0.0465
  640MPD2     C 9471   1.111   2.897  10.039 -0.1128  0.3575 -0.3573
  640MPD2    C1 9472   1.157   2.978   9.931  0.4057 -0.2155  0.7515
  640MPD2    C2 9473   1.076   3.076   9.885  0.4545  0.2893 -0.3805
  640MPD2    C3 9474   0.951   3.087   9.927  0.4443  0.1439 -0.1109
  640MPD2    C4 9475   0.907   3.007  10.032  0.5516  0.2231 -0.6920
  640MPD2    C5 9476   0.984   2.913  10.084 -0.0169 -0.2775 -1.0498
  640MPD2     H 9477   1.112   3.141   9.807  1.4383  1.5108  1.1090
  640MPD2    H1 9478   0.811   3.023  10.079  0.8955 -1.2021  0.4864
  640MPD2    H2 9479   1.178   2.823  10.082  0.7038  0.8201 -0.8390
  640MPD2    H3 9480   0.952   2.850  10.166  0.2196 -0.7732 -1.3329
  640MPD2     N 9481   0.869   3.206   9.893 -0.5879 -0.8747 -0.2246
  640MPD2    H5 9482   0.910   3.260   9.817  2.3527 -1.7699  0.7088
  640MPD2    N1 9483   1.287   2.960   9.890  0.0952 -0.0283  0.4639
  640MPD2    H7 9484   1.348   2.892   9.934  0.6994 -0.2941 -0.7808
  641TMC3    C1 9485   1.466   2.948   9.732  0.3101  0.1427  0.6268
  641TMC3    C2 9486   1.506   2.829   9.786  0.0378  0.2578 -0.2589
  641TMC3    C3 9487   1.631   2.783   9.751  0.1547 -0.0036 -0.0964
  641TMC3    C4 9488   1.558   3.025   9.658  0.6369 -0.1295 -0.3118
  641TMC3    C5 9489   1.676   2.976   9.626 -0.4162 -0.0962 -0.3098
  641TMC3    C6 9490   1.713   2.851   9.674 -0.4953  0.1098 -0.4988
  641TMC3     C 9491   1.349   3.021   9.785  0.1345  0.1603 -0.3102
  641TMC3     O 9492   1.301   3.095   9.702 -0.2272  0.3953  0.1464
  641TMC3     H 9493   1.436   2.769   9.843 -1.7978  1.6658 -1.0209
  641TMC3    H1 9494   1.528   3.126   9.633 -0.7026 -0.3319  0.4338
  641TMC3    H2 9495   1.812   2.809   9.656 -0.6657 -1.4061  2.1412
  641TMC3    C7 9496   1.777   3.069   9.563 -0.1329  0.5556  0.4649
  641TMC3    C8 9497   1.686   2.667   9.816  0.6208 -0.7864  0.2552
  641TMC3    O1 9498   1.742   3.182   9.543  0.2418 -0.1988 -0.2031
  641TMC3    O2 9499   1.782   2.607   9.769 -0.0386 -0.1918  0.2148
  642TMC3    C1 9500   2.238   3.365  12.847  0.5110  0.3141 -0.4134
  642TMC3    C2 9501   2.173   3.334  12.962 -0.9726  0.8714  1.4806
  642TMC3    C3 9502   2.189   3.209  13.009 -0.4211 -0.0505  0.0433
  642TMC3    C4 9503   2.312   3.277  12.775  0.4351  0.0669 -0.3937
  642TMC3    C5 9504   2.324   3.150  12.824 -0.2382  0.1355 -0.1568
  642TMC3    C6 9505   2.268   3.114  12.946  0.7055 -0.3203  0.2438
  642TMC3     C 9506   2.228   3.504  12.784 -0.1105 -1.1200 -0.2129
  642TMC3     O 9507   2.313   3.540  12.705  0.2953  0.0470  0.0120
  642TMC3     H 9508   2.111   3.410  13.009 -0.5922  0.8148  2.0752
  642TMC3    H1 9509   2.365   3.299  12.684  1.1432  1.5586  0.3865
  642TMC3    H2 9510   2.283   3.012  12.980  4.6281  0.8111  1.8532
  642TMC3    C7 9511   2.348   3.042  12.736 -0.4534 -0.1619  0.2203
  642TMC3    C8 9512   2.128   3.171  13.129  0.5798  0.5389 -0.2002
  642TMC3    O1 9513   2.352   3.072  12.618 -0.6852 -0.2131 -0.6842
  642TMC3    O2 9514   2.180   3.075  13.176  0.2543 -0.3393 -0.0905
  643TMC3    C1 9515   1.481   3.566   0.550  0.6922  0.7849  0.3461
  643TMC3    C2 9516   1.369   3.611   0.486  0.7233  0.5676  0.2074
  643TMC3    C3 9517   1.350   3.582   0.355 -0.5102  0.8663  0.2744
  643TMC3    C4 9518   1.580   3.510   0.468 -0.6197  1.0932  0.5042
  643TMC3    C5 9519   1.557   3.482   0.344 -0.0633  0.2345 -0.5698
  643TMC3    C6 9520   1.437   3.506   0.282 -0.5025 -0.0801 -0.4114
  643TMC3     C 9521   1.493   3.588   0.696  0.0653  0.2376 -0.5598
  643TMC3     O 9522   1.403   3.653   0.744 -0.2986 -0.5692 -0.0435
  643TMC3     H 9523   1.297   3.668   0.542 -0.4765  0.7315 -1.4947
  643TMC3    H1 9524   1.685   3.503   0.494  0.0525  1.0891 -2.3085
  643TMC3    H2 9525   1.427   3.491   0.175 -2.6165  0.4778 -0.2896
  643TMC3    C7 9526   1.668   3.501   0.254  0.4918  0.0046  0.4874
  643TMC3    C8 9527   1.283   3.688   0.283  0.5290  0.6010  0.2386
  643TMC3    O1 9528   1.752   3.584   0.288 -0.0477  0.0273 -0.1187
  643TMC3    O2 9529   1.225   3.657   0.180  1.1465 -0.2301  0.4067
  644MPD2     C 9530   1.569   3.432   9.655  0.3090  0.4082  0.8515
  644MPD2    C1 9531   1.671   3.525   9.646 -0.0688 -0.0467 -0.2658
  644MPD2    C2 9532   1.649   3.659   9.619  0.4840 -0.5474 -0.2683
  644MPD2    C3 9533   1.521   3.701   9.577 -0.1882  0.1037  0.6265
  644MPD2    C4 9534   1.430   3.601   9.574 -0.1612 -0.3018  0.3059
  644MPD2    C5 9535   1.449   3.473   9.620 -0.4347 -0.0572 -0.2952
  644MPD2     H 9536   1.730   3.731   9.623  0.9857 -1.2268  2.0702
  644MPD2    H1 9537   1.330   3.625   9.541  0.1230  0.6354  0.1236
  644MPD2    H2 9538   1.583   3.327   9.678 -2.7568  0.2803  2.2004
  644MPD2    H3 9539   1.370   3.399   9.625  1.0958 -1.6148  1.1342
  644MPD2     N 9540   1.488   3.832   9.537  0.9246  0.3703 -0.1285
  644MPD2    H5 9541   1.394   3.842   9.500  1.2430  0.1165 -1.0167
  644MPD2    N1 9542   1.799   3.472   9.688 -0.4654  0.1773 -0.0330
  644MPD2    H7 9543   1.805   3.372   9.702 -4.0762 -0.2358 -1.2813
  645TMC3    C1 9544   1.504   4.062   9.503  0.3265 -0.1925  1.1179
  645TMC3    C2 9545   1.541   4.179   9.569 -0.2679 -0.2031 -0.0446
  645TMC3    C3 9546   1.464   4.294   9.560 -0.1718 -0.7820 -0.2426
  645TMC3    C4 9547   1.396   4.062   9.416 -0.6390  0.3439  0.4230
  645TMC3    C5 9548   1.327   4.178   9.402 -0.0783  0.0765  0.4851
  645TMC3    C6 9549   1.364   4.299   9.468  0.1393 -0.3930 -0.2454
  645TMC3     C 9550   1.573   3.938   9.541  1.1719 -0.3981 -0.0937
  645TMC3     O 9551   1.678   3.955   9.604  0.2147  0.4133  0.3728
  645TMC3     H 9552   1.618   4.164   9.644  1.6184  3.0727 -1.2672
  645TMC3    H1 9553   1.374   3.973   9.358  0.7195 -0.3047  0.9017
  645TMC3    H2 9554   1.303   4.388   9.454 -1.4119 -1.3013  0.8350
  645TMC3    C7 9555   1.217   4.188   9.310  0.2853  0.3199  0.2354
  645TMC3    C8 9556   1.468   4.403   9.648 -0.1684 -0.5452  0.3974
  645TMC3    O1 9557   1.190   4.299   9.261 -0.1980  0.2640  0.4620
  645TMC3    O2 9558   1.384   4.496   9.636 -0.2802 -0.2597 -0.1887
  646MPD2     C 9559   0.849   3.246  14.611  0.4540 -0.1528 -1.0226
  646MPD2    C1 9560   0.771   3.212  14.718  0.6048  0.3335  0.4402
  646MPD2    C2 9561   0.647   3.276  14.735  0.5174 -0.3103 -0.4455
  646MPD2    C3 9562   0.607   3.359  14.635 -0.0932  0.0750  0.0706
  646MPD2    C4 9563   0.695   3.402  14.540  0.5260 -0.1799 -0.4602
  646MPD2    C5 9564   0.825   3.353  14.535  0.3306 -0.2140  0.2701
  646MPD2     H 9565   0.581   3.241  14.813 -1.2185 -1.8787 -2.6229
  646MPD2    H1 9566   0.679   3.479  14.465 -1.1549  1.3628  1.4739
  646MPD2    H2 9567   0.947   3.201  14.602  0.3669 -0.3821 -0.8255
  646MPD2    H3 9568   0.906   3.382  14.468 -1.1608  0.5352 -1.1948
  646MPD2     N 9569   0.468   3.393  14.634  0.0968  0.3346  0.2275
  646MPD2    H5 9570   0.417   3.373  14.719  2.0318  0.8588  1.5056
  646MPD2    N1 9571   0.837   3.108  14.794  0.1876  0.4930 -0.4244
  646MPD2    H7 9572   0.929   3.075  14.766 -0.9635 -1.4872 -1.9132
  647TMC3    C1 9573   0.883   2.989  14.991  0.4408 -0.5323  0.4808
  647TMC3    C2 9574   0.827   2.903  15.080 -0.0859  0.1670 -0.1123
  647TMC3    C3 9575   0.915   2.829  15.153 -0.0347  0.3784 -0.2507
  647TMC3    C4 9576   1.014   2.997  14.957  0.5277  0.1213 -0.3701
  647TMC3    C5 9577   1.094   2.918  15.035  0.0525  0.5730 -0.3639
  647TMC3    C6 9578   1.051   2.838  15.132  0.0364 -0.1775  0.1041
  647TMC3     C 9579   0.784   3.063  14.915 -0.2839 -0.0640  0.3091
  647TMC3     O 9580   0.668   3.067  14.966  0.1106 -0.4074  0.8292
  647TMC3     H 9581   0.721   2.896  15.103  0.1143 -0.8379  0.4945
  647TMC3    H1 9582   1.059   3.076  14.898  2.0133 -0.5676 -0.1838
  647TMC3    H2 9583   1.123   2.773  15.180  0.6018 -0.1970 -0.7690
  647TMC3    C7 9584   1.240   2.916  15.022 -0.6938  0.1093 -0.8334
  647TMC3    C8 9585   0.879   2.716  15.234 -0.0907 -0.3669  0.2562
  647TMC3    O1 9586   1.306   2.880  15.121  0.4326  0.4713  0.3960
  647TMC3    O2 9587   0.967   2.684  15.312 -0.3419  0.4144  0.1031
  648TMC3    C1 9588   0.494   0.987  16.161  0.3594  0.0818 -0.5669
  648TMC3    C2 9589   0.556   0.878  16.112  0.4165 -0.0535 -0.6798
  648TMC3    C3 9590   0.487   0.813  16.002 -0.5431  0.1469  0.8886
  648TMC3    C4 9591   0.379   1.036  16.118  0.1471 -0.2515 -0.0740
  648TMC3    C5 9592   0.313   0.970  16.016  0.0198 -0.1727 -0.0794
  648TMC3    C6 9593   0.362   0.849  15.963  0.1671 -0.2601  0.1686
  648TMC3     C 9594   0.543   1.057  16.278 -0.1331  1.6845  0.5303
  648TMC3     O 9595   0.501   1.172  16.286 -0.1843 -0.0520  0.2010
  648TMC3     H 9596   0.648   0.835  16.152 -0.1243  0.3582  0.9876
  648TMC3    H1 9597   0.318   1.108  16.171 -1.0831  0.1268 -1.9866
  648TMC3    H2 9598   0.307   0.783  15.897 -0.1660  1.5282 -1.3558
  648TMC3    C7 9599   0.186   1.025  15.968  0.1998  0.1694 -0.4388
  648TMC3    C8 9600   0.547   0.692  15.956 -0.0013  0.2227  0.2170
  648TMC3    O1 9601   0.118   0.955  15.894 -0.5165 -0.0327 -0.0123
  648TMC3    O2 9602   0.669   0.695  15.946  0.0171 -0.7433  0.3164
  649TMC3    C1 9603   4.008   1.837  12.788  0.0045  0.4301 -0.0155
  649TMC3    C2 9604   4.135   1.827  12.731 -1.0616  0.4565  0.2594
  649TMC3    C3 9605   4.231   1.786  12.818  1.1258  0.1436 -0.7051
  649TMC3    C4 9606   3.971   1.827  12.919 -0.4145 -0.7445 -0.2998
  649TMC3    C5 9607   4.075   1.793  13.001  0.7206 -0.4469 -0.1580
  649TMC3    C6 9608   4.207   1.770  12.950 -0.0232  0.3691  0.2649
  649TMC3     C 9609   3.890   1.870  12.702 -0.1975  0.3409 -0.8340
  649TMC3     O 9610   3.793   1.913  12.764  0.3934  0.2308 -0.1760
  649TMC3     H 9611   4.172   1.875  12.641  0.3057 -0.4100  0.3493
  649TMC3    H1 9612   3.865   1.824  12.943 -0.1322 -0.3890  0.9729
  649TMC3    H2 9613   4.289   1.742  13.015  1.9504 -0.1631 -2.4842
  649TMC3    C7 9614   4.032   1.756  13.136  0.2023 -0.2239 -0.1775
  649TMC3    C8 9615   4.371   1.768  12.778 -0.3730  0.2170  0.0551
  649TMC3    O1 9616   3.923   1.788  13.175 -0.4992 -0.9257 -0.6371
  649TMC3    O2 9617   4.446   1.738  12.871  0.8027  0.1141 -0.4029
  650TMC3    C1 9618   1.573   2.896  13.485  0.0877  0.2066  0.0853
  650TMC3    C2 9619   1.515   3.013  13.462 -0.1055 -0.0163  0.2117
  650TMC3    C3 9620   1.538   3.079  13.345 -0.4156 -0.1610 -0.0471
  650TMC3    C4 9621   1.662   2.844  13.397  0.4102  0.2061  0.0481
  650TMC3    C5 9622   1.690   2.918  13.283 -0.4123  0.1212  0.7715
  650TMC3    C6 9623   1.634   3.037  13.256  0.9082 -0.3919  1.3471
  650TMC3     C 9624   1.538   2.826  13.603 -0.5534  0.3686 -0.6510
  650TMC3     O 9625   1.422   2.844  13.643 -0.2039 -0.2236 -0.1127
  650TMC3     H 9626   1.438   3.049  13.528  0.5063 -1.8676  1.9368
  650TMC3    H1 9627   1.704   2.744  13.407 -0.9475 -0.4517 -0.8925
  650TMC3    H2 9628   1.655   3.109  13.177  1.8727 -2.0984  0.0643
  650TMC3    C7 9629   1.790   2.861  13.192  0.0878  0.2045 -0.4073
  650TMC3    C8 9630   1.480   3.202  13.308 -0.2312 -1.1556 -0.7918
  650TMC3    O1 9631   1.842   2.751  13.204  0.2773 -0.3923  0.5521
  650TMC3    O2 9632   1.544   3.276  13.233  0.9884  0.4970  0.7356
  651MPD2     C 9633   0.859   0.216  10.707  0.1735  0.3942  0.3175
  651MPD2    C1 9634   0.838   0.305  10.809  0.0151  0.1910 -0.6102
  651MPD2    C2 9635   0.933   0.406  10.832 -0.2543  0.2499 -0.4142
  651MPD2    C3 9636   1.047   0.406  10.752 -0.0869 -0.2610  0.0900
  651MPD2    C4 9637   1.072   0.310  10.652  0.1125  0.1703 -0.3634
  651MPD2    C5 9638   0.974   0.216  10.633 -0.2844  0.4431 -0.0133
  651MPD2     H 9639   0.922   0.490  10.900 -0.9064  0.3694 -0.6677
  651MPD2    H1 9640   1.157   0.315  10.585  0.3032 -0.0266 -0.1349
  651MPD2    H2 9641   0.794   0.132  10.687 -1.2604  1.3042  1.1452
  651MPD2    H3 9642   0.979   0.133  10.564  0.0045  0.4715 -0.0247
  651MPD2     N 9643   1.135   0.511  10.773 -0.2200 -0.4170 -0.0018
  651MPD2    H5 9644   1.108   0.592  10.829 -0.4849 -0.2171 -0.4176
  651MPD2    N1 9645   0.722   0.315  10.886  0.6010 -0.1531  0.0141
  651MPD2    H7 9646   0.711   0.397  10.946 -0.4527 -0.5006  0.2875
  652TMC3    C1 9647   1.500   0.727  10.888  0.8723  0.4191 -0.5391
  652TMC3    C2 9648   1.443   0.619  10.831  0.5838  0.4737  0.2809
  652TMC3    C3 9649   1.324   0.632  10.779  0.3970  1.0456  1.0286
  652TMC3    C4 9650   1.436   0.845  10.900 -0.2901 -0.4956  0.2474
  652TMC3    C5 9651   1.314   0.860  10.840  0.3065 -0.2976 -0.3335
  652TMC3    C6 9652   1.265   0.756  10.766 -0.2251  0.0503 -0.5594
  652TMC3     C 9653   1.625   0.710  10.952  0.2459 -0.3455 -0.3081
  652TMC3     O 9654   1.636   0.624  11.036 -0.3668 -0.6575 -0.1942
  652TMC3     H 9655   1.496   0.528  10.807 -2.0972 -0.4249 -2.1749
  652TMC3    H1 9656   1.480   0.924  10.960 -0.8432 -1.8394  2.4286
  652TMC3    H2 9657   1.170   0.766  10.715 -0.4848  2.3039  0.3470
  652TMC3    C7 9658   1.220   0.957  10.892  1.0277  0.3816  0.1650
  652TMC3    C8 9659   1.263   0.513  10.727  0.3402 -0.1902 -0.3011
  652TMC3    O1 9660   1.239   0.985  11.007  0.0801 -0.2032  0.3210
  652TMC3    O2 9661   1.329   0.440  10.651  0.7124 -0.2276 -0.1785
  653MPD2     C 9662   4.088   1.159   0.053 -0.2415  0.3899  0.7764
  653MPD2    C1 9663   4.114   1.203  17.630 -0.4578  0.0791  0.9690
  653MPD2    C2 9664   4.071   1.128  17.519 -0.6454  0.3815 -0.2191
  653MPD2    C3 9665   4.019   1.006  17.540  0.2600  0.6671 -0.6408
  653MPD2    C4 9666   4.014   0.955  17.668 -0.0093  0.3115  0.0720
  653MPD2    C5 9667   4.037   1.037   0.070 -0.0104  0.0832  0.0594
  653MPD2     H 9668   4.086   1.158  17.415 -3.8044  0.2771 -0.7095
  653MPD2    H1 9669   3.980   0.854  17.686 -0.8460  0.3810 -1.0640
  653MPD2    H2 9670   4.107   1.219   0.141 -3.1269 -0.7457  2.1611
  653MPD2    H3 9671   4.000   1.005   0.167  1.5013 -0.4644  0.4536
  653MPD2     N 9672   3.983   0.935  17.429 -0.0987 -0.2507 -0.4167
  653MPD2    H5 9673   3.995   0.981  17.339  0.1747  1.2387  0.3854
  653MPD2    N1 9674   4.171   1.334  17.624 -0.2398 -0.1188 -0.3353
  653MPD2    H7 9675   4.201   1.376   0.009 -0.5116  1.1205 -0.8377
  654TMC3    C1 9676   3.865   0.772  17.307 -0.3002  0.0357  0.1165
  654TMC3    C2 9677   3.778   0.866  17.257 -0.1637 -0.7321 -0.6361
  654TMC3    C3 9678   3.687   0.822  17.160  0.1288  0.1752  0.4241
  654TMC3    C4 9679   3.868   0.645  17.273  0.4537  0.7693  0.1753
  654TMC3    C5 9680   3.772   0.603  17.185  0.3067  0.4225 -0.4357
  654TMC3    C6 9681   3.685   0.691  17.125 -0.1967  0.5616  0.1754
  654TMC3     C 9682   3.943   0.805  17.422  0.6007  0.0118  0.2251
  654TMC3     O 9683   3.973   0.713  17.498 -0.0566  0.1441  0.5847
  654TMC3     H 9684   3.794   0.972  17.273 -1.4077 -0.3386 -2.0629
  654TMC3    H1 9685   3.940   0.576  17.317 -0.9894 -0.0040  1.3009
  654TMC3    H2 9686   3.605   0.643  17.069  0.4050  0.6184 -0.7332
  654TMC3    C7 9687   3.793   0.481  17.108  0.0423 -0.0234 -0.5135
  654TMC3    C8 9688   3.628   0.917  17.072  0.2398  0.5843 -0.9211
  654TMC3    O1 9689   3.805   0.500  16.990  0.1782  0.5265  0.5514
  654TMC3    O2 9690   3.623   1.035  17.093 -0.3305  0.1619 -0.1535
  655MPD2     C 9691   0.684   1.129  15.845 -0.8317 -0.1505 -0.1716
  655MPD2    C1 9692   0.571   1.178  15.788  0.3193 -1.0324 -0.2716
  655MPD2    C2 9693   0.516   1.104  15.684 -0.3124 -0.1051  0.5350
  655MPD2    C3 9694   0.572   0.982  15.649  0.2649 -0.2641  0.2753
  655MPD2    C4 9695   0.682   0.933  15.714  0.0280  0.0749  0.2385
  655MPD2    C5 9696   0.739   1.008  15.812 -0.2470  1.5273 -0.3148
  655MPD2     H 9697   0.430   1.140  15.629 -1.6629 -0.9985  2.0813
  655MPD2    H1 9698   0.731   0.842  15.681  0.7026  1.1458 -1.7145
  655MPD2    H2 9699   0.731   1.175  15.931  0.4165  0.1387 -1.0088
  655MPD2    H3 9700   0.826   0.961  15.857 -1.3682  1.0929  1.4000
  655MPD2     N 9701   0.525   0.898  15.544  0.4853 -0.1796  0.3973
  655MPD2    H5 9702   0.582   0.817  15.521  0.1599 -0.0839 -0.7654
  655MPD2    N1 9703   0.511   1.296  15.823 -0.0385 -0.2536 -0.3315
  655MPD2    H7 9704   0.416   1.314  15.793  0.4423 -0.9751 -2.2689
  656TMC3    C1 9705   0.465   1.492  15.963 -0.2331 -0.1202  1.1555
  656TMC3    C2 9706   0.436   1.495  16.097  0.5440  0.5017  0.4098
  656TMC3    C3 9707   0.323   1.557  16.134 -0.8625 -0.2151  0.4472
  656TMC3    C4 9708   0.388   1.546  15.867 -0.0587 -0.2891  0.2868
  656TMC3    C5 9709   0.278   1.614  15.904 -0.1443  0.1824  0.1424
  656TMC3    C6 9710   0.244   1.614  16.037  0.3858  0.5815  1.4192
  656TMC3     C 9711   0.555   1.377  15.927 -0.4942 -0.1729  0.0778
  656TMC3     O 9712   0.650   1.373  16.003 -0.2328  0.1569  0.2250
  656TMC3     H 9713   0.497   1.436  16.165  0.7043  1.3970  1.0387
  656TMC3    H1 9714   0.419   1.542  15.763 -0.5320  2.7894  0.0365
  656TMC3    H2 9715   0.160   1.668  16.080  0.1478  0.9206  0.5210
  656TMC3    C7 9716   0.182   1.630  15.800 -0.1247  0.2585 -0.5962
  656TMC3    C8 9717   0.253   1.466  16.225 -0.1517 -0.0763 -0.8542
  656TMC3    O1 9718   0.207   1.593  15.688  0.3303  0.1382 -0.0629
  656TMC3    O2 9719   0.287   1.350  16.214 -0.3089  0.1343 -0.3812
  657TMC3    C1 9720   4.322   0.121  14.880  0.0245  0.5887 -0.1690
  657TMC3    C2 9721   4.294   0.134  15.014 -0.5435  0.2346  0.1865
  657TMC3    C3 9722   4.179   0.199  15.047  0.0168  0.8475 -0.0436
  657TMC3    C4 9723   4.232   0.159  14.784  0.5297 -0.4136  0.8513
  657TMC3    C5 9724   4.113   0.220  14.829  0.1366  0.0698  0.6140
  657TMC3    C6 9725   4.084   0.249  14.962  0.2569 -0.6967 -0.6853
  657TMC3     C 9726   4.424   0.023  14.836 -1.0629  0.6555  0.3365
  657TMC3     O 9727   4.402   4.678  14.738 -0.3087  0.3858  0.1434
  657TMC3     H 9728   4.349   0.072  15.083 -0.1384 -0.7015 -0.9909
  657TMC3    H1 9729   4.260   0.160  14.680 -2.7589  0.2596 -0.0274
  657TMC3    H2 9730   3.994   0.295  15.000 -0.6060 -2.2703 -0.8166
  657TMC3    C7 9731   4.032   0.273  14.720  0.8056  0.3739 -0.1958
  657TMC3    C8 9732   4.151   0.222  15.192  0.3893 -0.2146 -1.0490
  657TMC3    O1 9733   4.044   0.229  14.611 -0.1147  0.3034 -0.1831
  657TMC3    O2 9734   4.043   0.268  15.237 -0.0238 -0.1641  0.3007
  658MPD2     C 9735   0.709   0.606  14.876 -0.0506 -0.1832  0.6397
  658MPD2    C1 9736   0.631   0.708  14.924  0.4946 -0.5642 -1.0259
  658MPD2    C2 9737   0.605   0.817  14.841  0.0998  0.7147 -0.3039
  658MPD2    C3 9738   0.654   0.818  14.714 -0.7866 -0.1944 -0.1436
  658MPD2    C4 9739   0.736   0.713  14.671 -0.2411  0.5642 -0.0481
  658MPD2    C5 9740   0.761   0.608  14.751  0.4025 -0.5345  0.0515
  658MPD2     H 9741   0.537   0.896  14.872  1.4155  2.7287 -2.5924
  658MPD2    H1 9742   0.772   0.712  14.569  2.0503 -1.8666  0.7996
  658MPD2    H2 9743   0.742   0.525  14.940  1.9782  0.4268  0.3629
  658MPD2    H3 9744   0.826   0.527  14.722  1.6955  0.9161 -1.1033
  658MPD2     N 9745   0.621   0.928  14.628  0.0697 -0.0700 -0.3463
  658MPD2    H5 9746   0.551   0.990  14.668 -0.8557 -0.7379 -0.9496
  658MPD2    N1 9747   0.548   0.711  15.047 -0.5700  0.1089  0.5317
  658MPD2    H7 9748   0.488   0.786  15.077  0.5406  1.4747 -0.6625
  659TMC3    C1 9749   0.457   0.643  15.249  0.2262  0.5141 -0.3929
  659TMC3    C2 9750   0.490   0.761  15.313 -0.4506  0.3693  0.6026
  659TMC3    C3 9751   0.386   0.831  15.366  0.4854  0.4379 -0.1520
  659TMC3    C4 9752   0.340   0.587  15.258  0.3405  0.5451 -0.2312
  659TMC3    C5 9753   0.244   0.665  15.311 -0.4770  0.4064 -0.5016
  659TMC3    C6 9754   0.264   0.783  15.375 -0.1020 -0.0794  0.2100
  659TMC3     C 9755   0.538   0.604  15.131  0.3235  0.4839 -0.6878
  659TMC3     O 9756   0.564   0.482  15.116  0.3044  0.2284 -0.0114
  659TMC3     H 9757   0.582   0.815  15.295 -1.0570  0.8388 -0.9992
  659TMC3    H1 9758   0.318   0.493  15.209 -0.1653 -0.7956  2.5468
  659TMC3    H2 9759   0.188   0.841  15.426 -0.7794 -0.2513 -0.5882
  659TMC3    C7 9760   0.107   0.622  15.306 -0.4081  0.1310 -0.4028
  659TMC3    C8 9761   0.413   0.933  15.465  0.2421  0.7998  1.0473
  659TMC3    O1 9762   0.089   0.503  15.316 -0.4764 -0.2536  0.2171
  659TMC3    O2 9763   0.326   1.021  15.473  0.6613  0.1105 -0.4339
  660MPD2     C 9764   3.483   3.994  12.463  0.5403 -0.1288  0.1107
  660MPD2    C1 9765   3.359   4.054  12.471 -0.6210 -0.3838  0.1071
  660MPD2    C2 9766   3.279   4.016  12.584 -0.2767 -0.4337 -0.3085
  660MPD2    C3 9767   3.324   3.927  12.682 -0.7098  0.4013  0.3565
  660MPD2    C4 9768   3.443   3.873  12.660  0.7504 -0.0121 -0.1710
  660MPD2    C5 9769   3.526   3.907  12.558 -1.0157  0.0829  0.3998
  660MPD2     H 9770   3.185   4.065  12.606 -0.6719 -1.2221 -0.2223
  660MPD2    H1 9771   3.485   3.801  12.730  1.9952  1.5920  0.7195
  660MPD2    H2 9772   3.546   4.015  12.377  2.2019  0.0821  1.3806
  660MPD2    H3 9773   3.625   3.864  12.557 -0.2807  1.8112 -0.3289
  660MPD2     N 9774   3.243   3.884  12.791  0.2382  0.5895  0.5908
  660MPD2    H5 9775   3.287   3.820  12.856  1.7548 -1.4299 -2.4134
  660MPD2    N1 9776   3.325   4.151  12.373  0.2644 -0.0457  0.8547
  660MPD2    H7 9777   3.398   4.165  12.304 -2.2995 -1.7842 -2.2300
  661TMC3    C1 9778   3.191   4.293  12.226  0.1998  0.6531 -1.1022
  661TMC3    C2 9779   3.267   4.262  12.114  0.1734 -0.5045 -0.5149
  661TMC3    C3 9780   3.214   4.286  11.993 -0.5058 -0.6792  0.3427
  661TMC3    C4 9781   3.069   4.350  12.215 -0.1575  0.8259 -0.4491
  661TMC3    C5 9782   3.025   4.367  12.092 -0.0017  0.2230  0.4670
  661TMC3    C6 9783   3.089   4.337  11.981  0.5365 -0.7090  0.0448
  661TMC3     C 9784   3.206   4.213  12.353 -0.0196  0.1662 -0.5239
  661TMC3     O 9785   3.102   4.194  12.410 -0.1728 -0.0838  0.0551
  661TMC3     H 9786   3.364   4.214  12.125  0.3528 -0.0938 -0.3013
  661TMC3    H1 9787   3.009   4.366  12.304  0.1957  1.6207 -0.3511
  661TMC3    H2 9788   3.041   4.354  11.885  2.0962  0.5253 -0.5153
  661TMC3    C7 9789   2.885   4.322  12.094  0.5723  0.4475 -0.0283
  661TMC3    C8 9790   3.313   4.294  11.882 -0.3276 -0.1220  0.5949
  661TMC3    O1 9791   2.815   4.364  12.184  0.3341 -0.6862 -0.1468
  661TMC3    O2 9792   3.420   4.245  11.907  0.0258 -0.2855 -0.2781
  662MPD2     C 9793   3.363   4.348  17.148  0.4360  0.3374 -0.3743
  662MPD2    C1 9794   3.267   4.344  17.248 -0.0213 -0.1920  0.2870
  662MPD2    C2 9795   3.282   4.426  17.358  0.0697  0.6334  0.4053
  662MPD2    C3 9796   3.386   4.516  17.363  0.4304  0.1680 -0.3684
  662MPD2    C4 9797   3.469   4.521  17.256  0.0266 -0.5955  0.5039
  662MPD2    C5 9798   3.457   4.446  17.146  0.6947  0.2111  0.7757
  662MPD2     H 9799   3.213   4.414  17.440 -0.0349  0.5770  0.3090
  662MPD2    H1 9800   3.533   4.609  17.255  0.3805 -0.8547  0.6426
  662MPD2    H2 9801   3.350   4.283  17.063 -1.2794 -3.0399  2.4777
  662MPD2    H3 9802   3.514   4.456  17.054 -2.7010 -0.6631 -1.4497
  662MPD2     N 9803   3.377   4.612  17.469  0.2151 -0.1674  0.1311
  662MPD2    H5 9804   3.300   4.599  17.534 -0.5242 -0.0332 -0.7053
  662MPD2    N1 9805   3.170   4.243  17.256 -0.1980  0.3337  0.3402
  662MPD2    H7 9806   3.119   4.239  17.343 -0.6201 -1.1621  0.0221
  663TMC3    C1 9807   3.072   4.036  17.232 -0.0876 -0.3581 -0.1201
  663TMC3    C2 9808   2.985   4.088  17.325  0.1383 -0.3105 -0.4549
  663TMC3    C3 9809   2.966   4.020  17.440  0.3157 -0.2940 -0.2120
  663TMC3    C4 9810   3.138   3.916  17.245 -0.0719 -0.5284 -0.0249
  663TMC3    C5 9811   3.121   3.864  17.372  0.2258 -0.4446  0.0433
  663TMC3    C6 9812   3.046   3.912  17.469  0.0988 -0.3302  0.3128
  663TMC3     C 9813   3.164   4.134  17.175  0.2642  0.0130  0.0890
  663TMC3     O 9814   3.237   4.099  17.088  0.1666 -0.1925 -0.1049
  663TMC3     H 9815   2.933   4.182  17.315  0.1043 -0.2564  0.2380
  663TMC3    H1 9816   3.221   3.891  17.181 -0.0263  2.8396 -1.2762
  663TMC3    H2 9817   3.084   3.902  17.570 -3.2249  0.4116  1.6154
  663TMC3    C7 9818   3.235   3.787  17.410 -0.0402 -0.0412 -0.2810
  663TMC3    C8 9819   2.958   4.115  17.552 -0.1187 -0.7177  0.1766
  663TMC3    O1 9820   3.346   3.832  17.383 -0.3310 -0.3195  0.3850
  663TMC3    O2 9821   2.974   4.236  17.525 -0.8925 -0.2759 -0.2666
  664MPD2     C 9822   1.445   2.449  17.328  0.2980 -0.1595 -0.0068
  664MPD2    C1 9823   1.483   2.581  17.362 -0.5045 -0.5138  0.2612
  664MPD2    C2 9824   1.457   2.624  17.498 -0.3971 -0.2074  0.2993
  664MPD2    C3 9825   1.406   2.528  17.591 -0.6744 -0.4903  0.1931
  664MPD2    C4 9826   1.372   2.398  17.547  0.6249 -0.5349 -0.5342
  664MPD2    C5 9827   1.393   2.365  17.413  0.1164  0.1126 -0.1381
  664MPD2     H 9828   1.482   2.726  17.525 -2.2679  0.0176  1.2183
  664MPD2    H1 9829   1.331   2.325  17.615 -0.2774  0.9151  0.4607
  664MPD2    H2 9830   1.456   2.414  17.226 -0.8866  0.1356 -0.2377
  664MPD2    H3 9831   1.368   2.263  17.387 -1.5354  0.7883 -1.1960
  664MPD2     N 9832   1.388   2.568   0.023 -0.3397 -0.5003 -0.0314
  664MPD2    H5 9833   1.422   2.661   0.043  1.3694 -0.8422 -1.3906
  664MPD2    N1 9834   1.535   2.675  17.266 -0.3000 -0.4232 -0.3697
  664MPD2    H7 9835   1.565   2.768  17.295 -1.1449 -1.1692  2.8701
  665TMC3    C1 9836   1.309   2.589   0.245 -0.7719  0.7028 -0.5457
  665TMC3    C2 9837   1.220   2.550   0.337 -0.5597 -0.3212 -0.9735
  665TMC3    C3 9838   1.228   2.608   0.458  0.7670  0.3979  0.0786
  665TMC3    C4 9839   1.396   2.692   0.266 -0.3224  0.0371  0.2243
  665TMC3    C5 9840   1.408   2.745   0.390 -0.4069 -0.6159 -0.3529
  665TMC3    C6 9841   1.321   2.703   0.490 -1.0134 -0.8367 -0.5990
  665TMC3     C 9842   1.310   2.506   0.119  0.1719 -0.3227  0.2899
  665TMC3     O 9843   1.230   2.412   0.105 -0.3189 -0.5866 -0.7317
  665TMC3     H 9844   1.146   2.473   0.321 -1.8952  0.3327  2.1427
  665TMC3    H1 9845   1.472   2.729   0.198 -1.1588  1.5706  0.1467
  665TMC3    H2 9846   1.322   2.752   0.587 -0.2502  0.2724 -1.1580
  665TMC3    C7 9847   1.531   2.814   0.423  0.0798 -0.1985  0.1364
  665TMC3    C8 9848   1.116   2.619   0.548 -0.0591 -0.1565  0.1487
  665TMC3    O1 9849   1.635   2.779   0.370  0.4417  0.4400  0.1069
  665TMC3    O2 9850   1.125   2.670   0.658  0.3263  0.0054  0.1757
  666TMC3    C1 9851   0.212   2.366  10.629 -0.2453  0.2716  0.5103
  666TMC3    C2 9852   0.162   2.291  10.528 -0.0196  0.1170  0.4636
  666TMC3    C3 9853   0.193   2.310  10.396  0.2472 -0.5880 -0.1287
  666TMC3    C4 9854   0.297   2.466  10.593 -0.7395 -0.1101 -0.3229
  666TMC3    C5 9855   0.323   2.493  10.463  0.2225  0.0455  0.1974
  666TMC3    C6 9856   0.271   2.419  10.360  0.2835 -0.5188  0.2928
  666TMC3     C 9857   0.247   2.299  10.752  0.1153  0.4018  0.2269
  666TMC3     O 9858   0.245   2.355  10.861 -0.0874  0.2106  0.1090
  666TMC3     H 9859   0.098   2.208  10.556  0.7182 -0.8037 -0.5794
  666TMC3    H1 9860   0.365   2.515  10.661 -0.7579 -2.2223  1.2122
  666TMC3    H2 9861   0.296   2.424  10.254 -1.3745 -3.9184 -0.2844
  666TMC3    C7 9862   0.453   2.543  10.434  0.3181 -0.2472  1.1376
  666TMC3    C8 9863   0.252   2.187  10.349  0.2837  0.0039 -0.2167
  666TMC3    O1 9864   0.544   2.530  10.513  0.5031 -0.1647 -0.0559
  666TMC3    O2 9865   0.298   2.117  10.441 -0.8201  0.0093 -0.0787
  667MPD2     C 9866   2.821   2.371  14.638  0.2938 -0.1794 -0.5615
  667MPD2    C1 9867   2.841   2.289  14.755  0.4162  0.5869 -0.4669
  667MPD2    C2 9868   2.761   2.177  14.772  0.0571  0.1319 -0.1405
  667MPD2    C3 9869   2.658   2.144  14.684 -0.0949  0.5716  0.4660
  667MPD2    C4 9870   2.647   2.220  14.564  0.1335  0.0358  0.9162
  667MPD2    C5 9871   2.731   2.328  14.542  0.3544  0.7182  0.1821
  667MPD2     H 9872   2.786   2.125  14.864 -0.9614  1.4170  0.8488
  667MPD2    H1 9873   2.585   2.196  14.479  0.8418 -0.0035  0.4131
  667MPD2    H2 9874   2.878   2.462  14.622  1.3392 -0.6333  0.6042
  667MPD2    H3 9875   2.721   2.382  14.448  1.8630  0.4067 -0.1553
  667MPD2     N 9876   2.571   2.033  14.707  0.1940  0.4019 -0.0047
  667MPD2    H5 9877   2.500   2.013  14.637  1.9261  1.5432 -2.0775
  667MPD2    N1 9878   2.923   2.325  14.869  0.3906 -0.5361  0.6268
  667MPD2    H7 9879   2.921   2.259  14.946 -0.5566  2.0536  2.8617
  668TMC3    C1 9880   2.987   2.482  15.036  0.0579 -0.2034  0.0990
  668TMC3    C2 9881   3.080   2.575  15.076  0.4051 -0.4703 -0.1643
  668TMC3    C3 9882   3.070   2.623  15.208 -0.0099 -0.6025 -0.8167
  668TMC3    C4 9883   2.883   2.436  15.118 -0.4536 -0.2221  0.2636
  668TMC3    C5 9884   2.863   2.500  15.239  0.3132  0.2919 -0.2335
  668TMC3    C6 9885   2.958   2.587  15.277 -0.3131  0.1930 -0.2000
  668TMC3     C 9886   2.982   2.446  14.891  0.5104 -1.1336  0.0139
  668TMC3     O 9887   3.026   2.527  14.809  0.1079 -1.0657  0.4614
  668TMC3     H 9888   3.161   2.603  15.010  0.9616 -0.4679  0.5161
  668TMC3    H1 9889   2.807   2.365  15.088 -0.8190  1.6929 -3.4044
  668TMC3    H2 9890   2.947   2.623  15.379  1.9392  2.0582 -0.6061
  668TMC3    C7 9891   2.746   2.475  15.322  0.2365  0.3445  0.4387
  668TMC3    C8 9892   3.111   2.763  15.223 -0.6910  0.0545 -0.2639
  668TMC3    O1 9893   2.758   2.479  15.447 -0.4794  0.0676  0.6036
  668TMC3    O2 9894   3.054   2.829  15.310  0.1950  0.0657  0.4730
  669TMC3    C1 9895   0.438   2.492  14.290 -0.2217  0.1567 -0.2988
  669TMC3    C2 9896   0.360   2.444  14.182  0.1704  0.2167  0.5347
  669TMC3    C3 9897   0.369   2.517  14.069 -0.4614  0.2700 -0.3276
  669TMC3    C4 9898   0.514   2.603  14.282  0.0729  0.6070  0.2543
  669TMC3    C5 9899   0.531   2.663  14.161 -0.7869 -0.1129  0.2523
  669TMC3    C6 9900   0.463   2.613  14.051  0.4017 -0.3329 -0.2403
  669TMC3     C 9901   0.492   2.384  14.379 -0.5961  0.4501  0.3355
  669TMC3     O 9902   0.423   2.290  14.412 -0.2537 -0.8151 -0.3882
  669TMC3     H 9903   0.300   2.355  14.194  1.6932 -1.0071 -0.9651
  669TMC3    H1 9904   0.568   2.644  14.367 -0.3225  0.8356  0.3963
  669TMC3    H2 9905   0.490   2.655  13.955 -0.0629 -1.6022 -0.9220
  669TMC3    C7 9906   0.664   2.701  14.147 -0.4357  0.4047  0.0140
  669TMC3    C8 9907   0.289   2.477  13.948  0.6053 -0.0307 -0.2942
  669TMC3    O1 9908   0.716   2.768  14.238 -0.8236  0.1040 -0.6190
  669TMC3    O2 9909   0.245   2.365  13.947  0.4650  0.6518 -0.6027
  670MPD2     C 9910   3.636   0.178  13.433 -0.3258  0.0581 -0.2261
  670MPD2    C1 9911   3.742   0.191  13.519  0.0329 -0.2083  0.7336
  670MPD2    C2 9912   3.726   0.187  13.655  0.7376  0.6279  0.2003
  670MPD2    C3 9913   3.605   0.181  13.714 -0.3838  0.0114 -0.0959
  670MPD2    C4 9914   3.497   0.169  13.630 -0.6175 -0.6838  0.1565
  670MPD2    C5 9915   3.512   0.167  13.493  0.1841 -0.4031  0.0903
  670MPD2     H 9916   3.812   0.175  13.720  1.8668 -0.8569 -1.5359
  670MPD2    H1 9917   3.400   0.144  13.672 -0.2381 -1.3863  0.6099
  670MPD2    H2 9918   3.637   0.161  13.326  0.1573  0.7143 -0.3278
  670MPD2    H3 9919   3.426   0.145  13.431  0.7363 -0.2591 -0.7317
  670MPD2     N 9920   3.586   0.200  13.854 -0.3104  0.2779  0.2999
  670MPD2    H5 9921   3.674   0.216  13.902 -0.2262  0.8716 -0.0640
  670MPD2    N1 9922   3.877   0.201  13.467  0.0596  0.3866  0.0475
  670MPD2    H7 9923   3.941   0.215  13.545 -0.9110 -1.8582  1.2440
  671TMC3    C1 9924   3.504   0.198  14.076 -0.7024  0.1054  0.5240
  671TMC3    C2 9925   3.623   0.155  14.118 -0.7503 -0.7832  0.0047
  671TMC3    C3 9926   3.626   0.096  14.237 -0.1768  0.0943  0.7619
  671TMC3    C4 9927   3.391   0.182  14.146 -0.3350 -0.9679  0.3287
  671TMC3    C5 9928   3.394   0.104  14.261  0.7997 -1.0674 -0.1797
  671TMC3    C6 9929   3.513   0.056  14.297 -0.4724  0.1230  0.3912
  671TMC3     C 9930   3.472   0.187  13.932 -0.4029  0.2298  0.2119
  671TMC3     O 9931   3.365   0.149  13.898  0.0260 -0.2581 -0.3845
  671TMC3     H 9932   3.715   0.194  14.075 -0.9313 -0.4658 -0.0851
  671TMC3    H1 9933   3.294   0.210  14.104  0.0313 -0.3434 -0.1004
  671TMC3    H2 9934   3.515   0.009  14.395  0.9312  1.7145  1.1095
  671TMC3    C7 9935   3.287   0.007  14.269  0.6439 -0.1053 -0.4709
  671TMC3    C8 9936   3.735   0.010  14.260 -0.2921 -0.4126  0.2826
  671TMC3    O1 9937   3.196   0.024  14.187  0.2206 -0.5422 -0.4786
  671TMC3    O2 9938   3.789   4.692  14.162  0.6403 -0.0131 -0.0998
  672MPD2     C 9939   3.662   0.695   1.473  0.6790 -0.3853  0.1973
  672MPD2    C1 9940   3.647   0.768   1.363 -0.1662  0.1631  0.0230
  672MPD2    C2 9941   3.742   0.851   1.318  0.3469 -0.1325 -0.0100
  672MPD2    C3 9942   3.860   0.858   1.389 -0.4838 -0.6339  0.4745
  672MPD2    C4 9943   3.885   0.776   1.494 -0.1285 -0.0315 -0.7799
  672MPD2    C5 9944   3.774   0.701   1.546 -0.5702 -0.5347  0.1318
  672MPD2     H 9945   3.739   0.901   1.222 -1.4358  2.3716  1.3477
  672MPD2    H1 9946   3.973   0.786   1.557 -0.1115  3.0249 -1.3076
  672MPD2    H2 9947   3.576   0.641   1.511  1.7035 -2.1344  0.0348
  672MPD2    H3 9948   3.778   0.633   1.630 -0.2013  0.6066  1.0437
  672MPD2     N 9949   3.965   0.944   1.352  0.2421  0.3179 -0.2298
  672MPD2    H5 9950   4.053   0.940   1.404 -0.3551  1.2472  0.8643
  672MPD2    N1 9951   3.545   0.741   1.269  0.4940  0.1378 -0.8933
  672MPD2    H7 9952   3.539   0.804   1.190  0.5301 -0.3129 -1.2513
  673TMC3    C1 9953   3.429   0.599   1.127  0.1080  0.2692 -1.0006
  673TMC3    C2 9954   3.374   0.472   1.106  0.0511  0.2351 -0.4244
  673TMC3    C3 9955   3.406   0.409   0.986  0.8638 -0.4162  0.7363
  673TMC3    C4 9956   3.495   0.663   1.026  0.5549 -0.2088 -0.0083
  673TMC3    C5 9957   3.521   0.595   0.911 -0.0947  0.2190  0.9453
  673TMC3    C6 9958   3.483   0.468   0.888  0.2171  0.7121 -0.2174
  673TMC3     C 9959   3.482   0.622   1.257 -0.3913 -0.1788  0.2723
  673TMC3     O 9960   3.463   0.535   1.341 -0.4195 -0.3048 -0.0902
  673TMC3     H 9961   3.336   0.408   1.185  0.7215 -0.2352 -0.4859
  673TMC3    H1 9962   3.541   0.759   1.043  1.0925 -0.6886  1.2848
  673TMC3    H2 9963   3.505   0.419   0.794  0.2209  0.2870  0.0054
  673TMC3    C7 9964   3.643   0.641   0.837 -0.5013 -0.0609  0.1298
  673TMC3    C8 9965   3.437   0.270   1.004 -0.5340  0.0460  0.3137
  673TMC3    O1 9966   3.717   0.554   0.793  0.2003 -0.2261 -0.0237
  673TMC3    O2 9967   3.352   0.188   1.038  0.1029  0.1916  0.2577
  674MPD2     C 9968   4.049   4.692   0.004  0.1624 -0.7779 -0.3817
  674MPD2    C1 9969   4.016   0.035   0.120  0.7147 -0.1519 -0.0141
  674MPD2    C2 9970   3.964   0.163   0.105 -0.0429 -0.0124 -0.1167
  674MPD2    C3 9971   3.935   0.209  17.682 -0.4059 -0.7793 -0.1442
  674MPD2    C4 9972   3.958   0.139  17.567 -0.2059 -0.2037 -0.1430
  674MPD2    C5 9973   4.013   0.016  17.581 -0.0803  0.4004 -0.4923
  674MPD2     H 9974   3.941   0.228   0.189  0.5644 -0.5499  0.4666
  674MPD2    H1 9975   3.943   0.173  17.465  2.9195 -0.1621 -0.5604
  674MPD2    H2 9976   4.088   4.591   0.008 -0.7001 -1.2282 -3.6456
  674MPD2    H3 9977   4.033   4.681  17.493 -0.5783  0.7232 -0.8318
  674MPD2     N 9978   3.892   0.342  17.683  0.1399 -0.0909  0.5164
  674MPD2    H5 9979   3.887   0.381   0.075 -0.5575  1.5004 -0.1721
  674MPD2    N1 9980   4.017   4.714   0.254  0.5988  0.9404  0.3259
  674MPD2    H7 9981   3.957   0.041   0.317 -1.3680 -3.5021  2.1342
  675TMC3    C1 9982   4.053   4.587   0.443 -0.0169  0.1198 -0.2167
  675TMC3    C2 9983   3.927   4.614   0.485 -0.2413  0.4547  0.0325
  675TMC3    C3 9984   3.889   4.570   0.604  0.7044 -0.8782 -0.3426
  675TMC3    C4 9985   4.151   4.532   0.527 -0.0463 -0.4159  0.4550
  675TMC3    C5 9986   4.102   4.496   0.644 -0.1758  0.0262  0.5992
  675TMC3    C6 9987   3.974   4.508   0.690  0.9587 -0.0901  0.5346
  675TMC3     C 9988   4.091   4.615   0.306  0.0498  0.3629 -0.9836
  675TMC3     O 9989   4.197   4.567   0.267 -0.1166 -0.4772 -0.4812
  675TMC3     H 9990   3.854   4.659   0.419 -0.8468 -2.0252 -0.9601
  675TMC3    H1 9991   4.243   4.495   0.483 -1.3259 -2.3873 -0.5316
  675TMC3    H2 9992   3.943   4.482   0.790  0.7755 -1.8698  0.0152
  675TMC3    C7 9993   4.199   4.445   0.736 -0.0953 -0.5640  0.1525
  675TMC3    C8 9994   3.748   4.579   0.629  0.3039 -0.2659  0.4005
  675TMC3    O1 9995   4.159   4.371   0.822  0.3712 -0.1280  0.3694
  675TMC3    O2 9996   3.684   4.669   0.578 -0.2597 -0.1376 -0.5491
  676MPD2     C 9997   1.815   2.815  10.972 -0.2784  0.3834  0.7638
  676MPD2    C1 9998   1.758   2.742  11.069  0.3041 -0.7184 -0.0898
  676MPD2    C2 9999   1.798   2.609  11.085 -0.2071  0.2061 -0.4460
  676MPD2    C310000   1.888   2.554  11.002  0.0887  0.0837  0.7687
  676MPD2    C410001   1.948   2.628  10.907  1.1004 -0.0183 -0.0194
  676MPD2    C510002   1.913   2.761  10.897 -0.4257  0.1472  0.2775
  676MPD2     H10003   1.754   2.548  11.163  0.1436 -0.6515 -0.9133
  676MPD2    H110004   2.032   2.592  10.848  0.2431  1.3625 -2.0804
  676MPD2    H210005   1.787   2.919  10.954 -2.7172 -0.8123 -2.3972
  676MPD2    H310006   1.973   2.821  10.829  1.0988 -1.2965  0.3348
  676MPD2     N10007   1.905   2.415  11.002  0.4107 -0.4721 -0.1428
  676MPD2    H510008   1.957   2.380  10.922  1.4842  0.9291 -0.0552
  676MPD2    N110009   1.659   2.794  11.160 -0.0677  0.0555 -0.1085
  676MPD2    H710010   1.645   2.732  11.239  2.3057 -2.2813 -1.4970
  677TMC3    C110011   1.508   2.957  11.264  0.5354 -1.2428 -0.6001
  677TMC3    C210012   1.509   2.873  11.375  0.2884  0.3651 -0.3848
  677TMC3    C310013   1.447   2.922  11.491 -0.1626  0.6342  0.0022
  677TMC3    C410014   1.453   3.079  11.267 -0.0050  0.7933  0.7055
  677TMC3    C510015   1.374   3.111  11.373  0.2130  0.3650 -0.0834
  677TMC3    C610016   1.377   3.042  11.492  0.5565  0.5045  0.8080
  677TMC3     C10017   1.591   2.912  11.149 -0.5074  0.5360  0.0211
  677TMC3     O10018   1.596   2.990  11.055  0.1826  0.0981  0.2756
  677TMC3     H10019   1.547   2.772  11.366 -0.1287  0.1938 -0.1980
  677TMC3    H110020   1.446   3.130  11.172  2.7756 -0.6584 -0.2837
  677TMC3    H210021   1.318   3.088  11.570  0.3416 -1.7500  1.9856
  677TMC3    C710022   1.359   3.251  11.385 -0.3876  0.3320 -0.6481
  677TMC3    C810023   1.524   2.888  11.608 -0.6109  0.1892  0.2592
  677TMC3    O110024   1.263   3.286  11.452  0.1102  0.0480  0.1437
  677TMC3    O210025   1.610   2.802  11.609  0.3650 -0.6245  0.2701
  678MPD2     C10026   2.871   3.118   1.836  0.9429  0.5863 -0.1689
  678MPD2    C110027   2.895   3.154   1.703  0.4428 -0.5148 -0.7574
  678MPD2    C210028   2.783   3.162   1.624 -0.4012  0.4496 -0.2801
  678MPD2    C310029   2.656   3.141   1.671 -0.4503  0.1215  0.0502
  678MPD2    C410030   2.636   3.108   1.801  0.3576  0.8270 -0.8285
  678MPD2    C510031   2.744   3.097   1.884 -0.6357  0.2142  0.2375
  678MPD2     H10032   2.801   3.173   1.518 -0.7967 -0.8151 -0.4805
  678MPD2    H110033   2.538   3.087   1.842  1.0959 -1.2845 -0.1155
  678MPD2    H210034   2.947   3.113   1.913  0.2385  0.1991  0.5011
  678MPD2    H310035   2.723   3.071   1.987 -2.2248 -0.3657 -0.2175
  678MPD2     N10036   2.549   3.156   1.590  0.4959  0.4354 -0.3902
  678MPD2    H510037   2.567   3.152   1.490 -0.6098  0.5706 -0.5941
  678MPD2    N110038   3.019   3.185   1.635  0.1342 -0.1137 -0.1829
  678MPD2    H710039   2.996   3.222   1.543  0.6008  0.6989  0.0354
  679TMC3    C110040   3.440   3.087   1.491 -0.0355  0.2147 -0.1547
  679TMC3    C210041   3.349   3.081   1.588 -0.0734 -0.6694 -0.3956
  679TMC3    C310042   3.244   3.167   1.576 -0.3338  0.3168 -0.2807
  679TMC3    C410043   3.434   3.164   1.383 -0.1793 -0.4078 -0.5210
  679TMC3    C510044   3.334   3.263   1.386  0.3422  0.3021  0.1466
  679TMC3    C610045   3.240   3.264   1.486  0.3597  0.5548 -0.8727
  679TMC3     C10046   3.553   2.992   1.498 -0.2251 -0.6301  0.3774
  679TMC3     O10047   3.612   2.961   1.392  0.6997 -0.2793  0.4535
  679TMC3     H10048   3.339   3.007   1.667  0.8722  0.0135  0.3505
  679TMC3    H110049   3.510   3.163   1.305  0.7492  1.0142  0.3480
  679TMC3    H210050   3.159   3.334   1.467 -3.5622 -3.1087  2.2244
  679TMC3    C710051   3.301   3.345   1.264  0.6333  0.5219  1.1356
  679TMC3    C810052   3.140   3.150   1.676 -0.1812  0.4888 -0.8035
  679TMC3    O110053   3.186   3.380   1.249 -0.7187 -0.2465 -0.1550
  679TMC3    O210054   3.169   3.082   1.774  0.1580  0.5420 -0.1225
  680MPD2     C10055   3.429   2.238  13.748 -0.1126 -0.0328 -0.4739
  680MPD2    C110056   3.540   2.164  13.801 -1.2042 -0.5233  0.3644
  680MPD2    C210057   3.629   2.237  13.869 -0.0222 -0.2008 -0.4788
  680MPD2    C310058   3.625   2.373  13.876  1.1620 -0.0144 -1.4345
  680MPD2    C410059   3.524   2.440  13.814 -0.2776 -0.2137 -0.0166
  680MPD2    C510060   3.427   2.372  13.751  0.2157  0.0382  0.9082
  680MPD2     H10061   3.720   2.199  13.913 -1.7061 -1.9168  1.4972
  680MPD2    H110062   3.517   2.548  13.824 -3.5836 -0.6305  2.1325
  680MPD2    H210063   3.347   2.181  13.704 -0.7628 -0.2103  0.9880
  680MPD2    H310064   3.339   2.421  13.711  0.1924 -0.5055  0.2790
  680MPD2     N10065   3.715   2.449  13.955 -0.3579 -0.3612 -0.1360
  680MPD2    H510066   3.729   2.548  13.940  1.4282 -0.2994  1.9036
  680MPD2    N110067   3.549   2.026  13.792  0.4129  0.1695 -0.2249
  680MPD2    H710068   3.468   1.976  13.758  1.1788  0.2123 -2.0812
  681TMC3    C110069   3.654   1.816  13.813  0.3675  0.1492  0.8682
  681TMC3    C210070   3.540   1.764  13.869  0.4951  0.3779 -0.3711
  681TMC3    C310071   3.544   1.636  13.906  0.3110  0.4099 -0.0918
  681TMC3    C410072   3.770   1.746  13.783 -0.4202 -0.1808 -0.2890
  681TMC3    C510073   3.761   1.618  13.809  0.3139  0.2807 -0.3243
  681TMC3    C610074   3.654   1.558  13.868 -0.5442  0.0629  0.1034
  681TMC3     C10075   3.664   1.960  13.812  0.3921 -0.3449 -0.3298
  681TMC3     O10076   3.777   2.002  13.807 -0.2094  0.0077 -0.0350
  681TMC3     H10077   3.451   1.824  13.884  1.1765  1.0899  0.8581
  681TMC3    H110078   3.861   1.791  13.745 -0.0979 -0.3515  0.2996
  681TMC3    H210079   3.656   1.456  13.906  0.9163 -0.1815 -0.6488
  681TMC3    C710080   3.858   1.528  13.740  0.0843 -0.3634  0.3111
  681TMC3    C810081   3.472   1.600  14.021 -0.2195  0.5219  0.2742
  681TMC3    O110082   3.889   1.423  13.784  0.6574  0.1177 -0.1434
  681TMC3    O210083   3.455   1.479  14.033 -0.2917  0.4550  0.1426
  682MPD2     C10084   1.202   2.818  10.465 -0.1430  0.3237 -0.3257
  682MPD2    C110085   1.203   2.703  10.544 -0.0791  0.3667  0.7197
  682MPD2    C210086   1.134   2.703  10.663  0.2324  0.2101 -0.0386
  682MPD2    C310087   1.047   2.815  10.691  0.4041 -1.2150  0.6110
  682MPD2    C410088   1.042   2.922  10.605 -0.3707  0.8096  0.3543
  682MPD2    C510089   1.127   2.923  10.502 -0.6793  0.1632  0.0529
  682MPD2     H10090   1.129   2.630  10.743  1.6140  1.0431  0.8068
  682MPD2    H110091   0.984   3.009  10.635 -0.6836  0.1410  1.6777
  682MPD2    H210092   1.255   2.815  10.371  0.5722 -1.3487  0.1286
  682MPD2    H310093   1.134   3.008  10.435 -0.2830  0.8099  0.9032
  682MPD2     N10094   0.956   2.817  10.800 -0.2676 -0.4300  0.4189
  682MPD2    H510095   0.884   2.889  10.800 -1.3587 -1.5316 -2.1612
  682MPD2    N110096   1.272   2.582  10.509  0.4526 -0.3914  0.6656
  682MPD2    H710097   1.244   2.496  10.556 -2.5132  0.6427  0.8006
  683TMC3    C110098   0.716   2.981  11.066 -0.4457  0.1592 -0.0552
  683TMC3    C210099   0.645   2.902  11.154  0.6543 -0.3391  0.1571
  683TMC3    C310100   0.678   2.770  11.157  0.0884  0.1668 -0.5908
  683TMC3    C410101   0.831   2.940  11.002  0.2979  1.0921 -0.1872
  683TMC3    C510102   0.858   2.806  11.001  0.1695 -0.4002  0.2562
  683TMC3    C610103   0.781   2.721  11.082 -0.5327 -0.5971  0.5758
  683TMC3     C10104   0.720   3.116  11.113  0.0012 -0.2483 -0.0685
  683TMC3     O10105   0.702   3.142  11.231 -0.3478 -0.4893  0.7284
  683TMC3     H10106   0.564   2.944  11.213 -0.3863 -3.1347  0.6842
  683TMC3    H110107   0.886   3.005  10.935  1.4640  0.0394 -0.2502
  683TMC3    H210108   0.811   2.617  11.082 -0.8081 -0.6784 -0.4712
  683TMC3    C710109   0.965   2.756  10.923  1.2478  0.3608 -0.0639
  683TMC3    C810110   0.558   2.685  11.191 -0.1686  0.4658  0.6399
  683TMC3    O110111   1.063   2.692  10.972 -0.0908 -0.4869 -0.2562
  683TMC3    O210112   0.449   2.743  11.192  0.4073  0.2465  0.4003
  684MPD2     C10113   3.616   3.493  16.693 -0.5940 -0.5195  0.2956
  684MPD2    C110114   3.628   3.544  16.569  0.1303  0.1215 -0.2862
  684MPD2    C210115   3.539   3.644  16.524 -0.5351 -0.2933  0.3831
  684MPD2    C310116   3.454   3.709  16.610 -0.6705 -0.1127  0.4013
  684MPD2    C410117   3.450   3.666  16.742 -0.3108 -0.8897 -0.7954
  684MPD2    C510118   3.534   3.562  16.782 -0.0960 -0.1031 -0.3899
  684MPD2     H10119   3.540   3.680  16.422  0.2501  0.8573  0.7928
  684MPD2    H110120   3.386   3.707  16.820  0.3153  1.9289 -1.7688
  684MPD2    H210121   3.670   3.402  16.720  0.0272 -0.0138  0.7540
  684MPD2    H310122   3.526   3.524  16.883  2.6322 -1.6255 -0.7645
  684MPD2     N10123   3.380   3.832  16.585  0.2322 -0.2705  0.1042
  684MPD2    H510124   3.329   3.861  16.668 -2.0067 -0.9902 -1.0003
  684MPD2    N110125   3.701   3.485  16.466  0.6261  0.1059  0.6667
  684MPD2    H710126   3.689   3.519  16.371  0.4269  1.0329  1.0180
  685TMC3    C110127   3.842   3.331  16.367  0.5001 -0.2103 -0.0417
  685TMC3    C210128   3.763   3.298  16.263 -0.0201 -0.2246  0.0967
  685TMC3    C310129   3.822   3.235  16.158 -0.4020  0.6073 -0.1938
  685TMC3    C410130   3.976   3.292  16.374  0.3621 -0.3694 -0.0837
  685TMC3    C510131   4.023   3.225  16.270  0.6935 -0.1200  0.4206
  685TMC3    C610132   3.950   3.191  16.159  0.7084 -0.4550  0.4751
  685TMC3     C10133   3.792   3.391  16.489  0.8642  0.7009  0.8304
  685TMC3     O10134   3.845   3.349  16.591  0.5340 -0.0763 -0.0612
  685TMC3     H10135   3.665   3.345  16.261 -0.4523 -1.1335  0.0400
  685TMC3    H110136   4.016   3.308  16.473 -0.8282 -1.8306  0.6270
  685TMC3    H210137   3.995   3.124  16.086 -0.4813  0.5275 -1.1605
  685TMC3    C710138   4.162   3.187  16.288 -0.4009 -0.8516 -0.2116
  685TMC3    C810139   3.738   3.194  16.046 -0.2316  0.7191  1.1201
  685TMC3    O110140   4.216   3.216  16.395  0.6930  0.4231 -0.2828
  685TMC3    O210141   3.793   3.145  15.946 -0.0828 -0.3611  0.7602
  686MPD2     C10142   0.024   2.987  15.497  0.5084  0.3688  0.0480
  686MPD2    C110143   0.053   2.904  15.606  0.0373 -0.6758  0.2252
  686MPD2    C210144   0.172   2.836  15.607 -0.0747 -0.2260 -0.3792
  686MPD2    C310145   0.264   2.844  15.504 -0.1622 -0.0811  0.1788
  686MPD2    C410146   0.236   2.934  15.403 -0.2937 -1.0522 -0.4552
  686MPD2    C510147   0.121   3.005  15.404 -0.7291  0.0887  0.5723
  686MPD2     H10148   0.177   2.761  15.685 -1.8279 -0.1061 -0.1372
  686MPD2    H110149   0.303   2.947  15.319  0.1738 -0.2407  0.0432
  686MPD2    H210150   4.658   3.043  15.489 -0.1661 -0.8022 -0.4716
  686MPD2    H310151   0.114   3.089  15.337  0.3658  1.5177  2.2635
  686MPD2     N10152   0.387   2.767  15.504  0.0244  0.7753  0.5733
  686MPD2    H510153   0.397   2.692  15.572 -2.4425 -1.7524 -1.8636
  686MPD2    N110154   4.683   2.884  15.709  0.3837  0.4693  0.3941
  686MPD2    H710155   4.591   2.921  15.690 -0.0791 -0.3158  1.1303
  687TMC3    C110156   0.589   2.682  15.460 -0.4937 -0.4187  0.0416
  687TMC3    C210157   0.526   2.564  15.488 -1.2568  0.4116  0.0587
  687TMC3    C310158   0.541   2.501  15.608  1.1247  0.6133 -0.0682
  687TMC3    C410159   0.676   2.734  15.550 -0.7863  0.1871 -0.2686
  687TMC3    C510160   0.691   2.666  15.666  0.7110 -0.1366 -0.4829
  687TMC3    C610161   0.628   2.546  15.697 -0.3661 -0.1397  0.5684
  687TMC3     C10162   0.493   2.782  15.421  0.8263  0.5094 -0.7753
  687TMC3     O10163   0.525   2.873  15.344 -0.0607 -0.2328 -0.3846
  687TMC3     H10164   0.461   2.519  15.414  0.0200 -0.0056 -0.7949
  687TMC3    H110165   0.733   2.821  15.518 -0.2378 -1.2022 -3.1109
  687TMC3    H210166   0.655   2.501  15.791 -0.2931 -0.9378  0.1657
  687TMC3    C710167   0.737   2.756  15.776 -0.1162  0.3967 -0.3185
  687TMC3    C810168   0.428   2.441  15.669  0.2903 -0.0631 -0.8252
  687TMC3    O110169   0.783   2.863  15.736 -0.1615  0.3086  0.5811
  687TMC3    O210170   0.423   2.438  15.793  0.0406 -0.4064  0.0876
  688MPD2     C10171   4.494   1.844  17.042  0.3521 -0.6565  0.1296
  688MPD2    C110172   4.557   1.754  17.119 -0.0717  0.0565  0.0320
  688MPD2    C210173   4.681   1.710  17.074  0.0300 -0.4022  0.0059
  688MPD2    C310174   0.014   1.746  16.956 -0.4091  0.2089  0.5902
  688MPD2    C410175   4.665   1.830  16.876  0.3415  0.3886  0.3099
  688MPD2    C510176   4.546   1.879  16.924 -0.0519 -0.2284 -0.0576
  688MPD2     H10177   4.725   1.628  17.129  0.1440  0.4627  1.1972
  688MPD2    H110178   4.680   1.859  16.773  2.1875 -1.6228  0.0228
  688MPD2    H210179   4.408   1.902  17.074  0.4981 -0.6634  0.5338
  688MPD2    H310180   4.484   1.941  16.861  1.4375  0.5180 -0.7946
  688MPD2     N10181   0.137   1.705  16.913  0.3523  0.2146 -0.5575
  688MPD2    H510182   0.180   1.748  16.831  0.0247  0.3649 -0.6484
  688MPD2    N110183   4.505   1.710  17.247  0.1097  0.2013 -0.0129
  688MPD2    H710184   4.568   1.648  17.296 -0.8046 -1.0622 -0.4281
  689TMC3    C110185   4.376   1.711  17.448  0.5988  0.5282  0.2533
  689TMC3    C210186   4.318   1.789  17.542 -0.0956 -0.3469 -0.0346
  689TMC3    C310187   4.230   1.734  17.628  0.5163  0.3131 -0.2098
  689TMC3    C410188   4.349   1.579  17.445 -0.3752 -0.2063 -0.0951
  689TMC3    C510189   4.266   1.522  17.533 -0.6935 -0.3336  0.0259
  689TMC3    C610190   4.208   1.600  17.627  0.4550 -0.1383  0.0347
  689TMC3     C10191   4.399   1.767  17.314  0.0564 -0.1190  0.1930
  689TMC3     O10192   4.311   1.840  17.269  0.4405  0.5601  0.3837
  689TMC3     H10193   4.344   1.894  17.532 -1.2799  0.1259  1.8104
  689TMC3    H110194   4.390   1.521  17.363 -2.1256 -0.2227 -0.9504
  689TMC3    H210195   4.128   1.563  17.690 -1.0909  1.6982 -0.8449
  689TMC3    C710196   4.213   1.391  17.507 -0.2832  0.0268 -0.0093
  689TMC3    C810197   4.182   1.816   0.037  0.0924  0.4698  0.5405
  689TMC3    O110198   4.205   1.355  17.390 -0.4836 -0.2039 -0.2014
  689TMC3    O210199   4.151   1.743   0.135  0.0668 -0.3157 -0.1803
  690MPD2     C10200   1.659   3.233  15.124  0.1780 -0.0624  0.3307
  690MPD2    C110201   1.699   3.255  15.253 -0.5238 -0.0258 -0.1214
  690MPD2    C210202   1.765   3.371  15.283  0.4525 -0.2473  0.6155
  690MPD2    C310203   1.800   3.464  15.191  0.1902 -0.1509 -0.5342
  690MPD2    C410204   1.762   3.439  15.060 -0.5161  0.1561 -0.4493
  690MPD2    C510205   1.689   3.326  15.034 -0.0301 -0.1890 -0.2595
  690MPD2     H10206   1.788   3.396  15.386 -2.8051 -1.7924  1.7053
  690MPD2    H110207   1.788   3.503  14.977  2.0312  0.6137  0.7022
  690MPD2    H210208   1.596   3.151  15.093  0.9242 -0.8673  0.9176
  690MPD2    H310209   1.648   3.307  14.935  0.1600  1.5554 -0.6715
  690MPD2     N10210   1.866   3.592  15.222  0.4410 -0.5701 -0.5017
  690MPD2    H510211   1.910   3.598  15.313  1.5307  0.3679 -1.0833
  690MPD2    N110212   1.652   3.169  15.351  0.1542 -0.2447 -0.4296
  690MPD2    H710213   1.657   3.197  15.448 -1.6747  0.5610 -0.5635
  691TMC3    C110214   1.584   2.965  15.453  0.1785  0.4948  0.1837
  691TMC3    C210215   1.537   3.031  15.563  0.0798  0.1355 -0.4757
  691TMC3    C310216   1.481   2.949  15.660 -0.5109  0.1544  0.4732
  691TMC3    C410217   1.595   2.828  15.440 -0.1283 -0.0124  0.0771
  691TMC3    C510218   1.549   2.748  15.543  0.2328 -0.0838  0.1861
  691TMC3    C610219   1.481   2.810  15.646 -0.1112  0.1396 -0.5319
  691TMC3     C10220   1.613   3.039  15.327  0.4566 -0.7070 -0.8192
  691TMC3     O10221   1.633   2.966  15.234  0.0115  0.5453 -0.4824
  691TMC3     H10222   1.538   3.139  15.573 -1.1749  0.0107  0.9881
  691TMC3    H110223   1.622   2.775  15.349 -1.3742  1.8963 -1.4155
  691TMC3    H210224   1.439   2.741  15.718 -1.8770  1.3964 -0.3647
  691TMC3    C710225   1.519   2.611  15.519 -0.2109 -0.1091  0.6661
  691TMC3    C810226   1.388   2.993  15.757 -0.5212 -0.0452  0.6418
  691TMC3    O110227   1.415   2.578  15.577  0.8251 -0.2323  0.7782
  691TMC3    O210228   1.359   2.906  15.841 -0.3648 -0.0722 -0.4695
  692TMC3    C110229   3.126   0.207  15.737  0.4181 -0.1035  0.4088
  692TMC3    C210230   3.204   0.312  15.684 -0.7467  0.2652  0.6042
  692TMC3    C310231   3.336   0.301  15.648  0.1470  0.0565 -0.2665
  692TMC3    C410232   3.184   0.089  15.742 -0.3542  0.4974 -0.8743
  692TMC3    C510233   3.316   0.075  15.703  1.2143 -0.7522 -0.7052
  692TMC3    C610234   3.389   0.178  15.647  0.2915 -0.6838 -0.4887
  692TMC3     C10235   3.041   0.238  15.848  0.5297  1.0017  0.6395
  692TMC3     O10236   3.029   0.159  15.942  0.6626 -0.4154 -0.3781
  692TMC3     H10237   3.180   0.414  15.710  0.4410  0.4399  0.9827
  692TMC3    H110238   3.135   4.723  15.775 -1.1963  0.9981 -0.7448
  692TMC3    H210239   3.496   0.164  15.631  0.5129 -0.8652  1.1740
  692TMC3    C710240   3.369   4.668  15.705  0.4049  0.4243 -0.2157
  692TMC3    C810241   3.408   0.387  15.742 -0.4876  0.6163 -0.4762
  692TMC3    O110242   3.435   4.632  15.606 -0.3228  0.3951 -0.0677
  692TMC3    O210243   3.527   0.405  15.710  0.1501 -0.3466 -0.1576
  693MPD2     C10244   3.128   1.768  10.505  0.5665 -0.1328  0.1754
  693MPD2    C110245   3.092   1.797  10.634 -0.1395 -0.1815  1.2076
  693MPD2    C210246   3.179   1.759  10.737 -0.2034  0.2473 -0.3695
  693MPD2    C310247   3.291   1.678  10.716 -0.0120  0.0965  0.3294
  693MPD2    C410248   3.319   1.640  10.588 -0.2400 -0.5860  0.5806
  693MPD2    C510249   3.236   1.687  10.484 -0.0643  0.1655 -0.1066
  693MPD2     H10250   3.138   1.780  10.835 -0.1684  0.3994 -0.3872
  693MPD2    H110251   3.408   1.582  10.566 -0.3017 -0.6142  0.4110
  693MPD2    H210252   3.069   1.789  10.417  1.6081 -1.2793 -0.7907
  693MPD2    H310253   3.259   1.666  10.380  0.3525  1.3065 -0.2432
  693MPD2     N10254   3.385   1.638  10.822  0.1415 -0.3764 -0.3106
  693MPD2    H510255   3.463   1.581  10.792 -0.6196 -1.1179 -0.8623
  693MPD2    N110256   2.966   1.859  10.650  0.1447 -0.2363  0.2053
  693MPD2    H710257   2.910   1.863  10.565 -2.1482 -1.2984  1.6575
  694TMC3    C110258   2.778   1.962  10.762 -0.0474 -0.3161  0.3948
  694TMC3    C210259   2.699   1.859  10.722  0.8537  0.6767 -0.3778
  694TMC3    C310260   2.592   1.822  10.806  0.2093 -0.2024 -0.3649
  694TMC3    C410261   2.745   2.032  10.874 -0.3909 -0.0897 -0.0995
  694TMC3    C510262   2.639   2.004  10.947  0.5448 -0.3603 -0.0579
  694TMC3    C610263   2.552   1.904  10.909 -0.2681  0.3036 -0.1711
  694TMC3     C10264   2.921   1.915  10.770 -0.7395  0.1966  0.0470
  694TMC3     O10265   2.980   1.928  10.877  0.4567 -0.3472 -0.4557
  694TMC3     H10266   2.719   1.803  10.631  1.2658  2.0994 -1.1605
  694TMC3    H110267   2.825   2.095  10.909 -0.4761  0.7784 -1.4751
  694TMC3    H210268   2.488   1.869  10.989 -0.3320  0.0316 -0.3447
  694TMC3    C710269   2.649   2.045  11.083  0.1373 -0.7826  0.5946
  694TMC3    C810270   2.497   1.724  10.758  0.0110 -0.9097 -0.4644
  694TMC3    O110271   2.690   2.157  11.114  0.0683 -0.9557 -0.3250
  694TMC3    O210272   2.389   1.747  10.804  0.0116 -0.3017 -0.5999
  695MPD2     C10273   3.622   3.882  13.695 -0.2915 -0.5366  0.5716
  695MPD2    C110274   3.592   3.956  13.811 -0.1982  0.5581  0.6208
  695MPD2    C210275   3.472   4.026  13.805 -0.3423  0.3478  0.8251
  695MPD2    C310276   3.381   4.012  13.697 -0.4766  0.6522  0.1003
  695MPD2    C410277   3.404   3.923  13.596  0.3784  0.1802  0.2797
  695MPD2    C510278   3.522   3.854  13.603 -0.0238 -0.1079  0.0210
  695MPD2     H10279   3.443   4.093  13.885  2.2379  2.0168  0.3755
  695MPD2    H110280   3.336   3.903  13.513  1.3408  0.6201 -0.6221
  695MPD2    H210281   3.715   3.827  13.689 -0.8878 -1.6218  1.3335
  695MPD2    H310282   3.549   3.786  13.524 -0.9613 -0.3404 -0.0975
  695MPD2     N10283   3.252   4.076  13.708  0.2619  0.7976 -1.2219
  695MPD2    H510284   3.240   4.136  13.788  1.3935 -1.7904  0.8736
  695MPD2    N110285   3.669   3.991  13.928  0.0346  0.1083  0.3919
  695MPD2    H710286   3.628   4.052  13.997  3.1128  1.1057  1.3489
  696TMC3    C110287   3.046   4.174  13.658 -0.7345 -0.1681  0.1394
  696TMC3    C210288   3.039   4.196  13.794 -0.3232  0.1690 -0.1770
  696TMC3    C310289   3.002   4.321  13.844  0.1464 -0.5088  0.1076
  696TMC3    C410290   3.013   4.272  13.569  0.0272 -0.5041 -0.3120
  696TMC3    C510291   2.979   4.396  13.619 -0.0069  0.6684  0.1019
  696TMC3    C610292   2.962   4.418  13.751  0.3207  0.3256 -0.3429
  696TMC3     C10293   3.149   4.084  13.609  0.4632  0.0761  0.0511
  696TMC3     O10294   3.141   4.045  13.493  0.2350  0.3695  0.0949
  696TMC3     H10295   3.064   4.117  13.864 -0.5461 -0.8706 -1.2863
  696TMC3    H110296   3.015   4.258  13.462 -0.3463  0.8063 -0.4790
  696TMC3    H210297   2.933   4.515  13.790  1.1717  0.3618  0.2053
  696TMC3    C710298   3.005   4.509  13.528  0.1960  0.0569  0.7375
  696TMC3    C810299   3.075   4.382  13.953 -0.6780  0.0798 -0.4907
  696TMC3    O110300   3.010   4.488  13.407  0.3861  0.0359  0.7483
  696TMC3    O210301   3.128   4.490  13.923  0.2625 -0.2122 -0.2390
  697MPD2     C10302   2.660   1.359  15.729 -0.5067 -0.2212  0.9199
  697MPD2    C110303   2.757   1.340  15.631  0.4929  0.6825  0.1016
  697MPD2    C210304   2.864   1.424  15.620  0.6535 -0.2648  0.2415
  697MPD2    C310305   2.890   1.530  15.708  0.8856  0.2771 -0.1417
  697MPD2    C410306   2.803   1.535  15.815  0.1194  0.1714 -0.4115
  697MPD2    C510307   2.692   1.458  15.825  0.3964  0.5167 -0.3293
  697MPD2     H10308   2.938   1.404  15.543  1.5660  3.3276  0.2172
  697MPD2    H110309   2.818   1.607  15.895 -0.5843  0.3628 -0.4530
  697MPD2    H210310   2.584   1.284  15.745 -0.5613 -0.7663 -1.9537
  697MPD2    H310311   2.629   1.480  15.911  0.2499  0.2213 -0.3605
  697MPD2     N10312   3.000   1.617  15.689 -0.1205  0.8452 -0.0235
  697MPD2    H510313   3.063   1.606  15.611 -0.0353  0.2411  0.1251
  697MPD2    N110314   2.751   1.212  15.565  0.3333  0.3167 -0.3414
  697MPD2    H710315   2.695   1.135  15.600  2.1889 -0.3514  1.1553
  698TMC3    C110316   3.116   1.807  15.671 -0.3575  0.2919  0.2371
  698TMC3    C210317   3.189   1.910  15.722 -0.2344 -1.1122  0.7380
  698TMC3    C310318   3.264   1.989  15.637  0.4333  0.4946 -0.1990
  698TMC3    C410319   3.099   1.799  15.529 -0.1062  0.1520  0.1735
  698TMC3    C510320   3.161   1.890  15.449 -0.5069  0.6063 -0.2014
  698TMC3    C610321   3.252   1.974  15.498 -0.7626  0.4184 -0.4083
  698TMC3     C10322   3.024   1.735  15.754  0.0841  0.2825 -0.5451
  698TMC3     O10323   2.973   1.794  15.852  0.2901  0.4630  0.1740
  698TMC3     H10324   3.176   1.935  15.827  0.9383 -0.7336  0.7947
  698TMC3    H110325   3.036   1.728  15.477 -0.5400 -0.0111  0.9216
  698TMC3    H210326   3.300   2.044  15.431 -1.0996  0.0513 -1.0263
  698TMC3    C710327   3.143   1.872  15.310 -0.5720  0.9356 -0.2608
  698TMC3    C810328   3.347   2.093  15.703 -0.1908  0.1964  0.2843
  698TMC3    O110329   3.039   1.814  15.278  0.4769 -0.2907 -0.3974
  698TMC3    O210330   3.323   2.115  15.822 -0.3290  0.1746 -0.4206
  699TMC3    C110331   3.059   3.859  12.932  0.2141  0.2830  0.0019
  699TMC3    C210332   3.132   3.807  13.041 -0.3599  0.0982 -0.0702
  699TMC3    C310333   3.073   3.739  13.143 -0.6745  0.4381 -0.3440
  699TMC3    C410334   2.924   3.839  12.938  0.1431 -0.4230 -0.2402
  699TMC3    C510335   2.867   3.775  13.044 -0.5103  0.0883  0.9986
  699TMC3    C610336   2.942   3.717  13.140 -0.3925 -0.1313 -0.8625
  699TMC3     C10337   3.113   3.923  12.817  0.3136  0.8210 -0.3658
  699TMC3     O10338   3.034   3.983  12.743  0.5662  0.5917  0.3547
  699TMC3     H10339   3.234   3.845  13.048 -0.2418 -0.0102 -1.1613
  699TMC3    H110340   2.857   3.886  12.866  1.8137 -1.2692 -2.3322
  699TMC3    H210341   2.903   3.657  13.222  0.7907  0.8838  0.4404
  699TMC3    C710342   2.727   3.738  13.024  0.3829  0.0695  0.4119
  699TMC3    C810343   3.151   3.678  13.254 -0.6110  0.4790  0.7538
  699TMC3    O110344   2.656   3.806  12.949  0.4581  0.5234  0.2909
  699TMC3    O210345   3.090   3.655  13.356 -0.3264  0.2090 -0.4048
  700TMC3    C110346   1.949   1.768  17.054 -0.0741 -0.1303  0.6099
  700TMC3    C210347   2.067   1.707  17.032  0.6361 -0.3854  0.0622
  700TMC3    C310348   2.173   1.739  17.113  0.2100  0.8039 -0.3997
  700TMC3    C410349   1.935   1.853  17.162 -0.2680  0.1068  0.0939
  700TMC3    C510350   2.038   1.879  17.248  0.4928  0.3894 -0.1241
  700TMC3    C610351   2.163   1.835  17.213 -0.0211  0.6063  0.3674
  700TMC3     C10352   1.889   1.826  16.931  0.4819  0.1117  0.1494
  700TMC3     O10353   1.868   1.760  16.833  0.1336  0.1023  0.0071
  700TMC3     H10354   2.078   1.631  16.956 -1.3511  0.9202 -1.5087
  700TMC3    H110355   1.836   1.889  17.183 -0.4313  0.3068 -1.0081
  700TMC3    H210356   2.249   1.873  17.266  0.4005 -0.4320  0.4338
  700TMC3    C710357   2.038   2.005  17.323  0.1141  0.2010  0.7284
  700TMC3    C810358   2.294   1.661  17.113 -0.0786 -0.0686  0.1905
  700TMC3    O110359   2.141   2.036  17.383 -0.3028 -0.3104  0.3693
  700TMC3    O210360   2.318   1.600  17.008  0.2289 -0.0408  0.6883
  701TMC3    C110361   2.177   0.727  15.533  0.3630 -0.1072  0.0937
  701TMC3    C210362   2.117   0.784  15.426 -0.0460 -0.1459 -1.0648
  701TMC3    C310363   2.162   0.905  15.385 -0.4361 -0.0616  0.4903
  701TMC3    C410364   2.273   0.780  15.605 -0.4373  0.1706  0.4867
  701TMC3    C510365   2.312   0.903  15.562 -0.4523  0.5552 -0.1148
  701TMC3    C610366   2.267   0.962  15.449 -0.1117  0.6241  0.4036
  701TMC3     C10367   2.133   0.592  15.578  0.3469  0.5675 -0.4417
  701TMC3     O10368   2.116   0.582  15.699  0.5808  0.5552  0.0983
  701TMC3     H10369   2.041   0.727  15.374 -0.3981 -0.9260  0.3083
  701TMC3    H110370   2.314   0.716  15.683 -1.9995  1.5166  2.4156
  701TMC3    H210371   2.296   1.061  15.416  3.8135 -1.6485 -2.9961
  701TMC3    C710372   2.367   0.992  15.661  0.2186 -0.7692 -0.0592
  701TMC3    C810373   2.100   0.982  15.273 -1.0391 -0.1193  0.0362
  701TMC3    O110374   2.380   1.108  15.627  0.2024 -0.6230  0.3361
  701TMC3    O210375   2.137   1.096  15.238  0.2077  0.0139  0.2369
  702MPD2     C10376   1.971   2.042  10.415 -0.3179 -0.1709 -0.4548
  702MPD2    C110377   2.023   2.122  10.514 -0.0288  0.0052  0.7603
  702MPD2    C210378   2.106   2.228  10.476  0.1497  0.7430 -0.4073
  702MPD2    C310379   2.144   2.248  10.343 -0.0697 -0.5867 -0.9799
  702MPD2    C410380   2.095   2.162  10.250 -0.2736  0.0761 -0.2542
  702MPD2    C510381   2.010   2.059  10.288  0.0091  0.3460  0.1459
  702MPD2     H10382   2.146   2.298  10.549 -2.8298  0.7160  1.2443
  702MPD2    H110383   2.114   2.174  10.144  2.9352  2.2252  0.5697
  702MPD2    H210384   1.897   1.963  10.419 -0.5367  0.0428 -0.2579
  702MPD2    H310385   1.965   1.987  10.220  4.5494 -2.0112 -0.3566
  702MPD2     N10386   2.225   2.359  10.297  0.0241 -0.1397 -0.1941
  702MPD2    H510387   2.230   2.367  10.196  0.1843 -1.1545 -0.2670
  702MPD2    N110388   1.995   2.104  10.651  0.2517  0.0943 -0.0160
  702MPD2    H710389   2.023   2.185  10.705  1.2909  0.0198 -0.4442
  703TMC3    C110390   2.358   2.551  10.311  0.5939 -0.6982  0.0698
  703TMC3    C210391   2.257   2.638  10.278  1.1890  0.4392 -0.3324
  703TMC3    C310392   2.275   2.774  10.283 -0.3046  0.0605 -0.3475
  703TMC3    C410393   2.476   2.598  10.363 -0.3615 -0.2696 -0.4715
  703TMC3    C510394   2.493   2.733  10.369 -0.1376  0.0239 -0.6416
  703TMC3    C610395   2.396   2.825  10.325 -0.7911 -0.1326  0.4874
  703TMC3     C10396   2.304   2.437  10.373 -0.0862  0.1307  0.1791
  703TMC3     O10397   2.341   2.422  10.486  0.4850 -0.1368 -0.1524
  703TMC3     H10398   2.169   2.596  10.232  1.0832  0.9028 -0.5502
  703TMC3    H110399   2.544   2.525  10.405  2.3138  2.6707  0.3309
  703TMC3    H210400   2.410   2.929  10.354  0.1396  0.4770 -2.2345
  703TMC3    C710401   2.626   2.786  10.367 -0.3878  0.3389 -0.1466
  703TMC3    C810402   2.162   2.860  10.286  0.0116 -0.2122  0.6712
  703TMC3    O110403   2.642   2.904  10.361 -0.0415  0.6531  0.3972
  703TMC3    O210404   2.170   2.980  10.261 -0.1328  0.0750  0.2057
  704TMC3    C110405   0.090   0.965  12.624 -0.5293  0.1296 -0.4040
  704TMC3    C210406   0.184   0.928  12.527 -0.0399 -0.4944 -0.0283
  704TMC3    C310407   0.317   0.925  12.553 -0.7980  0.1730 -0.2991
  704TMC3    C410408   0.133   0.985  12.757  0.3612  0.1044 -0.2423
  704TMC3    C510409   0.265   0.958  12.780  0.0143  0.3701 -0.1232
  704TMC3    C610410   0.359   0.941  12.682  0.1887 -0.3869  0.0467
  704TMC3     C10411   4.675   0.939  12.599  0.2677 -0.2760 -0.5496
  704TMC3     O10412   4.598   0.941  12.695 -0.1036  0.4530  0.3561
  704TMC3     H10413   0.153   0.901  12.427 -0.1275  0.5652 -0.2825
  704TMC3    H110414   0.069   1.013  12.840 -2.4866 -2.0281 -1.7161
  704TMC3    H210415   0.464   0.929  12.708  0.2260  0.3467  0.2347
  704TMC3    C710416   0.315   0.929  12.916  0.0373  0.3794 -0.2563
  704TMC3    C810417   0.410   0.880  12.454 -0.4400 -0.1908  0.2147
  704TMC3    O110418   0.410   0.998  12.944  0.1568  0.0876  0.5861
  704TMC3    O210419   0.363   0.876  12.342 -0.0047 -0.4550 -0.4676
  705MPD2     C10420   3.749   0.169  16.547  0.0692  0.1177  0.0143
  705MPD2    C110421   3.685   0.049  16.529  0.0046  0.4819  0.3670
  705MPD2    C210422   3.614   4.723  16.635  0.9471 -0.0198 -0.2113
  705MPD2    C310423   3.594   0.073  16.752  0.2259  0.7609 -0.5586
  705MPD2    C410424   3.660   0.195  16.764 -0.9638 -0.0804 -0.1873
  705MPD2    C510425   3.743   0.238  16.664  0.1683  0.7273 -0.1387
  705MPD2     H10426   3.578   4.621  16.629  0.8310  0.0016  0.1251
  705MPD2    H110427   3.647   0.249  16.857 -1.5111  0.3447 -0.5157
  705MPD2    H210428   3.820   0.201  16.471  1.2195 -0.6612  0.7627
  705MPD2    H310429   3.794   0.333  16.666 -0.0831  0.8524  0.3653
  705MPD2     N10430   3.501   0.034  16.853  0.5260 -0.4200  0.6130
  705MPD2    H510431   3.503   0.099  16.931 -0.1216 -0.5652  0.7512
  705MPD2    N110432   3.704   4.704  16.410 -0.6429 -0.5392 -0.0120
  705MPD2    H710433   3.757   0.019  16.334  1.5906  0.5965  2.1267
  706TMC3    C110434   3.727   4.383  16.098  0.3871 -0.2255  0.2267
  706TMC3    C210435   3.709   4.478  15.999 -0.2046  0.1009  0.3358
  706TMC3    C310436   3.667   4.606  16.025  0.1913  0.6701  0.3605
  706TMC3    C410437   3.698   4.416  16.224  0.1891 -0.6535 -0.6812
  706TMC3    C510438   3.667   4.549  16.247  0.1723 -0.5682 -0.3785
  706TMC3    C610439   3.647   4.649  16.156 -0.6679  1.1200  0.1545
  706TMC3     C10440   3.766   4.247  16.082  0.2431 -0.3797 -0.0146
  706TMC3     O10441   3.758   4.174  16.182 -0.3383 -0.0381  0.2896
  706TMC3     H10442   3.734   4.452  15.897 -2.2217 -0.9081  0.0931
  706TMC3    H110443   3.708   4.360  16.316  1.1342  0.3171 -0.1897
  706TMC3    H210444   3.607   0.021  16.182 -0.0087  1.6571 -0.8445
  706TMC3    C710445   3.649   4.576  16.385 -0.3746  0.4454  0.0746
  706TMC3    C810446   3.687   4.712  15.931  0.7228  0.0054 -0.3831
  706TMC3    O110447   3.608   4.482  16.454  0.2095  0.4182  0.4073
  706TMC3    O210448   3.686   0.099  15.982  0.3114  0.6574  0.5310
  707TMC3    C110449   0.066   3.799   1.406  0.0529 -0.4653  0.0247
  707TMC3    C210450   0.070   3.727   1.289  0.0368 -0.5616 -0.0334
  707TMC3    C310451   4.673   3.729   1.219 -0.3604 -0.3520  0.4133
  707TMC3    C410452   4.680   3.863   1.450 -0.2377 -0.0154 -0.1854
  707TMC3    C510453   4.566   3.865   1.373 -0.1081 -0.5088 -0.0192
  707TMC3    C610454   4.566   3.808   1.248 -0.2816  0.4048 -0.3624
  707TMC3     C10455   0.158   3.754   1.507  0.7108  0.2906  0.3366
  707TMC3     O10456   0.108   3.725   1.616 -0.5000 -0.2517  0.3238
  707TMC3     H10457   0.160   3.673   1.260 -0.1895 -1.5903  1.1700
  707TMC3    H110458   4.689   3.920   1.541 -1.1878 -0.7697  0.3920
  707TMC3    H210459   4.484   3.816   1.177  0.5476 -2.3449 -1.6508
  707TMC3    C710460   4.465   3.954   1.423 -0.0325  0.3187 -0.2651
  707TMC3    C810461   4.657   3.649   1.099 -0.0765 -0.8393 -0.3014
  707TMC3    O110462   4.472   3.982   1.544  0.1278  0.0357  0.0537
  707TMC3    O210463   4.571   3.689   1.014 -0.2589  0.0138  0.1752
  708MPD2     C10464   1.660   2.433  15.030  0.3358 -0.5495  0.5141
  708MPD2    C110465   1.668   2.354  14.921  0.3633 -0.1233 -0.3477
  708MPD2    C210466   1.773   2.376  14.838 -0.2618  0.0905  0.4093
  708MPD2    C310467   1.871   2.477  14.865  0.8109 -0.4489  0.5446
  708MPD2    C410468   1.849   2.559  14.971  0.2631 -0.0887  0.3684
  708MPD2    C510469   1.742   2.543  15.048 -0.7884  0.0315 -0.4889
  708MPD2     H10470   1.800   2.303  14.762 -2.7604  0.2277 -0.6240
  708MPD2    H110471   1.928   2.623  15.007  1.3143 -1.1391 -0.0810
  708MPD2    H210472   1.571   2.434  15.093 -0.7895  1.9577 -1.1410
  708MPD2    H310473   1.740   2.605  15.137  1.6322  0.5497 -0.8164
  708MPD2     N10474   1.991   2.469  14.783  0.3174 -0.9030 -0.4426
  708MPD2    H510475   1.988   2.421  14.694  2.2593 -0.4409 -0.7507
  708MPD2    N110476   1.587   2.241  14.920  0.3024  0.4465 -0.4226
  708MPD2    H710477   1.524   2.219  14.998  2.5066 -1.4235  0.8354
  709TMC3    C110478   1.528   2.022  14.845 -0.4583 -0.0221  0.4276
  709TMC3    C210479   1.504   1.962  14.727 -0.2785 -0.1020  0.2324
  709TMC3    C310480   1.570   1.850  14.686  0.1477  0.4824 -0.4013
  709TMC3    C410481   1.622   1.958  14.929  0.0461 -0.3271  0.2411
  709TMC3    C510482   1.693   1.853  14.877  0.3070  0.9871 -0.3427
  709TMC3    C610483   1.673   1.787  14.758 -0.6559  0.5502 -0.2646
  709TMC3     C10484   1.581   2.154  14.813  0.1821  0.0607  0.6752
  709TMC3     O10485   1.620   2.175  14.698 -0.3565  0.1329 -0.4752
  709TMC3     H10486   1.434   2.011  14.661 -1.8484 -1.4251  0.9071
  709TMC3    H110487   1.648   2.015  15.018 -0.3112  1.2355 -0.6683
  709TMC3    H210488   1.739   1.715  14.712 -0.4383  1.3940 -1.2836
  709TMC3    C710489   1.833   1.865  14.903  0.6301  0.2684 -0.1472
  709TMC3    C810490   1.571   1.852  14.544  0.3935  0.0111 -0.5915
  709TMC3    O110491   1.908   1.849  14.810 -0.3580  0.6245  0.0315
  709TMC3    O210492   1.480   1.780  14.498 -0.3993  0.3358 -0.0353
  710TMC3    C110493   2.796   3.862   0.790  0.7696  0.2317  0.4278
  710TMC3    C210494   2.817   3.921   0.673 -0.4581 -0.2406 -0.5758
  710TMC3    C310495   2.940   3.895   0.611 -0.6947  0.0516 -0.3794
  710TMC3    C410496   2.881   3.780   0.858  0.1199  0.1270  0.5582
  710TMC3    C510497   2.994   3.748   0.784 -0.7864 -0.0840  0.1027
  710TMC3    C610498   3.029   3.800   0.663 -0.0079  0.1151  0.0254
  710TMC3     C10499   2.680   3.912   0.851  0.7602 -0.0063  0.1531
  710TMC3     O10500   2.594   3.964   0.789 -0.5636 -0.4286 -0.2381
  710TMC3     H10501   2.739   3.984   0.631 -2.7622 -1.9930  1.0615
  710TMC3    H110502   2.870   3.731   0.954 -2.0975  0.4690  0.4680
  710TMC3    H210503   3.121   3.785   0.608  0.0497 -2.1450  0.7478
  710TMC3    C710504   3.081   3.649   0.853 -0.5338  0.3790 -0.3200
  710TMC3    C810505   2.963   3.937   0.475  0.3234  0.7693  0.2300
  710TMC3    O110506   3.026   3.570   0.931 -0.0869 -0.1518 -0.0109
  710TMC3    O210507   3.017   3.857   0.400 -0.3241  0.6523  0.3031
  711TMC3    C110508   2.761   0.321  14.957  0.3830  0.4087 -0.0613
  711TMC3    C210509   2.782   0.404  15.060 -0.0097  0.5711  0.6667
  711TMC3    C310510   2.900   0.384  15.124 -0.3502  0.3841  0.5014
  711TMC3    C410511   2.841   0.216  14.925 -0.2115  0.0671 -0.3829
  711TMC3    C510512   2.960   0.208  14.983  0.2143  0.0751  0.5045
  711TMC3    C610513   2.995   0.290  15.089  0.2295  0.8486 -0.3926
  711TMC3     C10514   2.636   0.327  14.884  0.5238  0.3641  0.0069
  711TMC3     O10515   2.603   0.234  14.813  0.3310 -0.3282  0.1162
  711TMC3     H10516   2.696   0.457  15.099  0.4321  1.4738  0.4105
  711TMC3    H110517   2.821   0.170  14.829  2.2435 -1.1715 -0.3069
  711TMC3    H210518   3.084   0.265  15.145 -0.1633  1.2573  0.4217
  711TMC3    C710519   3.016   0.075  15.009 -0.1699 -0.6056 -0.6457
  711TMC3    C810520   2.907   0.439  15.261 -0.5431  0.5674  0.0989
  711TMC3    O110521   3.128   0.066  15.061 -0.7570 -0.0416 -1.0551
  711TMC3    O210522   2.796   0.468  15.306 -0.2994 -0.3771 -0.0618
  712MPD2     C10523   4.588   1.171  14.038  0.1561  0.4616  0.1202
  712MPD2    C110524   4.472   1.220  13.970  0.2186  0.6119 -0.2183
  712MPD2    C210525   4.486   1.339  13.903 -0.1084 -0.2418  0.3054
  712MPD2    C310526   4.606   1.410  13.890 -0.4918 -0.2627  0.1877
  712MPD2    C410527   4.721   1.351  13.938 -0.5011 -0.0864 -0.6507
  712MPD2    C510528   4.708   1.237  14.020  0.4700  0.9578 -0.0616
  712MPD2     H10529   4.401   1.378  13.848 -0.1842 -1.8192 -0.6960
  712MPD2    H110530   0.095   1.389  13.922  0.9935 -3.5566  0.4046
  712MPD2    H210531   4.570   1.078  14.091  3.3640 -0.3293 -0.1623
  712MPD2    H310532   0.065   1.198  14.079 -0.5211 -0.0802  0.6216
  712MPD2     N10533   4.625   1.517  13.801  0.4428 -0.7656 -0.4243
  712MPD2    H510534   4.720   1.540  13.775 -0.2571  0.6379 -1.7320
  712MPD2    N110535   4.347   1.159  13.972  0.7064 -0.2988 -0.0261
  712MPD2    H710536   4.278   1.206  13.914  0.3922 -0.6609  0.0570
  713TMC3    C110537   4.575   1.662  13.630 -0.5779  0.4387  0.8256
  713TMC3    C210538   4.708   1.693  13.627 -0.0918 -0.1010 -0.2562
  713TMC3    C310539   0.044   1.744  13.519  0.6874 -0.7067 -0.4537
  713TMC3    C410540   4.491   1.695  13.530 -0.1835 -0.4507 -0.8431
  713TMC3    C510541   4.560   1.731  13.410 -0.4166 -0.1437 -0.7026
  713TMC3    C610542   4.699   1.744  13.401 -0.1895  0.1942  0.3870
  713TMC3     C10543   4.523   1.581  13.741 -0.4292  0.6432  0.5204
  713TMC3     O10544   4.401   1.579  13.756 -0.0631  0.3544  0.0691
  713TMC3     H10545   0.035   1.704  13.722  3.1542  0.3113 -2.0757
  713TMC3    H110546   4.387   1.667  13.528 -0.0404 -1.0706  0.6225
  713TMC3    H210547   0.029   1.763  13.310  1.3493 -0.4360  1.1749
  713TMC3    C710548   4.477   1.807  13.313  0.2355  0.0599 -0.4469
  713TMC3    C810549   0.188   1.775  13.513  0.8194 -0.6574  0.1716
  713TMC3    O110550   4.528   1.826  13.202  0.5506 -0.8124  0.3313
  713TMC3    O210551   0.228   1.820  13.408  0.0564 -0.1162 -0.6575
  714MPD2     C10552   1.480   4.456   1.820  0.3690  0.2207 -0.4366
  714MPD2    C110553   1.565   4.404   1.720  1.5658 -0.1494 -0.2042
  714MPD2    C210554   1.552   4.441   1.587 -0.6328  0.8613 -0.1673
  714MPD2    C310555   1.443   4.522   1.556 -0.4555 -0.6581  0.7226
  714MPD2    C410556   1.350   4.552   1.651  0.5035 -0.0002 -0.7005
  714MPD2    C510557   1.361   4.521   1.780  0.6708 -0.2444  0.1739
  714MPD2     H10558   1.611   4.394   1.509 -1.5778 -1.6246  0.6053
  714MPD2    H110559   1.259   4.607   1.632  0.0680 -0.1546  0.9132
  714MPD2    H210560   1.481   4.423   1.923  0.0753  0.1853 -0.4471
  714MPD2    H310561   1.289   4.560   1.851 -0.8938 -0.0088 -1.5490
  714MPD2     N10562   1.419   4.570   1.430 -0.0402 -0.0907 -0.2577
  714MPD2    H510563   1.324   4.597   1.408  0.2961  0.8878 -0.5121
  714MPD2    N110564   1.663   4.315   1.766  0.4761  0.0895  0.7412
  714MPD2    H710565   1.661   4.293   1.865 -1.1733  0.8007  0.8720
  715TMC3    C110566   1.841   4.150   1.765 -0.0579  0.3656  0.1052
  715TMC3    C210567   1.893   4.043   1.695 -0.0495  0.7165  0.7728
  715TMC3    C310568   1.993   3.968   1.755  0.4579 -0.1701 -0.1589
  715TMC3    C410569   1.878   4.180   1.894 -0.9052 -0.3634 -0.2957
  715TMC3    C510570   1.968   4.092   1.957 -0.7320  0.4970 -0.3411
  715TMC3    C610571   2.033   3.991   1.885  0.3541  0.3485 -0.2763
  715TMC3     C10572   1.741   4.233   1.690 -0.0276 -0.3614  0.1026
  715TMC3     O10573   1.753   4.217   1.573  0.2372  0.8198  0.4039
  715TMC3     H10574   1.865   4.022   1.592  1.3564  0.5839  0.4244
  715TMC3    H110575   1.837   4.269   1.941  1.5603 -0.0462  1.2517
  715TMC3    H210576   2.110   3.933   1.936 -1.1067  0.4378  2.0048
  715TMC3    C710577   1.998   4.111   2.100  0.5493  0.0794  0.6168
  715TMC3    C810578   2.074   3.886   1.665 -0.3456  0.0263 -0.2049
  715TMC3    O110579   2.098   4.050   2.140 -0.0054 -0.0601  0.1209
  715TMC3    O210580   2.043   3.900   1.550  0.4673 -0.6370 -0.4638
  716MPD2     C10581   1.648   2.551  10.165  0.5276  0.7608  0.5959
  716MPD2    C110582   1.673   2.547  10.027 -0.2420  0.0835  0.1401
  716MPD2    C210583   1.712   2.420   9.974  0.1732 -0.4490  0.0002
  716MPD2    C310584   1.740   2.310  10.054  0.0928  0.2038 -0.1582
  716MPD2    C410585   1.726   2.333  10.195  0.3768 -0.4504 -0.4989
  716MPD2    C510586   1.677   2.451  10.244  0.5537 -0.3081  0.1257
  716MPD2     H10587   1.730   2.409   9.868 -0.3876 -0.2217 -0.1204
  716MPD2    H110588   1.744   2.252  10.265 -0.9133 -3.2156 -3.3666
  716MPD2    H210589   1.612   2.641  10.215  0.9185 -0.0277  2.3035
  716MPD2    H310590   1.655   2.465  10.350 -1.3267  0.6755 -0.4046
  716MPD2     N10591   1.771   2.184  10.002 -0.1672 -0.0595 -0.0033
  716MPD2    H510592   1.805   2.188   9.906  0.0710 -0.6864  0.0532
  716MPD2    N110593   1.638   2.659   9.945 -0.0442  0.3978 -0.2348
  716MPD2    H710594   1.573   2.726   9.981 -1.6417 -1.3019  0.0441
  717TMC3    C110595   1.746   1.958   9.950 -0.2126  0.2951 -0.5110
  717TMC3    C210596   1.698   1.996   9.826  0.6583 -0.5317  0.1942
  717TMC3    C310597   1.710   1.904   9.725 -0.1799  0.1921 -0.3231
  717TMC3    C410598   1.784   1.827   9.967  1.3007  0.2710 -0.4976
  717TMC3    C510599   1.801   1.743   9.863 -0.2326  0.0188 -0.0413
  717TMC3    C610600   1.764   1.781   9.737 -0.0882 -0.5275 -0.0716
  717TMC3     C10601   1.755   2.061  10.062 -0.6039 -0.0135 -0.1993
  717TMC3     O10602   1.705   2.040  10.175  0.0126 -0.0394 -0.7243
  717TMC3     H10603   1.648   2.090   9.807  1.4049 -0.1620  0.0431
  717TMC3    H110604   1.833   1.790  10.056  0.2141  0.8048  0.3147
  717TMC3    H210605   1.765   1.708   9.657 -0.2965 -0.8726  0.2410
  717TMC3    C710606   1.839   1.608   9.879  0.1098 -0.2316 -0.2397
  717TMC3    C810607   1.670   1.956   9.598 -0.6674  0.5663 -0.4603
  717TMC3    O110608   1.775   1.531   9.813  0.0003 -0.2051  0.0251
  717TMC3    O210609   1.559   2.008   9.594  0.4149  0.3021  0.4128
  718MPD2     C10610   1.566   1.791  13.218 -0.1554 -0.5193  0.1470
  718MPD2    C110611   1.521   1.724  13.109 -0.2735  0.4855 -0.0905
  718MPD2    C210612   1.427   1.620  13.121  0.1192 -0.1403 -0.3965
  718MPD2    C310613   1.386   1.580  13.245  0.0863  0.5217  0.4312
  718MPD2    C410614   1.419   1.653  13.359  0.1048 -0.0255 -0.0656
  718MPD2    C510615   1.503   1.763  13.339 -0.0506 -0.5519  0.0845
  718MPD2     H10616   1.398   1.552  13.042  1.2398 -0.9448 -0.1109
  718MPD2    H110617   1.401   1.617  13.459  0.4404 -0.5659 -0.2033
  718MPD2    H210618   1.640   1.869  13.211 -1.5038  0.4538 -3.7270
  718MPD2    H310619   1.533   1.806  13.434 -0.4469  1.6556 -0.7979
  718MPD2     N10620   1.321   1.458  13.254 -0.6686  0.5647 -0.0619
  718MPD2    H510621   1.314   1.410  13.165 -1.4353 -0.5235  0.5807
  718MPD2    N110622   1.593   1.748  12.986 -0.1278 -0.5722  0.1006
  718MPD2    H710623   1.663   1.821  12.985  0.0491 -0.7892 -2.4669
  719TMC3    C110624   1.647   1.708  12.753 -0.1123 -0.1096  0.0636
  719TMC3    C210625   1.605   1.639  12.649 -0.0091  0.4345  0.0826
  719TMC3    C310626   1.695   1.566  12.576  0.0736  0.3695  0.0764
  719TMC3    C410627   1.777   1.719  12.786  0.5049 -0.7143 -0.0341
  719TMC3    C510628   1.867   1.671  12.694 -0.0329 -0.2046 -0.3204
  719TMC3    C610629   1.829   1.584  12.599 -0.0994  0.7047 -1.0786
  719TMC3     C10630   1.555   1.688  12.863  0.0827 -0.3069 -0.0992
  719TMC3     O10631   1.483   1.592  12.845  0.0740  0.0235  0.0868
  719TMC3     H10632   1.505   1.653  12.608  0.1492  0.3522 -0.3286
  719TMC3    H110633   1.804   1.779  12.873  0.7991 -1.4705  0.3917
  719TMC3    H210634   1.903   1.540  12.533  1.5811 -0.1672  1.3884
  719TMC3    C710635   1.979   1.757  12.656 -0.0383 -0.0792  0.2832
  719TMC3    C810636   1.657   1.424  12.566  0.1272  0.1592  0.5105
  719TMC3    O110637   2.052   1.714  12.566  0.5130 -0.1846 -0.3953
  719TMC3    O210638   1.731   1.356  12.497  0.3833  0.1008 -0.6414
  720MPD2     C10639   4.167   3.103  13.879 -0.0155  0.2308  0.0894
  720MPD2    C110640   4.268   3.078  13.788  0.4574 -0.3289  0.5649
  720MPD2    C210641   4.394   3.036  13.835  0.5460 -0.3256  0.0973
  720MPD2    C310642   4.428   3.031  13.971  0.0742 -0.1854  0.2243
  720MPD2    C410643   4.330   3.075  14.056  0.3619 -0.0676 -0.2613
  720MPD2    C510644   4.201   3.109  14.012 -0.1708 -0.7361 -0.3286
  720MPD2     H10645   4.472   3.006  13.766 -0.2258  0.0945 -0.9440
  720MPD2    H110646   4.353   3.089  14.161  0.0632 -0.9343 -0.0759
  720MPD2    H210647   4.067   3.130  13.848  1.3175  0.7888 -3.6406
  720MPD2    H310648   4.134   3.146  14.088 -0.3379 -0.5940 -0.5440
  720MPD2     N10649   4.557   3.003  14.009  0.5488  0.1916  0.0692
  720MPD2    H510650   4.626   2.996  13.935  0.4640 -0.2619  0.0352
  720MPD2    N110651   4.250   3.085  13.647  0.2597  0.2686 -0.1061
  720MPD2    H710652   4.320   3.062  13.578 -1.4388 -3.2711 -0.6285
  721TMC3    C110653   0.024   3.042  14.122  0.6874  0.2867 -0.4737
  721TMC3    C210654   0.073   3.100  14.238 -0.4594 -0.2314 -0.3365
  721TMC3    C310655   0.199   3.146  14.229  0.1112  0.3797  0.5242
  721TMC3    C410656   0.097   3.016  14.012  0.3408 -0.0985  0.9371
  721TMC3    C510657   0.226   3.059  14.011 -0.0989 -0.3073  0.4852
  721TMC3    C610658   0.276   3.131  14.117  0.1294 -0.6040 -0.2290
  721TMC3     C10659   4.611   3.007  14.132 -0.3905 -0.0405 -1.1358
  721TMC3     O10660   4.555   2.990  14.240 -0.1818 -0.3313  0.5630
  721TMC3     H10661   0.000   3.127  14.314  1.3584  1.3360  0.8416
  721TMC3    H110662   0.080   2.930  13.948  1.2350 -0.4041  1.1165
  721TMC3    H210663   0.370   3.184  14.114  0.0317 -0.4026  0.2973
  721TMC3    C710664   0.320   2.983  13.928  0.5096 -0.2913  0.3400
  721TMC3    C810665   0.285   3.127  14.349  0.3476  0.3724  0.0947
  721TMC3    O110666   0.289   2.863  13.916 -0.1951 -0.3795 -0.3114
  721TMC3    O210667   0.407   3.135  14.346 -0.5039 -0.2077  0.2563
  722MPD2     C10668   3.507   1.531  13.527 -0.0810  0.1534 -0.2360
  722MPD2    C110669   3.412   1.630  13.515  0.3917  0.7668 -0.0908
  722MPD2    C210670   3.277   1.599  13.515  0.2330 -0.2994 -0.0911
  722MPD2    C310671   3.234   1.473  13.554 -0.0880 -0.8130 -0.5369
  722MPD2    C410672   3.329   1.376  13.588  0.7542 -1.1697  0.4610
  722MPD2    C510673   3.462   1.407  13.572  0.1812  0.1123 -0.3307
  722MPD2     H10674   3.195   1.665  13.492 -0.0019 -0.5043  0.1543
  722MPD2    H110675   3.297   1.284  13.637  1.9091 -1.5617  0.4624
  722MPD2    H210676   3.612   1.552  13.511 -0.3186 -0.0528 -2.0958
  722MPD2    H310677   3.544   1.347  13.610  0.5906  2.0485  1.8334
  722MPD2     N10678   3.094   1.447  13.562  0.1239  0.1030  0.1735
  722MPD2    H510679   3.043   1.533  13.543 -1.2801 -1.2387 -2.1407
  722MPD2    N110680   3.451   1.765  13.484  0.3972  0.5137 -0.4336
  722MPD2    H710681   3.386   1.837  13.459 -2.5196 -1.5593  1.1620
  723TMC3    C110682   2.887   1.334  13.564 -0.0009  0.2473 -0.6613
  723TMC3    C210683   2.829   1.255  13.471  0.0886 -0.1335  0.7882
  723TMC3    C310684   2.719   1.308  13.414 -0.1286  0.7514 -0.2173
  723TMC3    C410685   2.834   1.445  13.617  0.8724 -0.4513 -0.1856
  723TMC3    C510686   2.722   1.494  13.564 -0.2311  0.3651 -0.7245
  723TMC3    C610687   2.666   1.429  13.451  0.3251  0.1366 -0.3320
  723TMC3     C10688   3.031   1.324  13.576  0.1985 -0.1506  0.8401
  723TMC3     O10689   3.081   1.212  13.563 -0.0631  0.1808 -0.7935
  723TMC3     H10690   2.867   1.155  13.454 -0.8997  0.0394 -2.4790
  723TMC3    H110691   2.875   1.497  13.704 -0.6589  2.2260 -1.0597
  723TMC3    H210692   2.565   1.459  13.426  0.5134  1.1817  0.1446
  723TMC3    C710693   2.691   1.633  13.589 -0.2778 -0.1797 -0.1326
  723TMC3    C810694   2.650   1.257  13.293  0.1568  1.0817  0.1982
  723TMC3    O110695   2.703   1.681  13.706  0.6611  0.2217 -0.0850
  723TMC3    O210696   2.592   1.342  13.229 -0.3237  0.0693  0.2870
  724TMC3    C110697   2.869   4.089   9.709  0.3298 -0.5675 -0.1406
  724TMC3    C210698   2.817   4.210   9.713  0.2713 -0.2447  0.1272
  724TMC3    C310699   2.881   4.318   9.660 -0.5516 -0.0103  0.4372
  724TMC3    C410700   2.977   4.066   9.634  0.4387 -0.1484  0.2359
  724TMC3    C510701   3.046   4.175   9.585 -0.2760  1.5549  0.4352
  724TMC3    C610702   3.002   4.301   9.600  0.4345  0.4845 -0.1650
  724TMC3     C10703   2.786   3.976   9.760 -0.4585 -0.5783  0.9417
  724TMC3     O10704   2.847   3.874   9.789 -0.2622 -0.2401 -0.0233
  724TMC3     H10705   2.731   4.230   9.775 -0.0811 -0.0624 -0.4207
  724TMC3    H110706   3.013   3.964   9.629  1.2962  0.1411  0.5530
  724TMC3    H210707   3.053   4.379   9.544 -0.0652  0.2882 -0.8962
  724TMC3    C710708   3.153   4.157   9.492 -0.5240  0.6483 -0.2139
  724TMC3    C810709   2.825   4.450   9.674 -0.0386  0.9488 -0.3740
  724TMC3    O110710   3.220   4.255   9.461  0.0307  0.9660  0.0409
  724TMC3    O210711   2.703   4.449   9.689 -0.2241  0.2229 -0.0960
  725TMC3    C110712   0.250   3.349  12.719  0.6139 -1.1524  0.4953
  725TMC3    C210713   0.129   3.306  12.662 -0.2025 -0.7312  0.3305
  725TMC3    C310714   0.124   3.191  12.596 -0.0439 -0.0058  0.2458
  725TMC3    C410715   0.372   3.283  12.708 -0.5402  0.0532  0.2669
  725TMC3    C510716   0.360   3.165  12.643 -0.7823 -0.7153 -0.7866
  725TMC3    C610717   0.239   3.117  12.590  0.0010 -0.2871 -0.2423
  725TMC3     C10718   0.243   3.487  12.761  0.8668 -0.6572  0.9614
  725TMC3     O10719   0.194   3.561  12.680 -0.0529  0.3965 -0.4362
  725TMC3     H10720   0.046   3.374  12.678  0.4443  0.2184 -0.4030
  725TMC3    H110721   0.461   3.337  12.741 -0.6671  2.6303 -3.5645
  725TMC3    H210722   0.247   3.025  12.533  1.0148 -1.9892  2.6308
  725TMC3    C710723   0.479   3.085  12.629  0.2545  0.7593 -1.0534
  725TMC3    C810724   0.041   3.188  12.487  0.4910 -0.3630 -0.3122
  725TMC3    O110725   0.476   3.002  12.540 -0.6976 -0.2140 -0.0578
  725TMC3    O210726   4.708   3.081  12.467  0.2737  0.1919  0.3731
  726MPD2     C10727   3.089   4.484  10.418  0.6276  0.3234 -0.4053
  726MPD2    C110728   2.969   4.552  10.410  0.4049  0.5535 -0.1193
  726MPD2    C210729   2.844   4.492  10.409  0.1011  0.4324  0.5390
  726MPD2    C310730   2.845   4.353  10.426  0.0093  0.2987  0.8933
  726MPD2    C410731   2.965   4.286  10.453 -0.6553 -0.1641 -0.0230
  726MPD2    C510732   3.086   4.350  10.438  0.0829 -0.2586  0.8123
  726MPD2     H10733   2.749   4.540  10.389  0.8988  1.2514 -1.3301
  726MPD2    H110734   2.963   4.179  10.473 -0.2797 -0.4246 -1.3795
  726MPD2    H210735   3.186   4.530  10.401  1.1199  0.4449  2.7207
  726MPD2    H310736   3.178   4.299  10.461  1.8475  1.4725 -2.4347
  726MPD2     N10737   2.729   4.272  10.447 -0.2707  0.0627 -0.2738
  726MPD2    H510738   2.749   4.180  10.485  0.8328 -0.2971 -1.7436
  726MPD2    N110739   2.968   4.694  10.400  0.1191  0.3825  0.1438
  726MPD2    H710740   2.877   0.012  10.395  0.8074  1.7722 -0.3411
  727TMC3    C110741   3.042   0.189  10.441 -0.1088  0.0109 -0.6249
  727TMC3    C210742   3.098   0.263  10.532  0.0175  0.0589 -0.1638
  727TMC3    C310743   3.066   0.393  10.543 -0.1770  0.0724 -0.4627
  727TMC3    C410744   2.959   0.238  10.344 -0.0201  0.5729  0.5950
  727TMC3    C510745   2.932   0.375  10.348 -0.3208 -0.7868 -0.1421
  727TMC3    C610746   2.989   0.451  10.451 -0.1357 -0.3221 -0.0643
  727TMC3     C10747   3.076   0.053  10.433  0.8235  0.1970 -0.2483
  727TMC3     O10748   3.171   0.017  10.500 -0.2155 -0.0319  0.0435
  727TMC3     H10749   3.165   0.220  10.606  1.2506 -0.0602 -1.3394
  727TMC3    H110750   2.922   0.176  10.263 -0.6454  0.7391  0.7472
  727TMC3    H210751   2.978   0.558  10.443  1.6118 -0.1385  0.0107
  727TMC3    C710752   2.829   0.436  10.265 -0.3450 -0.5966 -0.4361
  727TMC3    C810753   3.180   0.467  10.596 -0.3802 -0.6947 -0.4219
  727TMC3    O110754   2.817   0.558  10.265 -0.3078  0.4223  0.4247
  727TMC3    O210755   3.287   0.411  10.605  0.1255  0.3771 -0.1865
  728TMC3    C110756   1.977   3.799  15.185  0.0180 -0.5692  0.5673
  728TMC3    C210757   2.059   3.780  15.296 -1.0759  0.3262  0.0013
  728TMC3    C310758   2.173   3.864  15.300  0.3736 -0.4879  0.2146
  728TMC3    C410759   1.989   3.913  15.104  0.6939 -0.2470  0.0004
  728TMC3    C510760   2.097   3.999  15.122  0.2923  0.4185  0.0966
  728TMC3    C610761   2.195   3.967  15.208 -0.9350  0.0852  0.2937
  728TMC3     C10762   1.883   3.695  15.133 -0.0510 -0.2493 -0.4461
  728TMC3     O10763   1.829   3.721  15.029  0.3553 -0.0389  0.2651
  728TMC3     H10764   2.053   3.696  15.364  0.6325  1.2341  1.2862
  728TMC3    H110765   1.919   3.926  15.022 -1.7125 -0.3702  2.0376
  728TMC3    H210766   2.267   4.044  15.234 -0.6580 -0.0137 -0.1906
  728TMC3    C710767   2.117   4.109  15.027 -0.6653 -0.1171  0.7385
  728TMC3    C810768   2.266   3.848  15.414  0.2322  0.3245  0.5908
  728TMC3    O110769   2.025   4.147  14.958  0.2136 -0.6634 -0.7342
  728TMC3    O210770   2.232   3.770  15.504  0.2164  0.7482  0.4683
  729MPD2     C10771   4.486   0.002  16.237  0.3125  0.1277 -0.4872
  729MPD2    C110772   4.560   4.671  16.340 -0.4059  0.1683 -0.0813
  729MPD2    C210773   4.501   4.601  16.440 -0.3926 -0.2662 -0.4226
  729MPD2    C310774   4.365   4.612  16.457 -0.2279  0.0172 -0.1329
  729MPD2    C410775   4.288   4.653  16.355  0.2136  0.1241 -0.4281
  729MPD2    C510776   4.350   4.696  16.240 -0.3981 -0.4227 -0.4175
  729MPD2     H10777   4.562   4.566  16.522  0.3711  0.5679 -0.6334
  729MPD2    H110778   4.180   4.664  16.365  0.1763 -0.6937  0.0832
  729MPD2    H210779   4.530   0.044  16.147  1.9104 -2.1593 -0.7918
  729MPD2    H310780   4.289   0.018  16.164  0.7484 -0.5723 -1.4250
  729MPD2     N10781   4.287   4.564  16.565 -0.6561  0.1309  0.3329
  729MPD2    H510782   4.186   4.579  16.568 -0.8148 -1.0785  1.4132
  729MPD2    N110783   4.698   4.695  16.328 -0.1138 -0.4658 -0.1727
  729MPD2    H710784   0.003   0.037  16.258 -1.3344 -0.7603 -0.9861
  730TMC3    C110785   4.270   4.487  16.789  0.3186  0.5117 -0.2257
  730TMC3    C210786   4.330   4.407  16.888  0.5248  0.1458  0.2733
  730TMC3    C310787   4.376   4.466  17.002 -0.6238  0.6280  0.0514
  730TMC3    C410788   4.231   4.613  16.822 -0.1103 -0.0578  0.5252
  730TMC3    C510789   4.254   4.658  16.948 -0.0557 -0.3526 -0.9425
  730TMC3    C610790   4.343   4.595  17.034  0.2122  0.3277 -0.7914
  730TMC3     C10791   4.347   4.491  16.668 -0.1554  0.0202 -0.4383
  730TMC3     O10792   4.460   4.451  16.681  0.0008  0.7392  0.2066
  730TMC3     H10793   4.363   4.307  16.864  0.2606 -0.2761  1.6667
  730TMC3    H110794   4.179   4.678  16.753  0.1148 -1.0373 -0.5615
  730TMC3    H210795   4.359   4.630  17.135  0.6119 -0.0746 -0.7160
  730TMC3    C710796   4.243   0.071  16.977  0.3199 -0.1183 -0.0011
  730TMC3    C810797   4.499   4.410  17.046  0.0833  0.8359  0.4077
  730TMC3    O110798   4.244   0.146  16.879  0.1808  0.2738  0.5885
  730TMC3    O210799   4.517   4.289  17.035 -0.0982  0.1697  0.4964
  731MPD2     C10800   4.637   3.036  11.829 -0.2991  0.1340 -0.6429
  731MPD2    C110801   4.588   2.916  11.781  0.1854 -0.1471 -0.2918
  731MPD2    C210802   4.502   2.843  11.870  0.8140 -0.3456 -0.2866
  731MPD2    C310803   4.477   2.883  12.004 -0.0956 -0.1899  0.4873
  731MPD2    C410804   4.519   3.008  12.039  0.1252 -0.1952 -0.1818
  731MPD2    C510805   4.588   3.086  11.950  0.2226  0.6825 -0.4834
  731MPD2     H10806   4.470   2.742  11.849 -0.0578 -0.3044  0.8551
  731MPD2    H110807   4.490   3.050  12.134  0.2476 -1.6670  0.4972
  731MPD2    H210808   4.693   3.101  11.763  2.2065 -2.4073 -1.0667
  731MPD2    H310809   4.601   3.190  11.978 -0.1271  0.8920 -1.0939
  731MPD2     N10810   4.396   2.794  12.087 -0.0534  0.0859 -0.3572
  731MPD2    H510811   4.356   2.713  12.041  0.1698 -0.5727  0.6009
  731MPD2    N110812   4.643   2.864  11.662 -0.1933  0.4225 -0.2269
  731MPD2    H710813   0.008   2.903  11.640 -0.1919  0.3258 -0.3872
  732TMC3    C110814   4.706   2.682  11.511  0.0087  0.5993 -0.2807
  732TMC3    C210815   4.677   2.547  11.479 -0.4566 -0.2754  0.3192
  732TMC3    C310816   0.051   2.455  11.491  0.2167  0.1742  0.7236
  732TMC3    C410817   0.109   2.724  11.537 -0.5072  0.1441  0.7113
  732TMC3    C510818   0.206   2.619  11.548  0.2035  0.1245 -0.1071
  732TMC3    C610819   0.174   2.489  11.529  1.0323  0.2233 -1.0909
  732TMC3     C10820   4.603   2.740  11.598  0.4597 -0.0352  0.3220
  732TMC3     O10821   4.508   2.675  11.629 -0.2720 -0.1707 -0.3092
  732TMC3     H10822   4.579   2.520  11.442  0.4917  0.1698 -2.5399
  732TMC3    H110823   0.130   2.830  11.548 -0.3850  0.3174 -1.1225
  732TMC3    H210824   0.257   2.422  11.547  0.3013 -0.3914  0.0257
  732TMC3    C710825   0.346   2.654  11.587 -0.1961 -0.3191 -0.3932
  732TMC3    C810826   0.017   2.322  11.499  0.3030  0.4461 -0.2840
  732TMC3    O110827   0.406   2.572  11.654 -0.2374 -0.1163 -0.1061
  732TMC3    O210828   0.102   2.236  11.482  0.1117 -0.3252  0.1023
  733TMC3    C110829   1.086   1.070  13.342 -0.1040 -1.2126  0.4534
  733TMC3    C210830   1.130   1.192  13.389  0.8177 -0.0315  0.2995
  733TMC3    C310831   1.232   1.252  13.322  0.0766 -0.0038 -0.2961
  733TMC3    C410832   1.139   1.011  13.225 -0.2841  0.6809  0.3001
  733TMC3    C510833   1.251   1.071  13.165  0.9702  0.1666  0.2016
  733TMC3    C610834   1.298   1.189  13.213  0.2753 -0.3551 -0.0196
  733TMC3     C10835   0.958   1.031  13.394 -1.0733  0.4444 -0.4905
  733TMC3     O10836   0.906   0.954  13.309 -0.1988  0.1137  0.2236
  733TMC3     H10837   1.090   1.244  13.475 -1.1505  1.2468 -1.3951
  733TMC3    H110838   1.104   0.913  13.192  0.2592  1.2539 -1.9773
  733TMC3    H210839   1.390   1.233  13.177  1.1151  0.2558  2.8524
  733TMC3    C710840   1.298   1.020  13.040  0.0490  0.4658  0.5555
  733TMC3    C810841   1.273   1.383  13.363 -0.5555  0.3478 -0.2305
  733TMC3    O110842   1.310   0.899  13.028  0.2904 -0.5825 -0.2615
  733TMC3    O210843   1.234   1.419  13.473  0.2818  0.4233 -0.1136
  734MPD2     C10844   2.844   3.343  12.401  0.3926  0.2005 -0.3489
  734MPD2    C110845   2.916   3.223  12.381 -0.1931 -0.0344 -0.0609
  734MPD2    C210846   3.002   3.224  12.278  0.8128 -0.4666  0.4658
  734MPD2    C310847   3.011   3.322  12.183  0.1437  0.3216 -0.0257
  734MPD2    C410848   2.932   3.434  12.199  0.4917  0.3596  0.4730
  734MPD2    C510849   2.846   3.439  12.305 -0.1490 -0.0784  0.4475
  734MPD2     H10850   3.048   3.128  12.257 -1.4258 -1.3557 -0.3644
  734MPD2    H110851   2.916   3.510  12.123 -0.9661  0.3679  0.7995
  734MPD2    H210852   2.775   3.342  12.485 -0.4415  0.7066 -1.0272
  734MPD2    H310853   2.783   3.527  12.306 -1.2420 -0.8576  0.6622
  734MPD2     N10854   3.074   3.290  12.062  0.3212  0.1379 -0.0590
  734MPD2    H510855   3.127   3.204  12.050 -0.6458 -0.4104 -0.4205
  734MPD2    N110856   2.893   3.106  12.462  0.3663  0.3010  0.2282
  734MPD2    H710857   2.963   3.032  12.461  1.1645  1.0304  2.0741
  735TMC3    C110858   2.774   2.954  12.566  0.3266 -0.5372  0.0513
  735TMC3    C210859   2.689   2.883  12.489 -0.0045  0.3323  0.3149
  735TMC3    C310860   2.707   2.750  12.473 -0.1734 -0.2456  0.5596
  735TMC3    C410861   2.880   2.903  12.633 -0.2135 -0.1122  1.0703
  735TMC3    C510862   2.903   2.769  12.615  0.4217 -0.1040  0.3544
  735TMC3    C610863   2.813   2.695  12.544 -0.3719  0.4391  0.2425
  735TMC3     C10864   2.775   3.091  12.525 -0.0360  0.1894  0.0282
  735TMC3     O10865   2.667   3.142  12.502  0.5646 -0.1359 -0.0556
  735TMC3     H10866   2.632   2.940  12.417  0.3207 -0.0396 -0.2355
  735TMC3    H110867   2.941   2.966  12.697  1.1607  0.4029 -0.7458
  735TMC3    H210868   2.818   2.587  12.528 -1.0569  0.2310  1.4752
  735TMC3    C710869   3.042   2.731  12.635  0.6683  0.2208  0.3585
  735TMC3    C810870   2.691   2.705  12.331 -0.1730 -0.0518  0.0050
  735TMC3    O110871   3.121   2.817  12.610  0.1614 -0.1479  0.5669
  735TMC3    O210872   2.583   2.681  12.284  0.0244  0.7335 -0.3952
  736MPD2     C10873   3.188   2.393  12.656  0.0496 -0.3002 -0.6708
  736MPD2    C110874   3.174   2.519  12.602 -0.3617  0.1360 -0.5427
  736MPD2    C210875   3.269   2.572  12.523  0.2217 -0.3350  0.2413
  736MPD2    C310876   3.386   2.504  12.499  0.0725 -0.6558 -0.3566
  736MPD2    C410877   3.403   2.379  12.560 -0.6282 -0.2246  0.0690
  736MPD2    C510878   3.302   2.325  12.635  0.3790 -0.3865  0.1181
  736MPD2     H10879   3.260   2.670  12.477  1.0408 -0.8540 -1.0038
  736MPD2    H110880   3.485   2.314  12.532  1.0482  1.9476 -0.0118
  736MPD2    H210881   3.109   2.352  12.717 -1.4150  1.5399 -1.3279
  736MPD2    H310882   3.314   2.227  12.680 -0.9802 -0.1108  1.0663
  736MPD2     N10883   3.484   2.540  12.401  0.4737  0.1701  0.1259
  736MPD2    H510884   3.551   2.468  12.378 -0.2093 -0.4037 -0.0894
  736MPD2    N110885   3.058   2.594  12.633 -0.2285 -0.1515 -0.2590
  736MPD2    H710886   2.984   2.526  12.645  0.0691 -0.2963  0.7169
  737TMC3    C110887   3.575   2.652  12.220 -0.0586 -0.3330 -0.4970
  737TMC3    C210888   3.628   2.770  12.176 -0.8659 -0.1553  0.7635
  737TMC3    C310889   3.688   2.758  12.046  0.8281  0.0842  0.2715
  737TMC3    C410890   3.585   2.532  12.152  0.5799 -0.0186  0.4563
  737TMC3    C510891   3.653   2.529  12.029  0.1730  0.7687  0.1506
  737TMC3    C610892   3.711   2.647  11.981 -0.5811  0.0693  0.2482
  737TMC3     C10893   3.496   2.662  12.339 -0.5551  0.3604  1.0955
  737TMC3     O10894   3.468   2.773  12.384 -0.4245 -0.4185 -0.9516
  737TMC3     H10895   3.608   2.857  12.237 -1.3860  0.0201  0.3468
  737TMC3    H110896   3.540   2.440  12.188 -0.9185  1.0782  1.3390
  737TMC3    H210897   3.763   2.633  11.887 -2.5117  0.5930 -0.8952
  737TMC3    C710898   3.687   2.397  11.977  0.1698  0.2092 -0.3805
  737TMC3    C810899   3.694   2.885  11.977  0.2573  0.2836 -0.8744
  737TMC3    O110900   3.628   2.305  12.032 -0.0733  0.7831  0.1809
  737TMC3    O210901   3.623   2.970  12.027 -0.0471 -0.1183  0.0060
  738MPD2     C10902   3.540   2.303  15.784  0.3754  0.5448  0.2415
  738MPD2    C110903   3.534   2.250  15.659  0.2839 -0.3996  0.5869
  738MPD2    C210904   3.619   2.299  15.564  0.6018  0.1746 -0.4697
  738MPD2    C310905   3.726   2.381  15.603  1.4171  0.2608 -0.1383
  738MPD2    C410906   3.728   2.433  15.729 -0.4881  0.1578  0.5003
  738MPD2    C510907   3.629   2.393  15.821 -0.4075 -0.6395  0.6498
  738MPD2     H10908   3.598   2.271  15.462 -0.8714 -0.9807  0.1427
  738MPD2    H110909   3.803   2.501  15.769  0.2661  0.3832 -1.3007
  738MPD2    H210910   3.474   2.259  15.858  1.1551 -0.9349  0.0650
  738MPD2    H310911   3.642   2.429  15.922  2.9408  1.0732 -0.3794
  738MPD2     N10912   3.827   2.422  15.507 -0.0156 -0.0382 -0.5971
  738MPD2    H510913   3.910   2.467  15.545 -0.1052  0.9322 -1.5396
  738MPD2    N110914   3.439   2.154  15.620 -0.1322 -0.2294 -0.0847
  738MPD2    H710915   3.437   2.121  15.524  1.1077  1.4460 -0.6906
  739TMC3    C110916   3.961   2.411  15.313 -0.3225 -0.5690  0.4070
  739TMC3    C210917   3.972   2.395  15.181 -0.0413  0.6657  0.1755
  739TMC3    C310918   4.073   2.328  15.118  0.0790  0.6317 -0.3125
  739TMC3    C410919   4.063   2.376  15.392  1.0605 -0.3692 -1.1721
  739TMC3    C510920   4.164   2.322  15.325 -0.3741 -0.9480 -0.3357
  739TMC3    C610921   4.177   2.292  15.193 -0.1765 -0.3116  0.0330
  739TMC3     C10922   3.826   2.407  15.370  0.0526  0.0294 -0.1998
  739TMC3     O10923   3.726   2.395  15.299 -0.1944 -0.1584  0.1570
  739TMC3     H10924   3.897   2.430  15.112  1.3155 -0.1377 -1.7179
  739TMC3    H110925   4.053   2.364  15.499 -1.1227 -2.6494 -1.6277
  739TMC3    H210926   4.273   2.266  15.149  0.0248  0.8289 -0.1939
  739TMC3    C710927   4.273   2.283  15.407  0.3636 -0.3583 -0.1592
  739TMC3    C810928   4.093   2.344  14.969 -0.0643  0.2035  0.3357
  739TMC3    O110929   4.289   2.346  15.515  0.3191 -0.2528  0.3787
  739TMC3    O210930   4.025   2.429  14.913 -0.7470  0.6206  0.2549
  740TMC3    C110931   4.326   3.484  14.293  0.1767 -0.2548  0.6610
  740TMC3    C210932   4.380   3.445  14.411  0.4051 -0.7795  0.0595
  740TMC3    C310933   4.510   3.408  14.412 -0.3248  0.8107  0.2833
  740TMC3    C410934   4.389   3.468  14.170 -0.3568 -0.2115 -0.3695
  740TMC3    C510935   4.515   3.412  14.173  0.0799  0.3006  0.0837
  740TMC3    C610936   4.576   3.392  14.293  0.6830 -0.4207 -0.0575
  740TMC3     C10937   4.192   3.538  14.286 -0.3372  0.4116  0.7857
  740TMC3     O10938   4.158   3.588  14.177 -0.5014 -0.6085 -0.4757
  740TMC3     H10939   4.339   3.471  14.508  0.0351  1.5179 -0.7157
  740TMC3    H110940   4.343   3.494  14.075  1.0907  1.0771 -0.7085
  740TMC3    H210941   4.681   3.368  14.291  1.4384  2.7308  2.8071
  740TMC3    C710942   4.592   3.378  14.058 -0.1210 -1.5152  0.2001
  740TMC3    C810943   4.569   3.341  14.536  0.0932 -0.0096  0.3955
  740TMC3    O110944   4.707   3.343  14.076 -0.5431  0.1871 -0.3719
  740TMC3    O210945   4.673   3.273  14.516 -0.3405 -0.1518  0.0588
  741TMC3    C110946   4.391   2.678  14.651 -0.6124 -0.0989 -0.5961
  741TMC3    C210947   4.275   2.686  14.573 -0.5851  0.7465 -0.5446
  741TMC3    C310948   4.161   2.682  14.643 -0.4794 -0.8814 -0.4009
  741TMC3    C410949   4.387   2.662  14.789  0.3976  0.2819  0.1039
  741TMC3    C510950   4.271   2.671  14.853 -0.3864 -0.4599 -0.3083
  741TMC3    C610951   4.151   2.688  14.783  0.2646  0.1258 -0.7019
  741TMC3     C10952   4.521   2.681  14.584  0.1167 -0.1041 -0.4241
  741TMC3     O10953   4.621   2.639  14.644 -0.4390  0.6147 -0.3152
  741TMC3     H10954   4.275   2.674  14.465 -1.5681  2.3661 -0.7244
  741TMC3    H110955   4.480   2.639  14.839 -0.5418 -1.2861  1.1360
  741TMC3    H210956   4.059   2.680  14.839  1.7774 -2.2019  1.4523
  741TMC3    C710957   4.281   2.657  14.995 -0.1725  0.0126  0.0188
  741TMC3    C810958   4.041   2.713  14.578  0.0194  0.5937 -0.1276
  741TMC3    O110959   4.380   2.592  15.034 -0.0357 -0.0900 -0.4443
  741TMC3    O210960   3.942   2.664  14.631 -0.3747  0.5526  0.1960
  742TMC3    C110961   3.880   1.668  15.465 -0.0169 -0.2013 -0.2704
  742TMC3    C210962   3.818   1.646  15.342  0.2274  0.0911 -0.1913
  742TMC3    C310963   3.848   1.540  15.274 -0.0451 -0.0585  0.5793
  742TMC3    C410964   3.965   1.576  15.518  0.1504 -0.1888  0.6817
  742TMC3    C510965   3.984   1.457  15.444 -0.0282 -0.6808  0.1108
  742TMC3    C610966   3.925   1.438  15.326  0.6430 -0.9295 -0.1865
  742TMC3     C10967   3.894   1.809  15.511  0.8897  0.3015 -0.1496
  742TMC3     O10968   3.795   1.882  15.503  0.2655 -0.1903 -0.3741
  742TMC3     H10969   3.784   1.731  15.284  0.3257 -0.4458 -1.0489
  742TMC3    H110970   4.021   1.589  15.609  0.6144  2.1250  0.0532
  742TMC3    H210971   3.950   1.355  15.261 -0.1464 -0.9803 -0.4194
  742TMC3    C710972   4.035   1.338  15.512 -1.0873  0.5488  0.6335
  742TMC3    C810973   3.749   1.505  15.167 -0.8900 -0.7041 -0.0846
  742TMC3    O110974   4.039   1.233  15.446 -0.2777  0.2630 -0.2286
  742TMC3    O210975   3.799   1.475  15.062 -0.1235  0.0002 -0.2756
  743MPD2     C10976   0.710   3.187   1.521  0.3686  0.0258 -0.1587
  743MPD2    C110977   0.759   3.082   1.447 -0.4961  0.1143 -0.1562
  743MPD2    C210978   0.880   3.028   1.477  0.3075 -0.4128  0.0887
  743MPD2    C310979   0.958   3.083   1.573  0.3790  0.2742  0.5022
  743MPD2    C410980   0.914   3.195   1.638  0.4632  0.6591  0.6866
  743MPD2    C510981   0.787   3.240   1.617  0.3610  0.2273  0.1544
  743MPD2     H10982   0.918   2.944   1.419 -1.2988 -0.5768 -0.7326
  743MPD2    H110983   0.966   3.246   1.718  1.5881 -0.5305  0.7240
  743MPD2    H210984   0.612   3.229   1.505  0.8377  0.9067 -0.7493
  743MPD2    H310985   0.747   3.319   1.679  0.4399 -0.6260  1.3104
  743MPD2     N10986   1.083   3.021   1.599 -0.3902  0.0677 -0.1912
  743MPD2    H510987   1.115   2.934   1.558  1.6272  1.1052 -0.8357
  743MPD2    N110988   0.676   3.030   1.347 -0.0209 -1.0066  0.1607
  743MPD2    H710989   0.592   3.087   1.341  0.4594 -0.3916 -0.5881
  744TMC3    C110990   0.593   2.916   1.164  0.2551  0.6406  0.0979
  744TMC3    C210991   0.490   3.004   1.173 -0.1537  0.2167 -0.2671
  744TMC3    C310992   0.401   3.012   1.077  0.0223 -0.0487  0.4581
  744TMC3    C410993   0.608   2.829   1.063  0.0172 -0.5782  0.1772
  744TMC3    C510994   0.528   2.853   0.954  0.3785 -0.0138  0.4812
  744TMC3    C610995   0.415   2.928   0.968 -0.2308 -0.0477 -0.0116
  744TMC3     C10996   0.692   2.920   1.265  0.1525 -0.3367 -0.2127
  744TMC3     O10997   0.787   2.845   1.261  0.0890  0.5923 -0.2200
  744TMC3     H10998   0.449   3.044   1.266 -0.4967 -1.2751  0.2242
  744TMC3    H110999   0.680   2.748   1.071 -2.4789 -2.7772  0.4272
  744TMC3    H211000   0.364   2.954   0.875 -0.5353  0.2184  0.2277
  744TMC3    C711001   0.527   2.778   0.832 -0.2193 -0.4180  0.2845
  744TMC3    C811002   0.291   3.111   1.082 -0.0219 -0.8965  0.3280
  744TMC3    O111003   0.425   2.779   0.762 -0.0897  0.1679 -0.0808
  744TMC3    O211004   0.274   3.160   1.190 -0.2588 -0.1475 -0.0335
  745TMC3    C111005   4.174   0.999  14.001  0.2132 -0.5665  0.1595
  745TMC3    C211006   4.071   1.040  14.081 -0.7970 -0.0125  0.2184
  745TMC3    C311007   3.954   1.055  14.013 -1.2685  0.2485 -0.0499
  745TMC3    C411008   4.167   0.964  13.873 -0.5001  0.3358 -0.3005
  745TMC3    C511009   4.045   0.972  13.808  0.1965 -0.8140  0.1478
  745TMC3    C611010   3.943   1.022  13.879  0.8497  0.7180 -0.4755
  745TMC3     C11011   4.303   1.044  14.038 -0.1546 -0.1960  0.0416
  745TMC3     O11012   4.359   0.991  14.131 -0.4823  0.0474 -0.2164
  745TMC3     H11013   4.086   1.052  14.187  2.8279  1.2997 -0.4510
  745TMC3    H111014   4.265   0.940  13.833 -1.0284  0.5164 -1.7029
  745TMC3    H211015   3.847   1.046  13.834  1.5856  0.1006 -2.3277
  745TMC3    C711016   4.036   0.985  13.663  0.1019 -0.5659 -0.2515
  745TMC3    C811017   3.869   1.161  14.070 -0.8145 -0.3443 -0.2553
  745TMC3    O111018   3.928   1.005  13.610 -0.0884  0.0828 -0.5279
  745TMC3    O211019   3.752   1.171  14.030 -0.7008  0.1725 -0.4734
  746TMC3    C111020   1.850   2.186  11.022  0.1807  0.6456  0.1035
  746TMC3    C211021   1.876   2.173  10.894  0.3127  0.0594 -0.0554
  746TMC3    C311022   1.855   2.052  10.831 -0.4453 -0.5132  0.1344
  746TMC3    C411023   1.816   2.076  11.095 -0.5174 -0.0614  0.5227
  746TMC3    C511024   1.806   1.953  11.034 -0.1222  0.4579  0.3297
  746TMC3    C611025   1.827   1.936  10.905 -0.0171 -0.4631 -0.0604
  746TMC3     C11026   1.830   2.323  11.072 -0.8138 -0.3364 -0.3216
  746TMC3     O11027   1.768   2.335  11.172 -0.3319  0.1024  0.2035
  746TMC3     H11028   1.891   2.256  10.825 -2.5709  0.8068  0.2182
  746TMC3    H111029   1.794   2.088  11.201 -1.4093 -0.1445  0.3463
  746TMC3    H211030   1.812   1.838  10.861 -0.8532 -0.4397  0.1809
  746TMC3    C711031   1.697   1.870  11.089 -0.1452  1.2330 -0.4347
  746TMC3    C811032   1.910   2.012  10.709 -0.6936  0.4430  0.4531
  746TMC3    O111033   1.617   1.832  11.002 -0.2146  0.2211 -0.2714
  746TMC3    O211034   1.879   1.907  10.654  0.4731  0.0552  0.7695
  747TMC3    C111035   4.241   2.123  11.117  0.9109 -0.2623  0.2765
  747TMC3    C211036   4.173   2.065  11.216 -0.0781 -0.1247  0.0222
  747TMC3    C311037   4.183   2.129  11.341 -0.8631  0.7025  0.0471
  747TMC3    C411038   4.338   2.218  11.138  0.1118  0.4611 -0.1784
  747TMC3    C511039   4.335   2.280  11.261 -0.5737 -0.8049  0.0204
  747TMC3    C611040   4.257   2.243  11.365  0.5193  0.0706  0.1711
  747TMC3     C11041   4.193   2.103  10.984 -0.3486  0.1297  0.1340
  747TMC3     O11042   4.114   2.009  10.972  0.2283  0.1203  0.2688
  747TMC3     H11043   4.111   1.977  11.202  0.8862 -0.9810  1.0737
  747TMC3    H111044   4.416   2.241  11.066  0.6172  0.4741  0.3636
  747TMC3    H211045   4.257   2.295  11.460  2.2508 -2.4447  1.5507
  747TMC3    C711046   4.399   2.402  11.273 -0.0501 -0.1022 -0.2782
  747TMC3    C811047   4.069   2.104  11.430  0.5557  0.1099  0.1561
  747TMC3    O111048   4.354   2.484  11.354  0.3585 -0.1657  0.1317
  747TMC3    O211049   4.006   2.000  11.395 -0.1768 -0.3584 -0.1730
  748MPD2     C11050   0.118   4.089   1.829  0.1355  0.0195 -0.0770
  748MPD2    C111051   0.249   4.065   1.860  0.0420  0.4031  0.1686
  748MPD2    C211052   0.353   4.064   1.768 -0.4711 -0.6214 -0.4419
  748MPD2    C311053   0.315   4.092   1.638 -0.6054 -0.1922 -0.6791
  748MPD2    C411054   0.190   4.132   1.605  0.0856 -0.0350 -0.2951
  748MPD2    C511055   0.087   4.128   1.699  0.1143  0.0125 -0.3450
  748MPD2     H11056   0.450   4.021   1.790  0.6027  1.1205 -1.7103
  748MPD2    H111057   0.173   4.169   1.505 -0.9799 -2.4497 -1.0117
  748MPD2    H211058   0.046   4.083   1.910  2.7080 -3.5994  1.9538
  748MPD2    H311059   4.715   4.168   1.669  1.4675  1.0584 -3.3933
  748MPD2     N11060   0.425   4.076   1.546 -0.0094  0.6623 -0.9104
  748MPD2    H511061   0.510   4.055   1.599  0.6616  2.7208 -1.1652
  748MPD2    N111062   0.258   4.021   1.991  0.1685  0.2946 -0.4215
  748MPD2    H711063   0.168   3.994   2.028  0.1754  1.8568  0.7394
  749TMC3    C111064   0.543   4.046   1.339 -0.0359  0.2300  0.4763
  749TMC3    C211065   0.635   3.976   1.406  0.0785 -0.5058  0.1381
  749TMC3    C311066   0.761   3.963   1.359  0.3397  0.0043  0.6984
  749TMC3    C411067   0.557   4.097   1.213  0.7588 -0.0435  0.0163
  749TMC3    C511068   0.686   4.074   1.165 -0.3334 -0.2484 -0.7906
  749TMC3    C611069   0.790   4.017   1.234  0.7680  0.3166 -0.3016
  749TMC3     C11070   0.415   4.078   1.409 -0.7785 -0.6355  0.6655
  749TMC3     O11071   0.319   4.097   1.334 -0.7464  0.4261 -0.0035
  749TMC3     H11072   0.608   3.934   1.502  2.3208  0.3774  1.1683
  749TMC3    H111073   0.483   4.142   1.148 -0.4860 -0.9420  0.8023
  749TMC3    H211074   0.890   4.013   1.193  1.6015  0.5098  1.7298
  749TMC3    C711075   0.704   4.091   1.019 -0.4285 -0.0645  0.1318
  749TMC3    C811076   0.865   3.918   1.455 -1.1245  0.2713  0.4506
  749TMC3    O111077   0.820   4.085   0.978  0.0443  0.2980 -0.1051
  749TMC3    O211078   0.865   3.941   1.576 -0.5731 -0.2682 -0.3754
  750MPD2     C11079   1.964   4.107  11.510  0.3126  0.3505 -0.7431
  750MPD2    C111080   1.834   4.058  11.527  0.0100  0.2841  0.3878
  750MPD2    C211081   1.793   3.971  11.433  0.4176 -1.0136 -0.3874
  750MPD2    C311082   1.882   3.941  11.328 -0.0558  0.0176 -0.1427
  750MPD2    C411083   2.007   3.998  11.314 -0.0846  0.1293 -0.2955
  750MPD2    C511084   2.049   4.081  11.407 -0.2329  0.2048 -0.5752
  750MPD2     H11085   1.690   3.936  11.435  0.4810 -1.2019 -0.4215
  750MPD2    H111086   2.065   3.984  11.224  2.2854 -1.7166  1.5091
  750MPD2    H211087   1.991   4.178  11.587 -1.0983 -2.3370  2.2465
  750MPD2    H311088   2.150   4.121  11.408  0.3630 -1.3234 -1.2855
  750MPD2     N11089   1.839   3.869  11.217  0.0253 -0.1940  0.3858
  750MPD2    H511090   1.911   3.856  11.146  1.2749 -0.9715  1.7804
  750MPD2    N111091   1.766   4.094  11.642 -0.4304  0.3396 -0.2133
  750MPD2    H711092   1.810   4.161  11.704  0.9311  0.1123 -0.9171
  751TMC3    C111093   1.714   3.718  11.084  0.8680  0.1274 -0.1889
  751TMC3    C211094   1.588   3.686  11.032  0.4982 -0.1512 -0.4517
  751TMC3    C311095   1.574   3.632  10.906 -1.0056  0.2972 -0.4081
  751TMC3    C411096   1.825   3.704  10.998 -0.3387 -0.0227 -0.3363
  751TMC3    C511097   1.799   3.652  10.876 -0.0903  0.8114 -0.0857
  751TMC3    C611098   1.683   3.625  10.825  0.4657  0.0838 -0.2057
  751TMC3     C11099   1.717   3.809  11.196  0.0492  0.1493 -0.1914
  751TMC3     O11100   1.614   3.817  11.261  0.3581  0.4846  0.2651
  751TMC3     H11101   1.509   3.688  11.105 -0.0342 -2.0378 -0.9818
  751TMC3    H111102   1.927   3.717  11.031 -0.6076  0.4019  0.3323
  751TMC3    H211103   1.673   3.606  10.719  2.3798 -0.0858 -0.3632
  751TMC3    C711104   1.900   3.569  10.819 -0.3725  0.3646 -0.4840
  751TMC3    C811105   1.496   3.518  10.896 -0.2604 -0.1550 -0.0524
  751TMC3    O111106   2.020   3.591  10.835 -0.1633  0.3079 -0.1991
  751TMC3    O211107   1.553   3.428  10.837 -0.0659  0.6986  0.2149
  752TMC3    C111108   0.946   4.635  17.135 -0.0820 -0.2384 -0.6015
  752TMC3    C211109   0.835   4.586  17.202 -0.3485 -0.6415 -0.1992
  752TMC3    C311110   0.839   4.580  17.333  0.1545  0.8858 -0.9101
  752TMC3    C411111   1.062   4.654  17.206 -0.2666 -0.1951  0.3393
  752TMC3    C511112   1.053   4.658  17.349  0.0592  0.2022  1.0171
  752TMC3    C611113   0.936   4.628  17.416  0.2007 -0.1226  0.2121
  752TMC3     C11114   0.960   4.611  16.989 -0.2490 -0.2255  0.3502
  752TMC3     O11115   1.070   4.635  16.940  0.2258 -0.2088 -0.6146
  752TMC3     H11116   0.747   4.548  17.152 -0.1839  0.6424 -1.4660
  752TMC3    H111117   1.156   4.676  17.156 -0.6090 -0.7171 -0.5350
  752TMC3    H211118   0.934   4.616  17.524  0.4931  2.9110  0.5462
  752TMC3    C711119   1.155   0.014  17.413  0.5256 -0.3152  0.6224
  752TMC3    C811120   0.709   4.570  17.392  0.3256  0.1486 -0.1368
  752TMC3    O111121   1.209   0.097  17.343  0.1727 -0.0872 -0.1777
  752TMC3    O211122   0.616   4.617  17.326 -0.7254 -0.4449  0.4962
  753TMC3    C111123   2.702   0.751  13.976 -0.0470 -0.2430 -0.1301
  753TMC3    C211124   2.744   0.820  14.091  0.0297  0.5215 -0.3865
  753TMC3    C311125   2.788   0.737  14.188 -0.8654 -0.0367  0.0257
  753TMC3    C411126   2.695   0.618  13.970  0.2764 -0.3376 -0.1856
  753TMC3    C511127   2.743   0.539  14.068  0.5611 -0.4504 -0.0518
  753TMC3    C611128   2.796   0.597  14.182 -0.6383 -0.5925  0.7648
  753TMC3     C11129   2.634   0.817  13.865  0.2263  0.4201  0.3520
  753TMC3     O11130   2.616   0.752  13.766  0.8497  0.1860 -0.0348
  753TMC3     H11131   2.766   0.925  14.074  0.2017  1.1024  3.2324
  753TMC3    H111132   2.646   0.569  13.886 -0.0469  2.4474 -1.6059
  753TMC3    H211133   2.825   0.545  14.273  1.3698 -1.6176 -0.4699
  753TMC3    C711134   2.699   0.399  14.063  0.0313  0.1625 -0.4781
  753TMC3    C811135   2.869   0.785  14.295 -0.5153 -0.5895  0.1518
  753TMC3    O111136   2.614   0.368  13.979  0.3257 -0.3855  0.0548
  753TMC3    O211137   2.950   0.708  14.344  0.1312  0.9399 -0.0189
  754MPD2     C11138   0.597   4.664  13.295 -0.0735  0.5105 -0.2060
  754MPD2    C111139   0.598   4.525  13.277  0.1751 -0.4963  0.0788
  754MPD2    C211140   0.512   4.473  13.173 -0.0102 -0.3521  0.1621
  754MPD2    C311141   0.436   4.559  13.094 -0.5094 -0.0313  0.1994
  754MPD2    C411142   0.447   4.700  13.115  0.0174  0.1409  0.3536
  754MPD2    C511143   0.516   0.019  13.219 -0.2565 -0.0772  0.1288
  754MPD2     H11144   0.491   4.367  13.165 -2.0813 -0.1199  2.4419
  754MPD2    H111145   0.395   0.052  13.060 -1.2746 -0.6234  0.4868
  754MPD2    H211146   0.647   4.711  13.379 -1.2129  0.6186  0.4133
  754MPD2    H311147   0.517   0.126  13.232  1.7029 -0.1174  0.3329
  754MPD2     N11148   0.343   4.524  13.000  0.6770  0.3169  0.5668
  754MPD2    H511149   0.286   4.597  12.960  1.2886  0.3346 -0.2872
  754MPD2    N111150   0.678   4.440  13.357  0.4768  0.1456 -0.3063
  754MPD2    H711151   0.734   4.478  13.434  0.0408 -1.5195  0.8205
  755MPD2     C11152   4.210   4.099  13.158  0.2914 -0.3987  0.2877
  755MPD2    C111153   4.241   4.229  13.147 -0.7890  0.4414 -0.3497
  755MPD2    C211154   4.335   4.278  13.060  0.3270 -0.3301  1.1216
  755MPD2    C311155   4.417   4.187  12.997 -0.5213  0.7447  0.2558
  755MPD2    C411156   4.380   4.057  12.996 -0.3158 -0.7047  0.1953
  755MPD2    C511157   4.286   4.012  13.082  0.1455  0.7407  0.0101
  755MPD2     H11158   4.356   4.385  13.058 -0.9738 -0.0747  1.0180
  755MPD2    H111159   4.437   3.981  12.945  0.9195 -0.4069  1.1235
  755MPD2    H211160   4.139   4.056  13.228  0.4063  1.4323  1.5140
  755MPD2    H311161   4.278   3.908  13.112  3.3202 -0.1524 -2.3085
  755MPD2     N11162   4.534   4.214  12.932 -0.4323  0.3034 -0.2374
  755MPD2    H511163   4.578   4.132  12.892 -0.5851 -0.4674  1.1734
  755MPD2    N111164   4.162   4.322  13.218  0.2765 -0.2206 -0.1185
  755MPD2    H711165   4.170   4.419  13.189 -0.7868  0.1327  0.7654
  756MPD2     C11166   1.471   4.116   9.969  0.7961  0.4712  0.4468
  756MPD2    C111167   1.435   4.248   9.987  0.4020 -0.3733 -0.1714
  756MPD2    C211168   1.328   4.300   9.923  0.5853  0.2786 -0.3285
  756MPD2    C311169   1.251   4.228   9.838  0.1160  0.0231  0.3754
  756MPD2    C411170   1.284   4.093   9.824 -0.2812  0.1857 -0.3306
  756MPD2    C511171   1.390   4.042   9.888  0.6709 -0.4888 -0.4424
  756MPD2     H11172   1.299   4.402   9.944  0.9927  1.1780 -4.2883
  756MPD2    H111173   1.222   4.033   9.759 -0.1635  0.9978 -1.2037
  756MPD2    H211174   1.549   4.075  10.032 -0.1917  0.5023  1.7045
  756MPD2    H311175   1.400   3.934   9.895  1.6751 -0.2314  2.0260
  756MPD2     N11176   1.148   4.301   9.774  0.3544 -0.3131 -0.0172
  756MPD2    H511177   1.135   4.396   9.807  1.1621 -0.3699  0.4580
  756MPD2    N111178   1.504   4.329  10.076  0.4654 -0.6457  0.3904
  756MPD2    H711179   1.460   4.419  10.092  2.1836  0.4173 -0.8576
  757MPD2     C11180   0.353   4.089   9.139  0.2742 -0.4348  0.4474
  757MPD2    C111181   0.418   4.013   9.239  0.6256  0.5222  0.2393
  757MPD2    C211182   0.521   4.066   9.309  0.3704  0.0048 -0.3808
  757MPD2    C311183   0.575   4.190   9.283 -0.6724  0.3148 -0.8048
  757MPD2    C411184   0.509   4.262   9.183 -0.1444  0.9416 -0.8534
  757MPD2    C511185   0.403   4.219   9.114 -0.2671  0.1182  0.0067
  757MPD2     H11186   0.574   4.002   9.378  0.1622 -0.7475 -0.9222
  757MPD2    H111187   0.533   4.365   9.158  2.5892  0.7844  1.0993
  757MPD2    H211188   0.279   4.047   9.071 -0.2228  0.3522  0.5038
  757MPD2    H311189   0.356   4.263   9.027  1.7659  2.5887  0.1622
  757MPD2     N11190   0.695   4.231   9.342  0.3034 -0.3964 -0.3253
  757MPD2    H511191   0.734   4.168   9.411  1.7408  0.9838  0.1116
  757MPD2    N111192   0.367   3.884   9.259 -0.0224  0.1926 -0.1765
  757MPD2    H711193   0.290   3.871   9.194  0.3656 -0.7341 -0.4397
  758MPD2     C11194   1.368   4.130  15.957  0.3030 -0.9344 -0.4069
  758MPD2    C111195   1.423   4.044  16.044 -0.2194  0.6640  0.2215
  758MPD2    C211196   1.362   4.004  16.165 -0.7403 -0.3174 -0.1072
  758MPD2    C311197   1.252   4.075  16.202  0.0534 -0.4300 -0.0842
  758MPD2    C411198   1.187   4.160  16.114 -0.9998  0.0353 -0.7870
  758MPD2    C511199   1.243   4.186  15.986  0.3875  0.4875  0.2825
  758MPD2     H11200   1.409   3.934  16.234  3.0580  1.5395 -0.7865
  758MPD2    H111201   1.110   4.228  16.148 -0.5238 -0.5608  1.4877
  758MPD2    H211202   1.429   4.151  15.870  1.1480 -0.8261  0.2100
  758MPD2    H311203   1.206   4.265  15.921  2.8880  1.4986  0.0934
  758MPD2     N11204   1.213   4.076  16.340 -0.6667 -0.1859 -0.4480
  758MPD2    H511205   1.156   4.157  16.362  0.9827  0.5530  1.0075
  758MPD2    N111206   1.561   3.995  16.021 -0.2513 -0.3694 -0.8460
  758MPD2    H711207   1.603   4.030  15.935  3.6612 -0.2652  1.1474
  759MPD2     C11208   4.452   2.223   9.495 -0.0825  0.0054 -0.6924
  759MPD2    C111209   4.566   2.213   9.583 -0.1677 -0.3927 -0.5255
  759MPD2    C211210   4.686   2.275   9.540  0.3429 -0.0359 -0.2055
  759MPD2    C311211   4.697   2.341   9.418 -0.3953  0.0130  0.3754
  759MPD2    C411212   4.592   2.332   9.334 -0.0592 -0.5989  0.4007
  759MPD2    C511213   4.466   2.280   9.373  0.5803  0.2916  0.3671
  759MPD2     H11214   0.035   2.266   9.619 -0.5576 -0.5170  0.5961
  759MPD2    H111215   4.600   2.378   9.236 -1.3358  0.3154  0.7308
  759MPD2    H211216   4.354   2.181   9.516  0.2333 -0.7479 -0.7550
  759MPD2    H311217   4.388   2.269   9.299  1.5650  1.5719 -0.8518
  759MPD2     N11218   0.091   2.405   9.384  0.6288 -0.3161 -0.1801
  759MPD2    H511219   0.168   2.387   9.447 -0.1364 -0.9619  0.5678
  759MPD2    N111220   4.566   2.159   9.717 -0.2498  0.8453  0.2491
  759MPD2    H711221   4.653   2.183   9.764  1.2413 -0.8316 -1.6432
  760MPD2     C11222   4.418   4.473  11.619  0.0045 -0.0201  0.1213
  760MPD2    C111223   4.553   4.443  11.606 -0.5680 -0.2654  0.1283
  760MPD2    C211224   4.604   4.319  11.629  0.8385 -0.2347 -0.0671
  760MPD2    C311225   4.522   4.221  11.677 -0.5590 -0.2298 -0.0506
  760MPD2    C411226   4.390   4.249  11.698  0.6546  0.1264 -0.4813
  760MPD2    C511227   4.338   4.368  11.655 -0.1478  0.3541 -0.1150
  760MPD2     H11228   4.712   4.312  11.631  0.6947 -2.1314  0.9898
  760MPD2    H111229   4.321   4.174  11.734 -1.3701  2.1463 -0.1201
  760MPD2    H211230   4.376   4.572  11.611  1.7441  0.6476 -0.6985
  760MPD2    H311231   4.231   4.383  11.666  0.1232 -0.1808  3.0058
  760MPD2     N11232   4.578   4.102  11.720  0.6070 -0.4761  0.4334
  760MPD2    H511233   4.522   4.037  11.773 -1.6422 -0.8907 -2.4691
  760MPD2    N111234   4.645   4.541  11.574  0.0888  0.1312  0.0950
  760MPD2    H711235   0.013   4.506  11.556  0.0781  1.4992 -2.5760
  761MPD2     C11236   1.129   3.204  11.070 -0.0195 -0.7115 -0.4519
  761MPD2    C111237   1.219   3.191  10.969 -0.3625  0.2686  0.1161
  761MPD2    C211238   1.298   3.300  10.930 -0.4170 -0.2481 -0.3601
  761MPD2    C311239   1.279   3.426  10.991  0.4000 -0.2639 -0.0499
  761MPD2    C411240   1.183   3.444  11.098 -0.8181  0.4445  0.1924
  761MPD2    C511241   1.112   3.326  11.132 -0.2030  0.5214 -0.0258
  761MPD2     H11242   1.360   3.308  10.841  0.8023  0.2904  0.5414
  761MPD2    H111243   1.172   3.537  11.153  0.5715  0.3897  0.5589
  761MPD2    H211244   1.076   3.123  11.118 -0.2141  0.3406  1.1036
  761MPD2    H311245   1.040   3.335  11.212  2.3839  2.4003  2.0498
  761MPD2     N11246   1.373   3.529  10.967 -0.3634 -0.0332 -0.2117
  761MPD2    H511247   1.356   3.619  11.010 -2.7513 -0.9596  0.7874
  761MPD2    N111248   1.231   3.057  10.922 -0.3661 -0.2314  0.0831
  761MPD2    H711249   1.185   2.976  10.964 -0.0573 -0.5741 -0.2418
  762MPD2     C11250   1.680   2.951  10.339 -0.3364  0.3488  0.3820
  762MPD2    C111251   1.716   2.857  10.433  0.4640  0.2378 -0.2117
  762MPD2    C211252   1.842   2.809  10.433  0.3914  0.3791  0.0351
  762MPD2    C311253   1.929   2.859  10.343  0.4929 -0.6708  0.0696
  762MPD2    C411254   1.891   2.954  10.252 -0.4784  0.1676  0.1318
  762MPD2    C511255   1.765   3.002  10.239  0.7557 -0.2684 -0.2850
  762MPD2     H11256   1.877   2.739  10.507  0.7737  0.0899 -0.4201
  762MPD2    H111257   1.966   2.989  10.182  0.0473 -0.3419  0.4405
  762MPD2    H211258   1.581   2.994  10.341  0.2072  1.4401  2.9088
  762MPD2    H311259   1.741   3.082  10.171 -1.6074 -0.5708  0.2093
  762MPD2     N11260   2.056   2.799  10.347 -0.5868 -0.3506 -0.5074
  762MPD2    H511261   2.068   2.706  10.386  0.0573  0.8341  2.0917
  762MPD2    N111262   1.613   2.812  10.515 -0.7153  0.5609 -0.1522
  762MPD2    H711263   1.524   2.860  10.510 -0.4818  1.0690  0.5333
  763MPD2     C11264   2.925   4.177  16.301 -0.2827  0.1224  0.4202
  763MPD2    C111265   3.003   4.256  16.227 -1.1065  0.0117  0.4643
  763MPD2    C211266   3.027   4.380  16.277 -0.1743  0.3089 -0.1539
  763MPD2    C311267   2.998   4.416  16.403  0.4465  0.6971  0.7264
  763MPD2    C411268   2.926   4.328  16.478 -0.0628 -0.0838  0.5274
  763MPD2    C511269   2.880   4.213  16.423  0.8392  0.1012 -0.7471
  763MPD2     H11270   3.082   4.444  16.208 -0.2523  0.9279  0.3552
  763MPD2    H111271   2.897   4.368  16.575  2.8001 -0.7434  1.6657
  763MPD2    H211272   2.889   4.080  16.270  0.9690  0.0043 -0.6576
  763MPD2    H311273   2.810   4.155  16.481 -0.5386  1.2291 -1.2748
  763MPD2     N11274   3.055   4.536  16.444  0.2355 -0.7285 -0.2840
  763MPD2    H511275   3.103   4.602  16.383 -0.0324 -1.3712 -1.1838
  763MPD2    N111276   3.047   4.211  16.098  0.2341 -0.5015 -0.2844
  763MPD2    H711277   3.067   4.280  16.027  1.2083 -0.6290 -0.1356
  764MPD2     C11278   1.122   1.240  17.560 -0.5105 -0.2359  0.4992
  764MPD2    C111279   1.139   1.125  17.485  0.7937  0.9202  0.7231
  764MPD2    C211280   1.163   1.005  17.549 -0.7293 -0.4158 -0.4644
  764MPD2    C311281   1.170   1.002  17.686  0.0296 -0.0542  0.5391
  764MPD2    C411282   1.135   1.118   0.058 -0.7255  0.3702  1.2276
  764MPD2    C511283   1.112   1.232  17.698 -0.2820 -1.0836 -0.1049
  764MPD2     H11284   1.179   0.917  17.488  0.9092 -0.7883  0.5073
  764MPD2    H111285   1.153   1.116   0.164  0.0976  1.5361  1.0999
  764MPD2    H211286   1.112   1.337  17.512 -0.9558  0.3123  1.7017
  764MPD2    H311287   1.089   1.316   0.059  0.4554 -2.0463  1.4369
  764MPD2     N11288   1.206   0.880   0.040  0.1796 -0.1575  0.1216
  764MPD2    H511289   1.243   0.807  17.683 -0.2785 -1.6957  1.7306
  764MPD2    N111290   1.132   1.119  17.344  0.1555 -0.2761 -0.3885
  764MPD2    H711291   1.159   1.030  17.301  0.9330 -0.5639  0.6947
  765MPD2     C11292   1.009   3.296  15.911  0.1939 -0.3167  0.5630
  765MPD2    C111293   1.086   3.365  15.823 -0.8282 -0.0593 -0.2337
  765MPD2    C211294   1.204   3.309  15.777  0.3854 -0.0345  0.1682
  765MPD2    C311295   1.237   3.178  15.812  0.0896  0.5068  0.0372
  765MPD2    C411296   1.156   3.107  15.900 -1.3802  0.6503 -0.4966
  765MPD2    C511297   1.054   3.172  15.960  0.0360 -0.1551 -0.1312
  765MPD2     H11298   1.271   3.362  15.710 -0.8351  0.6006 -0.5469
  765MPD2    H111299   1.182   3.006  15.932  0.4803  1.1567 -0.4265
  765MPD2    H211300   0.913   3.332  15.945  0.4984 -0.1381  1.2561
  765MPD2    H311301   0.988   3.116  16.026 -0.3234 -0.4899 -0.7716
  765MPD2     N11302   1.348   3.119  15.741 -0.2925  0.1927  0.4587
  765MPD2    H511303   1.388   3.171  15.664  1.7463 -0.4882  1.0745
  765MPD2    N111304   1.032   3.494  15.782  0.9063  0.6376 -0.1177
  765MPD2    H711305   0.941   3.518  15.821  0.9816  0.5900  0.0897
  766MPD2     C11306   0.448   3.693  15.465 -0.6384 -0.2446  0.2375
  766MPD2    C111307   0.580   3.664  15.435 -0.2888 -0.3719  0.1074
  766MPD2    C211308   0.624   3.612  15.312 -0.2795  0.1488  0.5973
  766MPD2    C311309   0.523   3.595  15.214  0.3425 -0.5597  0.3690
  766MPD2    C411310   0.393   3.615  15.246 -0.7242 -0.0023 -0.1218
  766MPD2    C511311   0.354   3.655  15.370  0.2039  0.4119 -0.0554
  766MPD2     H11312   0.730   3.602  15.296 -0.5704 -1.9065  0.0423
  766MPD2    H111313   0.313   3.587  15.178 -1.7508  1.4884  0.4774
  766MPD2    H211314   0.405   3.728  15.559  0.5624  2.7563 -0.3193
  766MPD2    H311315   0.247   3.653  15.385  0.3029 -0.6120  0.4283
  766MPD2     N11316   0.555   3.558  15.081 -0.4279  0.2024  0.1111
  766MPD2    H511317   0.479   3.544  15.015 -2.1935  1.9357  1.7800
  766MPD2    N111318   0.678   3.697  15.531  0.1478  0.2538 -0.0274
  766MPD2    H711319   0.772   3.666  15.509  0.1236  1.9636 -2.5011
  767MPD2     C11320   0.141   3.882  15.222 -0.5231 -0.0776  0.5909
  767MPD2    C111321   0.253   3.892  15.151  0.5036  0.1902  0.1317
  767MPD2    C211322   0.249   3.827  15.023  0.0721 -0.6006  0.9892
  767MPD2    C311323   0.136   3.772  14.972  0.0200  0.1762 -0.3046
  767MPD2    C411324   0.019   3.770  15.048 -0.0887  0.0838 -0.2011
  767MPD2    C511325   0.028   3.819  15.176  0.6742 -0.5910  0.5619
  767MPD2     H11326   0.330   3.831  14.952 -1.2022 -2.1797 -0.5256
  767MPD2    H111327   4.664   3.709  15.010  0.2420 -0.3638 -0.1755
  767MPD2    H211328   0.136   3.921  15.323 -1.9965  0.5463  0.2816
  767MPD2    H311329   4.671   3.817  15.246  0.1252 -2.5666 -0.1552
  767MPD2     N11330   0.142   3.717  14.837 -0.0000  0.3873  0.3334
  767MPD2    H511331   0.236   3.719  14.799 -0.4995 -0.1751 -0.9292
  767MPD2    N111332   0.372   3.944  15.204 -0.1356 -0.7111 -0.2180
  767MPD2    H711333   0.379   3.973  15.301 -2.0897 -3.7994  0.8350
  768MPD2     C11334   1.611   1.495  10.721 -0.7717  0.1613 -0.2389
  768MPD2    C111335   1.577   1.474  10.857 -0.1358  0.7368 -0.7690
  768MPD2    C211336   1.668   1.509  10.958  0.0016  0.1061 -0.1416
  768MPD2    C311337   1.788   1.564  10.921 -0.6732 -0.4227 -0.0520
  768MPD2    C411338   1.822   1.583  10.786 -0.7048 -0.4027 -0.1844
  768MPD2    C511339   1.731   1.552  10.692  0.1728  0.2548 -0.0244
  768MPD2     H11340   1.633   1.512  11.061  0.8629 -0.5021  0.1661
  768MPD2    H111341   1.914   1.630  10.753 -0.8381 -0.4342 -0.5893
  768MPD2    H211342   1.552   1.482  10.631 -3.2747 -1.7177  1.6567
  768MPD2    H311343   1.756   1.587  10.593  0.0623  1.3759  0.3429
  768MPD2     N11344   1.891   1.590  11.020 -0.1580 -0.0527  0.2299
  768MPD2    H511345   1.965   1.645  10.976 -0.0783 -0.4440 -0.1230
  768MPD2    N111346   1.452   1.428  10.905  0.3489  0.1237 -0.0663
  768MPD2    H711347   1.433   1.443  11.003  0.3440  1.9425 -0.3397
  769MPD2     C11348   1.765   0.977  14.886 -0.2643 -0.2832  0.2490
  769MPD2    C111349   1.754   0.859  14.953 -0.4162 -0.6124 -0.1398
  769MPD2    C211350   1.844   0.839  15.057  0.6964 -0.0942  0.9313
  769MPD2    C311351   1.928   0.942  15.102  0.6106  0.6866 -0.3203
  769MPD2    C411352   1.932   1.063  15.042  0.5482 -0.4573 -0.0571
  769MPD2    C511353   1.854   1.075  14.930 -0.4944 -0.0314 -0.3044
  769MPD2     H11354   1.857   0.743  15.104 -1.4865 -1.8011 -1.9399
  769MPD2    H111355   1.992   1.150  15.066 -0.4902  0.4353 -0.6794
  769MPD2    H211356   1.703   0.996  14.799 -1.6459 -1.1024  1.0507
  769MPD2    H311357   1.857   1.172  14.882  1.7936 -1.1809 -2.4906
  769MPD2     N11358   2.003   0.909  15.212  0.6898 -0.3915 -0.2404
  769MPD2    H511359   1.989   0.815  15.250  0.5416  0.1276  0.9858
  769MPD2    N111360   1.663   0.763  14.914  0.2392  0.1161  0.5596
  769MPD2    H711361   1.597   0.789  14.841 -0.5931  1.5991  1.8369
  770MPD2     C11362   1.214   4.608  15.153  0.2668 -1.0603 -0.1610
  770MPD2    C111363   1.346   4.648  15.155 -0.5940 -0.0206  0.0639
  770MPD2    C211364   1.374   0.054  15.150 -0.5576  0.0823 -0.8564
  770MPD2    C311365   1.273   0.148  15.133 -0.4575  0.0478  0.0106
  770MPD2    C411366   1.137   0.107  15.143  0.2923  0.3411 -0.4197
  770MPD2    C511367   1.110   4.698  15.143  0.1081 -0.3380  0.7427
  770MPD2     H11368   1.478   0.087  15.148 -0.4566 -0.0930  2.2250
  770MPD2    H111369   1.053   0.175  15.143 -1.7459 -2.1752 -1.4247
  770MPD2    H211370   1.198   4.502  15.135  0.3368 -0.5273 -3.2328
  770MPD2    H311371   1.012   4.653  15.149 -0.3062  0.6564  1.3908
  770MPD2     N11372   1.304   0.282  15.112 -0.2512 -0.7366  0.4908
  770MPD2    H511373   1.399   0.315  15.126  0.1580 -1.8486  0.4045
  770MPD2    N111374   1.450   4.550  15.167  0.3349  0.2854  0.2532
  770MPD2    H711375   1.418   4.456  15.152  1.9191 -0.2308  0.1088
  771MPD2     C11376   3.342   2.782  14.094  0.3087  0.0937 -0.0851
  771MPD2    C111377   3.252   2.876  14.047 -0.0143  0.3209 -0.1949
  771MPD2    C211378   3.138   2.834  13.988 -0.4305 -0.1209 -0.4011
  771MPD2    C311379   3.107   2.704  13.975  0.3759 -0.3285  0.3116
  771MPD2    C411380   3.198   2.601  14.009  0.3633 -0.5174 -0.6115
  771MPD2    C511381   3.317   2.644  14.069  0.5975  0.0143  0.1819
  771MPD2     H11382   3.069   2.909  13.951  0.0198  0.2693 -0.4366
  771MPD2    H111383   3.182   2.495  13.991  1.8054 -1.0319  1.1167
  771MPD2    H211384   3.439   2.804  14.136 -0.9357 -0.7481  3.1677
  771MPD2    H311385   3.386   2.570  14.109 -0.3328 -0.8720  0.1437
  771MPD2     N11386   2.981   2.676  13.916 -0.2673  0.3230 -0.4199
  771MPD2    H511387   2.910   2.748  13.903  0.0049  0.0034 -3.5471
  771MPD2    N111388   3.282   3.012  14.043 -0.0300 -0.3404 -0.6672
  771MPD2    H711389   3.221   3.072  13.988 -0.3828 -1.0935 -1.0983
  772MPD2     C11390   2.979   3.678  14.199  0.3171 -0.0768 -1.1907
  772MPD2    C111391   2.944   3.602  14.094  0.3504  0.9036 -0.2626
  772MPD2    C211392   2.808   3.609  14.048 -0.5403  0.1830  0.3298
  772MPD2    C311393   2.713   3.684  14.120 -0.0828 -0.1716 -0.3315
  772MPD2    C411394   2.764   3.771  14.216  0.4562 -0.2454  0.7761
  772MPD2    C511395   2.894   3.771  14.258 -0.2974 -0.0803 -0.1729
  772MPD2     H11396   2.778   3.548  13.963  0.6068  1.7418 -1.1914
  772MPD2    H111397   2.691   3.814  14.284 -0.2233 -1.3850  0.7661
  772MPD2    H211398   3.082   3.674  14.233 -0.7487 -0.1341  2.0335
  772MPD2    H311399   2.925   3.828  14.345 -1.4045  0.4899 -0.1402
  772MPD2     N11400   2.571   3.669  14.111 -0.1380 -0.3650 -0.2639
  772MPD2    H511401   2.516   3.741  14.156  1.2865  0.5923 -0.0362
  772MPD2    N111402   3.032   3.521  14.027 -0.6813  0.5279 -0.3457
  772MPD2    H711403   3.010   3.474  13.940  1.9285  0.6859 -1.0689
  773MPD2     C11404   1.944   4.318   0.759  0.2968  0.3651  0.1828
  773MPD2    C111405   1.922   4.251   0.641  0.0979  0.2139 -0.1549
  773MPD2    C211406   1.930   4.112   0.644  0.2002  0.7522  0.1059
  773MPD2    C311407   1.971   4.046   0.763  0.9577  0.0415 -0.5165
  773MPD2    C411408   1.998   4.117   0.876  0.4899 -0.4928  0.2076
  773MPD2    C511409   1.982   4.252   0.872  0.1322 -0.1684  0.2052
  773MPD2     H11410   1.907   4.060   0.552 -4.0210 -0.9917  2.1500
  773MPD2    H111411   2.039   4.070   0.965  2.6537  0.9326 -0.0528
  773MPD2    H211412   1.918   4.423   0.768  2.2664  0.9102 -0.4513
  773MPD2    H311413   2.011   4.314   0.956  1.8762 -0.6472 -0.0328
  773MPD2     N11414   1.997   3.905   0.751  0.1907 -0.2266 -0.1782
  773MPD2    H511415   1.991   3.869   0.656 -0.2867  0.2215 -0.3190
  773MPD2    N111416   1.864   4.316   0.530 -0.2278  0.1133  0.6165
  773MPD2    H711417   1.819   4.257   0.461  0.3584  2.1804 -1.5167
  774MPD2     C11418   0.772   3.545  13.953 -0.7987 -0.3599 -0.1949
  774MPD2    C111419   0.884   3.551  13.880 -0.6538 -0.5066 -0.2601
  774MPD2    C211420   0.897   3.669  13.809 -0.0775 -0.4011  0.8323
  774MPD2    C311421   0.815   3.785  13.823  0.1835 -0.5963 -0.1204
  774MPD2    C411422   0.700   3.772  13.896  0.1881 -0.2869  0.1763
  774MPD2    C511423   0.686   3.654  13.960  0.6910  0.3982  0.0855
  774MPD2     H11424   0.981   3.680  13.742  0.0881 -2.1427  0.7414
  774MPD2    H111425   0.620   3.844  13.907  0.4751  0.2461 -1.2500
  774MPD2    H211426   0.734   3.457  14.004  0.5397 -0.0774  1.2782
  774MPD2    H311427   0.598   3.650  14.023  0.6226  1.1236  0.0428
  774MPD2     N11428   0.844   3.894  13.737 -0.1827  0.3055 -0.5254
  774MPD2    H511429   0.940   3.895  13.705 -0.3708  0.0081 -1.1086
  774MPD2    N111430   0.965   3.438  13.866 -0.6369 -0.9351  0.6096
  774MPD2    H711431   0.948   3.354  13.920  0.3972  0.0679  2.4792
  775MPD2     C11432   2.418   0.310  15.679 -0.2453  0.4666 -0.3381
  775MPD2    C111433   2.426   0.427  15.744  0.5830 -0.0067 -0.0651
  775MPD2    C211434   2.494   0.530  15.680  0.1057 -0.0470  0.8814
  775MPD2    C311435   2.532   0.520  15.543  0.0590  0.2049  0.2800
  775MPD2    C411436   2.512   0.401  15.481  0.0033 -0.4262 -0.4103
  775MPD2    C511437   2.463   0.290  15.553 -0.0099 -0.6761 -0.2231
  775MPD2     H11438   2.522   0.624  15.728  0.1996  0.4650 -0.1715
  775MPD2    H111439   2.535   0.392  15.375 -1.4606 -0.4613 -0.7232
  775MPD2    H211440   2.368   0.224  15.724 -0.9193  1.7585  1.3654
  775MPD2    H311441   2.446   0.195  15.505 -1.0256  0.6001 -2.4013
  775MPD2     N11442   2.610   0.621  15.472 -0.1075  0.9840 -0.4830
  775MPD2    H511443   2.633   0.596  15.377 -2.6702 -0.9932 -0.5944
  775MPD2    N111444   2.367   0.432  15.879 -0.2176 -0.5109  0.6151
  775MPD2    H711445   2.321   0.347  15.911 -0.1289 -0.1556  1.6929
  776MPD2     C11446   1.734   4.669  12.189 -0.4189  0.9188  0.5626
  776MPD2    C111447   1.674   4.646  12.072  0.1072  0.0345  0.5285
  776MPD2    C211448   1.633   0.028  11.997 -0.4999  1.0509  0.7036
  776MPD2    C311449   1.656   0.157  12.035 -0.0976 -0.2280  0.0994
  776MPD2    C411450   1.754   0.171  12.134 -0.4865  0.3101 -0.2256
  776MPD2    C511451   1.789   0.065  12.212  0.1759  1.1536 -0.2307
  776MPD2     H11452   1.571   0.007  11.911 -0.6178  1.4058  0.7033
  776MPD2    H111453   1.780   0.275  12.153 -1.0983  0.5847 -0.8861
  776MPD2    H211454   1.762   4.594  12.262 -0.8495  0.7550  0.5597
  776MPD2    H311455   1.846   0.077  12.304 -0.2830 -0.6079  0.2723
  776MPD2     N11456   1.610   0.268  11.962  0.5523 -0.5028 -0.7964
  776MPD2    H511457   1.655   0.357  11.980 -0.4761  0.1044 -1.2963
  776MPD2    N111458   1.641   4.509  12.041  0.0441  0.1023  0.3545
  776MPD2    H711459   1.660   4.443  12.116  0.8560  0.1896  0.2186
  777MPD2     C11460   1.796   3.047   0.785  0.5951 -0.0349  0.4640
  777MPD2    C111461   1.662   3.077   0.808  0.2785  0.5102  0.0541
  777MPD2    C211462   1.571   3.039   0.707 -0.5341 -0.0083 -0.5189
  777MPD2    C311463   1.607   2.964   0.595  0.0269 -0.7585  0.8332
  777MPD2    C411464   1.741   2.940   0.578  0.1672  0.3477  0.1375
  777MPD2    C511465   1.834   2.977   0.672  0.1985 -0.6229  0.2150
  777MPD2     H11466   1.467   3.061   0.726 -0.8479 -3.3749  1.7703
  777MPD2    H111467   1.793   2.907   0.489 -0.5032 -2.2895  0.7018
  777MPD2    H211468   1.870   3.075   0.860  2.4550 -2.0188 -0.6369
  777MPD2    H311469   1.940   2.972   0.653  0.0552  0.3445 -0.8649
  777MPD2     N11470   1.511   2.929   0.504 -0.3308  1.0007  0.8562
  777MPD2    H511471   1.414   2.954   0.521 -0.2716  1.4208  0.5783
  777MPD2    N111472   1.634   3.133   0.937  0.4615  0.1372 -0.1538
  777MPD2    H711473   1.709   3.148   1.004 -0.9004 -3.1244  2.1182
  778MPD2     C11474   3.202   3.042  15.186  0.2096  0.5184  0.0910
  778MPD2    C111475   3.250   2.933  15.110  0.2294  0.5057  0.0462
  778MPD2    C211476   3.327   2.941  15.003 -0.5503 -0.5477  0.2446
  778MPD2    C311477   3.343   3.063  14.945 -0.6585 -0.3475 -0.2833
  778MPD2    C411478   3.297   3.177  15.011  0.0476 -0.3820 -0.7281
  778MPD2    C511479   3.241   3.167  15.137  0.3758 -0.2680  0.6097
  778MPD2     H11480   3.375   2.853  14.962  1.5719  1.6849 -2.0729
  778MPD2    H111481   3.313   3.278  14.974  1.7731 -0.7094 -0.8588
  778MPD2    H211482   3.149   3.040  15.280 -0.3432  0.1322 -0.2260
  778MPD2    H311483   3.213   3.257  15.191  0.7432  0.2221 -0.0106
  778MPD2     N11484   3.404   3.079  14.816  0.3482 -0.0813  0.6954
  778MPD2    H511485   3.434   2.995  14.768  2.7647  0.6496  0.9069
  778MPD2    N111486   3.210   2.804  15.135  0.0007  0.0730 -0.1165
  778MPD2    H711487   3.247   2.730  15.077 -1.0276 -2.1741  2.0846
  779MPD2     C11488   2.885   2.120  14.186 -0.2614  0.5075 -0.3850
  779MPD2    C111489   2.938   2.114  14.318 -0.1022  0.2786 -0.2288
  779MPD2    C211490   3.005   2.222  14.369  0.6814  0.3094  1.0857
  779MPD2    C311491   3.003   2.344  14.313 -0.1727 -0.3007 -0.2101
  779MPD2    C411492   2.941   2.354  14.189  0.3240  0.3097 -0.1853
  779MPD2    C511493   2.880   2.244  14.127 -0.0114 -0.3930 -1.0094
  779MPD2     H11494   3.047   2.212  14.469  0.2636  0.3622  1.2653
  779MPD2    H111495   2.932   2.443  14.129  1.4509 -0.6038 -1.7138
  779MPD2    H211496   2.828   2.042  14.139  0.1999 -0.3781  0.5294
  779MPD2    H311497   2.849   2.263  14.025  1.4280 -0.3777 -1.4390
  779MPD2     N11498   3.071   2.452  14.373 -0.0658 -0.2955  0.6259
  779MPD2    H511499   3.116   2.432  14.461  1.0623  1.4550  0.4463
  779MPD2    N111500   2.905   2.000  14.402 -0.3353  0.0871  0.7379
  779MPD2    H711501   2.950   1.998  14.493  1.2697 -1.3681 -0.0934
  780MPD2     C11502   2.012   2.373   0.981 -0.5327 -0.6830 -0.4135
  780MPD2    C111503   1.929   2.319   0.883 -0.6645 -0.3578  0.5217
  780MPD2    C211504   1.976   2.308   0.750 -0.1288 -0.5793 -0.2275
  780MPD2    C311505   2.098   2.354   0.710 -0.1117 -0.3358 -0.1117
  780MPD2    C411506   2.185   2.389   0.811 -0.0005  0.0635 -0.4756
  780MPD2    C511507   2.142   2.411   0.942 -0.5782  0.0177 -0.2004
  780MPD2     H11508   1.912   2.264   0.674  2.2436 -1.1487 -1.8812
  780MPD2    H111509   2.287   2.413   0.784 -0.2509 -0.7311 -2.0891
  780MPD2    H211510   1.969   2.384   1.080 -0.5309 -1.4158 -0.3338
  780MPD2    H311511   2.219   2.447   1.010 -0.7282  1.3553 -0.7424
  780MPD2     N11512   2.124   2.346   0.570 -0.1768  0.7378 -0.1792
  780MPD2    H511513   2.051   2.295   0.522  0.4419  0.0967 -0.4243
  780MPD2    N111514   1.794   2.282   0.910  0.0201 -0.0693  0.3216
  780MPD2    H711515   1.771   2.307   1.005 -0.5670  0.3769  0.0578
  781MPD2     C11516   4.156   2.875  11.875 -0.9813  0.4514 -0.5408
  781MPD2    C111517   4.176   3.011  11.878  0.4558  0.2362 -0.1642
  781MPD2    C211518   4.244   3.085  11.780 -0.2340  1.0307  0.2234
  781MPD2    C311519   4.283   3.009  11.668  0.2995  0.5376  0.5074
  781MPD2    C411520   4.251   2.875  11.661 -0.4360 -0.2587 -0.1799
  781MPD2    C511521   4.191   2.808  11.762  0.5045 -0.2600  0.1369
  781MPD2     H11522   4.271   3.189  11.795 -0.8170  0.9776  1.6342
  781MPD2    H111523   4.278   2.820  11.572 -1.1090  0.9737 -1.1536
  781MPD2    H211524   4.106   2.820  11.954 -0.7374  0.9064 -0.0732
  781MPD2    H311525   4.168   2.702  11.764 -2.0287  0.2056 -3.0714
  781MPD2     N11526   4.350   3.060  11.559  0.4708 -0.0466 -0.4614
  781MPD2    H511527   4.359   2.992  11.484 -0.4487 -1.4961  0.7462
  781MPD2    N111528   4.117   3.070  11.996 -0.2694 -0.6346 -0.0416
  781MPD2    H711529   4.064   3.009  12.057 -0.8818 -0.5053 -0.4449
  782MPD2     C11530   2.144   3.565  10.096 -0.3820  0.6900 -0.3737
  782MPD2    C111531   2.257   3.572  10.173 -0.0199 -0.5997 -0.6411
  782MPD2    C211532   2.306   3.687  10.225  0.2027  0.2406  0.2853
  782MPD2    C311533   2.231   3.799  10.211 -1.0149  0.0948  0.0633
  782MPD2    C411534   2.120   3.801  10.127  0.1473  0.0091  0.4579
  782MPD2    C511535   2.081   3.682  10.064 -0.3303 -0.5862  0.3183
  782MPD2     H11536   2.395   3.690  10.286 -0.3838 -1.3781  1.2179
  782MPD2    H111537   2.063   3.890  10.105 -0.4815 -0.2323  1.0954
  782MPD2    H211538   2.108   3.467  10.068 -1.5070  0.8354  0.5879
  782MPD2    H311539   1.994   3.686  10.000  0.6707 -0.4854 -1.0253
  782MPD2     N11540   2.281   3.908  10.284 -0.1158 -0.4357 -0.6460
  782MPD2    H511541   2.349   3.886  10.355  0.3737 -0.4825 -1.1356
  782MPD2    N111542   2.323   3.448  10.208 -0.4945 -0.2296  0.6845
  782MPD2    H711543   2.268   3.365  10.187 -2.1198  0.5567  1.8740
  783MPD2     C11544   1.843   3.227  10.720 -0.4669 -0.9346 -0.1197
  783MPD2    C111545   1.918   3.340  10.729  0.0830  0.0882  0.2138
  783MPD2    C211546   2.048   3.341  10.682  0.0055  0.2308  0.0813
  783MPD2    C311547   2.105   3.221  10.632  0.4229 -0.7839  0.7043
  783MPD2    C411548   2.019   3.106  10.621  0.1208  0.3618 -0.6560
  783MPD2    C511549   1.887   3.112  10.667 -0.3568 -0.0377 -0.2598
  783MPD2     H11550   2.097   3.437  10.674  0.7792 -0.1342  0.4498
  783MPD2    H111551   2.047   3.017  10.566 -0.1354 -1.0593  1.4904
  783MPD2    H211552   1.737   3.231  10.745 -1.4758 -2.0679 -4.1871
  783MPD2    H311553   1.833   3.019  10.649  0.9268 -0.7554 -0.4500
  783MPD2     N11554   2.233   3.228  10.574  0.1296  0.0748 -0.3694
  783MPD2    H511555   2.267   3.317  10.539 -0.9511  0.6527  0.0662
  783MPD2    N111556   1.847   3.455  10.772  0.5913  0.4141 -0.4590
  783MPD2    H711557   1.750   3.439  10.793  0.8232  0.8003  0.8954
  784MPD2     C11558   3.821   4.645   1.046 -0.4580  0.1413  0.2357
  784MPD2    C111559   3.874   0.050   1.033  0.4346  0.5198  0.5398
  784MPD2    C211560   3.794   0.154   1.013  0.4471 -0.1561  0.3426
  784MPD2    C311561   3.650   0.135   1.004  0.6879  0.4285  1.0755
  784MPD2    C411562   3.598   0.006   1.007 -0.4670  0.8315  0.1255
  784MPD2    C511563   3.685   4.625   1.019  0.2087 -0.3156  0.1133
  784MPD2     H11564   3.831   0.256   1.013  1.9063 -0.6836  0.4555
  784MPD2    H111565   3.495   4.701   0.998 -0.5909  1.3953 -0.3570
  784MPD2    H211566   3.875   4.551   1.053 -1.9539 -0.5458  2.7409
  784MPD2    H311567   3.650   4.522   1.020 -2.1693  0.4718 -1.6540
  784MPD2     N11568   3.574   0.254   0.984  0.1737  0.5105  0.0992
  784MPD2    H511569   3.621   0.344   0.984 -1.1573  1.2222  1.8249
  784MPD2    N111570   4.014   0.079   1.051  0.3670  0.4031  0.0821
  784MPD2    H711571   4.051   0.166   1.015  1.0570  0.3561  0.6639
  785MPD2     C11572   4.407   2.551  10.028  0.0755  0.3666  0.8514
  785MPD2    C111573   4.335   2.581  10.140 -0.0360  0.3537  0.6872
  785MPD2    C211574   4.226   2.498  10.165  0.3850  0.0387 -0.6210
  785MPD2    C311575   4.189   2.392  10.082  0.0073  0.2086 -1.1649
  785MPD2    C411576   4.258   2.371   9.968 -0.6260 -0.8332 -0.1524
  785MPD2    C511577   4.367   2.448   9.946  0.4605 -0.4826 -0.0059
  785MPD2     H11578   4.161   2.517  10.250  0.9197 -0.0710 -0.1859
  785MPD2    H111579   4.230   2.297   9.895 -0.9037 -0.5126 -0.3731
  785MPD2    H211580   4.494   2.609   9.998  0.6562 -1.6247 -1.2777
  785MPD2    H311581   4.425   2.428   9.856 -0.1070 -2.3668  0.0481
  785MPD2     N11582   4.074   2.317  10.118 -0.3033  0.8384 -0.3020
  785MPD2    H511583   4.019   2.335  10.202 -0.5280  0.7052 -0.4221
  785MPD2    N111584   4.369   2.690  10.211  0.0235 -0.2370  0.1625
  785MPD2    H711585   4.414   2.767  10.162 -0.0539 -0.1292  0.2613
  786MPD2     C11586   3.270   1.438  14.967 -0.0142  0.5180 -0.2331
  786MPD2    C111587   3.391   1.425  14.908  0.4424  0.3615 -0.2290
  786MPD2    C211588   3.502   1.451  14.983 -0.6173  0.7827 -0.7307
  786MPD2    C311589   3.501   1.474  15.120 -0.5397 -0.7252 -0.3428
  786MPD2    C411590   3.375   1.469  15.178  0.9804  0.4169  0.6243
  786MPD2    C511591   3.263   1.462  15.096  0.6092  0.3634  0.6075
  786MPD2     H11592   3.596   1.450  14.930 -0.2214 -0.7103  0.0039
  786MPD2    H111593   3.356   1.491  15.282 -2.1813 -0.7517  0.2922
  786MPD2    H211594   3.176   1.429  14.914  0.0034  0.5132 -0.2633
  786MPD2    H311595   3.162   1.470  15.136 -0.8397 -2.2395 -2.5972
  786MPD2     N11596   3.617   1.503  15.204  0.3517 -0.2530  0.4730
  786MPD2    H511597   3.598   1.527  15.300 -0.7813 -2.4318  0.8020
  786MPD2    N111598   3.406   1.395  14.768  0.9767  0.2942  0.3299
  786MPD2    H711599   3.495   1.358  14.739 -1.1318 -2.9191 -2.0814
  787MPD2     C11600   3.707   0.860  14.178 -0.2975 -1.0471 -0.6028
  787MPD2    C111601   3.707   0.901  14.315  0.5723 -0.0299 -0.5081
  787MPD2    C211602   3.812   0.861  14.398  0.2154 -0.1567  0.5447
  787MPD2    C311603   3.924   0.793  14.347  0.0346 -0.0929  0.2622
  787MPD2    C411604   3.926   0.757  14.215 -0.2942 -0.1013  0.2278
  787MPD2    C511605   3.816   0.791  14.132  0.4810  0.4239  0.4875
  787MPD2     H11606   3.809   0.882  14.504  1.3982 -0.8419  0.7168
  787MPD2    H111607   3.998   0.687  14.175 -1.1325 -1.0330  0.3388
  787MPD2    H211608   3.624   0.869  14.109  0.2477 -0.6887 -1.2130
  787MPD2    H311609   3.828   0.745  14.035  0.8133  2.0445 -0.2476
  787MPD2     N11610   4.024   0.755  14.437  0.5457  0.7303 -0.1283
  787MPD2    H511611   4.008   0.766  14.537  1.8112  1.8175 -0.0342
  787MPD2    N111612   3.602   0.990  14.344 -0.0194 -0.1256 -0.1644
  787MPD2    H711613   3.540   1.020  14.269  1.6915  2.1687 -0.6571
  788MPD2     C11614   0.227   3.932   0.989  0.2582 -0.0514 -0.5497
  788MPD2    C111615   0.316   3.882   0.906 -0.2114 -0.3073 -1.5076
  788MPD2    C211616   0.294   3.881   0.773 -0.3432  0.4467  0.0008
  788MPD2    C311617   0.183   3.944   0.715  0.3893  0.2030  0.7071
  788MPD2    C411618   0.099   4.016   0.800 -0.3529  0.2111  0.1030
  788MPD2    C511619   0.119   3.995   0.937 -0.5749 -0.5449  0.5406
  788MPD2     H11620   0.361   3.826   0.708  0.3600  2.3312 -0.8443
  788MPD2    H111621   0.010   4.065   0.763 -1.1006 -2.5133 -1.7364
  788MPD2    H211622   0.228   3.924   1.097 -2.2179  3.2492 -0.2787
  788MPD2    H311623   0.055   4.043   1.011 -1.4852 -2.8640  1.2532
  788MPD2     N11624   0.150   3.951   0.572 -0.7992 -0.3603  0.0225
  788MPD2    H511625   0.061   3.998   0.554  0.5867  2.7968  1.3436
  788MPD2    N111626   0.419   3.792   0.945 -0.1633  0.2217 -0.0298
  788MPD2    H711627   0.472   3.758   0.866 -4.1136 -1.1469 -2.1064
  789MPD2     C11628   0.451   3.990  17.214 -0.4178 -1.0329 -0.5804
  789MPD2    C111629   0.450   3.960  17.079 -0.0288 -0.1508 -0.1811
  789MPD2    C211630   0.325   3.969  17.020  1.0894 -0.5835  0.8537
  789MPD2    C311631   0.209   4.000  17.088  0.1542 -0.5558  0.0725
  789MPD2    C411632   0.212   4.033  17.227  1.0915  0.6577  0.6862
  789MPD2    C511633   0.335   4.031  17.287 -0.4132  0.0213  0.3662
  789MPD2     H11634   0.321   3.949  16.914 -2.1663 -0.1899  0.9075
  789MPD2    H111635   0.121   4.055  17.281  0.2651 -0.0177 -0.4182
  789MPD2    H211636   0.543   3.984  17.271 -0.1858 -2.6810 -1.1215
  789MPD2    H311637   0.354   4.052  17.392  1.2851  1.8995 -0.3238
  789MPD2     N11638   0.084   3.987  17.025 -0.0416 -0.0299  0.2607
  789MPD2    H511639   4.722   3.982  17.075 -0.4514  1.3855 -0.3061
  789MPD2    N111640   0.550   3.926  16.990  0.0400  0.0363 -0.4074
  789MPD2    H711641   0.528   3.911  16.892 -1.8997 -1.3300  0.2492
  790MPD2     C11642   1.601   0.854  13.461  0.3964  0.2870  0.6616
  790MPD2    C111643   1.646   0.728  13.502  0.0430 -1.0719 -0.5051
  790MPD2    C211644   1.675   0.639  13.403  0.0734  0.0419 -0.3036
  790MPD2    C311645   1.663   0.670  13.271 -0.4896 -0.3636 -0.3537
  790MPD2    C411646   1.615   0.795  13.230  0.3537 -0.3452 -0.2476
  790MPD2    C511647   1.600   0.887  13.328  0.5695  0.2019  0.8279
  790MPD2     H11648   1.705   0.537  13.426 -0.7852  0.0521  0.8734
  790MPD2    H111649   1.579   0.825  13.132  0.7319  0.7364 -0.0565
  790MPD2    H211650   1.571   0.927  13.535  0.7763  0.6849  0.4197
  790MPD2    H311651   1.562   0.984  13.299  1.4305  0.2623 -0.1157
  790MPD2     N11652   1.694   0.571  13.177  0.0307 -0.1007 -0.0060
  790MPD2    H511653   1.719   0.481  13.215 -1.6936  0.1311  1.7094
  790MPD2    N111654   1.641   0.706  13.640  0.6609 -0.0787 -0.4788
  790MPD2    H711655   1.612   0.775  13.709  1.5727 -0.6169  0.4430
  791MPD2     C11656   1.149   0.408  12.765  0.4748  0.1084 -0.2465
  791MPD2    C111657   1.196   0.292  12.821 -0.1832 -0.0258 -0.2342
  791MPD2    C211658   1.106   0.192  12.855 -0.2596  0.2095 -0.3111
  791MPD2    C311659   0.976   0.219  12.835 -0.7641 -0.8234  0.5228
  791MPD2    C411660   0.931   0.335  12.773 -0.2772 -0.0463 -0.0256
  791MPD2    C511661   1.019   0.435  12.745  0.2191  0.0363 -0.2121
  791MPD2     H11662   1.137   0.094  12.892  0.6434  0.1906 -1.1041
  791MPD2    H111663   0.826   0.350  12.753 -0.4654  1.7127  2.2387
  791MPD2    H211664   1.219   0.483  12.731  1.1419 -1.7531 -2.9139
  791MPD2    H311665   0.985   0.528  12.700  3.5807  0.6694 -1.4688
  791MPD2     N11666   0.890   0.110  12.857 -0.0430  0.2239 -0.1938
  791MPD2    H511667   0.923   0.029  12.907 -1.3272  0.0196  0.3110
  791MPD2    N111668   1.335   0.280  12.829 -0.2949  0.1333  0.1276
  791MPD2    H711669   1.384   0.360  12.791  0.6953 -0.4585  0.1476
  792MPD2     C11670   2.036   0.154  11.880 -0.3172  1.0353 -0.3795
  792MPD2    C111671   2.021   0.195  11.755  0.8576  0.3565  0.3999
  792MPD2    C211672   1.941   0.123  11.668  0.0024  0.1363  0.1154
  792MPD2    C311673   1.874   0.005  11.705  0.7424  0.6754  0.2923
  792MPD2    C411674   1.898   4.685  11.832 -0.2893  0.4205  0.0328
  792MPD2    C511675   1.966   0.042  11.919  0.1380 -0.2843 -0.4529
  792MPD2     H11676   1.946   0.150  11.564  0.3709 -0.5831 -0.0560
  792MPD2    H111677   1.851   4.595  11.871  1.1809 -1.4549 -2.5303
  792MPD2    H211678   2.088   0.219  11.950  0.4517  0.8803 -0.8038
  792MPD2    H311679   1.971   0.005  12.021  0.3057  2.3990  0.5209
  792MPD2     N11680   1.793   4.661  11.612  0.2306  1.2239  0.6172
  792MPD2    H511681   1.758   4.571  11.644  1.7425  0.2723 -0.4070
  792MPD2    N111682   2.092   0.320  11.730  0.1385 -0.7177 -0.5844
  792MPD2    H711683   2.141   0.360  11.809  0.0371 -1.1054 -0.3245
  793MPD2     C11684   1.327   0.023  10.672  0.5899  0.7084  0.3625
  793MPD2    C111685   1.447   4.688  10.688  0.1374  0.8428 -0.9140
  793MPD2    C211686   1.488   4.640  10.814  0.0000  0.0302  0.1394
  793MPD2    C311687   1.406   4.669  10.924 -0.0196 -0.5935 -0.2964
  793MPD2    C411688   1.290   0.012  10.908 -0.5406 -0.7481 -0.2978
  793MPD2    C511689   1.248   0.050  10.781 -0.1178  0.5907  0.6436
  793MPD2     H11690   1.585   4.593  10.826 -0.2856 -0.8408 -0.9069
  793MPD2    H111691   1.213   0.042  10.978 -1.1283 -1.6213 -0.5700
  793MPD2    H211692   1.300   0.066  10.577 -1.5922 -1.6722 -0.0807
  793MPD2    H311693   1.144   0.080  10.773 -0.3108 -0.5330 -0.9428
  793MPD2     N11694   1.452   4.615  11.049 -0.1141 -0.5450 -0.2057
  793MPD2    H511695   1.533   4.554  11.038  0.6096  0.5282 -0.8916
  793MPD2    N111696   1.528   4.649  10.576 -0.1192  0.1347 -0.2856
  793MPD2    H711697   1.623   4.621  10.599 -0.3818  0.2783  1.0220
  794MPD2     C11698   1.796   0.267  17.667 -0.3864  0.1998  0.0139
  794MPD2    C111699   1.738   0.141  17.637  0.1372  0.4499 -0.7647
  794MPD2    C211700   1.698   0.115  17.509  0.2326  0.5040 -0.0427
  794MPD2    C311701   1.701   0.207  17.413 -0.3523 -0.4671  0.1138
  794MPD2    C411702   1.746   0.330  17.450 -0.4603 -0.7061  0.0388
  794MPD2    C511703   1.796   0.363  17.574 -0.3218 -0.7724 -0.2409
  794MPD2     H11704   1.648   0.023  17.482  1.3035 -0.1010  0.0207
  794MPD2    H111705   1.769   0.397  17.368 -1.1271  0.2299  0.6126
  794MPD2    H211706   1.831   0.293   0.064  1.6894 -0.7238 -0.4791
  794MPD2    H311707   1.822   0.466  17.597  1.4270 -1.7516  2.2089
  794MPD2     N11708   1.632   0.195  17.295 -0.2388  0.6181 -0.7790
  794MPD2    H511709   1.611   0.280  17.244 -1.4184 -0.6640 -2.4217
  794MPD2    N111710   1.709   0.048   0.034  0.9392  0.1468  0.8271
  794MPD2    H711711   1.649   4.697   0.004  0.4615  0.6172  0.5984
  795MPD2     C11712   4.086   2.117  13.196  0.2418 -0.2470 -0.3855
  795MPD2    C111713   4.058   2.065  13.320  0.0886  0.6695 -0.1977
  795MPD2    C211714   4.158   1.985  13.376 -0.2500  0.5233 -0.0065
  795MPD2    C311715   4.277   1.952  13.305  0.1272 -0.0885 -0.0608
  795MPD2    C411716   4.307   2.022  13.191  0.4602 -0.3795 -0.5089
  795MPD2    C511717   4.211   2.100  13.135 -0.5709  0.3420  0.5206
  795MPD2     H11718   4.134   1.931  13.467  0.2621 -0.9159 -0.7273
  795MPD2    H111719   4.404   2.020  13.144  0.6843  1.9343 -0.1620
  795MPD2    H211720   4.016   2.190  13.156  1.1846 -0.9333 -3.3161
  795MPD2    H311721   4.216   2.139  13.034 -2.2565 -2.5884 -0.6895
  795MPD2     N11722   4.366   1.862  13.368 -0.1194 -0.2001 -0.3489
  795MPD2    H511723   4.355   1.844  13.467  0.7180 -0.1963 -0.2501
  795MPD2    N111724   3.938   2.094  13.391 -0.4786  0.2679 -0.2623
  795MPD2    H711725   3.934   2.050  13.482  0.1423  0.5969 -0.0752
  796MPD2     C11726   3.468   4.219  15.919  0.7513  0.1589 -0.2505
  796MPD2    C111727   3.406   4.297  16.013  0.1763 -0.0858  0.2786
  796MPD2    C211728   3.358   4.420  15.977  1.0615  0.0120  0.1568
  796MPD2    C311729   3.383   4.464  15.847 -0.6833 -0.8338  0.3292
  796MPD2    C411730   3.451   4.384  15.754  0.2040  0.5702  1.4184
  796MPD2    C511731   3.491   4.259  15.791  0.2657  0.4329  0.2034
  796MPD2     H11732   3.297   4.486  16.037  2.8395  0.5388  1.3470
  796MPD2    H111733   3.457   4.407  15.648 -0.7438  1.4477  1.5552
  796MPD2    H211734   3.501   4.118  15.941 -0.9614 -0.7493 -1.8169
  796MPD2    H311735   3.542   4.194  15.720 -0.8796  1.8416 -1.9238
  796MPD2     N11736   3.336   4.596  15.820  0.3544 -0.3915  0.2051
  796MPD2    H511737   3.281   4.650  15.886  1.1149 -0.9164  1.2730
  796MPD2    N111738   3.396   4.244  16.145  0.0888 -0.5324  0.5144
  796MPD2    H711739   3.439   4.153  16.156 -0.2165 -0.6969  0.3616
  797MPD2     C11740   4.507   3.289  17.227  0.2087  0.5338 -0.3898
  797MPD2    C111741   4.387   3.306  17.293  0.3095  0.3652 -0.1715
  797MPD2    C211742   4.286   3.376  17.231  0.2224  0.0354  0.0745
  797MPD2    C311743   4.296   3.438  17.108  0.1113 -0.1462 -0.0383
  797MPD2    C411744   4.422   3.419  17.045 -0.6449 -0.1690 -0.5916
  797MPD2    C511745   4.525   3.344  17.102  0.6809  0.2579  0.6780
  797MPD2     H11746   4.191   3.375  17.284 -0.3343  2.1119 -0.8511
  797MPD2    H111747   4.453   3.453  16.947 -1.7591 -0.4339 -1.0398
  797MPD2    H211748   4.593   3.245  17.275 -0.1263  1.4254  1.0233
  797MPD2    H311749   4.617   3.337  17.044 -0.0377  2.2540 -0.6983
  797MPD2     N11750   4.195   3.520  17.048 -0.2250  0.2341 -0.2403
  797MPD2    H511751   4.217   3.561  16.958  0.7115 -1.1091 -0.6402
  797MPD2    N111752   4.368   3.261  17.422 -0.7194  0.0990 -0.1672
  797MPD2    H711753   4.272   3.267  17.455 -0.9623 -2.0782 -0.4595
  798MPD2     C11754   3.791   3.661  17.562 -0.0735 -0.3408 -0.0471
  798MPD2    C111755   3.846   3.578  17.471 -0.7072 -0.3815  0.6783
  798MPD2    C211756   3.930   3.481  17.518  0.2714 -0.1655  0.1295
  798MPD2    C311757   3.962   3.475  17.649  0.1340 -0.1973 -0.0502
  798MPD2    C411758   3.918   3.569   0.037  1.3507 -0.7406  0.8900
  798MPD2    C511759   3.818   3.646  17.695 -0.0738 -0.5735 -0.0367
  798MPD2     H11760   3.952   3.397  17.454 -0.8897  0.6697 -1.3556
  798MPD2    H111761   3.937   3.577   0.143  0.9342 -0.8570  0.9734
  798MPD2    H211762   3.728   3.744  17.531 -0.3359 -1.1265 -1.6307
  798MPD2    H311763   3.777   3.718   0.063  1.9690  0.0940  0.4831
  798MPD2     N11764   4.050   3.370  17.684 -0.0120 -0.0331 -0.1019
  798MPD2    H511765   4.075   3.301  17.614  0.0235  0.6270 -0.7386
  798MPD2    N111766   3.820   3.603  17.330  0.3617 -0.0281  0.5756
  798MPD2    H711767   3.884   3.552  17.269  0.1498  0.2190  0.1555
  799MPD2     C11768   3.417   0.353  14.707  0.5266  0.0722 -0.8678
  799MPD2    C111769   3.327   0.273  14.638 -0.3966  0.3958  0.3566
  799MPD2    C211770   3.259   0.330  14.530  0.0528 -0.3311  0.0714
  799MPD2    C311771   3.293   0.454  14.480  0.0893  0.3213 -0.0706
  799MPD2    C411772   3.390   0.525  14.551  0.6729 -0.1295  0.1911
  799MPD2    C511773   3.442   0.479  14.667 -0.9110  0.8016 -0.5688
  799MPD2     H11774   3.181   0.274  14.480 -1.0995 -1.5797  3.2861
  799MPD2    H111775   3.419   0.621  14.510  2.5370 -0.8386 -0.1520
  799MPD2    H211776   3.469   0.315  14.794 -0.8502  2.0054  0.7849
  799MPD2    H311777   3.513   0.543  14.719  0.2849  0.0464 -1.2765
  799MPD2     N11778   3.252   0.500  14.353 -0.3098  0.7090  0.4290
  799MPD2    H511779   3.300   0.580  14.312  1.8007 -0.1648  1.2251
  799MPD2    N111780   3.289   0.145  14.680 -0.6135 -0.3673  0.3551
  799MPD2    H711781   3.206   0.109  14.634  0.3927  1.9980 -3.2895
  800MPD2     C11782   3.790   1.566  14.383  0.2871  0.0029 -0.2085
  800MPD2    C111783   3.914   1.521  14.401  0.1651 -0.3005 -0.5924
  800MPD2    C211784   3.953   1.401  14.331  0.1996 -0.3408 -0.5610
  800MPD2    C311785   3.878   1.343  14.239  0.1281 -0.7710  0.0347
  800MPD2    C411786   3.754   1.390  14.224  0.5294  0.2368 -0.1079
  800MPD2    C511787   3.707   1.495  14.304  0.2380 -0.0101  0.3374
  800MPD2     H11788   4.057   1.372  14.343  0.1544 -0.3412 -0.1757
  800MPD2    H111789   3.680   1.341  14.161  1.7527 -0.3320 -1.1120
  800MPD2    H211790   3.748   1.657  14.426  0.7724  0.5121 -0.8203
  800MPD2    H311791   3.602   1.522  14.297 -0.4094 -2.5037  0.3965
  800MPD2     N11792   3.935   1.232  14.168  0.0633 -0.4944 -0.1908
  800MPD2    H511793   4.027   1.197  14.195  0.1362 -0.8315 -0.8650
  800MPD2    N111794   4.004   1.586  14.487 -0.2521 -0.0712 -0.8352
  800MPD2    H711795   3.970   1.670  14.533 -2.6474 -1.7516  0.4683
  801MPD2     C11796   3.989   1.945  15.134 -0.3871 -0.3134 -0.3475
  801MPD2    C111797   3.959   1.909  15.008  0.4952  0.1844 -0.0793
  801MPD2    C211798   3.854   1.972  14.949  0.2930 -0.1375  0.1747
  801MPD2    C311799   3.775   2.069  15.010  0.3738 -0.0688  0.1523
  801MPD2    C411800   3.801   2.102  15.141  1.0055 -0.8374 -0.3539
  801MPD2    C511801   3.915   2.041  15.199  0.5627  0.2868 -0.0200
  801MPD2     H11802   3.835   1.949  14.845 -1.2479  1.1794  0.1601
  801MPD2    H111803   3.736   2.174  15.188  1.9881 -0.0223 -0.2492
  801MPD2    H211804   4.074   1.907  15.190 -0.1109 -0.1861 -0.6790
  801MPD2    H311805   3.940   2.068  15.301  0.1843 -2.4431  0.7858
  801MPD2     N11806   3.661   2.131  14.947  0.5365  0.4203  1.0317
  801MPD2    H511807   3.594   2.177  15.008 -1.3893 -0.2634 -0.5973
  801MPD2    N111808   4.028   1.815  14.922 -0.5213  0.4865  0.1654
  801MPD2    H711809   3.989   1.792  14.831 -1.8134  2.5667  0.1976
  802MPD2     C11810   3.387   2.710   0.358 -0.4598 -0.1547  0.8175
  802MPD2    C111811   3.292   2.712   0.263 -0.7061 -0.4360  0.4685
  802MPD2    C211812   3.254   2.584   0.223  0.0065 -0.5489  0.1357
  802MPD2    C311813   3.318   2.471   0.269  0.1335  0.2582  0.5081
  802MPD2    C411814   3.436   2.484   0.335 -0.1750  0.1945 -0.0534
  802MPD2    C511815   3.468   2.609   0.383  0.2127 -0.1540 -0.1080
  802MPD2     H11816   3.171   2.571   0.154  1.2263  0.4471 -1.5141
  802MPD2    H111817   3.498   2.399   0.360  2.1718  1.7327 -0.7316
  802MPD2    H211818   3.434   2.798   0.400  0.0008  0.7324 -1.5432
  802MPD2    H311819   3.561   2.623   0.438 -1.1181 -0.2736  2.1471
  802MPD2     N11820   3.258   2.352   0.223 -0.6802  0.5456  0.3075
  802MPD2    H511821   3.177   2.354   0.162  0.5438  2.1279 -1.2872
  802MPD2    N111822   3.207   2.819   0.228 -0.7732  0.0676 -0.2561
  802MPD2    H711823   3.124   2.794   0.175 -0.9841  1.8470 -0.7668
  803MPD2     C11824   0.131   0.423  11.722  0.1139  0.0380  0.0441
  803MPD2    C111825   0.198   0.472  11.835 -0.8290 -0.9265  0.2288
  803MPD2    C211826   0.127   0.503  11.948  0.3302  0.7375  0.0266
  803MPD2    C311827   4.715   0.465  11.962 -0.1553 -0.5044  0.9517
  803MPD2    C411828   4.661   0.398  11.852  0.7902 -1.1137 -1.1542
  803MPD2    C511829   0.003   0.381  11.736 -0.0424  0.4764 -0.9182
  803MPD2     H11830   0.176   0.546  12.035  0.4190 -0.0933  0.3911
  803MPD2    H111831   4.568   0.343  11.860  0.8920 -0.9592  1.0503
  803MPD2    H211832   0.180   0.403  11.627  2.0282 -2.3668  1.5583
  803MPD2    H311833   4.688   0.317  11.658  0.8272 -2.7232  1.2660
  803MPD2     N11834   4.643   0.460  12.088  0.2531  0.1338 -0.1999
  803MPD2    H511835   4.546   0.429  12.083 -0.1173  1.3143 -0.5615
  803MPD2    N111836   0.343   0.493  11.835  0.0505 -0.0371  0.5152
  803MPD2    H711837   0.377   0.548  11.913 -3.0777  2.3901  0.1382
  804MPD2     C11838   3.655   1.836  16.767 -0.4744  0.1088 -0.4948
  804MPD2    C111839   3.769   1.808  16.836  0.7987 -0.2476 -0.7531
  804MPD2    C211840   3.846   1.918  16.867  0.8372  0.5542 -0.0021
  804MPD2    C311841   3.799   2.048  16.842  0.3941  0.1614  0.4399
  804MPD2    C411842   3.680   2.068  16.778 -0.4154 -0.8671 -0.5759
  804MPD2    C511843   3.608   1.959  16.739 -0.5100  1.4416 -0.0411
  804MPD2     H11844   3.933   1.903  16.930  0.6056  0.2616  0.2446
  804MPD2    H111845   3.641   2.166  16.752  2.1280  0.1812 -0.3654
  804MPD2    H211846   3.596   1.754  16.726  0.4787  0.6192 -2.8689
  804MPD2    H311847   3.516   1.973  16.684  1.8965  1.6659 -4.0273
  804MPD2     N11848   3.872   2.152  16.893 -0.1760 -0.5605  0.2689
  804MPD2    H511849   3.958   2.133  16.943  0.4720 -1.8509 -1.3535
  804MPD2    N111850   3.793   1.678  16.875  0.0072 -0.3659 -0.0228
  804MPD2    H711851   3.711   1.618  16.879 -1.2026  1.1983 -1.4598
  805MPD2     C11852   2.978   0.610  15.496 -0.3415  0.3330  0.2485
  805MPD2    C111853   3.077   0.550  15.412 -0.5108 -0.3943  0.3528
  805MPD2    C211854   3.210   0.571  15.442  0.2047 -0.1106 -0.2610
  805MPD2    C311855   3.246   0.659  15.545  0.1414 -0.1483 -0.8011
  805MPD2    C411856   3.146   0.728  15.613  0.7353 -0.7404 -0.0123
  805MPD2    C511857   3.017   0.703  15.590 -0.6893  0.0278  1.4322
  805MPD2     H11858   3.284   0.525  15.378 -0.5778 -0.7288 -0.7234
  805MPD2    H111859   3.164   0.804  15.687 -0.6437  0.9279 -1.3908
  805MPD2    H211860   2.871   0.603  15.480 -0.2868  1.8775 -0.7838
  805MPD2    H311861   2.943   0.758  15.648 -1.4087  1.0083 -0.4329
  805MPD2     N11862   3.386   0.671  15.575  0.5524 -0.2578  0.7015
  805MPD2    H511863   3.443   0.604  15.525 -1.3330 -0.4874 -1.1610
  805MPD2    N111864   3.037   0.470  15.305 -0.2917 -0.1052 -0.2589
  805MPD2    H711865   3.113   0.447  15.241 -0.5648 -1.0403 -0.2491
  806MPD2     C11866   3.318   4.412   0.855 -0.7934  0.8257 -0.0442
  806MPD2    C111867   3.419   4.335   0.895  0.8076  0.3936 -0.4087
  806MPD2    C211868   3.546   4.358   0.845  0.1238  0.1269  0.3589
  806MPD2    C311869   3.570   4.460   0.759 -0.1650 -0.7729  0.1587
  806MPD2    C411870   3.466   4.549   0.733 -0.3938  0.0732  0.1478
  806MPD2    C511871   3.343   4.523   0.777  0.1531 -0.2532  0.0436
  806MPD2     H11872   3.632   4.298   0.868  1.5050  1.7325 -0.6054
  806MPD2    H111873   3.491   4.637   0.674  1.3541  0.2742  1.1783
  806MPD2    H211874   3.216   4.396   0.890 -0.3471 -0.8946  0.4559
  806MPD2    H311875   3.265   4.585   0.735  0.3058  0.5019  0.8662
  806MPD2     N11876   3.701   4.470   0.705 -0.0993  1.0823  0.1715
  806MPD2    H511877   3.759   4.389   0.727 -3.7291 -1.7460 -0.5361
  806MPD2    N111878   3.400   4.237   0.998 -0.0474  0.5316 -0.2757
  806MPD2    H711879   3.306   4.227   1.035  0.0471 -2.2814 -0.8120
  807MPD2     C11880   2.992   3.639   1.302  0.3253 -0.2264 -0.3285
  807MPD2    C111881   3.103   3.668   1.376  0.0209 -0.4581  0.5675
  807MPD2    C211882   3.097   3.625   1.503 -0.0171  0.7459 -0.0715
  807MPD2    C311883   2.994   3.560   1.560 -0.0785  0.4324 -0.2792
  807MPD2    C411884   2.879   3.541   1.478 -0.9766  0.2464 -0.2645
  807MPD2    C511885   2.878   3.581   1.354 -0.2053  0.7086 -0.3069
  807MPD2     H11886   3.183   3.652   1.564  0.9490 -1.4898 -0.4378
  807MPD2    H111887   2.786   3.499   1.514 -0.9880  0.9952  0.5835
  807MPD2    H211888   2.999   3.653   1.195  2.5448  0.8706 -0.0291
  807MPD2    H311889   2.787   3.557   1.299  0.0005 -0.0855 -0.2998
  807MPD2     N11890   3.006   3.537   1.701 -0.4402 -0.3450  0.6522
  807MPD2    H511891   3.091   3.563   1.750  0.4160 -0.5215 -0.7454
  807MPD2    N111892   3.218   3.733   1.325 -0.1192  0.2256  1.1036
  807MPD2    H711893   3.294   3.741   1.392 -0.5978 -0.9936  1.7943
  808MPD2     C11894   3.911   0.444   9.722  0.1532 -0.1607  0.5415
  808MPD2    C111895   3.841   0.525   9.811  0.4924 -0.1444 -0.6039
  808MPD2    C211896   3.910   0.622   9.882  0.7642  0.0638  0.6304
  808MPD2    C311897   4.047   0.643   9.857  0.4191  0.5393  0.6566
  808MPD2    C411898   4.113   0.553   9.781  0.3212 -0.8013 -0.4659
  808MPD2    C511899   4.051   0.446   9.722 -0.7262  0.4064 -0.0923
  808MPD2     H11900   3.856   0.697   9.938  0.0736 -1.8340  2.5347
  808MPD2    H111901   4.219   0.559   9.760  0.2969 -0.4380 -0.4927
  808MPD2    H211902   3.868   0.376   9.649  0.1578  0.2558  0.1514
  808MPD2    H311903   4.099   0.375   9.656 -4.1497 -1.4275 -0.5803
  808MPD2     N11904   4.123   0.753   9.904 -0.0995 -0.0540  0.0237
  808MPD2    H511905   4.219   0.758   9.874  0.3781 -1.4620  1.3058
  808MPD2    N111906   3.705   0.520   9.823  0.7915 -0.3793  0.0826
  808MPD2    H711907   3.671   0.597   9.879 -1.9374 -0.3235 -1.6338
  809MPD2     C11908   0.084   0.476  10.239 -0.4803 -1.2846  0.2356
  809MPD2    C111909   0.124   0.604  10.207  0.2531 -0.0051  0.3541
  809MPD2    C211910   0.031   0.697  10.190  0.2749 -0.1424  0.7412
  809MPD2    C311911   4.620   0.672  10.203 -0.5328  0.2808 -0.9325
  809MPD2    C411912   4.583   0.544  10.245  0.2861 -0.1961 -0.3605
  809MPD2    C511913   4.680   0.443  10.254 -0.1802 -0.2620 -0.0317
  809MPD2     H11914   0.067   0.798  10.177 -1.3610  0.4098  0.5086
  809MPD2    H111915   4.477   0.525  10.259  0.7047 -0.8627  1.9307
  809MPD2    H211916   0.160   0.399  10.249  0.9906 -0.3024 -3.2865
  809MPD2    H311917   4.648   0.342  10.280 -0.2865 -0.7312 -1.9663
  809MPD2     N11918   4.520   0.769  10.189  0.4962  0.6721 -0.4269
  809MPD2    H511919   4.425   0.735  10.202  0.7631  0.2920  0.5334
  809MPD2    N111920   0.258   0.642  10.173 -1.0645 -0.0726  0.1081
  809MPD2    H711921   0.274   0.732  10.128  2.2293 -1.1583 -0.8792
  810MPD2     C11922   4.213   0.043  10.575 -0.3268  0.8821 -0.8155
  810MPD2    C111923   4.075   0.067  10.584 -0.0906 -0.0447 -0.3866
  810MPD2    C211924   4.031   0.183  10.641 -0.2943  0.3041  0.7439
  810MPD2    C311925   4.117   0.277  10.692 -0.7042 -0.5184 -0.5766
  810MPD2    C411926   4.251   0.263  10.655  0.1388  0.8216 -0.3405
  810MPD2    C511927   4.298   0.149  10.596  0.1606 -0.0268 -0.6585
  810MPD2     H11928   3.923   0.194  10.651 -0.5315 -2.0846  0.8120
  810MPD2    H111929   4.319   0.343  10.680 -0.8418  1.0200  1.6417
  810MPD2    H211930   4.263   4.675  10.553 -0.7013  0.6105 -0.5103
  810MPD2    H311931   4.405   0.136  10.590  0.2944  0.4909  0.5763
  810MPD2     N11932   4.083   0.401  10.749 -0.1454  0.9272 -0.2133
  810MPD2    H511933   4.151   0.476  10.748  1.0079 -0.1398 -2.1562
  810MPD2    N111934   3.978   4.707  10.540 -0.3633 -0.3904 -0.1293
  810MPD2    H711935   3.885   0.019  10.550 -0.3222 -0.1544 -0.5939
  811MPD2     C11936   3.220   4.650  10.126  0.1827  0.0133  1.3231
  811MPD2    C111937   3.333   4.706  10.187 -0.4255  0.2515 -0.5500
  811MPD2    C211938   3.343   0.119  10.187  0.5086  0.1978 -0.2179
  811MPD2    C311939   3.234   0.196  10.135  0.1044 -0.2894 -0.2581
  811MPD2    C411940   3.133   0.134  10.065 -0.1112  0.0158 -0.0158
  811MPD2    C511941   3.125   0.002  10.069  0.3790 -0.2680  0.1705
  811MPD2     H11942   3.433   0.172  10.214  0.3593 -0.1759  1.0199
  811MPD2    H111943   3.052   0.181  10.011  0.5470 -0.1935 -1.1704
  811MPD2    H211944   3.195   4.545  10.119  1.4083 -0.0883 -1.1519
  811MPD2    H311945   3.041   4.679  10.021 -1.4666  3.4003 -0.3527
  811MPD2     N11946   3.257   0.335  10.143 -0.0280 -0.0748 -0.2964
  811MPD2    H511947   3.341   0.362  10.194 -1.3436  0.4640  1.5870
  811MPD2    N111948   3.438   4.620  10.239  0.1307 -0.0933 -0.3527
  811MPD2    H711949   3.416   4.521  10.227 -3.0957  0.3362  1.8648
  812MPD2     C11950   2.767   0.336  12.620 -0.1147 -0.1835 -0.2139
  812MPD2    C111951   2.639   0.309  12.643 -0.5049  0.3169  0.0799
  812MPD2    C211952   2.591   0.212  12.730  0.2981  0.2307  0.2908
  812MPD2    C311953   2.684   0.126  12.785 -0.4734  0.1403 -0.1058
  812MPD2    C411954   2.823   0.138  12.752 -0.1309 -0.2289  0.0307
  812MPD2    C511955   2.856   0.247  12.672 -0.1879  0.2080 -0.8049
  812MPD2     H11956   2.486   0.200  12.753  0.7455 -0.1251  2.1779
  812MPD2    H111957   2.908   0.077  12.780 -2.2967 -3.6312 -0.7648
  812MPD2    H211958   2.800   0.410  12.548 -0.2038 -0.4406 -0.5254
  812MPD2    H311959   2.957   0.270  12.640 -0.2031  1.2417 -0.1094
  812MPD2     N11960   2.639   0.021  12.872  0.0361  0.2479  0.4705
  812MPD2    H511961   2.539   4.724  12.875  0.2876 -1.0717 -0.4692
  812MPD2    N111962   2.549   0.408  12.591  0.2252  0.2774 -0.4180
  812MPD2    H711963   2.595   0.486  12.546 -3.0047  2.1518 -0.5045
  813MPD2     C11964   2.290   2.335  13.476  0.2901  0.3803 -0.2870
  813MPD2    C111965   2.231   2.307  13.600 -0.5582  0.0540 -0.0246
  813MPD2    C211966   2.098   2.330  13.619  0.2733 -0.9937  0.2291
  813MPD2    C311967   2.015   2.350  13.509  0.1249  0.3264 -0.0392
  813MPD2    C411968   2.082   2.368  13.387  0.0957 -0.3659 -0.2051
  813MPD2    C511969   2.217   2.374  13.372  1.0246  0.4906 -0.1495
  813MPD2     H11970   2.050   2.325  13.716  0.6256  0.4616  0.4871
  813MPD2    H111971   2.021   2.395  13.302 -1.1851 -0.6444  0.6115
  813MPD2    H211972   2.398   2.345  13.467  0.5295 -2.5905 -0.6986
  813MPD2    H311973   2.258   2.395  13.274  1.5886  1.3871  0.2700
  813MPD2     N11974   1.882   2.379  13.514  0.2012  0.0965 -0.1902
  813MPD2    H511975   1.836   2.414  13.431  1.1595  0.9343 -0.3797
  813MPD2    N111976   2.318   2.243  13.695  0.0759  0.1275 -0.7062
  813MPD2    H711977   2.395   2.207  13.641 -0.2012 -1.5722  0.0274
  814MPD2     C11978   2.422   2.554  12.590  0.4606 -0.2006  0.3115
  814MPD2    C111979   2.344   2.653  12.533 -0.0313  0.5582  0.8304
  814MPD2    C211980   2.348   2.781  12.592 -0.7737  0.0366 -0.2623
  814MPD2    C311981   2.404   2.802  12.718  0.2999 -0.0489 -0.1227
  814MPD2    C411982   2.465   2.695  12.779  0.5279 -0.2366  0.0517
  814MPD2    C511983   2.468   2.574  12.716 -0.2649 -0.0192 -0.4489
  814MPD2     H11984   2.276   2.855  12.559 -1.1359 -0.1110  0.1978
  814MPD2    H111985   2.511   2.698  12.877 -1.7471  0.0910  1.1060
  814MPD2    H211986   2.423   2.451  12.555  3.4511 -0.6975  1.8100
  814MPD2    H311987   2.525   2.500  12.770  2.1218  1.9021 -0.2970
  814MPD2     N11988   2.382   2.923  12.792  0.3658  0.2874  0.1711
  814MPD2    H511989   2.392   2.917  12.893  3.8192  0.9176 -0.1512
  814MPD2    N111990   2.274   2.627  12.414  0.4526  0.2326  0.2573
  814MPD2    H711991   2.284   2.532  12.378 -0.2515  0.4941 -0.6208
  815MPD2     C11992   2.985   2.144  11.766  0.1016 -0.0773 -0.6258
  815MPD2    C111993   2.908   2.029  11.776 -0.0678 -0.0565  0.0181
  815MPD2    C211994   2.792   2.033  11.840  0.3589  0.3933  0.7582
  815MPD2    C311995   2.744   2.148  11.902  0.5088 -0.8870 -0.4235
  815MPD2    C411996   2.824   2.258  11.899  0.1105 -0.9174  0.2897
  815MPD2    C511997   2.943   2.258  11.827 -0.6439 -0.3095  0.3196
  815MPD2     H11998   2.726   1.947  11.842  0.7640  0.0385 -1.4042
  815MPD2    H111999   2.794   2.348  11.950 -1.3929 -1.6795  0.7243
  815MPD2    H212000   3.078   2.146  11.710 -0.0963 -0.8577 -0.9752
  815MPD2    H312001   3.003   2.348  11.814  0.9065 -1.1003  2.0203
  815MPD2     N12002   2.612   2.140  11.938  0.3915  0.3627  0.7237
  815MPD2    H512003   2.554   2.058  11.924  1.8635 -0.6644  0.7190
  815MPD2    N112004   2.967   1.918  11.704  0.0828 -0.4030 -0.4483
  815MPD2    H712005   3.043   1.936  11.640  2.4916 -1.2567  2.1760
  816MPD2     C12006   2.544   1.631  17.378 -0.0447  0.3592  0.0661
  816MPD2    C112007   2.488   1.621  17.251 -0.8165 -0.0678  0.5737
  816MPD2    C212008   2.580   1.593  17.147 -0.1077 -0.2777  0.4230
  816MPD2    C312009   2.711   1.570  17.164  0.4196 -0.1263  0.8177
  816MPD2    C412010   2.765   1.572  17.295  0.3790  0.2504  0.2997
  816MPD2    C512011   2.674   1.601  17.393 -0.5222 -0.3444 -0.7307
  816MPD2     H12012   2.547   1.586  17.044  0.7538  0.4214  0.1037
  816MPD2    H112013   2.868   1.551  17.321  1.5585  2.4896 -2.5148
  816MPD2    H212014   2.485   1.655  17.466  0.4182 -1.0262  0.7530
  816MPD2    H312015   2.728   1.597  17.487  0.0124 -0.0404 -1.0189
  816MPD2     N12016   2.790   1.550  17.056 -0.7281 -0.4213  0.2572
  816MPD2    H512017   2.748   1.553  16.963 -3.0596 -0.6699  1.3081
  816MPD2    N112018   2.354   1.665  17.230  0.3034 -0.4135  0.8055
  816MPD2    H712019   2.305   1.696  17.313  0.8412  0.1545  0.9117
  817MPD2     C12020   2.065   2.585   9.978  0.0564  0.0884 -0.2664
  817MPD2    C112021   2.164   2.624   9.889 -0.5340 -0.4861 -0.6147
  817MPD2    C212022   2.176   2.751   9.841 -0.6334 -0.2231 -0.6239
  817MPD2    C312023   2.090   2.849   9.871 -0.2582 -0.4337 -1.2798
  817MPD2    C412024   1.989   2.813   9.963  0.0464 -0.3474 -0.1495
  817MPD2    C512025   1.977   2.686  10.017  1.2952  0.6392  0.2097
  817MPD2     H12026   2.256   2.780   9.774 -0.0813  2.0839  1.0259
  817MPD2    H112027   1.915   2.883  10.001  0.4558  0.9075 -1.6539
  817MPD2    H212028   2.053   2.486  10.021 -0.8428  0.4999  0.4213
  817MPD2    H312029   1.894   2.663  10.082  0.9663 -0.0480 -0.4468
  817MPD2     N12030   2.099   2.985   9.815  0.6181  0.3485 -0.0529
  817MPD2    H512031   2.175   3.014   9.753 -0.8243  0.8099 -1.6025
  817MPD2    N112032   2.264   2.531   9.852  0.2389 -0.0181 -0.7462
  817MPD2    H712033   2.333   2.561   9.783  0.6478 -0.7624 -0.6530
  818MPD2     C12034   0.771   2.641  10.047  0.0163  0.0113 -0.2987
  818MPD2    C112035   0.792   2.590  10.172  0.2597 -0.1985 -0.7627
  818MPD2    C212036   0.684   2.580  10.256  0.1473 -0.5444  0.2658
  818MPD2    C312037   0.557   2.634  10.232 -0.1513  0.6410 -0.3574
  818MPD2    C412038   0.540   2.682  10.102  0.1489  0.4056 -0.4516
  818MPD2    C512039   0.640   2.683  10.014 -0.0859  0.1999  0.5341
  818MPD2     H12040   0.702   2.524  10.347 -2.3474 -1.8450 -0.0300
  818MPD2    H112041   0.442   2.715  10.070 -0.1127  1.8732  1.8719
  818MPD2    H212042   0.842   2.640   9.965  1.5075 -1.5354  1.0146
  818MPD2    H312043   0.626   2.726   9.916 -0.3127  0.3664  0.6410
  818MPD2     N12044   0.451   2.611  10.316 -0.3676  0.0635 -0.1052
  818MPD2    H512045   0.358   2.632  10.281  0.0120 -1.2777 -1.9613
  818MPD2    N112046   0.917   2.527  10.216  0.7476 -0.1212 -0.2061
  818MPD2    H712047   0.905   2.479  10.304  0.2672 -2.7793 -1.7328
  819MPD2     C12048   3.899   4.491  15.294 -0.2825  0.1559 -0.2147
  819MPD2    C112049   3.840   4.413  15.398 -0.0859  0.7646  1.1286
  819MPD2    C212050   3.915   4.396  15.518  0.4584  0.3816 -0.1319
  819MPD2    C312051   4.026   4.484  15.538 -0.0528  0.8698  0.1210
  819MPD2    C412052   4.080   4.560  15.436  0.0886  0.3195  0.1391
  819MPD2    C512053   4.010   4.564  15.320  0.0661 -0.8131 -0.6923
  819MPD2     H12054   3.869   4.355  15.608 -0.6882  0.0057 -0.8898
  819MPD2    H112055   4.167   4.626  15.436  0.2154  0.1477  0.9335
  819MPD2    H212056   3.853   4.512  15.198  0.7776  2.5061 -0.2079
  819MPD2    H312057   4.042   4.627  15.238 -0.9030 -0.8845 -1.1336
  819MPD2     N12058   4.103   4.490  15.659 -1.3442  0.0705 -0.1575
  819MPD2    H512059   4.196   4.529  15.642 -1.2916 -0.1903 -0.4716
  819MPD2    N112060   3.717   4.364  15.385 -0.1387  0.2732 -0.1594
  819MPD2    H712061   3.664   4.399  15.306 -2.4528  0.3700  1.4326
  820MPD2     C12062   2.814   4.478  15.006 -0.1299  0.4128  0.4772
  820MPD2    C112063   2.926   4.557  15.024 -0.3297  0.6673 -0.7835
  820MPD2    C212064   3.044   4.504  15.063  0.6059  0.0913 -0.0080
  820MPD2    C312065   3.054   4.371  15.096  0.3374  0.2156  0.6708
  820MPD2    C412066   2.940   4.297  15.097  0.3811 -0.4896 -0.4401
  820MPD2    C512067   2.822   4.349  15.046  0.0742 -0.6964 -0.2610
  820MPD2     H12068   3.125   4.573  15.080  0.5563 -0.5126  2.7249
  820MPD2    H112069   2.937   4.192  15.121  0.1895 -0.3031  0.3312
  820MPD2    H212070   2.723   4.524  14.967 -0.5816  0.8873  2.0737
  820MPD2    H312071   2.730   4.293  15.057 -0.0308 -0.4129  0.3154
  820MPD2     N12072   3.170   4.306  15.137  0.6536 -0.2444 -0.2645
  820MPD2    H512073   3.168   4.205  15.150  1.7408 -0.1507  0.6285
  820MPD2    N112074   2.916   4.700  15.000 -0.8557 -1.3538  0.7032
  820MPD2    H712075   2.825   0.008  14.971 -0.2121 -0.9623 -0.8187
  821MPD2     C12076   4.108   1.085  13.387  0.7506 -0.0628  0.2742
  821MPD2    C112077   4.192   1.014  13.469  0.4830  0.2597  0.1916
  821MPD2    C212078   4.320   0.979  13.419  0.1149 -0.2738  0.6324
  821MPD2    C312079   4.366   1.038  13.302 -0.7607  0.2530 -0.3644
  821MPD2    C412080   4.276   1.093  13.216 -0.6517 -0.5349  0.1728
  821MPD2    C512081   4.146   1.115  13.261  0.5302 -0.4601  0.0733
  821MPD2     H12082   4.386   0.925  13.487 -3.2030 -1.9431  2.5046
  821MPD2    H112083   4.308   1.121  13.115  0.8303 -3.3283 -0.1333
  821MPD2    H212084   4.010   1.111  13.424  0.1809  1.6538 -2.4706
  821MPD2    H312085   4.081   1.165  13.190 -0.9420 -0.4827  1.3941
  821MPD2     N12086   4.501   1.035  13.256 -0.3039 -0.1210  0.4094
  821MPD2    H512087   4.523   1.096  13.177 -1.1621  2.0104  1.8046
  821MPD2    N112088   4.160   0.983  13.606  0.9579  0.0069  0.2021
  821MPD2    H712089   4.237   0.961  13.667 -0.8569 -1.2611  2.0067
  822MPD2     C12090   4.657   1.165  15.880 -0.1212  0.1622  0.1343
  822MPD2    C112091   0.012   1.204  15.987 -1.0242  0.1015  0.4894
  822MPD2    C212092   4.694   1.317  16.061  0.8100 -0.0780 -1.2910
  822MPD2    C312093   4.572   1.387  16.032 -0.3832  0.7950 -0.2324
  822MPD2    C412094   4.493   1.333  15.938  0.1880  0.0822  0.3968
  822MPD2    C512095   4.537   1.230  15.863  0.6248 -0.2949  0.6249
  822MPD2     H12096   0.040   1.357  16.132 -0.5282 -2.7204  1.5414
  822MPD2    H112097   4.397   1.381  15.922  0.1685 -0.5892 -1.5040
  822MPD2    H212098   4.686   1.093  15.805  2.3254  1.8953 -0.5740
  822MPD2    H312099   4.478   1.191  15.781 -1.4892 -0.6915  2.3392
  822MPD2     N12100   4.538   1.496  16.111 -0.0122  0.4436 -0.7180
  822MPD2    H512101   4.606   1.545  16.168  1.7651 -2.3813 -0.3784
  822MPD2    N112102   0.138   1.145  16.017  0.0709 -1.0613 -0.1586
  822MPD2    H712103   0.195   1.198  16.083 -0.6740 -2.9261  1.9890
  823MPD2     C12104   4.289   1.549  16.944 -0.0616 -0.1492 -0.3329
  823MPD2    C112105   4.318   1.475  16.831  0.1937  0.1149  0.1791
  823MPD2    C212106   4.357   1.348  16.846  0.5528  0.1160  0.9303
  823MPD2    C312107   4.363   1.285  16.973 -0.6974  0.9536  0.6178
  823MPD2    C412108   4.329   1.366  17.078 -0.3657 -0.3510  0.1926
  823MPD2    C512109   4.293   1.490  17.062 -0.6316 -0.2958  0.1786
  823MPD2     H12110   4.398   1.300  16.758 -1.6527  0.8622 -0.4725
  823MPD2    H112111   4.342   1.331  17.180  1.6856  2.6444  0.9659
  823MPD2    H212112   4.253   1.650  16.932  1.5557  0.3861 -0.5876
  823MPD2    H312113   4.292   1.553  17.150 -0.5370  0.9501 -0.7174
  823MPD2     N12114   4.401   1.151  16.994 -0.0954  0.5643  0.6374
  823MPD2    H512115   4.401   1.115  17.089 -0.9651  0.6992  0.6863
  823MPD2    N112116   4.310   1.551  16.712  0.2675 -0.1764  0.2914
  823MPD2    H712117   4.294   1.650  16.724  1.5202 -0.1309  1.5986
  824MPD2     C12118   0.408   0.351  15.919  0.1968 -0.2611  0.3330
  824MPD2    C112119   0.502   0.451  15.886  0.6173  1.2471 -0.5541
  824MPD2    C212120   0.620   0.433  15.822  0.5808  0.6235 -0.6069
  824MPD2    C312121   0.642   0.304  15.781  0.1395 -0.7231  0.2115
  824MPD2    C412122   0.558   0.199  15.822 -0.6178  0.1629 -0.0634
  824MPD2    C512123   0.441   0.222  15.885 -0.8877 -0.3769 -0.0246
  824MPD2     H12124   0.699   0.507  15.816  0.9006  0.3715  0.4649
  824MPD2    H112125   0.588   0.095  15.815 -1.2145 -0.0771  1.0180
  824MPD2    H212126   0.311   0.371  15.964  0.2122 -0.3675  0.4130
  824MPD2    H312127   0.373   0.145  15.918  1.0994 -1.6793  1.0023
  824MPD2     N12128   0.760   0.271  15.707 -0.3141 -0.9413 -0.0654
  824MPD2    H512129   0.829   0.346  15.702 -2.0579  0.7177  0.7660
  824MPD2    N112130   0.460   0.584  15.934 -0.1194 -0.0708  0.5990
  824MPD2    H712131   0.366   0.596  15.971 -0.0517 -1.0525  1.0836
  825MPD2     C12132   0.930   0.634  15.197  0.3422 -1.0370 -0.8019
  825MPD2    C112133   1.041   0.595  15.267 -0.5944  0.0121 -0.5830
  825MPD2    C212134   1.163   0.669  15.256  0.0242 -0.8582  0.7391
  825MPD2    C312135   1.162   0.786  15.178 -0.4434 -0.0353  0.1335
  825MPD2    C412136   1.043   0.826  15.122  0.1689 -0.0960 -0.0955
  825MPD2    C512137   0.927   0.750  15.126 -0.7742  0.0841  0.1218
  825MPD2     H12138   1.254   0.635  15.305  1.7085 -1.9394 -3.1489
  825MPD2    H112139   1.043   0.909  15.053  1.2369 -1.0515 -1.2347
  825MPD2    H212140   0.832   0.590  15.210  0.6122 -1.8165 -1.3887
  825MPD2    H312141   0.836   0.776  15.072 -1.2934 -0.7046  0.6058
  825MPD2     N12142   1.270   0.877  15.180  0.0921 -0.3269  0.2731
  825MPD2    H512143   1.250   0.969  15.142  0.4412 -0.5498 -0.4415
  825MPD2    N112144   1.040   0.472  15.344  0.6733  0.4345  0.2207
  825MPD2    H712145   0.945   0.436  15.337  0.5350  0.8775 -0.1778
  826MPD2     C12146   0.621   0.301  13.900 -0.0253 -0.0372  0.1095
  826MPD2    C112147   0.561   0.319  13.771  0.7257  0.6892  0.6147
  826MPD2    C212148   0.438   0.380  13.766 -0.1068 -0.3425  0.9373
  826MPD2    C312149   0.380   0.427  13.883  0.0625 -0.2610  0.1257
  826MPD2    C412150   0.441   0.416  14.006  0.7731  0.0434  0.8996
  826MPD2    C512151   0.566   0.357  14.012  0.0102  0.1039 -0.2084
  826MPD2     H12152   0.404   0.400  13.665  0.4922 -2.2512  0.3688
  826MPD2    H112153   0.402   0.456  14.098  0.1984 -0.3351  0.8199
  826MPD2    H212154   0.709   0.239  13.908 -0.8823 -1.3115 -0.3839
  826MPD2    H312155   0.612   0.345  14.109  1.0564 -0.1823 -0.7417
  826MPD2     N12156   0.257   0.511  13.880 -0.5489 -0.0814  0.2728
  826MPD2    H512157   0.232   0.539  13.974 -0.7763  0.3280  0.0893
  826MPD2    N112158   0.642   0.273  13.666 -0.2655 -0.2669 -0.2695
  826MPD2    H712159   0.734   0.239  13.692 -0.1550 -1.0278 -1.6655
  827MPD2     C12160   1.512   1.183  10.389 -0.5469  0.3410  0.7348
  827MPD2    C112161   1.552   1.110  10.503  0.6606  0.3435 -0.3606
  827MPD2    C212162   1.528   0.974  10.503  0.1777  0.3178  0.2640
  827MPD2    C312163   1.456   0.918  10.397  0.6903 -0.8062 -0.2723
  827MPD2    C412164   1.410   0.996  10.292 -0.0132 -0.4969  0.5043
  827MPD2    C512165   1.444   1.132  10.288 -0.2989  0.2455 -0.0109
  827MPD2     H12166   1.572   0.906  10.575  0.0510 -1.7431 -1.5657
  827MPD2    H112167   1.362   0.942  10.211 -0.6779  0.3754  0.3241
  827MPD2    H212168   1.528   1.290  10.381  2.6754 -0.2839 -1.1979
  827MPD2    H312169   1.409   1.193  10.205  0.1087  2.1054  1.1882
  827MPD2     N12170   1.427   0.778  10.399 -0.0306 -0.4334  0.3960
  827MPD2    H512171   1.493   0.730  10.458 -0.1968 -0.3283  0.6689
  827MPD2    N112172   1.636   1.169  10.603  0.5112  0.2808 -0.7081
  827MPD2    H712173   1.648   1.268  10.584  0.8604  0.7224  1.8636
  828MPD2     C12174   0.207   1.307  12.693 -0.6763 -0.3224 -0.4462
  828MPD2    C112175   0.152   1.296  12.567 -0.5870 -0.6248 -0.2254
  828MPD2    C212176   0.231   1.267  12.456  0.5018  0.9003  0.9632
  828MPD2    C312177   0.364   1.258  12.468 -0.0111  0.0902 -0.1387
  828MPD2    C412178   0.425   1.277  12.590 -0.7474 -0.1594  0.4579
  828MPD2    C512179   0.344   1.291  12.704 -0.5082  1.0128  0.0765
  828MPD2     H12180   0.197   1.259  12.353  2.1496  0.2519  0.4722
  828MPD2    H112181   0.532   1.272  12.603 -0.6061  0.7948 -0.2503
  828MPD2    H212182   0.150   1.329  12.782  0.8483  1.7416  0.0348
  828MPD2    H312183   0.387   1.307  12.802 -1.0013  2.3376  0.0761
  828MPD2     N12184   0.456   1.211  12.369  0.3367 -0.0453  0.5384
  828MPD2    H512185   0.552   1.198  12.399  1.1894 -0.1889 -2.2468
  828MPD2    N112186   0.018   1.314  12.538  0.6668  0.2698 -0.5660
  828MPD2    H712187   4.712   1.304  12.442 -0.6383 -0.1097 -0.1040
  829MPD2     C12188   4.363   1.070  11.839 -0.2622 -0.3547 -0.1985
  829MPD2    C112189   4.265   1.027  11.922 -0.2019 -0.4656 -0.8178
  829MPD2    C212190   4.282   1.050  12.057 -0.0407 -0.7468  0.0122
  829MPD2    C312191   4.394   1.122  12.105 -0.4912 -0.4032  0.4875
  829MPD2    C412192   4.487   1.169  12.015 -0.1365  0.0860 -0.4982
  829MPD2    C512193   4.472   1.142  11.882  0.1758  0.1051  0.3019
  829MPD2     H12194   4.215   1.012  12.133 -0.8238 -3.3114 -1.9652
  829MPD2    H112195   4.580   1.213  12.051 -0.9351  1.4498 -0.0790
  829MPD2    H212196   4.360   1.040  11.735  1.0379 -1.2436  0.0223
  829MPD2    H312197   4.556   1.167  11.818 -0.3627  0.5900 -0.2156
  829MPD2     N12198   4.416   1.159  12.240  0.2727  0.3927 -0.5251
  829MPD2    H512199   4.496   1.214  12.269  1.3831 -0.7607 -1.3768
  829MPD2    N112200   4.153   0.956  11.879  0.0563 -0.2813 -0.3135
  829MPD2    H712201   4.145   0.931  11.780  0.9441  2.2020 -1.0026
  830MPD2     C12202   0.121   4.449  16.061  0.1623 -0.0581  0.0626
  830MPD2    C112203   0.050   4.467  15.945 -0.0294 -0.2152  0.3983
  830MPD2    C212204   0.113   4.499  15.828  0.5832  0.1983 -1.0435
  830MPD2    C312205   0.249   4.532  15.822  0.2522 -0.6881  0.1604
  830MPD2    C412206   0.316   4.520  15.945 -0.1734  0.4760 -0.1019
  830MPD2    C512207   0.261   4.472  16.061 -0.3319  0.4287 -1.2194
  830MPD2     H12208   0.055   4.504  15.737 -0.6294 -0.7398 -0.3351
  830MPD2    H112209   0.421   4.545  15.953  0.2099 -0.5966 -1.6562
  830MPD2    H212210   0.076   4.395  16.143 -0.2271  1.3006  0.7385
  830MPD2    H312211   0.325   4.446  16.144  0.1836  0.0251 -1.7431
  830MPD2     N12212   0.322   4.570  15.706  0.1999 -0.8473  0.0778
  830MPD2    H512213   0.419   4.593  15.726 -0.4506  2.2535 -0.2716
  830MPD2    N112214   4.635   4.444  15.955  0.0684 -0.3586  0.4824
  830MPD2    H712215   4.609   4.419  16.050 -1.6015 -1.1978 -0.1926
  831MPD2     C12216   0.005   1.539  16.496  0.0452 -0.4885 -0.0814
  831MPD2    C112217   0.075   1.461  16.399  1.0036  0.1205 -1.0700
  831MPD2    C212218   0.056   1.327  16.403 -0.1344 -0.4080 -0.3921
  831MPD2    C312219   4.699   1.266  16.503 -0.0148  0.5443 -0.5178
  831MPD2    C412220   4.642   1.347  16.603  0.3157 -0.3893 -0.2383
  831MPD2    C512221   4.660   1.484  16.600  0.5525  0.3873  0.2932
  831MPD2     H12222   0.083   1.267  16.317  2.3224  0.4429 -0.2287
  831MPD2    H112223   4.575   1.305  16.677  1.1168 -0.0957  0.6555
  831MPD2    H212224   0.016   1.646  16.490  1.9622 -0.6378  0.8691
  831MPD2    H312225   4.617   1.548  16.676  0.2895  1.0817 -0.4465
  831MPD2     N12226   4.661   1.128  16.487 -0.1830 -0.1660 -0.0987
  831MPD2    H512227   4.583   1.100  16.545  1.6875  0.8084  2.8946
  831MPD2    N112228   0.158   1.525  16.306  0.4747  0.0820  0.0671
  831MPD2    H712229   0.149   1.626  16.310  0.6048  0.1090 -0.3399
  832MPD2     C12230   2.803   2.421  17.232  0.5606  0.2117 -0.0852
  832MPD2    C112231   2.804   2.553  17.202 -0.5121 -0.0540 -0.1866
  832MPD2    C212232   2.712   2.599  17.107 -0.5835 -0.0409 -0.3722
  832MPD2    C312233   2.608   2.522  17.060  0.2165  0.2298  0.7060
  832MPD2    C412234   2.611   2.386  17.092 -0.4207 -0.7424 -0.3749
  832MPD2    C512235   2.711   2.335  17.172  0.1877 -0.0602 -0.0923
  832MPD2     H12236   2.694   2.706  17.108  0.5940  0.1338  1.8562
  832MPD2    H112237   2.523   2.324  17.077 -1.9089  1.5944 -1.2937
  832MPD2    H212238   2.865   2.386  17.314 -0.2157  0.3154  0.5393
  832MPD2    H312239   2.705   2.232  17.204 -0.0636 -0.7961 -2.5364
  832MPD2     N12240   2.492   2.568  16.994 -0.3508 -0.2200  0.5172
  832MPD2    H512241   2.433   2.491  16.962  0.4436 -1.1608  1.3100
  832MPD2    N112242   2.900   2.630  17.274 -0.4920 -0.4941 -0.4547
  832MPD2    H712243   2.965   2.583  17.336  0.2689  1.4661  0.2481
  833MPD2     C12244   0.366   3.707  12.138 -0.4407  0.3414 -0.1725
  833MPD2    C112245   0.377   3.831  12.076 -0.6255  0.0743 -0.3183
  833MPD2    C212246   0.481   3.841  11.982  0.8072 -0.8850 -0.1962
  833MPD2    C312247   0.580   3.741  11.958 -0.2864  0.0397  0.0826
  833MPD2    C412248   0.563   3.621  12.026  0.5737  0.5005  0.3411
  833MPD2    C512249   0.455   3.606  12.111 -0.0476 -0.5483 -0.3794
  833MPD2     H12250   0.478   3.926  11.916  0.0610  1.3848  2.7960
  833MPD2    H112251   0.634   3.543  12.000 -0.1607  0.1265 -0.5507
  833MPD2    H212252   0.278   3.684  12.198 -0.4379 -1.2716 -0.8068
  833MPD2    H312253   0.457   3.517  12.173 -1.8615  1.8120  3.0366
  833MPD2     N12254   0.664   3.746  11.850  0.3754 -0.2898 -0.0566
  833MPD2    H512255   0.711   3.664  11.813  1.5599 -0.1993  1.2410
  833MPD2    N112256   0.291   3.940  12.110 -0.2216  0.2603  0.2547
  833MPD2    H712257   0.219   3.919  12.178  1.2260 -1.9809  1.1075
  834MPD2     C12258   0.815   3.402  10.900  0.5606 -1.4881  0.0646
  834MPD2    C112259   0.787   3.341  11.020 -0.7896 -0.3663 -0.4850
  834MPD2    C212260   0.778   3.427  11.133 -0.1788 -0.4747  0.8546
  834MPD2    C312261   0.801   3.561  11.132 -0.0932 -0.2573 -0.1778
  834MPD2    C412262   0.836   3.609  11.006  0.4127 -0.2107  0.1087
  834MPD2    C512263   0.848   3.531  10.893  0.3250 -0.0819 -0.1263
  834MPD2     H12264   0.759   3.386  11.232  0.2854  1.1846  1.6388
  834MPD2    H112265   0.868   3.712  10.990 -0.3336 -0.0825 -0.5817
  834MPD2    H212266   0.803   3.338  10.814  0.5268 -0.1775 -0.9072
  834MPD2    H312267   0.866   3.574  10.794  2.6035  0.7650  0.6512
  834MPD2     N12268   0.808   3.642  11.245 -0.5489  0.4492 -0.7404
  834MPD2    H512269   0.845   3.734  11.223  2.0508 -0.3251  0.3953
  834MPD2    N112270   0.769   3.197  11.016  0.0342  0.8571  0.5449
  834MPD2    H712271   0.770   3.165  10.919 -1.1980  1.8723  0.1872
  835MPD2     C12272   0.963   0.885  11.636 -0.8361 -0.4081  0.3537
  835MPD2    C112273   0.951   1.019  11.666 -0.3098 -0.3073  0.2383
  835MPD2    C212274   1.045   1.067  11.751 -0.1865  0.0217  0.5033
  835MPD2    C312275   1.159   0.996  11.784  0.8475 -0.7042  0.1058
  835MPD2    C412276   1.172   0.863  11.748 -0.5464 -0.3693 -0.5117
  835MPD2    C512277   1.073   0.805  11.679  0.5431  0.0292 -0.2250
  835MPD2     H12278   1.034   1.168  11.790 -2.4389 -0.4343  1.0653
  835MPD2    H112279   1.257   0.803  11.777 -1.8209 -0.7129  2.5958
  835MPD2    H212280   0.884   0.837  11.579 -0.2451  0.9984 -1.6283
  835MPD2    H312281   1.078   0.699  11.655  0.4376  0.0944 -0.5323
  835MPD2     N12282   1.257   1.038  11.866  0.2559 -0.0571  0.4204
  835MPD2    H512283   1.314   0.964  11.906  0.4690  0.7852  1.7144
  835MPD2    N112284   0.858   1.106  11.611 -0.1135 -0.0106 -0.4024
  835MPD2    H712285   0.851   1.196  11.657  0.1533  0.3545 -1.0838
  836MPD2     C12286   0.886   1.377  12.145  0.0433  0.6326  0.0488
  836MPD2    C112287   0.984   1.384  12.245  0.1205 -0.3591 -0.1107
  836MPD2    C212288   0.950   1.442  12.360 -0.4054 -0.1957  0.3070
  836MPD2    C312289   0.830   1.505  12.387  0.3234 -0.6116 -0.2824
  836MPD2    C412290   0.733   1.490  12.298 -0.9290  0.1941  0.1726
  836MPD2    C512291   0.758   1.431  12.172 -0.1254  0.3675 -0.0075
  836MPD2     H12292   1.021   1.450  12.442 -0.1391 -1.9445  0.2330
  836MPD2    H112293   0.631   1.521  12.316 -1.1610 -1.5268  1.8172
  836MPD2    H212294   0.907   1.324  12.053 -0.1586 -1.7449  1.3624
  836MPD2    H312295   0.680   1.421  12.096  0.1472  2.2272 -0.5379
  836MPD2     N12296   0.806   1.571  12.503  0.3445 -0.5261 -0.6755
  836MPD2    H512297   0.716   1.615  12.515  0.1208 -0.5856 -2.1432
  836MPD2    N112298   1.105   1.322  12.227 -0.0433  0.4051  0.5121
  836MPD2    H712299   1.125   1.295  12.131 -1.3706 -0.3572  0.4444
  837MPD2     C12300   3.599   0.961  10.468  0.0433 -0.2590  0.1293
  837MPD2    C112301   3.502   0.981  10.372  0.5772  1.0151  0.3879
  837MPD2    C212302   3.494   1.104  10.312 -0.3228 -0.2206  0.3219
  837MPD2    C312303   3.582   1.201  10.339 -0.3129  0.7166  0.3330
  837MPD2    C412304   3.675   1.189  10.441 -0.2775 -0.1563  0.0190
  837MPD2    C512305   3.670   1.072  10.513 -0.0364 -0.2909  0.0711
  837MPD2     H12306   3.422   1.121  10.233 -0.1625 -0.0400  0.2146
  837MPD2    H112307   3.739   1.272  10.469  1.7424 -1.3449 -1.1689
  837MPD2    H212308   3.605   0.873  10.530  2.3430  0.9552  1.6416
  837MPD2    H312309   3.744   1.066  10.592  0.0995  0.1770 -0.0229
  837MPD2     N12310   3.580   1.319  10.256  0.4365 -0.5345 -0.1239
  837MPD2    H512311   3.530   1.310  10.169  2.0491 -0.1270 -1.0858
  837MPD2    N112312   3.400   0.887  10.334 -0.4695  0.0132 -0.1550
  837MPD2    H712313   3.348   0.918  10.252 -1.1168  0.7195  0.5329
  838MPD2     C12314   2.358   3.318  11.841 -0.4676  0.6027 -0.1626
  838MPD2    C112315   2.278   3.426  11.849 -0.2795  0.5085  0.6045
  838MPD2    C212316   2.222   3.464  11.973 -0.1190  0.9532  0.5624
  838MPD2    C312317   2.256   3.390  12.089 -0.6543  0.1556  0.5070
  838MPD2    C412318   2.341   3.282  12.084  0.4959  0.4242 -0.5061
  838MPD2    C512319   2.388   3.251  11.960 -0.5411  0.5090  0.1021
  838MPD2     H12320   2.169   3.558  11.981  0.5970  1.3098  1.0972
  838MPD2    H112321   2.350   3.217  12.170 -2.3782  1.0271  0.2693
  838MPD2    H212322   2.390   3.274  11.748 -0.2270 -1.0090  0.6796
  838MPD2    H312323   2.446   3.160  11.957  1.0803  1.5291  0.8418
  838MPD2     N12324   2.200   3.428  12.213 -0.1740 -0.1158  0.1601
  838MPD2    H512325   2.134   3.505  12.210 -0.3526 -0.3358 -1.7375
  838MPD2    N112326   2.258   3.521  11.740  0.6627 -0.3453  0.8523
  838MPD2    H712327   2.193   3.598  11.750 -0.0683 -0.7486 -0.9150
  839MPD2     C12328   1.445   3.528  11.437  0.3498 -0.1254  0.7709
  839MPD2    C112329   1.530   3.431  11.392  0.7871 -0.4026 -0.3914
  839MPD2    C212330   1.668   3.452  11.402 -0.0320 -0.2766  0.2112
  839MPD2    C312331   1.719   3.572  11.446 -0.0234  0.0819 -0.4178
  839MPD2    C412332   1.627   3.655  11.517  0.0324  0.2198  0.6680
  839MPD2    C512333   1.494   3.639  11.501 -0.3613  0.6119  0.2721
  839MPD2     H12334   1.732   3.371  11.370 -0.6459 -0.1713 -1.3261
  839MPD2    H112335   1.664   3.740  11.573 -1.6223  2.4980 -1.7060
  839MPD2    H212336   1.337   3.524  11.433  0.3741  1.8033 -2.0223
  839MPD2    H312337   1.424   3.714  11.537  0.2999  1.0069  0.7312
  839MPD2     N12338   1.855   3.605  11.465 -0.0456  0.7374 -0.0400
  839MPD2    H512339   1.873   3.663  11.547 -2.4846  0.0597  0.9883
  839MPD2    N112340   1.485   3.303  11.358  0.3522 -0.6228 -0.0159
  839MPD2    H712341   1.556   3.237  11.327 -0.4536 -0.8281 -1.4292
  840MPD2     C12342   2.290   1.330  10.497  0.4220  0.6535 -1.0158
  840MPD2    C112343   2.245   1.401  10.603  0.3490 -0.5425 -0.5127
  840MPD2    C212344   2.323   1.497  10.665 -0.4209  0.4107 -0.5303
  840MPD2    C312345   2.446   1.534  10.614 -0.0258 -0.3009 -0.1094
  840MPD2    C412346   2.492   1.451  10.512  0.2838  0.5586 -0.6266
  840MPD2    C512347   2.419   1.350  10.449 -0.7146 -0.0669 -0.2032
  840MPD2     H12348   2.282   1.543  10.754 -1.1557  0.6852 -1.0111
  840MPD2    H112349   2.594   1.460  10.477  0.3535 -1.4796 -1.0023
  840MPD2    H212350   2.229   1.250  10.457  0.6321  0.6622 -1.3479
  840MPD2    H312351   2.456   1.294  10.364  1.4732  1.7187 -0.4245
  840MPD2     N12352   2.536   1.626  10.676  0.4738 -0.1646  0.0882
  840MPD2    H512353   2.631   1.616  10.640  0.2405 -2.3942  0.0642
  840MPD2    N112354   2.117   1.360  10.665  0.0536  0.1596  0.3746
  840MPD2    H712355   2.072   1.287  10.611  0.3642  0.5273 -0.3760
  841MPD2     C12356   1.904   1.506  14.280 -0.1912  0.3466  0.3579
  841MPD2    C112357   1.888   1.435  14.396  0.4159 -0.3164  0.2161
  841MPD2    C212358   1.946   1.492  14.511 -0.1294  0.1807  0.9894
  841MPD2    C312359   2.021   1.607  14.505 -1.3831 -0.2667  0.3458
  841MPD2    C412360   2.012   1.686  14.388  0.2134  0.3814 -0.4681
  841MPD2    C512361   1.956   1.633  14.275 -0.0239 -0.0963 -0.2875
  841MPD2     H12362   1.939   1.434  14.602 -2.2694  0.3852  0.9449
  841MPD2    H112363   2.051   1.787  14.377  1.9351  0.0008  2.1091
  841MPD2    H212364   1.865   1.467  14.187 -0.8727 -1.5598  1.4432
  841MPD2    H312365   1.967   1.691  14.185 -0.1870 -2.6456 -1.9514
  841MPD2     N12366   2.095   1.648  14.624 -0.5394 -0.2115  0.4837
  841MPD2    H512367   2.066   1.604  14.711  0.4465 -0.7760  0.5333
  841MPD2    N112368   1.820   1.312  14.389  0.0262  0.2659 -0.6293
  841MPD2    H712369   1.798   1.273  14.298 -1.5972 -1.3109  0.4387
  842MPD2     C12370   1.958   3.146  16.359 -0.1479  0.0173 -0.5454
  842MPD2    C112371   1.838   3.077  16.365 -0.4484  0.2537 -0.0614
  842MPD2    C212372   1.806   3.005  16.477 -0.2297  0.2508  0.4942
  842MPD2    C312373   1.902   3.001  16.585 -0.0837 -0.4016  0.6723
  842MPD2    C412374   2.015   3.073  16.577  0.4643  0.2186 -0.0356
  842MPD2    C512375   2.047   3.149  16.461  0.8954  0.2497 -0.4416
  842MPD2     H12376   1.713   2.950  16.474 -1.6974  2.7098  1.4015
  842MPD2    H112377   2.088   3.075  16.657  0.7819 -1.0766 -0.2999
  842MPD2    H212378   1.974   3.201  16.266  1.9323 -0.9803 -0.7785
  842MPD2    H312379   2.129   3.219  16.451 -0.1911  1.6718  0.6375
  842MPD2     N12380   1.880   2.937  16.710  0.4882 -0.0737 -0.4980
  842MPD2    H512381   1.950   2.946  16.783  1.5142  1.3290 -1.6787
  842MPD2    N112382   1.751   3.086  16.250 -0.1164 -0.0790 -0.0951
  842MPD2    H712383   1.786   3.139  16.171  0.2969 -0.0310  0.1220
  843MPD2     C12384   3.762   3.130   0.013 -0.5953  0.3188  0.2285
  843MPD2    C112385   3.812   3.115   0.139 -0.5072 -0.5542 -0.6374
  843MPD2    C212386   3.790   3.213   0.233  0.3513  0.2303  0.2826
  843MPD2    C312387   3.725   3.332   0.196 -0.1622  0.4149  0.6624
  843MPD2    C412388   3.693   3.351   0.064 -0.3206 -0.0633 -0.3177
  843MPD2    C512389   3.704   3.254  17.683  0.2799 -0.5546 -0.0061
  843MPD2     H12390   3.816   3.207   0.338 -1.2646  1.5043  0.7630
  843MPD2    H112391   3.661   3.449   0.029  0.2673  0.8274  1.6218
  843MPD2    H212392   3.792   3.060  17.638 -3.1394 -1.7075  1.0500
  843MPD2    H312393   3.688   3.268  17.577 -2.4028 -1.6485  0.2686
  843MPD2     N12394   3.706   3.437   0.285 -0.2661  0.7183 -0.0057
  843MPD2    H512395   3.694   3.531   0.247 -0.5405 -0.0321 -1.7874
  843MPD2    N112396   3.897   3.003   0.160  0.9122 -0.1344  0.1231
  843MPD2    H712397   3.907   2.931   0.089 -0.7787 -2.9521  2.7319
  844MPD2     C12398   2.549   2.633  16.463  0.4760 -0.3091  0.1001
  844MPD2    C112399   2.613   2.506  16.469  0.0450 -0.3700  0.0063
  844MPD2    C212400   2.711   2.487  16.564  0.0998 -0.5912 -0.3761
  844MPD2    C312401   2.750   2.589  16.650 -0.1449 -0.3759  0.3230
  844MPD2    C412402   2.693   2.715  16.638  0.0674 -0.4065 -0.4011
  844MPD2    C512403   2.592   2.729  16.547 -0.1518  0.1004  0.5262
  844MPD2     H12404   2.749   2.386  16.576 -0.0278 -0.4800  0.9843
  844MPD2    H112405   2.709   2.796  16.708  2.0993 -1.6638  0.5891
  844MPD2    H212406   2.471   2.660  16.394 -0.6781  1.2285  1.9866
  844MPD2    H312407   2.552   2.827  16.524 -0.5225 -0.4139 -1.0478
  844MPD2     N12408   2.847   2.568  16.750  0.6941  0.5645  0.2754
  844MPD2    H512409   2.876   2.472  16.764 -0.8849 -0.0915 -0.8828
  844MPD2    N112410   2.578   2.396  16.391  0.0180 -0.1805  0.4221
  844MPD2    H712411   2.628   2.309  16.405 -0.9364 -0.8854 -0.4966
  845MPD2     C12412   3.455   3.254  17.101 -0.5100  0.1906 -0.1957
  845MPD2    C112413   3.319   3.256  17.098 -0.5027  0.1677 -0.2490
  845MPD2    C212414   3.250   3.134  17.081  0.3745  0.1130 -1.0162
  845MPD2    C312415   3.317   3.015  17.088  0.2994 -0.2585  0.2306
  845MPD2    C412416   3.455   3.018  17.089  0.1290 -0.9109  0.2811
  845MPD2    C512417   3.525   3.138  17.091 -0.1804 -0.3913  0.6120
  845MPD2     H12418   3.142   3.132  17.075  0.2755 -0.2537  0.8383
  845MPD2    H112419   3.514   2.927  17.089 -0.8012 -1.5161 -0.6361
  845MPD2    H212420   3.505   3.343  17.137 -0.9252  0.7081 -0.8874
  845MPD2    H312421   3.632   3.121  17.101 -0.3149 -0.2316  2.3003
  845MPD2     N12422   3.243   2.895  17.073 -0.1125 -0.3732  0.3206
  845MPD2    H512423   3.149   2.904  17.035  1.1761  1.1383 -2.4796
  845MPD2    N112424   3.254   3.377  17.103 -0.3715  0.3513  0.0729
  845MPD2    H712425   3.311   3.460  17.118 -0.7428  0.2082  2.3478
  846MPD2     C12426   4.694   3.244  13.570  0.0045 -0.4978 -0.3533
  846MPD2    C112427   4.580   3.324  13.572  0.1135  0.1220  0.6764
  846MPD2    C212428   4.540   3.381  13.692  0.6720  0.7800 -0.4925
  846MPD2    C312429   4.602   3.360  13.812  0.3814  0.1108 -0.2207
  846MPD2    C412430   4.712   3.283  13.812  0.7853  0.2449  0.7886
  846MPD2    C512431   0.026   3.229  13.691 -0.0376 -0.0521 -0.1573
  846MPD2     H12432   4.450   3.441  13.685 -0.0229 -0.1427  0.6968
  846MPD2    H112433   0.053   3.254  13.893  0.7384  0.6067  0.9581
  846MPD2    H212434   0.012   3.196  13.483 -2.6436 -2.1253 -0.7753
  846MPD2    H312435   0.119   3.176  13.708  1.8273  2.4870 -2.4680
  846MPD2     N12436   4.536   3.398  13.934 -0.6754  0.0269  0.0184
  846MPD2    H512437   4.444   3.441  13.923 -1.5092 -1.3432  1.6204
  846MPD2    N112438   4.519   3.363  13.450 -0.1219  0.2680  0.0799
  846MPD2    H712439   4.466   3.449  13.457 -2.0483 -0.8939 -0.1732
  847MPD2     C12440   4.399   4.607  13.788  0.1478 -0.9380 -0.5745
  847MPD2    C112441   4.413   4.478  13.841  0.1463  0.6281 -0.1345
  847MPD2    C212442   4.383   4.377  13.756 -0.4635  0.6809  0.4833
  847MPD2    C312443   4.364   4.400  13.622 -0.2099  0.3323 -0.0592
  847MPD2    C412444   4.364   4.519  13.572 -0.5552 -0.3662 -0.3313
  847MPD2    C512445   4.374   4.626  13.652  0.1459 -0.0712 -0.3060
  847MPD2     H12446   4.398   4.280  13.801 -1.3569 -0.0479 -0.8218
  847MPD2    H112447   4.337   4.540  13.470 -1.6063  0.6635  0.1493
  847MPD2    H212448   4.421   4.695  13.847  1.6257 -0.7000 -1.4782
  847MPD2    H312449   4.367   0.004  13.619 -0.1932 -0.6593 -2.0597
  847MPD2     N12450   4.353   4.293  13.537 -0.0971  0.4442 -0.7583
  847MPD2    H512451   4.368   4.311  13.439  0.2830 -0.1495 -0.8130
  847MPD2    N112452   4.459   4.446  13.972 -0.6568  0.3146 -0.5447
  847MPD2    H712453   4.446   4.349  13.999  2.4968  0.5089  1.6740
  848MPD2     C12454   2.301   2.785  16.275 -0.4219 -0.4421  0.2058
  848MPD2    C112455   2.309   2.880  16.374  0.3953 -0.0274 -0.5800
  848MPD2    C212456   2.346   3.007  16.346 -0.1532  0.0721  0.2988
  848MPD2    C312457   2.393   3.042  16.219 -0.5307  0.0735  0.3675
  848MPD2    C412458   2.382   2.946  16.125 -0.3103  0.1362 -0.3521
  848MPD2    C512459   2.338   2.817  16.152  0.3134  0.8246  0.0789
  848MPD2     H12460   2.334   3.087  16.419 -3.1371  1.5463 -1.8215
  848MPD2    H112461   2.422   2.959  16.025  0.5848 -2.2413 -0.3092
  848MPD2    H212462   2.273   2.681  16.290 -0.5722 -0.4324 -0.0089
  848MPD2    H312463   2.338   2.742  16.073 -0.2504 -0.0293  0.8898
  848MPD2     N12464   2.438   3.166  16.184 -0.0276 -0.8316 -0.0658
  848MPD2    H512465   2.462   3.176  16.086 -0.5677 -1.9259 -0.3078
  848MPD2    N112466   2.286   2.843  16.504  0.3463  0.1508 -0.1580
  848MPD2    H712467   2.320   2.904  16.578 -0.9495 -0.9125  1.3380
  849MPD2     C12468   1.999   2.005  15.194  1.3894 -0.9955 -0.2587
  849MPD2    C112469   1.987   1.975  15.060 -0.3836 -0.0897 -0.5467
  849MPD2    C212470   2.088   2.023  14.973 -0.3220 -0.2903 -0.0831
  849MPD2    C312471   2.200   2.088  15.026  0.4003  0.3857  1.0524
  849MPD2    C412472   2.206   2.113  15.156  0.1643 -0.5570 -0.8496
  849MPD2    C512473   2.112   2.076  15.242 -0.1036 -0.0095 -0.3488
  849MPD2     H12474   2.079   1.990  14.870 -0.6592 -1.0381  0.1848
  849MPD2    H112475   2.297   2.153  15.199  0.3694 -2.2123  0.2623
  849MPD2    H212476   1.923   1.961  15.257  0.9813 -0.2532 -0.2320
  849MPD2    H312477   2.134   2.081  15.348 -1.4769  0.8623 -0.1010
  849MPD2     N12478   2.299   2.158  14.948 -0.0189 -0.6127 -0.7676
  849MPD2    H512479   2.367   2.211  15.001 -0.8956 -1.6324  1.3754
  849MPD2    N112480   1.863   1.909  15.028 -0.2437  0.1594  0.2210
  849MPD2    H712481   1.792   1.886  15.097  0.7649  0.9065  1.5267
  850MPD2     C12482   4.349   0.695  15.239 -0.3781  0.3586  0.0483
  850MPD2    C112483   4.412   0.620  15.328  0.3712 -0.2565  0.1144
  850MPD2    C212484   4.550   0.629  15.333 -0.0599 -0.0703  0.0419
  850MPD2    C312485   4.616   0.726  15.267 -0.3646  0.5283  0.4056
  850MPD2    C412486   4.547   0.818  15.199  0.3070 -0.3537 -0.1605
  850MPD2    C512487   4.417   0.801  15.180  0.2539 -0.4149  0.0449
  850MPD2     H12488   4.603   0.557  15.395 -0.6573 -0.3223  0.2634
  850MPD2    H112489   4.591   0.909  15.160 -0.1996 -0.1778 -0.3261
  850MPD2    H212490   4.244   0.694  15.211 -0.9060 -1.0247  2.0871
  850MPD2    H312491   4.370   0.869  15.109 -1.9504 -1.4941  0.4684
  850MPD2     N12492   0.029   0.732  15.269 -0.0538 -0.9196  0.3519
  850MPD2    H512493   0.079   0.815  15.239  1.1393 -1.4641  0.8447
  850MPD2    N112494   4.342   0.528  15.405 -0.2711  0.4991  0.2094
  850MPD2    H712495   4.403   0.475  15.467  0.1875 -1.6305 -2.0463
  851MPD2     C12496   0.100   0.659  15.694 -0.6367 -0.1126 -0.6445
  851MPD2    C112497   0.025   0.540  15.692  0.1577 -0.6819 -0.2308
  851MPD2    C212498   0.089   0.422  15.647 -0.7458  0.6029  0.0092
  851MPD2    C312499   0.229   0.422  15.605 -0.5685  0.0788 -0.9089
  851MPD2    C412500   0.303   0.540  15.614  0.3076 -0.4475 -0.4779
  851MPD2    C512501   0.236   0.656  15.652  0.4176  0.4295  0.5437
  851MPD2     H12502   0.035   0.328  15.650  0.6960 -0.1996  0.9109
  851MPD2    H112503   0.410   0.543  15.598  0.4437  1.5464  0.8531
  851MPD2    H212504   0.062   0.754  15.730 -0.6414 -0.6137  0.6958
  851MPD2    H312505   0.292   0.749  15.652 -1.5767  1.6290  0.0591
  851MPD2     N12506   0.290   0.300  15.557  0.2256  0.6934  0.3871
  851MPD2    H512507   0.224   0.223  15.554  0.4224  0.5346  0.1177
  851MPD2    N112508   4.616   0.545  15.735  0.0056 -0.1722  0.3515
  851MPD2    H712509   4.586   0.626  15.788 -1.6102  0.1597 -1.0733
  852MPD2     C12510   3.543   2.528   9.635 -0.0249  0.5283 -0.0821
  852MPD2    C112511   3.595   2.576   9.755 -0.1040  0.2827  0.2807
  852MPD2    C212512   3.646   2.704   9.751 -0.5775 -1.0371 -0.2827
  852MPD2    C312513   3.649   2.787   9.636  0.6729  0.2571 -0.1167
  852MPD2    C412514   3.598   2.733   9.523  0.2961  0.0734 -0.1285
  852MPD2    C512515   3.541   2.606   9.523  0.5140 -0.1264 -0.5551
  852MPD2     H12516   3.685   2.741   9.845  1.3176 -2.7583 -0.3983
  852MPD2    H112517   3.608   2.789   9.431  0.6987 -0.4586 -0.4125
  852MPD2    H212518   3.502   2.427   9.631  1.1389  0.0276  0.9099
  852MPD2    H312519   3.514   2.559   9.429 -2.0281 -0.5484  0.3744
  852MPD2     N12520   3.723   2.909   9.639  0.4586 -0.0021 -0.5099
  852MPD2    H512521   3.773   2.922   9.727  2.4192  0.3188 -1.6623
  852MPD2    N112522   3.622   2.506   9.875  0.6466  0.0521 -0.8712
  852MPD2    H712523   3.671   2.563   9.942 -0.2993 -0.2941  0.1164
  853MPD2     C12524   1.817   2.307  12.433  0.1200 -0.2184  0.0676
  853MPD2    C112525   1.795   2.429  12.375 -0.0229  0.2733 -0.3111
  853MPD2    C212526   1.793   2.436  12.244  0.9592 -0.2707  0.1052
  853MPD2    C312527   1.823   2.334  12.166 -0.2294  0.7032 -0.4380
  853MPD2    C412528   1.841   2.208  12.218  0.5530 -0.4340  0.2452
  853MPD2    C512529   1.830   2.196  12.353  0.4257 -0.2359 -0.1930
  853MPD2     H12530   1.755   2.527  12.200  0.5642  0.6366  2.2934
  853MPD2    H112531   1.867   2.124  12.154 -1.7228 -1.3153  0.4870
  853MPD2    H212532   1.818   2.294  12.540  1.5289  3.6731  0.5254
  853MPD2    H312533   1.844   2.096  12.393  0.3507  0.8859  2.5656
  853MPD2     N12534   1.830   2.356  12.028  0.6448  0.0023  0.1662
  853MPD2    H512535   1.855   2.269  11.983 -1.0417 -0.7145  0.6406
  853MPD2    N112536   1.768   2.538  12.465  0.3213  0.1347 -0.1989
  853MPD2    H712537   1.779   2.524  12.565 -1.0368 -0.7786 -0.1663
  854MPD2     C12538   3.375   2.542  12.902  0.1322 -1.4004  0.0514
  854MPD2    C112539   3.473   2.628  12.867 -0.1281  0.1345 -0.5054
  854MPD2    C212540   3.606   2.603  12.901 -0.0716 -0.0122  0.0465
  854MPD2    C312541   3.636   2.502  12.994  0.4067 -0.5741  0.0569
  854MPD2    C412542   3.537   2.423  13.040  0.1679 -0.5275  0.0796
  854MPD2    C512543   3.413   2.435  12.984  0.4996  0.6573 -0.6044
  854MPD2     H12544   3.686   2.670  12.871  2.1531 -1.8597  1.8542
  854MPD2    H112545   3.556   2.334  13.099 -0.7920 -0.4636  0.4947
  854MPD2    H212546   3.267   2.544  12.888  0.1677  0.6280  0.1237
  854MPD2    H312547   3.332   2.371  13.017  1.5027  0.2074  0.9637
  854MPD2     N12548   3.762   2.486  13.049  0.6229  0.0535 -0.1420
  854MPD2    H512549   3.786   2.422  13.124 -0.1534  0.9599  0.8819
  854MPD2    N112550   3.428   2.751  12.802 -0.0364 -0.3272 -0.4165
  854MPD2    H712551   3.331   2.752  12.774  0.5673 -0.3484 -2.5096
  855MPD2     C12552   4.344   2.707  13.814 -1.0947 -0.2131  0.4402
  855MPD2    C112553   4.232   2.619  13.797  0.1040 -0.2374  1.0825
  855MPD2    C212554   4.196   2.573  13.667 -0.2366  0.1418 -0.3678
  855MPD2    C312555   4.281   2.598  13.559 -0.1226 -0.0244  0.5158
  855MPD2    C412556   4.387   2.672  13.578  0.9061  0.2415  0.0252
  855MPD2    C512557   4.420   2.733  13.700  0.7478 -0.1717  0.2061
  855MPD2     H12558   4.101   2.522  13.656 -1.0190  1.8163 -1.3924
  855MPD2    H112559   4.452   2.702  13.496 -0.4931 -0.7700 -1.4631
  855MPD2    H212560   4.374   2.756  13.906 -0.9158  1.2315 -0.3875
  855MPD2    H312561   4.503   2.802  13.705  0.5088 -0.0045  1.7876
  855MPD2     N12562   4.254   2.551  13.429 -0.5745  0.1120 -0.2727
  855MPD2    H512563   4.321   2.567  13.354 -0.4673  0.1054 -0.1794
  855MPD2    N112564   4.140   2.594  13.904  0.3554  0.1423  0.5089
  855MPD2    H712565   4.077   2.516  13.888  0.7350 -0.0027 -0.3155
  856MPD2     C12566   0.620   3.746  14.346 -0.1207  0.1786 -0.6163
  856MPD2    C112567   0.712   3.820  14.276  0.0061 -0.2114  0.0458
  856MPD2    C212568   0.666   3.935  14.208 -0.4685  0.3232  0.0363
  856MPD2    C312569   0.534   3.981  14.220 -0.8054 -0.5805  0.1085
  856MPD2    C412570   0.448   3.906  14.302  0.1559  0.1004 -0.2237
  856MPD2    C512571   0.496   3.795  14.367  0.2677  0.4047 -0.1008
  856MPD2     H12572   0.744   3.992  14.159 -0.5269 -2.4074 -3.2187
  856MPD2    H112573   0.343   3.929  14.309  0.1660  0.1374 -0.1966
  856MPD2    H212574   0.650   3.662  14.407 -2.8355  0.9332  1.7610
  856MPD2    H312575   0.428   3.742  14.433  1.2943 -2.2388 -1.1584
  856MPD2     N12576   0.476   4.084  14.151  0.1350 -0.6717  0.1763
  856MPD2    H512577   0.379   4.108  14.164  0.8413  2.0141  0.5910
  856MPD2    N112578   0.847   3.785  14.270  0.4505  0.4746 -0.4463
  856MPD2    H712579   0.914   3.856  14.242  0.5562  0.2469 -0.7729
  857MPD2     C12580   2.592   0.901  12.919 -0.4257 -0.1935  0.6957
  857MPD2    C112581   2.607   0.831  13.036 -0.5336 -0.3377  0.0080
  857MPD2    C212582   2.633   0.914  13.144  0.4259  0.6008  0.1044
  857MPD2    C312583   2.642   1.052  13.149  0.2691  0.5044  0.0615
  857MPD2    C412584   2.616   1.117  13.031 -0.1379  0.5691 -0.2236
  857MPD2    C512585   2.596   1.036  12.916  0.4188  0.2275 -0.1447
  857MPD2     H12586   2.639   0.857  13.236  1.1731 -2.1271 -1.6644
  857MPD2    H112587   2.609   1.224  13.014  1.1306  0.5156 -1.0084
  857MPD2    H212588   2.575   0.847  12.827 -0.9868 -0.5555  1.0125
  857MPD2    H312589   2.590   1.090  12.822 -0.4237  2.9432  1.4606
  857MPD2     N12590   2.668   1.118  13.272 -0.8223  0.0726  0.0336
  857MPD2    H512591   2.707   1.064  13.348  1.8282  0.6101 -0.9061
  857MPD2    N112592   2.609   0.686  13.033 -0.3749 -1.1773 -0.2281
  857MPD2    H712593   2.619   0.643  13.124 -0.8292 -0.7803  0.0103
  858MPD2     C12594   2.923   0.291  17.054  0.6901  0.5991  0.5438
  858MPD2    C112595   3.035   0.338  16.982 -0.4625  0.1869 -0.2779
  858MPD2    C212596   3.101   0.449  17.029 -0.7570  0.0961  0.7295
  858MPD2    C312597   3.052   0.519  17.141  0.5574  0.4266 -0.7942
  858MPD2    C412598   2.943   0.470  17.208  0.3285  0.5221 -0.4389
  858MPD2    C512599   2.880   0.358  17.168  0.1984 -0.4546 -0.4680
  858MPD2     H12600   3.190   0.485  16.979 -0.4372 -3.2198 -1.0769
  858MPD2    H112601   2.893   0.522  17.290 -0.7900 -0.5073 -0.4491
  858MPD2    H212602   2.868   0.207  17.014  2.0630 -1.1349  2.3187
  858MPD2    H312603   2.787   0.329  17.216  0.3295  0.2038  0.1879
  858MPD2     N12604   3.101   0.646  17.182  0.0370 -0.4048  0.1833
  858MPD2    H512605   3.049   0.695  17.254  0.2853 -0.5034  0.4285
  858MPD2    N112606   3.074   0.259  16.874 -0.2420  0.2725  0.0306
  858MPD2    H712607   3.011   0.180  16.862 -1.3149  0.8300  1.9055
  859MPD2     C12608   2.179   2.722  15.677 -0.1937  0.5252  0.0093
  859MPD2    C112609   2.078   2.677  15.590 -0.1621  0.7948  0.2261
  859MPD2    C212610   2.021   2.559  15.612 -0.0952 -0.8537 -0.0769
  859MPD2    C312611   2.066   2.479  15.718 -0.9738  0.5035  0.3880
  859MPD2    C412612   2.151   2.535  15.813  0.2846 -0.6050 -0.0788
  859MPD2    C512613   2.217   2.654  15.789  0.5895  0.3857  0.1130
  859MPD2     H12614   1.958   2.508  15.540 -1.4695  0.6323  0.0862
  859MPD2    H112615   2.178   2.476  15.899  1.3205 -1.4218 -0.9552
  859MPD2    H212616   2.223   2.820  15.661 -0.0811  0.0974 -2.2743
  859MPD2    H312617   2.280   2.700  15.864 -0.1666 -0.7159  1.4097
  859MPD2     N12618   2.021   2.346  15.741  0.4547 -0.1080 -0.6721
  859MPD2    H512619   2.030   2.302  15.832  1.5414 -2.5999 -1.9777
  859MPD2    N112620   2.063   2.754  15.475  0.1931  0.4742 -0.5220
  859MPD2    H712621   2.144   2.811  15.453 -0.5586  0.2039 -4.0503
  860MPD2     C12622   4.555   2.081  11.474  0.0338 -0.5153  0.0224
  860MPD2    C112623   4.547   2.189  11.563 -0.2996 -0.4240 -0.2596
  860MPD2    C212624   4.457   2.182  11.666  0.3713 -0.1060  0.1368
  860MPD2    C312625   4.365   2.075  11.674  0.3092 -0.0437 -0.4169
  860MPD2    C412626   4.368   1.976  11.579 -0.1342  0.8641  0.4901
  860MPD2    C512627   4.460   1.978  11.477 -0.0722  0.4144  0.2620
  860MPD2     H12628   4.461   2.255  11.746  0.1269 -0.5034  0.5135
  860MPD2    H112629   4.307   1.887  11.588 -0.5741  1.0100 -1.0148
  860MPD2    H212630   4.622   2.077  11.389 -0.9351 -1.4286 -0.6941
  860MPD2    H312631   4.466   1.894  11.409 -3.7699  1.2998 -1.1452
  860MPD2     N12632   4.265   2.063  11.772  0.2779  0.8062 -0.0405
  860MPD2    H512633   4.212   1.977  11.783  0.1626  0.8065 -0.5845
  860MPD2    N112634   4.618   2.312  11.555  1.1446 -0.0425 -0.1998
  860MPD2    H712635   4.589   2.392  11.610  0.7254 -2.2467  2.7961
  861MPD2     C12636   2.610   0.415  11.575  0.6993 -0.5090 -0.5575
  861MPD2    C112637   2.703   0.510  11.533  0.1550 -0.3268 -0.3939
  861MPD2    C212638   2.658   0.603  11.438 -0.6314 -0.1752 -0.0371
  861MPD2    C312639   2.530   0.589  11.384  0.0625  0.2173 -0.1237
  861MPD2    C412640   2.446   0.490  11.423 -0.9995 -0.2265 -0.2005
  861MPD2    C512641   2.485   0.409  11.523 -0.5000 -0.7981 -0.0038
  861MPD2     H12642   2.717   0.692  11.420  0.2453 -0.6935  0.2466
  861MPD2    H112643   2.356   0.479  11.365 -0.6398  1.4552 -1.0791
  861MPD2    H212644   2.644   0.339  11.645  0.6202 -1.4501 -1.5382
  861MPD2    H312645   2.428   0.323  11.555  0.2120 -2.4262 -3.0860
  861MPD2     N12646   2.478   0.663  11.271  0.6664 -0.4884 -0.9195
  861MPD2    H512647   2.385   0.637  11.240  0.4522 -0.3929 -0.3552
  861MPD2    N112648   2.832   0.527  11.595 -0.2194 -0.4583 -0.5585
  861MPD2    H712649   2.887   0.611  11.577  1.1047 -1.2631 -0.3110
  862MPD2     C12650   2.452   0.593  10.558 -0.5845  0.1175 -0.3924
  862MPD2    C112651   2.543   0.572  10.658  0.1630  0.5561  0.1723
  862MPD2    C212652   2.601   0.449  10.672 -0.2130  0.3534 -0.0233
  862MPD2    C312653   2.564   0.353  10.577 -0.8974 -0.5414  0.0070
  862MPD2    C412654   2.480   0.379  10.471  0.5579  0.1935 -0.4772
  862MPD2    C512655   2.417   0.498  10.461  0.1558 -0.2912  0.1026
  862MPD2     H12656   2.663   0.421  10.756  0.4203  0.7074 -0.3758
  862MPD2    H112657   2.451   0.300  10.403 -0.4121 -1.3319  1.7246
  862MPD2    H212658   2.404   0.690  10.546 -0.7180  0.0109 -0.7254
  862MPD2    H312659   2.345   0.518  10.382  0.1482  0.1199  0.2098
  862MPD2     N12660   2.613   0.221  10.584  0.1677 -0.1827 -0.2399
  862MPD2    H512661   2.584   0.159  10.509  0.4701 -0.8385  0.1827
  862MPD2    N112662   2.559   0.667  10.758 -0.5750  1.0769  0.5980
  862MPD2    H712663   2.610   0.639  10.841  2.4391 -1.2005 -2.0655
  863MPD2     C12664   1.775   4.044  16.744 -0.4664  0.1637 -0.2499
  863MPD2    C112665   1.677   4.053  16.842 -0.6027  0.5654  0.0771
  863MPD2    C212666   1.705   4.058  16.972 -0.0411 -0.2205 -0.5431
  863MPD2    C312667   1.837   4.048  17.011  0.2278  0.0755  0.3805
  863MPD2    C412668   1.937   4.043  16.920 -0.0117 -0.9764  1.0658
  863MPD2    C512669   1.912   4.040  16.783 -0.1276  0.0568  0.1403
  863MPD2     H12670   1.625   4.072  17.044 -0.5422  1.2829 -1.3926
  863MPD2    H112671   2.041   4.042  16.950 -0.7908  0.7664  3.9070
  863MPD2    H212672   1.751   4.028  16.640 -0.8295  0.6145 -0.2344
  863MPD2    H312673   1.993   4.043  16.711 -0.2132  1.8258  0.1139
  863MPD2     N12674   1.854   4.060  17.149  0.0133 -0.1038 -0.4519
  863MPD2    H512675   1.773   4.032  17.204  1.6638  0.6735  2.3747
  863MPD2    N112676   1.551   4.070  16.795  0.0566  0.0986 -0.3361
  863MPD2    H712677   1.543   4.057  16.694  0.4327  1.4753 -0.5375
  864MPD2     C12678   2.332   0.437  17.469  0.4507  0.6142 -0.0136
  864MPD2    C112679   2.226   0.458  17.383  0.8912  0.7602  0.0780
  864MPD2    C212680   2.213   0.583  17.324  0.3849  0.0966  0.5999
  864MPD2    C312681   2.296   0.685  17.357 -0.2233  0.4400 -0.2690
  864MPD2    C412682   2.392   0.662  17.450 -0.5280 -0.2491  0.8192
  864MPD2    C512683   2.421   0.537  17.495  0.4251  0.7222 -0.0899
  864MPD2     H12684   2.139   0.600  17.246  3.4716 -1.3487 -2.6434
  864MPD2    H112685   2.456   0.745  17.477  0.4016 -1.8889  3.6877
  864MPD2    H212686   2.346   0.335  17.504 -2.3937 -0.4108 -1.8118
  864MPD2    H312687   2.512   0.513  17.549 -0.4263 -2.8380 -0.2816
  864MPD2     N12688   2.302   0.809  17.286 -0.3487 -0.5703 -0.1207
  864MPD2    H512689   2.369   0.879  17.318 -0.4832 -1.1047  1.3427
  864MPD2    N112690   2.148   0.345  17.346  0.6641 -0.5019  0.0767
  864MPD2    H712691   2.173   0.258  17.390 -0.5344 -0.0216  1.7101
  865MPD2     C12692   2.239   1.106  16.280 -0.5202  0.2291  0.6861
  865MPD2    C112693   2.223   0.998  16.367  0.9512  0.1925 -0.1285
  865MPD2    C212694   2.242   1.030  16.497 -0.3674  0.1841  0.8909
  865MPD2    C312695   2.252   1.161  16.545 -0.1275  0.1516 -0.4150
  865MPD2    C412696   2.259   1.269  16.457 -0.1054  0.1087 -0.2615
  865MPD2    C512697   2.250   1.237  16.326 -0.3221  0.2109 -0.2880
  865MPD2     H12698   2.254   0.952  16.572 -1.2767 -0.3739  0.4676
  865MPD2    H112699   2.271   1.370  16.493 -1.1180 -0.4420  1.6050
  865MPD2    H212700   2.245   1.082  16.175  0.2418 -1.3195  1.0813
  865MPD2    H312701   2.274   1.317  16.256  0.5345  0.2260  0.0264
  865MPD2     N12702   2.263   1.183  16.684 -0.3709 -0.1959 -0.0772
  865MPD2    H512703   2.302   1.272  16.714 -0.2910  0.4604 -2.1088
  865MPD2    N112704   2.235   0.865  16.309 -0.7414  0.6886  0.1497
  865MPD2    H712705   2.220   0.846  16.210 -2.7784 -1.0219  0.7933
  866MPD2     C12706   3.569   0.316  10.928 -0.4963 -0.5007  0.0098
  866MPD2    C112707   3.603   0.391  11.034  0.5703 -0.5697 -0.2487
  866MPD2    C212708   3.508   0.470  11.087  0.7344  0.0103  0.1783
  866MPD2    C312709   3.382   0.487  11.025 -0.6253 -0.0090 -0.5993
  866MPD2    C412710   3.355   0.407  10.920  0.5163 -0.6482 -0.2570
  866MPD2    C512711   3.443   0.326  10.862 -0.6621  0.4512  0.2740
  866MPD2     H12712   3.530   0.529  11.175 -0.8271  1.6094 -0.5074
  866MPD2    H112713   3.267   0.430  10.861  0.5770  1.3801  0.4528
  866MPD2    H212714   3.652   0.261  10.884 -1.3039 -2.3733  0.8211
  866MPD2    H312715   3.418   0.272  10.771  0.5471  0.8493 -0.2950
  866MPD2     N12716   3.279   0.573  11.068  1.1682 -0.6791  0.0874
  866MPD2    H512717   3.188   0.556  11.027  1.6122 -0.7254 -0.9025
  866MPD2    N112718   3.738   0.397  11.081  0.2766  0.6052 -0.8174
  866MPD2    H712719   3.805   0.342  11.028 -1.3995 -0.1248 -2.2078
  867MPD2     C12720   1.097   0.450  16.675  0.2099 -0.9575 -0.8595
  867MPD2    C112721   1.172   0.482  16.783 -0.4466  0.2625  0.6561
  867MPD2    C212722   1.178   0.612  16.824 -0.3244 -0.2571 -0.1096
  867MPD2    C312723   1.120   0.713  16.752  0.4630  0.3292  0.3246
  867MPD2    C412724   1.039   0.684  16.641 -0.5325 -0.1609 -0.1930
  867MPD2    C512725   1.045   0.550  16.591 -0.3613  1.0556 -0.7301
  867MPD2     H12726   1.245   0.649  16.900 -0.1685 -1.3342  0.2740
  867MPD2    H112727   0.989   0.758  16.580 -0.2362  0.1800 -0.0229
  867MPD2    H212728   1.094   0.347  16.640  1.2157 -0.8577 -1.2484
  867MPD2    H312729   0.982   0.524  16.507  1.0920  0.3566 -1.5933
  867MPD2     N12730   1.120   0.846  16.795 -0.3687  0.4185  0.4919
  867MPD2    H512731   1.093   0.916  16.727 -0.2847 -0.6232 -0.6092
  867MPD2    N112732   1.228   0.371  16.841  0.1177 -0.1312  0.0832
  867MPD2    H712733   1.183   0.284  16.818  1.4916 -0.3462 -1.7598
  868MPD2     C12734   2.542   3.467  13.186 -0.1183  0.3975 -0.7268
  868MPD2    C112735   2.558   3.591  13.128 -0.8139  0.6471 -0.1571
  868MPD2    C212736   2.447   3.670  13.105 -0.3223  0.4386  0.2531
  868MPD2    C312737   2.324   3.641  13.165 -0.2290  0.1195 -0.9776
  868MPD2    C412738   2.318   3.524  13.236 -0.3322 -0.6766 -0.5824
  868MPD2    C512739   2.421   3.432  13.239 -0.4823 -0.5269  0.2596
  868MPD2     H12740   2.452   3.767  13.057  1.9651  0.7410  1.0808
  868MPD2    H112741   2.229   3.498  13.291  0.5752 -1.9293  0.2906
  868MPD2    H212742   2.623   3.401  13.214  0.4368  1.2434 -0.3496
  868MPD2    H312743   2.407   3.335  13.284  1.5205 -0.5281  0.8572
  868MPD2     N12744   2.222   3.741  13.156 -0.0815 -0.3667  0.5570
  868MPD2    H512745   2.250   3.838  13.145 -2.8476  0.4716  0.8423
  868MPD2    N112746   2.691   3.629  13.095 -0.2168 -0.1702  0.3936
  868MPD2    H712747   2.757   3.565  13.139 -1.7467  0.1109  3.1129
  869MPD2     C12748   4.655   1.945   1.523  0.2464  0.3516  0.2578
  869MPD2    C112749   4.517   1.925   1.553 -0.2804  0.0830 -0.1372
  869MPD2    C212750   4.427   2.025   1.518  0.3315  0.2178 -0.6683
  869MPD2    C312751   4.465   2.130   1.434 -0.3356  0.7090 -0.0397
  869MPD2    C412752   4.599   2.133   1.392 -0.0443  0.6427  0.0816
  869MPD2    C512753   4.688   2.045   1.431  0.2758  0.5664 -0.6421
  869MPD2     H12754   4.322   2.004   1.536  1.3754 -1.5662  3.1716
  869MPD2    H112755   4.632   2.205   1.318 -0.5721  0.5886 -0.2125
  869MPD2    H212756   0.005   1.873   1.556  0.9097 -0.2304 -2.5621
  869MPD2    H312757   0.066   2.050   1.398  0.1662  0.7702 -0.9557
  869MPD2     N12758   4.380   2.223   1.381 -0.7843  0.0117 -0.2870
  869MPD2    H512759   4.414   2.287   1.310 -1.1092  0.9954  0.4524
  869MPD2    N112760   4.486   1.816   1.638  0.8346 -0.2902 -0.2740
  869MPD2    H712761   4.565   1.755   1.655  0.6939 -0.3423  0.1886
  870MPD2     C12762   3.021   1.394   1.680  0.5748  0.3601  0.6406
  870MPD2    C112763   3.138   1.414   1.611 -1.1082  0.7394  0.3256
  870MPD2    C212764   3.132   1.504   1.496  0.6103  0.1742 -0.2776
  870MPD2    C312765   3.021   1.584   1.482 -0.5477 -0.7307  0.4605
  870MPD2    C412766   2.912   1.564   1.558  0.5579 -0.1851  0.0514
  870MPD2    C512767   2.911   1.469   1.652  0.4399  0.0256  0.0092
  870MPD2     H12768   3.219   1.508   1.431 -2.1201  0.8540 -3.8948
  870MPD2    H112769   2.818   1.617   1.560  0.2471 -0.7272 -0.2439
  870MPD2    H212770   3.012   1.312   1.750  1.0826  0.9393  1.3860
  870MPD2    H312771   2.820   1.458   1.710 -0.0806  0.8236 -0.6647
  870MPD2     N12772   3.020   1.692   1.389 -0.2768 -0.7075  0.2611
  870MPD2    H512773   3.097   1.702   1.323 -0.4983 -1.4391 -0.1115
  870MPD2    N112774   3.249   1.334   1.646  0.0716 -0.2577 -0.1272
  870MPD2    H712775   3.235   1.274   1.727  1.6285  0.3715  0.6226
  871MPD2     C12776   0.211   0.768  16.557  0.0393  0.2151 -0.4430
  871MPD2    C112777   0.118   0.680  16.605 -0.5081 -0.2823 -0.2420
  871MPD2    C212778   0.109   0.551  16.550 -0.3348  0.7400  0.7252
  871MPD2    C312779   0.205   0.507  16.462  0.3683  0.0582  0.3346
  871MPD2    C412780   0.303   0.599  16.412  0.6594 -0.0162  0.4706
  871MPD2    C512781   0.299   0.726  16.461  0.3171 -0.5353  0.2221
  871MPD2     H12782   0.032   0.479  16.576 -1.8229  2.3332  0.6496
  871MPD2    H112783   0.380   0.572  16.340  1.1869  1.0496  0.6472
  871MPD2    H212784   0.217   0.872  16.585 -0.1260 -0.5702  2.5311
  871MPD2    H312785   0.372   0.795  16.421  0.3338 -0.8420 -0.2753
  871MPD2     N12786   0.206   0.371  16.414 -0.3480 -0.2668 -0.4608
  871MPD2    H512787   0.174   0.304  16.483 -0.9544  0.0420 -0.4416
  871MPD2    N112788   0.035   0.723  16.717 -0.3378  0.2154  0.3655
  871MPD2    H712789   0.065   0.811  16.758  0.5152 -0.4117  1.0895
  872MPD2     C12790   0.783   2.821  13.787 -0.1307  0.3899 -0.9026
  872MPD2    C112791   0.800   2.933  13.866  0.9919  0.3144  0.5073
  872MPD2    C212792   0.692   2.996  13.918  0.1360  0.3043  0.2140
  872MPD2    C312793   0.566   2.956  13.879  0.4383  0.3017 -0.3901
  872MPD2    C412794   0.552   2.848  13.791  0.6073  0.5366 -0.3880
  872MPD2    C512795   0.661   2.777  13.749 -1.1734  0.0480 -0.4792
  872MPD2     H12796   0.703   3.086  13.977  0.9943  1.2210 -1.3207
  872MPD2    H112797   0.453   2.819  13.756  0.2153  0.9979  0.3176
  872MPD2    H212798   0.866   2.764  13.747  0.0377  1.4051 -2.0026
  872MPD2    H312799   0.652   2.684  13.695 -2.8650  0.0979 -0.2695
  872MPD2     N12800   0.448   3.024  13.937  0.0516  0.1093  0.3213
  872MPD2    H512801   0.478   3.100  13.997 -0.2373 -0.7607  1.5653
  872MPD2    N112802   0.931   2.987  13.883 -0.4302  0.5594  0.0986
  872MPD2    H712803   0.928   3.060  13.953  0.1575 -0.5312  1.2612
  873MPD2     C12804   2.482   2.932   0.971 -0.2804  0.3417 -0.3089
  873MPD2    C112805   2.358   2.947   1.026 -0.0677  0.0004 -0.5382
  873MPD2    C212806   2.255   2.872   0.968 -0.1536  0.5605  0.0140
  873MPD2    C312807   2.274   2.808   0.844  0.2069  0.2084 -0.3933
  873MPD2    C412808   2.393   2.801   0.787 -0.7191 -0.4215  0.0752
  873MPD2    C512809   2.499   2.860   0.859  0.2250  0.7870  0.0577
  873MPD2     H12810   2.158   2.880   1.017  1.0504  2.3450  2.0765
  873MPD2    H112811   2.418   2.738   0.702 -1.7788 -1.6824  0.7041
  873MPD2    H212812   2.575   2.975   1.009  0.7176 -1.5741 -0.6064
  873MPD2    H312813   2.604   2.847   0.834 -0.4112 -0.5148 -1.8936
  873MPD2     N12814   2.170   2.734   0.781 -0.2503 -0.3203 -0.0175
  873MPD2    H512815   2.202   2.687   0.697  1.5857  0.6705  0.1277
  873MPD2    N112816   2.339   3.033   1.135 -0.7520 -0.8276  0.3515
  873MPD2    H712817   2.422   3.077   1.173 -0.4245  0.5914 -1.9996
  874MPD2     C12818   1.887   3.549  15.724  0.4381  0.4180 -0.0429
  874MPD2    C112819   1.888   3.456  15.821 -0.1306  0.0395 -1.0761
  874MPD2    C212820   1.993   3.462  15.914  0.1642  0.1667 -0.0012
  874MPD2    C312821   2.090   3.551  15.897 -0.0652  0.1020  0.0215
  874MPD2    C412822   2.082   3.645  15.796 -0.7460 -0.4621 -0.2936
  874MPD2    C512823   1.981   3.643  15.710  0.3207 -0.2473  0.3647
  874MPD2     H12824   1.989   3.401  16.004 -2.8931  0.3107 -0.0382
  874MPD2    H112825   2.163   3.713  15.770  0.9435 -2.7212 -0.9952
  874MPD2    H212826   1.798   3.560  15.663  0.1903  1.9846  0.6018
  874MPD2    H312827   1.988   3.716  15.631  0.5911  0.5423  1.1160
  874MPD2     N12828   2.201   3.540  15.982  0.3727 -0.3756  0.1224
  874MPD2    H512829   2.198   3.464  16.049 -1.5423 -0.5055 -0.1141
  874MPD2    N112830   1.783   3.362  15.821 -0.5004 -0.4485 -0.5801
  874MPD2    H712831   1.711   3.373  15.750 -0.2881 -0.1750 -0.7550
  875MPD2     C12832   3.338   1.760  14.845  0.3870  0.2032  0.4903
  875MPD2    C112833   3.211   1.769  14.888 -0.0807  0.3256  0.0856
  875MPD2    C212834   3.182   1.823  15.016  0.9239  0.9553 -0.1564
  875MPD2    C312835   3.284   1.847  15.097  0.4738 -0.4616 -1.0958
  875MPD2    C412836   3.412   1.851  15.049  0.0458 -0.5229  0.6741
  875MPD2    C512837   3.441   1.809  14.924  0.7163  0.0429 -0.1611
  875MPD2     H12838   3.081   1.829  15.052  0.0089 -1.6711 -2.2305
  875MPD2    H112839   3.499   1.870  15.110  0.4771 -3.7529  1.0722
  875MPD2    H212840   3.371   1.711  14.754 -1.1031 -0.1353  0.1379
  875MPD2    H312841   3.543   1.791  14.893 -0.0340 -3.1039 -0.8015
  875MPD2     N12842   3.265   1.887  15.234  0.6415 -0.0698  0.4422
  875MPD2    H512843   3.344   1.902  15.295  1.5637  1.4790 -1.1330
  875MPD2    N112844   3.113   1.723  14.798  0.0275  0.6190 -0.9963
  875MPD2    H712845   3.142   1.672  14.715 -0.8803 -0.4613 -0.6573
  876MPD2     C12846   1.985   3.136  15.592  0.0850  0.5891 -0.0878
  876MPD2    C112847   2.081   3.125  15.693 -0.3747  0.3025 -0.0148
  876MPD2    C212848   2.071   3.027  15.789  0.0911  0.0493  0.4567
  876MPD2    C312849   1.955   2.944  15.781  0.2850  0.4457  0.2878
  876MPD2    C412850   1.874   2.943  15.671 -0.3145 -0.2857 -0.8425
  876MPD2    C512851   1.891   3.039  15.573 -0.7329 -0.0393  0.7100
  876MPD2     H12852   2.140   3.026  15.872  3.0243 -0.1362 -1.9685
  876MPD2    H112853   1.787   2.879  15.678  2.1270 -3.4860  0.3905
  876MPD2    H212854   1.999   3.211  15.515 -0.5238 -2.0799 -2.8033
  876MPD2    H312855   1.818   3.053  15.494  0.8915  1.1352 -0.6030
  876MPD2     N12856   1.930   2.858  15.894  0.3688  0.2349 -0.4392
  876MPD2    H512857   1.993   2.871  15.973 -1.1197  3.3485  0.2710
  876MPD2    N112858   2.184   3.222  15.681 -0.4697 -0.2720 -0.5995
  876MPD2    H712859   2.172   3.285  15.602 -0.9792 -0.3826 -0.6112
  877MPD2     C12860   2.094   3.321  15.203 -0.5472 -0.5795  0.5100
  877MPD2    C112861   2.211   3.394  15.185  0.1783 -0.2617 -0.1275
  877MPD2    C212862   2.267   3.406  15.057  0.5463 -0.2062  0.4398
  877MPD2    C312863   2.209   3.341  14.947 -0.4038  0.4274 -0.1086
  877MPD2    C412864   2.099   3.262  14.971  0.7046  0.1881  0.7375
  877MPD2    C512865   2.043   3.254  15.094  0.3367 -0.0201 -0.1119
  877MPD2     H12866   2.359   3.459  15.032  0.8519  0.0864  2.2135
  877MPD2    H112867   2.054   3.223  14.880  0.1890  1.2932  0.5139
  877MPD2    H212868   2.033   3.322  15.293  1.4477 -0.0828  1.8515
  877MPD2    H312869   1.950   3.204  15.116 -0.5610  2.8851  2.8019
  877MPD2     N12870   2.240   3.364  14.814  0.1160 -0.5103 -0.1382
  877MPD2    H512871   2.191   3.299  14.753  0.1746  0.1280 -0.8684
  877MPD2    N112872   2.281   3.446  15.294 -0.0074  0.9543 -0.4356
  877MPD2    H712873   2.373   3.481  15.268  0.0216 -0.6074 -2.4942
  878MPD2     C12874   1.773   1.926  14.078 -0.2829  0.3791 -0.1242
  878MPD2    C112875   1.842   2.012  14.165  0.3336  0.3551 -0.7748
  878MPD2    C212876   1.805   1.997  14.297 -0.1228  0.7686 -0.0565
  878MPD2    C312877   1.693   1.921  14.340  0.4333  0.1746  0.1473
  878MPD2    C412878   1.622   1.855  14.241  0.4714 -0.2988  0.0094
  878MPD2    C512879   1.664   1.854  14.116  0.1086 -0.2872  0.0435
  878MPD2     H12880   1.852   2.049  14.379  0.3280 -1.4323  1.0687
  878MPD2    H112881   1.550   1.776  14.258  0.0345 -0.0943 -0.9188
  878MPD2    H212882   1.795   1.913  13.973 -1.6134  1.1329 -0.5019
  878MPD2    H312883   1.608   1.789  14.050 -0.6046 -0.0624  0.4222
  878MPD2     N12884   1.665   1.920  14.479 -0.0719 -0.0433 -0.4809
  878MPD2    H512885   1.734   1.960  14.542 -0.8252  1.3131 -0.5216
  878MPD2    N112886   1.952   2.083  14.116  0.1360  0.4672 -0.2187
  878MPD2    H712887   1.974   2.085  14.017 -1.9537 -0.5100 -0.6962
  879MPD2     C12888   2.592   4.372  17.343 -0.0047  0.2729  0.8453
  879MPD2    C112889   2.550   4.261  17.407  0.5938 -0.7172 -0.4443
  879MPD2    C212890   2.478   4.166  17.335 -0.0407 -0.2179  0.2775
  879MPD2    C312891   2.449   4.185  17.197  0.5083 -0.2188  0.2934
  879MPD2    C412892   2.497   4.299  17.135  0.2376  0.0056 -0.1928
  879MPD2    C512893   2.574   4.394  17.206  0.7585 -0.0014  0.2909
  879MPD2     H12894   2.437   4.083  17.392 -2.6000  0.7853 -0.1169
  879MPD2    H112895   2.486   4.320  17.029  1.4168 -0.4903 -0.4255
  879MPD2    H212896   2.653   4.450  17.386  1.6925 -0.0899 -0.8780
  879MPD2    H312897   2.631   4.472  17.157  1.4463  0.9238  2.5758
  879MPD2     N12898   2.385   4.088  17.120 -0.0027 -0.0290 -0.0843
  879MPD2    H512899   2.359   4.119  17.027 -0.6823  1.0130  0.4623
  879MPD2    N112900   2.578   4.254  17.551 -0.2174 -0.4165 -0.3788
  879MPD2    H712901   2.624   4.327  17.604  0.2048 -1.2879  0.4483
  880MPD2     C12902   3.922   0.971   0.542  0.7909 -0.6333  0.6522
  880MPD2    C112903   3.806   1.036   0.589  0.2564  0.2464  0.3806
  880MPD2    C212904   3.736   0.964   0.690  0.3798  1.2745 -0.1416
  880MPD2    C312905   3.757   0.833   0.736 -0.8423  0.7961  0.8265
  880MPD2    C412906   3.869   0.778   0.683  0.6960 -0.6556  0.4933
  880MPD2    C512907   3.947   0.843   0.587  0.2154 -0.4434  0.0544
  880MPD2     H12908   3.642   1.011   0.718  0.6340  1.0685  1.0572
  880MPD2    H112909   3.900   0.678   0.711 -1.7740 -1.7962 -0.9106
  880MPD2    H212910   3.997   1.007   0.472  0.5485 -3.2375 -0.9153
  880MPD2    H312911   4.029   0.790   0.541  1.1109  1.2139 -0.2653
  880MPD2     N12912   3.646   0.777   0.816 -0.3522  0.1809 -0.1581
  880MPD2    H512913   3.563   0.831   0.838  0.8893  1.1882  2.0203
  880MPD2    N112914   3.771   1.167   0.539 -0.0464 -0.2086 -0.1754
  880MPD2    H712915   3.830   1.208   0.468 -2.3407  1.1863 -1.2682
  881MPD2     C12916   3.859   1.846  17.530  0.1257  0.0804 -0.6818
  881MPD2    C112917   3.843   1.704  17.526  0.1121  0.3732  0.3480
  881MPD2    C212918   3.787   1.644  17.636 -0.3785  0.0245  0.3269
  881MPD2    C312919   3.764   1.723   0.051  0.2225  0.3889 -0.3051
  881MPD2    C412920   3.789   1.861   0.049 -0.4525  0.3647  1.1668
  881MPD2    C512921   3.828   1.924  17.639 -0.1927  0.3701 -0.2146
  881MPD2     H12922   3.768   1.538  17.636 -0.0921 -0.0313 -1.6672
  881MPD2    H112923   3.782   1.918   0.141 -2.3665  0.4645  0.9517
  881MPD2    H212924   3.888   1.898  17.440  2.1942 -2.7528 -1.6467
  881MPD2    H312925   3.846   2.030  17.626  0.9954  0.1184 -0.6934
  881MPD2     N12926   3.731   1.675   0.177  0.5952  0.1342 -0.1027
  881MPD2    H512927   3.706   1.744   0.248  0.9314 -0.1439  0.2874
  881MPD2    N112928   3.852   1.635  17.402  0.7077  0.7487 -0.0015
  881MPD2    H712929   3.881   1.688  17.320  0.5297  0.4754 -0.2415
  882MPD2     C12930   2.193   2.859  14.295  0.1524 -0.6605 -0.3845
  882MPD2    C112931   2.142   2.985  14.319  0.8614 -0.0007  0.1444
  882MPD2    C212932   2.005   3.001  14.301  0.4096 -0.0136  0.5917
  882MPD2    C312933   1.920   2.896  14.273 -0.6797 -0.6353 -0.1340
  882MPD2    C412934   1.966   2.771  14.252  0.3014  0.1216 -0.5072
  882MPD2    C512935   2.108   2.754  14.256  0.4386  0.9422  0.4722
  882MPD2     H12936   1.970   3.100  14.276 -0.7748 -0.2967  1.0973
  882MPD2    H112937   1.905   2.689  14.218 -0.9128  0.9365 -0.2798
  882MPD2    H212938   2.301   2.847  14.292  0.2004 -0.6508  0.9143
  882MPD2    H312939   2.154   2.660  14.228 -0.9147  0.4930 -0.2570
  882MPD2     N12940   1.777   2.913  14.263 -0.7300  0.7532  0.1653
  882MPD2    H512941   1.730   2.827  14.235  1.4563 -1.3080  2.8471
  882MPD2    N112942   2.231   3.093  14.365  0.6037  0.0305  0.5906
  882MPD2    H712943   2.330   3.071  14.370  1.3879  2.9813 -2.4957
  883MPD2     C12944   3.959   3.576  16.144  0.7799  0.1485  0.1004
  883MPD2    C112945   4.016   3.511  16.037  0.1998 -0.6486  0.4052
  883MPD2    C212946   4.150   3.481  16.047  0.3967 -0.1853 -0.5511
  883MPD2    C312947   4.222   3.505  16.163 -0.9102 -0.0231  0.0308
  883MPD2    C412948   4.160   3.560  16.267 -0.1758  0.7604  0.0605
  883MPD2    C512949   4.026   3.589  16.260 -0.1373 -0.0007  0.4657
  883MPD2     H12950   4.200   3.423  15.970  1.5231 -2.1716  1.6525
  883MPD2    H112951   4.213   3.575  16.361 -1.4389  0.5391  0.8175
  883MPD2    H212952   3.851   3.592  16.141  0.8824  1.0280  1.2535
  883MPD2    H312953   3.983   3.617  16.356 -1.0403  1.1843 -0.2914
  883MPD2     N12954   4.361   3.488  16.161 -0.4323 -0.6434 -0.1721
  883MPD2    H512955   4.413   3.473  16.075 -0.1237  1.1858 -0.3082
  883MPD2    N112956   3.949   3.480  15.917  0.5749 -0.0134  0.4018
  883MPD2    H712957   3.994   3.411  15.858 -1.7587 -0.0229 -1.3628
  884MPD2     C12958   1.444   3.855  15.298  0.7497  0.4426 -0.0660
  884MPD2    C112959   1.412   3.988  15.272 -0.7113  0.3552  0.4167
  884MPD2    C212960   1.278   4.019  15.270 -0.1437 -0.6654  0.1727
  884MPD2    C312961   1.173   3.936  15.304 -0.0119 -0.2401 -0.2035
  884MPD2    C412962   1.209   3.813  15.352  0.2945 -0.0683  1.2527
  884MPD2    C512963   1.337   3.778  15.341 -0.2046  0.4575  0.0906
  884MPD2     H12964   1.253   4.125  15.264  1.2894 -0.1497  3.2739
  884MPD2    H112965   1.132   3.748  15.393 -0.8120  0.6164  0.2780
  884MPD2    H212966   1.548   3.825  15.290  0.7743  0.1739  1.2167
  884MPD2    H312967   1.359   3.677  15.373  0.6287  0.8393  0.7166
  884MPD2     N12968   1.036   3.980  15.305 -0.1096  0.5962 -0.1957
  884MPD2    H512969   1.020   4.076  15.276 -0.1289  0.1735 -1.5690
  884MPD2    N112970   1.501   4.088  15.231  0.5310  0.6085  0.7965
  884MPD2    H712971   1.460   4.169  15.186  1.2177 -0.0930 -1.1116
  885MPD2     C12972   3.837   4.229   0.502 -0.4046  0.1195  0.3822
  885MPD2    C112973   3.970   4.221   0.449 -0.1837 -0.2995  0.8308
  885MPD2    C212974   3.991   4.276   0.324 -0.1669  0.2766  0.5352
  885MPD2    C312975   3.886   4.327   0.248 -0.9642  0.2942  0.7052
  885MPD2    C412976   3.760   4.342   0.302 -0.0876 -0.6017  0.0480
  885MPD2    C512977   3.743   4.290   0.427 -0.1854 -0.6724  0.4105
  885MPD2     H12978   4.091   4.261   0.284 -0.9055  1.0356 -1.5674
  885MPD2    H112979   3.678   4.387   0.246 -1.5170 -0.3961  2.2948
  885MPD2    H212980   3.820   4.190   0.602 -1.3152  0.0917  0.2195
  885MPD2    H312981   3.648   4.309   0.476  1.2353 -1.0058  3.3098
  885MPD2     N12982   3.926   4.363   0.121  0.0549  0.6079  0.4889
  885MPD2    H512983   4.016   4.330   0.089  0.9325  0.4203  3.1266
  885MPD2    N112984   4.074   4.162   0.528  0.3643  0.0252  0.5581
  885MPD2    H712985   4.046   4.117   0.614  2.8255 -0.8459  0.8919
  886MPD2     C12986   0.674   2.243  15.271 -0.7141  0.5007  0.6475
  886MPD2    C112987   0.799   2.292  15.314  0.2624  0.0392  0.3409
  886MPD2    C212988   0.836   2.422  15.286  0.1311 -0.6229 -1.0677
  886MPD2    C312989   0.742   2.507  15.221  0.5254  0.1331 -0.2132
  886MPD2    C412990   0.627   2.454  15.174  1.0592  1.1861 -0.1017
  886MPD2    C512991   0.592   2.324  15.193 -0.2002  0.2322 -0.4460
  886MPD2     H12992   0.930   2.464  15.318 -0.9926  0.8356  0.3372
  886MPD2    H112993   0.568   2.520  15.112 -0.6979  0.3523  0.6753
  886MPD2    H212994   0.652   2.137  15.275 -0.7465  0.4931  0.2447
  886MPD2    H312995   0.501   2.275  15.160 -0.6069  1.2203 -0.7893
  886MPD2     N12996   0.767   2.648  15.196 -0.7777 -0.6929  0.4480
  886MPD2    H512997   0.696   2.691  15.138  1.9249  0.8743 -1.7239
  886MPD2    N112998   0.892   2.212  15.381  0.3045  0.1662 -0.3220
  886MPD2    H712999   0.983   2.254  15.394  1.1154 -1.1070 -1.7656
  887MPD2     C13000   1.593   2.135  15.361 -0.2791  0.0821  0.2527
  887MPD2    C113001   1.485   2.187  15.429  0.0237 -0.8680 -0.8523
  887MPD2    C213002   1.491   2.321  15.461 -0.3475  0.4638 -0.3387
  887MPD2    C313003   1.599   2.405  15.428  0.0095 -0.4095  0.1131
  887MPD2    C413004   1.710   2.345  15.368  0.7248  0.0863  0.4580
  887MPD2    C513005   1.700   2.212  15.335  0.2399 -0.0497  0.2705
  887MPD2     H13006   1.407   2.370  15.509 -0.2901 -0.2237  0.4689
  887MPD2    H113007   1.798   2.407  15.349  2.0289 -1.4720  1.4440
  887MPD2    H213008   1.597   2.035  15.320  0.2205  0.5590 -0.8441
  887MPD2    H313009   1.780   2.154  15.291 -1.5903 -0.1203 -2.9879
  887MPD2     N13010   1.614   2.549  15.451  0.8575 -0.2281  0.2777
  887MPD2    H513011   1.701   2.595  15.427 -0.4428  1.6373 -0.9393
  887MPD2    N113012   1.367   2.112  15.451 -0.1065  0.1503  0.3007
  887MPD2    H713013   1.283   2.162  15.477  0.1295  0.2526  0.8570
  888MPD2     C13014   3.727   2.754  15.543  0.2742 -0.2186 -0.0032
  888MPD2    C113015   3.616   2.830  15.553 -0.5832 -0.0425 -0.7415
  888MPD2    C213016   3.589   2.915  15.454 -0.7053 -0.5101 -0.0489
  888MPD2    C313017   3.674   2.920  15.342  0.1070  0.5781 -0.0076
  888MPD2    C413018   3.784   2.837  15.331 -0.6801 -0.1573 -0.2445
  888MPD2    C513019   3.813   2.748  15.434 -0.5612 -0.2228 -0.1953
  888MPD2     H13020   3.506   2.984  15.463  0.7375  1.3468 -1.1522
  888MPD2    H113021   3.846   2.841  15.243  1.2358 -2.2840  1.0216
  888MPD2    H213022   3.752   2.682  15.619  1.9876 -0.8754 -1.2121
  888MPD2    H313023   3.898   2.681  15.424  0.4245  1.1747 -1.3166
  888MPD2     N13024   3.644   3.027  15.257  0.0326  0.2261  0.2685
  888MPD2    H513025   3.576   3.094  15.291  2.4254  1.3114  2.8789
  888MPD2    N113026   3.535   2.831  15.673  0.7866  0.0536  0.2266
  888MPD2    H713027   3.443   2.873  15.663  0.5795 -0.2464  0.8809
  889MPD2     C13028   2.564   1.860  13.342  0.5295  0.5172 -0.3288
  889MPD2    C113029   2.604   1.832  13.467  0.1608 -0.7992  0.1267
  889MPD2    C213030   2.651   1.927  13.550 -0.5384  0.7358  0.3494
  889MPD2    C313031   2.631   2.058  13.523 -0.0679 -0.8012  0.1012
  889MPD2    C413032   2.573   2.092  13.408 -0.6634  0.1650 -0.2144
  889MPD2    C513033   2.547   1.995  13.316  0.3064 -0.3344  0.2908
  889MPD2     H13034   2.694   1.900  13.646 -0.4370 -1.0991 -0.2082
  889MPD2    H113035   2.549   2.191  13.372  1.7345  0.9373  0.2780
  889MPD2    H213036   2.536   1.780  13.274 -0.4578  0.1082  0.5648
  889MPD2    H313037   2.507   2.029  13.222  0.0364  0.0723  0.5558
  889MPD2     N13038   2.669   2.158  13.617  0.6654 -0.1912  0.3284
  889MPD2    H513039   2.709   2.132  13.707  0.7892  1.3008  0.7013
  889MPD2    N113040   2.637   1.692  13.482 -0.1874  0.1985 -0.1831
  889MPD2    H713041   2.635   1.638  13.396 -0.1103  2.8227 -1.8570
  890MPD2     C13042   2.387   4.463  14.779  0.5096 -0.2793 -0.2313
  890MPD2    C113043   2.251   4.448  14.787 -0.3327  0.5667 -0.7114
  890MPD2    C213044   2.207   4.341  14.858  0.1570 -0.1987 -0.7009
  890MPD2    C313045   2.291   4.259  14.934  0.1242 -0.1750  0.0646
  890MPD2    C413046   2.422   4.286  14.932  0.0022 -0.4644  0.4650
  890MPD2    C513047   2.468   4.386  14.853 -0.1325  0.1337  0.1696
  890MPD2     H13048   2.100   4.326  14.862  0.1877  0.7876  3.7935
  890MPD2    H113049   2.503   4.235  14.983 -0.2790 -0.7655  0.6122
  890MPD2    H213050   2.435   4.538  14.716 -1.0359  1.5571  0.7758
  890MPD2    H313051   2.573   4.414  14.846  0.5080 -2.0666  0.8430
  890MPD2     N13052   2.245   4.160  15.023  0.4515  0.1191 -0.3823
  890MPD2    H513053   2.316   4.111  15.077 -0.4920 -3.0103 -1.9291
  890MPD2    N113054   2.176   4.555  14.730  0.1593 -0.5208 -0.5741
  890MPD2    H713055   2.227   4.630  14.684 -1.7515  0.8085 -0.5477
  891MPD2     C13056   0.426   2.395  16.477  0.4394 -0.6535 -0.2930
  891MPD2    C113057   0.340   2.427  16.583  0.3266 -0.4926  0.1798
  891MPD2    C213058   0.340   2.346  16.690  0.5255  0.0893 -0.0048
  891MPD2    C313059   0.408   2.225  16.693  0.7889 -0.0141  0.4162
  891MPD2    C413060   0.485   2.193  16.588  0.3483 -0.0891  0.4634
  891MPD2    C513061   0.499   2.278  16.484  0.2828 -0.1612  0.8566
  891MPD2     H13062   0.274   2.374  16.771 -0.8876 -2.2919 -0.3323
  891MPD2    H113063   0.521   2.091  16.581 -0.3508 -0.5460  3.7897
  891MPD2    H213064   0.441   2.459  16.391  1.5491  0.7405  0.9412
  891MPD2    H313065   0.564   2.246  16.404  1.1754  2.0867  0.6817
  891MPD2     N13066   0.395   2.123  16.791  0.1936  0.3263 -0.0869
  891MPD2    H513067   0.464   2.049  16.801  1.7234  1.5912 -1.3408
  891MPD2    N113068   0.264   2.547  16.575 -0.8586  0.1929 -0.2098
  891MPD2    H713069   0.256   2.582  16.481 -1.0246  2.4366  0.6337
  892MPD2     C13070   1.219   3.691  14.576 -0.2880  0.3253  0.2113
  892MPD2    C113071   1.142   3.581  14.600 -0.1245 -0.3053  0.5029
  892MPD2    C213072   1.193   3.455  14.560  0.3417 -0.7581  0.3347
  892MPD2    C313073   1.321   3.445  14.497  0.1260 -0.8155 -0.4351
  892MPD2    C413074   1.389   3.561  14.473  0.2089  0.2438 -0.6053
  892MPD2    C513075   1.344   3.680  14.520  0.2781 -0.1305  0.7856
  892MPD2     H13076   1.134   3.367  14.585  0.8055 -1.0111  0.5417
  892MPD2    H113077   1.488   3.570  14.430 -0.0943  2.4099 -0.8569
  892MPD2    H213078   1.191   3.792  14.603 -0.2070  0.7770 -1.3904
  892MPD2    H313079   1.388   3.778  14.503  2.2596 -1.4516 -1.6903
  892MPD2     N13080   1.369   3.320  14.442  0.0393 -0.6340  0.3877
  892MPD2    H513081   1.464   3.330  14.409 -0.3504  1.1850 -0.2236
  892MPD2    N113082   1.014   3.599  14.660 -0.2857  0.6101 -0.2730
  892MPD2    H713083   0.958   3.517  14.682 -0.8526  1.9041  3.0483
  893MPD2     C13084   2.710   1.910   1.776 -0.4031 -0.2269  0.2055
  893MPD2    C113085   2.802   1.820   1.820  0.3177 -0.0840  0.0121
  893MPD2    C213086   2.770   1.732   1.919  0.0789 -0.8708  0.7371
  893MPD2    C313087   2.638   1.713   1.969  0.0128 -0.0118 -0.1184
  893MPD2    C413088   2.543   1.798   1.908 -0.2658  0.5723  0.2585
  893MPD2    C513089   2.582   1.898   1.824 -0.0586  0.3688 -0.2212
  893MPD2     H13090   2.840   1.653   1.945  0.9309 -0.5630 -0.6035
  893MPD2    H113091   2.442   1.783   1.945 -0.1552 -0.2802  0.2081
  893MPD2    H213092   2.736   1.978   1.696 -0.8848  0.1294  0.3491
  893MPD2    H313093   2.511   1.963   1.775 -0.6129 -0.9878 -1.2206
  893MPD2     N13094   2.599   1.615   2.073  0.0119  0.0560 -0.2499
  893MPD2    H513095   2.499   1.609   2.084  0.2130  0.5410  1.8811
  893MPD2    N113096   2.933   1.842   1.768  0.4571 -0.4139  0.0868
  893MPD2    H713097   2.948   1.912   1.696  1.5691 -0.0571  0.6619
  894MPD2     C13098   0.699   4.473   1.038  1.0836  0.8782  0.5137
  894MPD2    C113099   0.763   4.483   1.163  0.3965  0.7452 -0.2178
  894MPD2    C213100   0.895   4.519   1.165  0.4186 -0.5680 -0.6558
  894MPD2    C313101   0.969   4.528   1.048 -0.6147  0.2749 -0.1288
  894MPD2    C413102   0.915   4.488   0.925 -0.0010  0.5106 -0.3230
  894MPD2    C513103   0.780   4.476   0.920 -0.9471  0.5698  0.9162
  894MPD2     H13104   0.944   4.535   1.260 -0.9318  1.0107 -0.2193
  894MPD2    H113105   0.975   4.500   0.836  1.7109  0.6491  0.8490
  894MPD2    H213106   0.593   4.458   1.023  1.3897  1.2272 -2.0676
  894MPD2    H313107   0.736   4.450   0.824  3.6325 -1.5275 -0.5949
  894MPD2     N13108   1.099   4.573   1.064  0.5978  0.4652  0.3017
  894MPD2    H513109   1.122   4.598   1.160  1.3696 -0.7552  0.4393
  894MPD2    N113110   0.697   4.467   1.283 -0.1305 -0.8458  0.4869
  894MPD2    H713111   0.748   4.506   1.362 -0.5733 -0.8067  0.7588
  895MPD2     C13112   0.391   2.922  13.398  0.2656 -0.2228  0.0763
  895MPD2    C113113   0.358   2.826  13.301  0.3848  0.0157 -0.9068
  895MPD2    C213114   0.449   2.731  13.270  0.2464  0.0916  0.0511
  895MPD2    C313115   0.563   2.722  13.342 -0.2169 -0.2703 -0.8186
  895MPD2    C413116   0.597   2.813  13.437  0.4785 -0.6674  0.2286
  895MPD2    C513117   0.508   2.913  13.461  0.6356 -0.0325 -0.1564
  895MPD2     H13118   0.428   2.650  13.202  0.8100 -0.0357  0.0330
  895MPD2    H113119   0.697   2.808  13.480  1.0044 -0.2623 -0.9494
  895MPD2    H213120   0.321   3.001  13.425  0.5711 -0.5167  1.7313
  895MPD2    H313121   0.543   2.999  13.518  3.0375 -0.3878 -1.1116
  895MPD2     N13122   0.640   2.608  13.319  0.2773 -0.2220 -0.2680
  895MPD2    H513123   0.605   2.541  13.252 -1.7730 -0.2393  0.8277
  895MPD2    N113124   0.240   2.814  13.228  0.2953  0.3475 -0.0503
  895MPD2    H713125   0.249   2.736  13.164  1.0937  0.8031 -0.5042
  896MPD2     C13126   2.376   0.680   1.006 -0.2909  0.0447  0.9250
  896MPD2    C113127   2.436   0.617   0.894 -0.7387 -0.1143  0.1706
  896MPD2    C213128   2.349   0.535   0.812 -0.1097  0.3081 -0.4700
  896MPD2    C313129   2.211   0.521   0.842 -0.6495  0.5601  1.1877
  896MPD2    C413130   2.167   0.581   0.951  0.3407  0.2997 -0.0882
  896MPD2    C513131   2.245   0.656   1.030 -0.1354 -0.3450  0.5004
  896MPD2     H13132   2.376   0.493   0.716 -0.2018 -0.3406 -0.2177
  896MPD2    H113133   2.062   0.589   0.975  0.0765 -0.0574 -1.1161
  896MPD2    H213134   2.435   0.738   1.076 -0.5566  0.2938  0.9412
  896MPD2    H313135   2.193   0.694   1.117 -1.9133  1.2431 -1.2582
  896MPD2     N13136   2.133   0.435   0.760  0.2639 -0.2384  1.0494
  896MPD2    H513137   2.166   0.404   0.669  0.5806  0.1206  1.0403
  896MPD2    N113138   2.573   0.635   0.866  0.8791 -0.0099 -0.6229
  896MPD2    H713139   2.616   0.702   0.929  1.2996 -0.8422 -0.0269
  897MPD2     C13140   4.219   1.472  10.793  0.1987  0.7545  0.1755
  897MPD2    C113141   4.114   1.468  10.708  0.4459 -0.1568  0.4390
  897MPD2    C213142   3.983   1.446  10.763 -0.2314 -0.8910  0.0108
  897MPD2    C313143   3.957   1.453  10.895  0.0785 -0.0832 -0.4602
  897MPD2    C413144   4.062   1.454  10.981 -0.7576 -0.3658 -0.0269
  897MPD2    C513145   4.187   1.455  10.928 -0.0973 -0.1873  1.1722
  897MPD2     H13146   3.899   1.456  10.695 -0.2890  1.1491  0.3593
  897MPD2    H113147   4.056   1.456  11.089  1.6654  1.0581  0.0593
  897MPD2    H213148   4.319   1.477  10.753  0.0905  0.0042 -0.1813
  897MPD2    H313149   4.271   1.459  10.996  1.3435  0.6030 -0.6608
  897MPD2     N13150   3.825   1.454  10.940  0.2716 -0.3747  0.2239
  897MPD2    H513151   3.751   1.455  10.871 -0.7329  1.7413  1.3488
  897MPD2    N113152   4.131   1.510  10.578 -0.4663 -0.2989  0.2171
  897MPD2    H713153   4.216   1.560  10.555 -0.3682 -0.7235 -0.3239
  898MPD2     C13154   4.688   3.198   0.439  0.4109  0.4720  0.0186
  898MPD2    C113155   0.058   3.197   0.339 -0.3030 -1.1009  0.2370
  898MPD2    C213156   0.030   3.249   0.215 -0.1682 -0.1397  0.1711
  898MPD2    C313157   4.643   3.326   0.201 -0.1156 -0.1102  0.1255
  898MPD2    C413158   4.553   3.331   0.300  0.1870  0.4191 -0.9576
  898MPD2    C513159   4.578   3.266   0.412  0.1390  0.0636  0.6282
  898MPD2     H13160   0.102   3.237   0.135 -1.7207 -1.8401 -0.9756
  898MPD2    H113161   4.462   3.389   0.288  0.1771 -0.0912 -3.3322
  898MPD2    H213162   4.695   3.150   0.536 -0.1241  0.6799  0.1633
  898MPD2    H313163   4.509   3.272   0.495 -1.3916 -0.8705 -0.5588
  898MPD2     N13164   4.626   3.390   0.074 -0.0176  0.5055 -0.2851
  898MPD2    H513165   4.702   3.382   0.007 -0.6463 -0.8606 -0.8281
  898MPD2    N113166   0.190   3.138   0.356 -0.0725 -0.0865  0.2612
  898MPD2    H713167   0.260   3.163   0.288 -0.1912  1.6721  0.7904
  899MPD2     C13168   1.850   3.491  17.472 -0.2398 -0.1447  0.6389
  899MPD2    C113169   1.857   3.595  17.564  0.2315 -0.3966  0.1871
  899MPD2    C213170   1.790   3.577  17.686 -0.1514 -0.2930 -0.1036
  899MPD2    C313171   1.716   3.466   0.010  0.1366  0.5976 -0.2454
  899MPD2    C413172   1.702   3.375  17.611 -0.4175  0.0316  0.3893
  899MPD2    C513173   1.776   3.375  17.497 -0.4266 -0.0335 -0.0598
  899MPD2     H13174   1.792   3.660   0.054  0.8837 -3.6777  3.8389
  899MPD2    H113175   1.641   3.287  17.632 -2.3703  1.3947  0.4558
  899MPD2    H213176   1.887   3.498  17.370 -0.2980 -4.1520  0.3140
  899MPD2    H313177   1.762   3.308  17.413 -1.3673 -0.1662  0.1945
  899MPD2     N13178   1.647   3.445   0.134  0.0037  0.3760  0.4974
  899MPD2    H513179   1.586   3.365   0.129  0.1096  0.4584 -2.2908
  899MPD2    N113180   1.905   3.717  17.525 -0.5376  0.3800  0.3943
  899MPD2    H713181   1.930   3.718  17.427 -1.6148  2.2546  0.1418
  900MPD2     C13182   1.484   4.469  12.838 -0.5133  0.0588 -1.0620
  900MPD2    C113183   1.385   4.379  12.815 -0.1705  0.0306 -0.5504
  900MPD2    C213184   1.267   4.422  12.749 -0.3742  0.3228  0.2573
  900MPD2    C313185   1.249   4.545  12.687 -0.0952  0.1166 -0.6427
  900MPD2    C413186   1.351   4.636  12.707 -0.9268  0.0343  0.0675
  900MPD2    C513187   1.464   4.599  12.785 -0.5245  0.5884  0.3349
  900MPD2     H13188   1.188   4.348  12.740 -1.1792  1.0851  1.0588
  900MPD2    H113189   1.352   0.013  12.672 -1.3131  0.1341  0.3537
  900MPD2    H213190   1.575   4.452  12.895 -0.1144  1.2167 -1.3483
  900MPD2    H313191   1.539   4.677  12.785 -0.0954  0.2034 -2.3243
  900MPD2     N13192   1.129   4.576  12.617  0.1914 -0.4039 -0.1784
  900MPD2    H513193   1.059   4.505  12.602 -0.5163  0.3336 -0.3380
  900MPD2    N113194   1.393   4.243  12.851  1.1387  0.2365  0.1380
  900MPD2    H713195   1.466   4.220  12.917  1.0683  1.6305  0.7045
  901MPD2     C13196   1.188   3.372  13.429 -0.0061 -0.0749 -0.5381
  901MPD2    C113197   1.294   3.348  13.350  0.6076  0.0838 -0.2712
  901MPD2    C213198   1.315   3.442  13.252  0.2292  0.5085 -0.4941
  901MPD2    C313199   1.237   3.551  13.221 -0.2458  0.4761  0.4684
  901MPD2    C413200   1.146   3.580  13.318  0.6485 -0.0774 -0.3627
  901MPD2    C513201   1.120   3.491  13.423 -0.2775  0.3653 -0.2660
  901MPD2     H13202   1.396   3.432  13.180  0.6361  0.5765 -0.0462
  901MPD2    H113203   1.088   3.671  13.310  3.3575  1.4882 -2.0497
  901MPD2    H213204   1.157   3.306  13.509 -0.8186  0.5959 -0.2976
  901MPD2    H313205   1.041   3.517  13.493 -0.5801 -0.7289 -0.2087
  901MPD2     N13206   1.279   3.637  13.119 -0.4379 -0.8643  0.1248
  901MPD2    H513207   1.361   3.607  13.067 -1.1839 -1.6553 -0.5770
  901MPD2    N113208   1.364   3.225  13.369  0.4963  0.5240  0.1187
  901MPD2    H713209   1.317   3.163  13.433  0.7521 -1.4318 -1.6008
  902MPD2     C13210   0.804   3.088  12.792 -0.3357 -0.4948 -0.3245
  902MPD2    C113211   0.711   3.061  12.696  0.3184  0.0928  0.3174
  902MPD2    C213212   0.759   3.012  12.575  0.0822  0.0738  0.1723
  902MPD2    C313213   0.888   2.961  12.568 -0.0927  0.7474 -0.6111
  902MPD2    C413214   0.974   2.980  12.678 -0.2308 -0.1654 -0.1094
  902MPD2    C513215   0.933   3.043  12.790 -0.7305 -0.0338  0.1860
  902MPD2     H13216   0.693   2.997  12.490 -1.9183  1.3720  1.5063
  902MPD2    H113217   1.078   2.948  12.675 -0.2787 -0.3787  0.4694
  902MPD2    H213218   0.771   3.142  12.880  2.6735  1.7659 -0.5710
  902MPD2    H313219   0.993   3.061  12.879  0.2883  4.8544 -1.5000
  902MPD2     N13220   0.941   2.902  12.446  0.5781 -0.1731  0.3268
  902MPD2    H513221   1.034   2.862  12.453 -0.0337 -1.5199  0.6428
  902MPD2    N113222   0.578   3.111  12.718  0.3197 -0.2726  0.3180
  902MPD2    H713223   0.557   3.164  12.801  0.4386 -0.2274  0.3199
  903MPD2     C13224   0.651   3.046  11.717 -0.0067 -0.1356 -0.2408
  903MPD2    C113225   0.661   2.912  11.749  0.1997  0.2857  0.6593
  903MPD2    C213226   0.576   2.814  11.695  0.6697 -0.0926 -0.1058
  903MPD2    C313227   0.485   2.863  11.594 -0.4593 -0.1346 -0.5703
  903MPD2    C413228   0.495   2.990  11.546 -0.2809  0.2521 -0.1567
  903MPD2    C513229   0.580   3.080  11.610 -0.3089  0.3725  0.5350
  903MPD2     H13230   0.575   2.709  11.721 -1.2466  0.4514  1.9868
  903MPD2    H113231   0.431   3.034  11.471 -0.2599 -0.9183 -0.8596
  903MPD2    H213232   0.713   3.120  11.765  1.1610 -0.9790 -0.4417
  903MPD2    H313233   0.572   3.184  11.581  1.3823  0.2520 -0.3949
  903MPD2     N13234   0.382   2.778  11.539 -0.8162 -0.6159  0.6381
  903MPD2    H513235   0.316   2.824  11.477 -0.9468  0.4653  1.5788
  903MPD2    N113236   0.758   2.878  11.848  0.1245  0.1722  0.3910
  903MPD2    H713237   0.809   2.958  11.883  0.1678  0.6495 -0.7537
  904MPD2     C13238   0.355   2.355  13.469 -0.3121 -0.0272 -0.5621
  904MPD2    C113239   0.310   2.238  13.528 -0.2374  0.8607  0.3103
  904MPD2    C213240   0.371   2.192  13.644  0.0884 -0.1090 -0.6871
  904MPD2    C313241   0.463   2.262  13.717  0.3305 -0.8145  0.2384
  904MPD2    C413242   0.499   2.386  13.663 -0.1626  0.3799 -0.0731
  904MPD2    C513243   0.455   2.434  13.541  0.2235 -0.3272  0.7340
  904MPD2     H13244   0.335   2.094  13.674  1.1715 -0.6800 -1.2575
  904MPD2    H113245   0.558   2.452  13.726  1.0078  1.9663 -2.8290
  904MPD2    H213246   0.309   2.390  13.377 -1.3275 -1.1208 -0.4705
  904MPD2    H313247   0.475   2.533  13.503 -0.4795 -0.2997  0.4384
  904MPD2     N13248   0.503   2.217  13.852 -0.2337  0.1922 -0.0034
  904MPD2    H513249   0.473   2.123  13.873 -0.8978  0.3221 -0.3678
  904MPD2    N113250   0.190   2.182  13.476  0.1715 -0.3293 -0.1699
  904MPD2    H713251   0.148   2.219  13.391  0.4540  0.2968 -0.0403
  905MPD2     C13252   0.171   2.060  12.870 -0.2290 -0.6654 -0.2896
  905MPD2    C113253   0.177   2.135  12.984 -0.2113  0.7402  0.1912
  905MPD2    C213254   0.296   2.196  13.019 -0.0752 -0.5479 -0.7915
  905MPD2    C313255   0.410   2.163  12.955  0.2413 -0.3650  0.0298
  905MPD2    C413256   0.401   2.093  12.835  0.1499  0.0340  0.6754
  905MPD2    C513257   0.280   2.045  12.789  0.3381 -0.0853 -0.4430
  905MPD2     H13258   0.290   2.259  13.106  2.0438 -1.2206 -0.1472
  905MPD2    H113259   0.487   2.069  12.773 -0.5834 -0.7696 -0.0219
  905MPD2    H213260   0.074   2.022  12.842 -1.3730  1.8050  0.3215
  905MPD2    H313261   0.272   1.989  12.696  0.5388 -1.7100  0.5216
  905MPD2     N13262   0.534   2.188  13.019 -0.3888  0.7224 -0.2636
  905MPD2    H513263   0.615   2.134  12.991 -0.7744 -0.9104  1.8250
  905MPD2    N113264   0.053   2.153  13.064 -0.2346  0.3791  0.4340
  905MPD2    H713265   4.705   2.086  13.041 -0.4572 -0.5714  3.9149
  906MPD2     C13266   2.614   2.044  11.393 -0.1156 -0.2513  0.9535
  906MPD2    C113267   2.620   1.936  11.311  0.0446 -0.4321 -0.2304
  906MPD2    C213268   2.619   1.805  11.359 -0.0544 -0.1307 -0.6445
  906MPD2    C313269   2.619   1.777  11.498 -0.3039 -0.2520  0.0412
  906MPD2    C413270   2.598   1.888  11.575 -0.4348 -0.6025  0.6731
  906MPD2    C513271   2.602   2.021  11.527  0.3584 -0.5210  0.7547
  906MPD2     H13272   2.629   1.723  11.289  1.8088  0.4862 -1.1128
  906MPD2    H113273   2.607   1.870  11.681  0.2720  1.6633  0.9949
  906MPD2    H213274   2.639   2.145  11.364  0.8520 -0.4671  1.0275
  906MPD2    H313275   2.603   2.110  11.589  0.0046  0.7519 -1.0673
  906MPD2     N13276   2.618   1.648  11.555  0.3626 -0.1874 -0.1307
  906MPD2    H513277   2.574   1.640  11.646  2.2066  1.5603  0.9079
  906MPD2    N113278   2.635   1.941  11.168 -0.0516 -0.1713 -0.5445
  906MPD2    H713279   2.625   1.848  11.128 -1.0606 -0.1747 -0.2828
  907MPD2     C13280   1.945   1.145  15.641  0.1208 -0.3988  0.0437
  907MPD2    C113281   1.859   1.042  15.609 -0.0364  0.0237  0.0159
  907MPD2    C213282   1.868   0.921  15.683 -0.2765 -0.2166  0.2250
  907MPD2    C313283   1.961   0.902  15.784 -0.7610  0.3436 -0.1608
  907MPD2    C413284   2.056   0.997  15.798  0.0726  0.6663 -0.0900
  907MPD2    C513285   2.044   1.117  15.734  0.2618 -0.9204  1.1089
  907MPD2     H13286   1.798   0.840  15.668  0.7178 -1.4019  2.0395
  907MPD2    H113287   2.142   0.990  15.863 -2.2575  0.1088  2.9193
  907MPD2    H213288   1.952   1.240  15.590 -0.7232 -0.8630 -0.9401
  907MPD2    H313289   2.129   1.184  15.745 -1.5148  0.9412  3.4270
  907MPD2     N13290   1.957   0.785  15.858 -0.0836 -0.4116 -0.1363
  907MPD2    H513291   1.869   0.736  15.849 -0.7989  0.9037 -0.2380
  907MPD2    N113292   1.760   1.047  15.506 -0.6958 -0.0957 -0.0592
  907MPD2    H713293   1.692   0.972  15.514  1.0199 -1.6137  0.4052
  908MPD2     C13294   3.680   1.298   9.702 -0.0746  0.3307 -0.0657
  908MPD2    C113295   3.798   1.245   9.759 -0.3748  0.2248 -0.8344
  908MPD2    C213296   3.844   1.305   9.881  0.0799 -0.0168  0.2250
  908MPD2    C313297   3.790   1.418   9.939 -0.1314 -0.0894 -0.3186
  908MPD2    C413298   3.675   1.469   9.876 -0.8913 -0.0186 -0.2170
  908MPD2    C513299   3.621   1.408   9.766  0.3322  0.0677 -0.9043
  908MPD2     H13300   3.922   1.253   9.935 -0.4867 -0.4477  0.6315
  908MPD2    H113301   3.640   1.558   9.927 -1.5670  0.2605 -1.1654
  908MPD2    H213302   3.645   1.267   9.604 -2.7873  1.5680  0.5335
  908MPD2    H313303   3.533   1.459   9.730  0.0199 -0.3566 -0.7458
  908MPD2     N13304   3.855   1.468  10.047  0.0321 -0.1917  0.6379
  908MPD2    H513305   3.929   1.415  10.092 -0.8305 -0.7541  1.3905
  908MPD2    N113306   3.852   1.139   9.691 -0.2342 -0.5231 -0.1932
  908MPD2    H713307   3.794   1.103   9.616 -1.0431 -0.4541  0.3952
  909MPD2     C13308   4.323   3.889  11.655 -0.2222 -0.5767 -0.2726
  909MPD2    C113309   4.268   3.977  11.564  0.7764 -0.1414 -0.0946
  909MPD2    C213310   4.149   4.044  11.594 -0.0276 -0.7548  0.1919
  909MPD2    C313311   4.085   4.016  11.713  0.3279 -0.8680 -0.3819
  909MPD2    C413312   4.129   3.917  11.798 -0.5560  0.8478  0.3860
  909MPD2    C513313   4.248   3.858  11.767  0.0110 -0.5946  0.0613
  909MPD2     H13314   4.111   4.120  11.527 -0.2682 -1.0702 -0.0277
  909MPD2    H113315   4.084   3.897  11.894 -0.4712  1.2394  0.5080
  909MPD2    H213316   4.405   3.822  11.629  1.5365  1.3804  0.2025
  909MPD2    H313317   4.287   3.775  11.825 -1.7839 -1.7986 -0.4868
  909MPD2     N13318   3.976   4.100  11.748  0.3479 -0.3151  0.2192
  909MPD2    H513319   3.967   4.175  11.681 -1.8599  1.3529  2.4024
  909MPD2    N113320   4.336   4.011  11.448  0.6688 -0.0765 -0.3278
  909MPD2    H713321   4.302   4.090  11.394  0.9150  0.0280 -0.3321
  910MPD2     C13322   1.349   1.691  15.131  0.5867 -0.2725  0.2314
  910MPD2    C113323   1.252   1.636  15.213 -0.3035 -0.0255 -0.3605
  910MPD2    C213324   1.120   1.666  15.194  0.3795  0.2659  0.7450
  910MPD2    C313325   1.085   1.765  15.106 -0.1424  0.2210 -0.3314
  910MPD2    C413326   1.181   1.819  15.026  0.0714 -0.1091  0.2706
  910MPD2    C513327   1.313   1.783  15.034  0.5884 -0.4322  0.2267
  910MPD2     H13328   1.050   1.612  15.257 -0.5241  0.4889 -0.0751
  910MPD2    H113329   1.161   1.907  14.966 -0.3310 -0.2927  0.1353
  910MPD2    H213330   1.452   1.661  15.116  0.1596  0.0658 -3.3273
  910MPD2    H313331   1.397   1.809  14.970 -0.5804  0.7345 -0.8281
  910MPD2     N13332   0.955   1.828  15.098 -0.5647 -0.3072 -0.6203
  910MPD2    H513333   0.944   1.901  15.029 -1.1684 -0.9440 -1.1930
  910MPD2    N113334   1.290   1.554  15.321 -0.2022 -0.1425 -0.7092
  910MPD2    H713335   1.217   1.507  15.375  0.9356 -0.2516  0.7341
  911MPD2     C13336   3.237   2.518  16.542  0.2976 -0.6200  0.0690
  911MPD2    C113337   3.277   2.644  16.574 -0.2149  0.3231 -1.3022
  911MPD2    C213338   3.198   2.752  16.541 -0.3777 -0.4410  0.3888
  911MPD2    C313339   3.091   2.730  16.451  0.6241 -0.2797 -0.1287
  911MPD2    C413340   3.072   2.605  16.396 -0.2119 -0.4351  0.0885
  911MPD2    C513341   3.147   2.496  16.442 -0.8880  0.4172  0.5989
  911MPD2     H13342   3.222   2.850  16.581  1.5062 -0.2404 -1.2515
  911MPD2    H113343   2.989   2.586  16.330  1.8816 -2.7119 -1.8610
  911MPD2    H213344   3.284   2.430  16.584  1.1895 -0.4817 -0.6398
  911MPD2    H313345   3.136   2.396  16.402  0.3370  0.3876  0.3559
  911MPD2     N13346   3.000   2.828  16.417  0.5809  0.0125  0.7798
  911MPD2    H513347   2.935   2.798  16.345  2.8501  1.8735 -2.0252
  911MPD2    N113348   3.393   2.650  16.646  0.5585 -0.6932  0.2881
  911MPD2    H713349   3.433   2.559  16.667  2.3186  0.1119  0.4198
  912MPD2     C13350   2.637   2.816  15.771  0.2925 -0.5409 -0.0258
  912MPD2    C113351   2.678   2.783  15.894  0.6351  0.4581 -0.5038
  912MPD2    C213352   2.633   2.665  15.952  1.2900 -0.0606 -0.1181
  912MPD2    C313353   2.551   2.579  15.872  0.3257  0.4198  0.4484
  912MPD2    C413354   2.539   2.596  15.738 -0.5526 -0.0772 -0.7856
  912MPD2    C513355   2.570   2.722  15.691 -0.6273 -0.6934  0.2028
  912MPD2     H13356   2.648   2.634  16.055 -1.6647  1.7128  0.8558
  912MPD2    H113357   2.475   2.544  15.668 -0.6268 -0.6935 -0.2642
  912MPD2    H213358   2.641   2.916  15.729 -1.0079 -0.3330  0.3583
  912MPD2    H313359   2.530   2.742  15.592 -0.4470  0.9922  0.4669
  912MPD2     N13360   2.487   2.474  15.940 -0.5081  0.1671 -0.3240
  912MPD2    H513361   2.489   2.467  16.041 -2.4241  2.5148 -0.1391
  912MPD2    N113362   2.739   2.882  15.975 -0.5665  0.1714 -0.4390
  912MPD2    H713363   2.732   2.980  15.950 -0.7615 -0.2101 -1.8529
  913MPD2     C13364   2.680   3.255   9.914 -0.4787  0.0283  0.1225
  913MPD2    C113365   2.812   3.249   9.945  1.4407 -0.2971  0.7136
  913MPD2    C213366   2.870   3.363   9.989  0.1848 -0.4959 -0.0218
  913MPD2    C313367   2.793   3.477  10.013 -0.6692 -0.0114  0.2639
  913MPD2    C413368   2.663   3.472   9.986 -0.0722  0.4599 -0.0604
  913MPD2    C513369   2.606   3.361   9.943  0.6638 -0.6424 -0.1075
  913MPD2     H13370   2.972   3.360  10.026 -0.5277  1.5732  2.0656
  913MPD2    H113371   2.587   3.548  10.003 -0.9504 -0.2443 -0.8346
  913MPD2    H213372   2.641   3.161   9.878  1.0526 -0.8645  0.7969
  913MPD2    H313373   2.502   3.364   9.913  0.0337 -2.7413  1.9453
  913MPD2     N13374   2.840   3.599  10.061 -0.7776  0.5522 -0.6736
  913MPD2    H513375   2.766   3.665  10.083  0.4343  0.4832  3.7183
  913MPD2    N113376   2.884   3.135   9.899 -0.1436 -0.7407  0.0286
  913MPD2    H713377   2.837   3.067   9.840 -2.1732  0.4954  0.2329
  914MPD2     C13378   2.032   2.899  12.742  0.4445  0.5203  0.0051
  914MPD2    C113379   1.970   3.014  12.773 -0.1136  0.7694 -0.2651
  914MPD2    C213380   1.906   3.026  12.893 -0.2264  0.6381 -0.0915
  914MPD2    C313381   1.903   2.923  12.977  0.1615  0.6420  0.5727
  914MPD2    C413382   1.978   2.805  12.950 -0.1743 -0.0848 -0.6348
  914MPD2    C513383   2.043   2.793  12.828  0.4157 -0.2606 -0.3119
  914MPD2     H13384   1.857   3.116  12.927 -0.6507  1.1588 -2.0530
  914MPD2    H113385   1.979   2.721  13.018 -3.0810 -1.7760 -2.6735
  914MPD2    H213386   2.076   2.886  12.644 -2.1258  0.8789 -1.2084
  914MPD2    H313387   2.100   2.705  12.803 -1.4751 -0.9363 -2.2091
  914MPD2     N13388   1.812   2.946  13.085  0.8481  0.5434  0.0464
  914MPD2    H513389   1.774   3.040  13.088  1.7901  1.0103 -2.2124
  914MPD2    N113390   1.979   3.114  12.672 -0.7910  0.1285  0.0683
  914MPD2    H713391   2.040   3.103  12.591 -0.1916 -0.0182  0.5448
  915MPD2     C13392   3.964   3.847  15.804 -0.0870  0.3119 -0.6825
  915MPD2    C113393   3.979   3.960  15.730 -0.3861  0.3083  0.4352
  915MPD2    C213394   3.938   4.081  15.781  0.3392  0.2828 -0.1486
  915MPD2    C313395   3.878   4.088  15.906 -1.0082  0.1999  0.8551
  915MPD2    C413396   3.855   3.970  15.975  0.0169 -0.0461 -0.2326
  915MPD2    C513397   3.900   3.851  15.926  0.4898  0.1592  0.0083
  915MPD2     H13398   3.959   4.173  15.727 -3.1061  0.3770 -1.3237
  915MPD2    H113399   3.809   3.979  16.073 -1.2093 -0.9466 -0.7175
  915MPD2    H213400   4.011   3.760  15.758  3.6666  1.3788  1.0958
  915MPD2    H313401   3.896   3.761  15.986 -1.1861  2.7592  3.8368
  915MPD2     N13402   3.829   4.212  15.962 -0.3568  0.1001  0.6569
  915MPD2    H513403   3.837   4.297  15.906  1.8236 -0.6945 -0.2493
  915MPD2    N113404   4.050   3.953  15.606 -0.3059  0.2945  0.7703
  915MPD2    H713405   4.046   3.864  15.557 -1.8768  1.0611 -0.4689
  916MPD2     C13406   2.203   2.334  16.501 -0.0841 -0.2627  0.5131
  916MPD2    C113407   2.148   2.320  16.377 -0.1705  0.8026 -0.2492
  916MPD2    C213408   2.154   2.191  16.322 -0.2488  0.6851 -0.0774
  916MPD2    C313409   2.236   2.090  16.371  0.4362  0.0338 -0.3022
  916MPD2    C413410   2.313   2.124  16.481 -0.2527  0.0600 -0.0648
  916MPD2    C513411   2.290   2.235  16.552  0.1595 -0.0538 -0.0410
  916MPD2     H13412   2.097   2.177  16.231 -0.4433 -1.4544  0.3807
  916MPD2    H113413   2.371   2.051  16.536 -0.4318  0.3421  0.4912
  916MPD2    H213414   2.188   2.430  16.550  0.4285  0.0515  0.0599
  916MPD2    H313415   2.339   2.248  16.648  1.7984 -0.7822 -0.7877
  916MPD2     N13416   2.246   1.964  16.309 -0.2058  0.0526 -0.2415
  916MPD2    H513417   2.177   1.947  16.237  1.0775 -0.0827 -1.4464
  916MPD2    N113418   2.070   2.431  16.324 -0.5074  0.7808 -0.8702
  916MPD2    H713419   2.052   2.502  16.395  0.0607  1.7387 -1.6799
  917MPD2     C13420   3.029   3.346  11.222  0.2834  0.1199  0.4019
  917MPD2    C113421   3.039   3.436  11.324  0.5189 -0.0362 -0.3383
  917MPD2    C213422   3.117   3.546  11.300 -0.0498 -0.1242 -0.8630
  917MPD2    C313423   3.170   3.578  11.178 -0.0709 -0.1160 -0.1086
  917MPD2    C413424   3.165   3.488  11.077  0.0401  0.2627 -0.2502
  917MPD2    C513425   3.095   3.375  11.104  0.2219 -0.1614  0.3558
  917MPD2     H13426   3.141   3.615  11.381  1.8262 -0.8392 -0.8013
  917MPD2    H113427   3.216   3.496  10.982 -1.5246  0.6769 -1.0523
  917MPD2    H213428   2.977   3.252  11.238 -2.6880  1.2074 -2.8480
  917MPD2    H313429   3.093   3.292  11.034  0.0873 -1.4113  1.8472
  917MPD2     N13430   3.248   3.694  11.163  0.0135  0.0111 -0.3390
  917MPD2    H513431   3.290   3.713  11.072 -0.2134  0.6910 -0.3028
  917MPD2    N113432   2.962   3.404  11.439  0.7844  0.1559  0.2479
  917MPD2    H713433   2.907   3.320  11.431  0.8782  0.0482  0.7589
  918MPD2     C13434   2.666   4.114  12.123  0.4052 -0.1742  0.0626
  918MPD2    C113435   2.777   4.105  12.041  0.9942 -0.0691 -0.0065
  918MPD2    C213436   2.792   3.984  11.968 -0.5212  0.7016 -0.1124
  918MPD2    C313437   2.717   3.869  11.996 -0.0693  0.2177 -0.4282
  918MPD2    C413438   2.627   3.874  12.092  0.0773 -0.4397 -0.3130
  918MPD2    C513439   2.598   3.996  12.149  0.3319  0.9103  0.0442
  918MPD2     H13440   2.865   3.977  11.888 -2.1466 -1.3155 -1.4362
  918MPD2    H113441   2.573   3.786  12.123  0.5511 -1.2994 -1.9923
  918MPD2    H213442   2.653   4.202  12.186  2.2088 -0.7084  1.1533
  918MPD2    H313443   2.520   4.016  12.222  1.0852  0.6891  0.9112
  918MPD2     N13444   2.750   3.749  11.922 -0.2585 -0.3084  0.5626
  918MPD2    H513445   2.810   3.756  11.841 -0.5295  0.5649  0.4451
  918MPD2    N113446   2.875   4.207  12.026 -0.1810 -0.4613 -0.2668
  918MPD2    H713447   2.955   4.179  11.970  0.2106 -4.2552  2.1772
  919MPD2     C13448   3.722   3.124  11.785 -0.6152 -0.6296  0.5591
  919MPD2    C113449   3.756   2.991  11.752 -0.7664 -0.5182 -0.1375
  919MPD2    C213450   3.798   2.960  11.624  0.0497 -0.0472  0.1943
  919MPD2    C313451   3.796   3.052  11.524  0.0280 -0.1528 -0.4795
  919MPD2    C413452   3.748   3.173  11.552 -1.0131  0.5927  0.3227
  919MPD2    C513453   3.724   3.216  11.684 -1.3349  0.7481  1.1469
  919MPD2     H13454   3.817   2.857  11.595 -0.2492  0.1951 -0.8695
  919MPD2    H113455   3.747   3.243  11.469  0.8979 -0.9508 -0.9979
  919MPD2    H213456   3.683   3.152  11.882  0.9159 -0.0784  1.0274
  919MPD2    H313457   3.698   3.319  11.708 -0.8195  0.6771  2.0124
  919MPD2     N13458   3.840   3.014  11.391 -0.3493 -0.0534  0.1894
  919MPD2    H513459   3.808   3.080  11.320  1.9865 -0.5533 -1.3184
  919MPD2    N113460   3.758   2.881  11.850 -0.3828 -0.8227 -0.1369
  919MPD2    H713461   3.804   2.794  11.823  1.2224  0.6590 -2.1289
  920MPD2     C13462   3.779   3.239  10.426  0.5927  1.1468  0.0965
  920MPD2    C113463   3.663   3.179  10.471 -0.4095  0.4697  0.2995
  920MPD2    C213464   3.657   3.115  10.592 -0.1200  0.2811 -0.3705
  920MPD2    C313465   3.766   3.129  10.681  0.9667  0.7666  0.1201
  920MPD2    C413466   3.880   3.189  10.637  0.0875 -0.4914  0.1301
  920MPD2    C513467   3.885   3.234  10.510  0.7160 -0.4115  0.4268
  920MPD2     H13468   3.567   3.058  10.612 -0.1026  1.1495  2.1728
  920MPD2    H113469   3.976   3.180  10.688 -0.2101  1.7930  1.0638
  920MPD2    H213470   3.778   3.284  10.328 -2.0845 -0.9425 -0.8301
  920MPD2    H313471   3.982   3.276  10.489  0.6004 -0.9029 -1.0993
  920MPD2     N13472   3.767   3.046  10.794  0.1669 -0.5474 -0.3773
  920MPD2    H513473   3.687   2.986  10.809  0.4035 -1.1695 -1.6331
  920MPD2    N113474   3.545   3.177  10.398 -0.4467 -1.0454  0.1931
  920MPD2    H713475   3.479   3.104  10.423 -0.5801 -0.1339  2.4907
  921MPD2     C13476   4.320   3.164  16.855 -0.0417  0.7189  0.7647
  921MPD2    C113477   4.357   3.033  16.857  0.3272 -0.2819  0.2369
  921MPD2    C213478   4.252   2.942  16.870 -0.3633  0.1340 -0.0781
  921MPD2    C313479   4.116   2.976  16.875 -0.6920  0.6181 -0.0447
  921MPD2    C413480   4.092   3.113  16.878  0.2938  0.4788  0.0649
  921MPD2    C513481   4.192   3.204  16.878 -0.4916  0.2809  0.1177
  921MPD2     H13482   4.287   2.840  16.873 -1.0219 -0.1149 -0.9244
  921MPD2    H113483   3.991   3.147  16.895 -0.0488 -0.8295  0.6290
  921MPD2    H213484   4.400   3.238  16.850 -2.4747  3.2792 -0.2637
  921MPD2    H313485   4.171   3.310  16.869  0.5106  0.5305  0.7481
  921MPD2     N13486   4.011   2.882  16.880  0.8829 -0.0566 -0.2317
  921MPD2    H513487   4.037   2.785  16.869 -0.7570 -0.4994 -0.2171
  921MPD2    N113488   4.493   3.008  16.834  0.3760  0.3320  0.5069
  921MPD2    H713489   4.550   3.088  16.810 -0.1439 -0.0811 -2.0253
  922MPD2     C13490   0.277   4.461  17.081  0.8360 -0.1479 -0.0665
  922MPD2    C113491   0.222   4.581  17.091  0.2322 -0.0472 -0.3131
  922MPD2    C213492   0.087   4.588  17.098 -0.0294  0.0842 -0.3463
  922MPD2    C313493   0.004   4.480  17.091 -0.0655 -0.9417  0.4723
  922MPD2    C413494   0.063   4.358  17.099 -0.4684 -0.2365 -0.5947
  922MPD2    C513495   0.202   4.349  17.093 -0.2385 -0.0667  0.4056
  922MPD2     H13496   0.036   4.681  17.118 -2.3010 -1.1397 -0.4167
  922MPD2    H113497   0.009   4.264  17.091 -0.9621  0.1370 -1.6351
  922MPD2    H213498   0.383   4.448  17.062  0.7162  1.5763 -1.9281
  922MPD2    H313499   0.250   4.252  17.101 -2.3677 -0.8982  3.4563
  922MPD2     N13500   4.591   4.507  17.073 -0.0924 -0.3997  0.2165
  922MPD2    H513501   4.559   4.603  17.065  1.3694  0.1234  0.7644
  922MPD2    N113502   0.300   4.701  17.080 -0.3051 -0.3136  0.2074
  922MPD2    H713503   0.251   0.062  17.102  0.8043  0.4363 -0.2579
  923MPD2     C13504   1.738   2.137   9.117 -0.7014  0.6138  0.8968
  923MPD2    C113505   1.664   2.189   9.222 -0.0454 -0.4755 -0.6451
  923MPD2    C213506   1.659   2.116   9.340 -0.1972 -0.8212  0.5660
  923MPD2    C313507   1.746   2.009   9.365 -0.5720 -0.5279  0.6131
  923MPD2    C413508   1.835   1.974   9.263  0.4440  0.6531 -0.0778
  923MPD2    C513509   1.821   2.026   9.138  0.1447 -0.2926  0.7098
  923MPD2     H13510   1.600   2.160   9.420 -1.6716  1.5277 -1.8264
  923MPD2    H113511   1.908   1.897   9.286  1.0682  1.9370  2.2332
  923MPD2    H213512   1.736   2.187   9.020 -0.1283  0.3598  0.7502
  923MPD2    H313513   1.886   1.992   9.057 -0.9394 -2.5706  0.7945
  923MPD2     N13514   1.762   1.948   9.498 -0.7949  0.1585 -0.3232
  923MPD2    H513515   1.850   1.899   9.512 -0.3975  0.7074 -0.9300
  923MPD2    N113516   1.592   2.312   9.203 -0.7115 -0.2910 -0.3456
  923MPD2    H713517   1.576   2.341   9.107  0.4943 -0.5831 -0.6258
  924MPD2     C13518   1.422   0.186  15.773  0.0827  0.6080 -0.1656
  924MPD2    C113519   1.453   0.179  15.911  0.5316  0.3767 -0.5261
  924MPD2    C213520   1.578   0.225  15.948  0.0517  0.3169  0.5301
  924MPD2    C313521   1.676   0.271  15.858 -0.0587 -0.0563  0.0708
  924MPD2    C413522   1.649   0.265  15.726  0.1030 -0.0993  0.2407
  924MPD2    C513523   1.521   0.218  15.691  0.1494 -0.2115 -0.6282
  924MPD2     H13524   1.590   0.247  16.053 -1.6393  1.3938  0.5036
  924MPD2    H113525   1.726   0.302  15.659 -1.1217  1.0321 -0.5563
  924MPD2    H213526   1.327   0.154  15.732  0.1388 -1.3804  1.2717
  924MPD2    H313527   1.495   0.201  15.587 -0.7765  0.1394 -0.4500
  924MPD2     N13528   1.786   0.347  15.911 -0.1026 -0.4998  0.5111
  924MPD2    H513529   1.828   0.420  15.854  0.0269 -3.3410 -2.9983
  924MPD2    N113530   1.361   0.170  16.016 -0.1724 -0.0044 -0.6688
  924MPD2    H713531   1.393   0.202  16.106  3.8731  0.1505 -2.1768
  925MPD2     C13532   0.375   3.050  14.625 -0.9196  0.1880 -0.4682
  925MPD2    C113533   0.245   3.053  14.579 -0.5611  0.7414  0.2393
  925MPD2    C213534   0.149   3.008  14.673 -0.7933 -0.0076 -0.5918
  925MPD2    C313535   0.189   2.945  14.792  0.0808 -0.5117 -0.2864
  925MPD2    C413536   0.319   2.942  14.827 -0.0971 -0.3818  0.0813
  925MPD2    C513537   0.412   2.995  14.746  0.6414 -0.1785  0.7719
  925MPD2     H13538   0.043   3.011  14.652 -0.6703  0.1472 -1.1928
  925MPD2    H113539   0.357   2.876  14.904  1.6160  1.4727  0.8132
  925MPD2    H213540   0.453   3.083  14.557 -0.4353 -2.8232 -1.3778
  925MPD2    H313541   0.517   2.984  14.770  1.0849  1.0758 -0.5970
  925MPD2     N13542   0.099   2.889  14.888  0.1285  0.9908 -0.3893
  925MPD2    H513543   0.138   2.833  14.964  0.6934 -0.0958 -1.4824
  925MPD2    N113544   0.201   3.100  14.456  0.3528 -0.2062 -0.6400
  925MPD2    H713545   0.100   3.107  14.447  0.3198  1.9039  1.6012
  926MPD2     C13546   4.075   1.447  13.546 -0.4434 -0.2762  0.3943
  926MPD2    C113547   3.979   1.545  13.514 -0.4342  0.0935 -0.3248
  926MPD2    C213548   3.987   1.606  13.390  0.0501  0.8177 -0.2903
  926MPD2    C313549   4.103   1.594  13.308  0.2865 -0.2777  0.1861
  926MPD2    C413550   4.200   1.505  13.346  0.0517  0.2377  0.4516
  926MPD2    C513551   4.185   1.434  13.463 -0.2831  0.7088  0.5450
  926MPD2     H13552   3.928   1.694  13.367 -1.1555  0.1144  0.0771
  926MPD2    H113553   4.284   1.479  13.283 -0.3456  0.6779 -0.2720
  926MPD2    H213554   4.069   1.384  13.634 -1.0197 -1.5007 -0.5119
  926MPD2    H313555   4.252   1.351  13.484 -1.4142  0.0193  1.4497
  926MPD2     N13556   4.118   1.659  13.181  0.4550 -0.4642  0.0017
  926MPD2    H513557   4.202   1.630  13.133  2.4804  1.7159  2.2397
  926MPD2    N113558   3.878   1.583  13.611 -0.3895  0.4619  0.6665
  926MPD2    H713559   3.819   1.655  13.572 -0.3506  0.4485  0.5838
  927MPD2     C13560   2.929   4.263   0.330 -0.1040  0.6636 -0.4240
  927MPD2    C113561   2.926   4.132   0.335 -0.6843 -0.5252  0.5484
  927MPD2    C213562   2.922   4.063   0.221 -0.3987  0.0288 -0.5715
  927MPD2    C313563   2.926   4.137   0.101  0.2609 -0.3788  0.2064
  927MPD2    C413564   2.943   4.276   0.101 -0.2041 -0.9321  0.0666
  927MPD2    C513565   2.940   4.338   0.221  0.2112 -0.2022 -0.2430
  927MPD2     H13566   2.911   3.955   0.228  1.7628 -0.0604  1.5525
  927MPD2    H113567   2.953   4.336   0.011 -0.2337 -4.2051 -2.1213
  927MPD2    H213568   2.948   4.307   0.427  1.9098 -0.2270 -0.4180
  927MPD2    H313569   2.946   4.446   0.236 -0.7496 -0.2815  0.7296
  927MPD2     N13570   2.930   4.063  17.678  0.2199 -0.3254  0.2133
  927MPD2    H513571   2.912   3.964  17.689  1.4026 -0.6558 -0.8032
  927MPD2    N113572   2.932   4.067   0.457  0.2470 -0.1312 -0.4854
  927MPD2    H713573   2.936   4.126   0.540 -1.5226 -0.7299  0.0342
  928MPD2     C13574   0.611   2.610   0.602  0.4262 -1.0286  0.8470
  928MPD2    C113575   0.701   2.666   0.685 -0.1665 -0.4221  0.1265
  928MPD2    C213576   0.831   2.664   0.647  0.3416 -0.1751  0.6420
  928MPD2    C313577   0.867   2.606   0.520  0.0616 -0.6508  0.5116
  928MPD2    C413578   0.773   2.563   0.434  0.1140  0.6237 -0.7878
  928MPD2    C513579   0.642   2.560   0.476  0.2961 -0.0746  0.0546
  928MPD2     H13580   0.903   2.710   0.715  0.3301  0.7376  0.0338
  928MPD2    H113581   0.795   2.530   0.333 -2.0741 -0.5014 -0.9265
  928MPD2    H213582   0.507   2.612   0.634  0.1878  0.5661 -0.0564
  928MPD2    H313583   0.562   2.530   0.409 -1.1044 -1.5842  2.4044
  928MPD2     N13584   1.003   2.602   0.473  0.2950  0.0135 -0.0114
  928MPD2    H513585   1.002   2.579   0.374  0.2224 -0.7097  0.1586
  928MPD2    N113586   0.659   2.739   0.800 -0.6385 -0.5621  0.3984
  928MPD2    H713587   0.729   2.764   0.869 -0.2413  1.1077 -0.6190
  929MPD2     C13588   0.441   1.882   9.986  0.0869  0.6595 -0.4578
  929MPD2    C113589   0.457   1.891  10.124 -0.3037  0.4014 -0.7243
  929MPD2    C213590   0.379   1.970  10.195  0.0311  0.0997 -0.3260
  929MPD2    C313591   0.308   2.077  10.138  0.6748 -0.5233 -0.1471
  929MPD2    C413592   0.295   2.075  10.003  0.0260 -0.0740 -0.1544
  929MPD2    C513593   0.357   1.970   9.924 -0.4255  0.1303 -0.8956
  929MPD2     H13594   0.399   1.976  10.302 -0.8750 -1.1101 -0.0832
  929MPD2    H113595   0.242   2.150   9.945  0.9939  0.5465 -0.2284
  929MPD2    H213596   0.505   1.813   9.932  0.3127 -0.0841  0.7520
  929MPD2    H313597   0.339   1.958   9.818  1.2671 -4.3196 -0.6794
  929MPD2     N13598   0.251   2.178  10.212 -0.1868 -0.0512 -0.0850
  929MPD2    H513599   0.190   2.244  10.167 -0.7663 -0.0869  0.6543
  929MPD2    N113600   0.553   1.810  10.182 -0.3280  0.1353 -0.1453
  929MPD2    H713601   0.606   1.752  10.117 -0.9699 -0.2973 -0.2836
  930MPD2     C13602   3.262   4.393  14.423 -0.1816  0.3418 -0.2874
  930MPD2    C113603   3.251   4.498  14.329 -0.4135  0.1191 -0.4161
  930MPD2    C213604   3.191   4.458  14.211 -0.0745 -0.1380  0.2848
  930MPD2    C313605   3.146   4.331  14.188 -0.0070  0.0370  0.0585
  930MPD2    C413606   3.135   4.239  14.287  0.4231  0.4966 -0.1587
  930MPD2    C513607   3.199   4.268  14.401 -0.0715 -0.0691 -0.0150
  930MPD2     H13608   3.188   4.528  14.128 -1.9060  0.9772  1.2803
  930MPD2    H113609   3.087   4.143  14.275  2.5017 -0.7361  1.3698
  930MPD2    H213610   3.324   4.411  14.510  0.6773 -0.6476 -0.6910
  930MPD2    H313611   3.197   4.197  14.483 -1.3712 -0.1931 -0.1499
  930MPD2     N13612   3.085   4.295  14.059  0.3874  0.1447 -0.6389
  930MPD2    H513613   3.035   4.209  14.041  1.3633 -0.5886  0.2012
  930MPD2    N113614   3.314   4.625  14.347 -1.0723 -0.5385  0.0149
  930MPD2    H713615   3.373   4.635  14.429 -1.7890 -0.1445  0.4836
  931MPD2     C13616   3.447   3.693   0.904 -0.0228  0.5160 -0.1607
  931MPD2    C113617   3.321   3.627   0.919 -0.2813 -0.1514  0.2519
  931MPD2    C213618   3.304   3.536   1.023 -0.7986  0.0341 -0.2832
  931MPD2    C313619   3.420   3.494   1.095 -0.0058 -0.0834  0.7272
  931MPD2    C413620   3.545   3.548   1.070  0.2920 -0.5271  0.3050
  931MPD2    C513621   3.557   3.645   0.978 -0.8826 -0.2998 -0.8220
  931MPD2     H13622   3.217   3.471   1.021  1.1058 -2.6097  2.7022
  931MPD2    H113623   3.631   3.520   1.130  0.6988 -2.2285 -1.0801
  931MPD2    H213624   3.452   3.772   0.830  2.7676  0.8321  0.3769
  931MPD2    H313625   3.650   3.695   0.956 -1.2696  0.5180 -0.5838
  931MPD2     N13626   3.414   3.405   1.201 -0.0338  0.0757  0.1772
  931MPD2    H513627   3.506   3.381   1.236 -0.4404 -1.3313  0.2957
  931MPD2    N113628   3.211   3.683   0.849 -0.4092  0.0943  0.1980
  931MPD2    H713629   3.234   3.752   0.778  2.0828  0.6980  1.6203
  932MPD2     C13630   0.371   2.466  11.226 -0.6647 -0.0537 -0.0107
  932MPD2    C113631   0.506   2.454  11.255  0.2941 -0.0997 -0.6722
  932MPD2    C213632   0.564   2.331  11.299  0.0775  0.0168  0.3830
  932MPD2    C313633   0.483   2.226  11.327 -0.5497  0.0724 -0.1102
  932MPD2    C413634   0.350   2.239  11.285  0.1823  0.6057  0.3923
  932MPD2    C513635   0.298   2.352  11.226  0.8003 -0.1309 -0.3897
  932MPD2     H13636   0.671   2.322  11.314 -0.3654 -2.7648  1.9099
  932MPD2    H113637   0.271   2.166  11.295  1.7631 -1.3769 -1.4900
  932MPD2    H213638   0.324   2.552  11.181  0.0689  0.2940 -0.1138
  932MPD2    H313639   0.196   2.351  11.191  0.1967 -1.4803  1.4343
  932MPD2     N13640   0.530   2.119  11.404 -0.6443 -0.2899 -0.0423
  932MPD2    H513641   0.623   2.125  11.444 -1.1547 -1.2261  1.2911
  932MPD2    N113642   0.593   2.555  11.228 -0.3802 -0.0333 -0.1542
  932MPD2    H713643   0.691   2.534  11.244 -0.0551  1.9190  0.4218
  933MPD2     C13644   0.048   3.230   0.832  0.5718 -0.6614 -0.0393
  933MPD2    C113645   0.111   3.223   0.953  0.4373  0.3611  0.3920
  933MPD2    C213646   0.091   3.326   1.045  0.0774 -0.4752 -0.3766
  933MPD2    C313647   0.010   3.429   1.016 -1.0454  0.1495  0.2397
  933MPD2    C413648   4.664   3.426   0.896 -0.0609 -0.3547  0.6002
  933MPD2    C513649   4.684   3.332   0.804 -0.4113 -0.3409  0.2790
  933MPD2     H13650   0.151   3.327   1.135  1.1653 -1.8816 -1.0917
  933MPD2    H113651   4.590   3.500   0.867 -0.7692 -0.2629  2.5777
  933MPD2    H213652   0.051   3.155   0.754  0.0728  1.5872 -2.2556
  933MPD2    H313653   4.622   3.336   0.715 -2.0867  1.4615  1.5385
  933MPD2     N13654   0.003   3.533   1.114  0.1118  0.8744  0.5642
  933MPD2    H513655   0.044   3.514   1.205  1.3743  5.5974  0.9687
  933MPD2    N113656   0.207   3.130   0.969 -0.8838  0.6759 -1.2955
  933MPD2    H713657   0.214   3.054   0.902 -2.1933 -1.0628  0.5499
  934MPD2     C13658   1.907   4.199   2.594 -0.6741 -0.5768 -0.7378
  934MPD2    C113659   2.017   4.153   2.532  0.2707 -0.2632 -0.5735
  934MPD2    C213660   2.020   4.141   2.396 -0.2017  0.4818  0.2689
  934MPD2    C313661   1.919   4.202   2.316 -0.0322 -0.7267 -0.4776
  934MPD2    C413662   1.806   4.248   2.387  0.3613  1.0175 -0.3770
  934MPD2    C513663   1.801   4.237   2.523 -0.0804 -0.0077  0.6433
  934MPD2     H13664   2.111   4.101   2.353 -0.8489  1.0433 -1.6130
  934MPD2    H113665   1.717   4.288   2.340 -1.3698 -0.8742  1.2936
  934MPD2    H213666   1.891   4.204   2.701  1.1193  0.9700 -0.5329
  934MPD2    H313667   1.718   4.285   2.573  1.5708  0.9110  2.5000
  934MPD2     N13668   1.909   4.187   2.177 -0.3707 -0.0410  0.2302
  934MPD2    H513669   1.828   4.220   2.126  0.1702  1.4172  0.3082
  934MPD2    N113670   2.120   4.088   2.600 -0.0392  0.4469  0.3006
  934MPD2    H713671   2.195   4.058   2.539 -0.2208 -1.8065  1.1742
  935MPD2     C13672   2.460   3.576   1.522 -0.1958 -0.0750 -1.3028
  935MPD2    C113673   2.350   3.623   1.451 -0.3208 -0.1744 -0.6368
  935MPD2    C213674   2.254   3.698   1.518  0.5815 -0.5030  0.1660
  935MPD2    C313675   2.266   3.720   1.652  0.1758 -0.0232 -0.1193
  935MPD2    C413676   2.368   3.658   1.724  0.3296 -0.8049 -0.4240
  935MPD2    C513677   2.463   3.592   1.659  0.3863 -0.0065 -0.2007
  935MPD2     H13678   2.172   3.738   1.458  1.5991  0.3744 -0.6347
  935MPD2    H113679   2.383   3.670   1.831  0.7762 -1.0813 -0.4565
  935MPD2    H213680   2.539   3.515   1.480  1.0724  0.2646  0.6084
  935MPD2    H313681   2.542   3.546   1.716 -0.2387  1.4414  1.8659
  935MPD2     N13682   2.167   3.803   1.721 -0.4173 -0.1213  0.8570
  935MPD2    H513683   2.175   3.800   1.822 -1.1845  1.8607  0.9711
  935MPD2    N113684   2.337   3.601   1.314  0.1254 -0.0517  0.2366
  935MPD2    H713685   2.253   3.629   1.265  0.0370  1.2379  1.1197
  936MPD2     C13686   1.451   0.994  12.778  0.3413 -0.5093 -0.3075
  936MPD2    C113687   1.405   1.112  12.836  0.0078 -0.3356 -0.2787
  936MPD2    C213688   1.437   1.240  12.791  0.0745  0.0798  0.2726
  936MPD2    C313689   1.515   1.256  12.678  0.2569  0.4947 -0.7720
  936MPD2    C413690   1.573   1.136  12.620  1.1528 -0.1569  0.1829
  936MPD2    C513691   1.538   1.012  12.669  0.5020 -0.4569 -0.3684
  936MPD2     H13692   1.394   1.325  12.844  0.7378 -0.1167  1.1207
  936MPD2    H113693   1.641   1.144  12.536  0.3395 -0.8039 -0.5357
  936MPD2    H213694   1.440   0.897  12.825  0.8588  0.5997  2.1051
  936MPD2    H313695   1.601   0.930  12.637  1.9772  0.5917 -0.1169
  936MPD2     N13696   1.554   1.392  12.644 -0.0248  0.0163 -0.5469
  936MPD2    H513697   1.504   1.466  12.692  1.1935  0.5226 -0.0500
  936MPD2    N113698   1.327   1.120  12.950 -0.0080  0.2958 -0.1781
  936MPD2    H713699   1.299   1.215  12.973 -2.4736 -0.7066  0.9570
  937MPD2     C13700   3.732   2.156  11.808  0.6175  0.1769 -0.2749
  937MPD2    C113701   3.788   2.277  11.786  0.2135  0.5072  0.0990
  937MPD2    C213702   3.902   2.286  11.703  0.1909 -0.2355  0.5075
  937MPD2    C313703   3.937   2.178  11.625 -0.2992  0.4383  0.1056
  937MPD2    C413704   3.876   2.057  11.648  0.3402  0.4437  0.1956
  937MPD2    C513705   3.777   2.048  11.738 -0.6213  0.0339  0.2560
  937MPD2     H13706   3.952   2.380  11.680 -0.3559  0.0143  0.3553
  937MPD2    H113707   3.912   1.965  11.604  2.9723  1.3781  0.3693
  937MPD2    H213708   3.659   2.135  11.885 -1.6525 -0.4807 -2.6223
  937MPD2    H313709   3.725   1.956  11.759  0.3986 -0.3669  1.0196
  937MPD2     N13710   4.040   2.196  11.526  0.4262 -0.6112  0.0370
  937MPD2    H513711   4.070   2.292  11.513 -1.8982  0.1867  0.5996
  937MPD2    N113712   3.769   2.392  11.869  0.4342 -0.0283 -0.5872
  937MPD2    H713713   3.813   2.480  11.844 -0.9718  0.9012  0.2052
  938MPD2     C13714   0.552   4.199   0.539  0.1360  0.2387 -0.2903
  938MPD2    C113715   0.676   4.197   0.596  0.0914 -0.0759 -0.3523
  938MPD2    C213716   0.688   4.172   0.729 -0.2507 -0.1940  0.6257
  938MPD2    C313717   0.580   4.145   0.812  0.0036  0.0255 -0.1158
  938MPD2    C413718   0.453   4.162   0.756 -0.0038 -0.1465 -0.1849
  938MPD2    C513719   0.444   4.181   0.622  0.5605 -0.3312 -0.6131
  938MPD2     H13720   0.789   4.174   0.768  0.0998  4.0008 -0.4883
  938MPD2    H113721   0.359   4.165   0.809  0.7452  3.7780  0.9221
  938MPD2    H213722   0.535   4.227   0.436  1.2122  2.0760  0.0307
  938MPD2    H313723   0.343   4.197   0.586 -0.2053 -0.6384  1.4392
  938MPD2     N13724   0.591   4.116   0.950  0.6132  0.5237 -0.5368
  938MPD2    H513725   0.507   4.130   1.006  0.1212 -1.6497 -0.7440
  938MPD2    N113726   0.793   4.220   0.518 -0.1349 -0.4561 -0.0336
  938MPD2    H713727   0.884   4.230   0.562 -1.4065 -0.7912  2.6825
  939MPD2     C13728   2.289   0.835   0.607  0.5166  0.0249  0.5077
  939MPD2    C113729   2.305   0.966   0.638 -0.4208  0.2396 -1.0760
  939MPD2    C213730   2.426   1.023   0.630 -0.2678  0.5714 -0.1876
  939MPD2    C313731   2.531   0.954   0.581  0.5037  1.9441  0.9602
  939MPD2    C413732   2.512   0.826   0.534 -0.4646  0.6543  0.0628
  939MPD2    C513733   2.395   0.765   0.551 -0.1345  0.0866 -0.3011
  939MPD2     H13734   2.432   1.130   0.652  1.2765  0.4826 -0.1393
  939MPD2    H113735   2.591   0.761   0.498 -1.5128  0.7155 -2.3174
  939MPD2    H213736   2.195   0.782   0.620  1.8133 -1.8157  2.4352
  939MPD2    H313737   2.389   0.660   0.526 -1.0571 -0.2791  1.4923
  939MPD2     N13738   2.657   1.021   0.590 -0.0825 -0.1915  0.1492
  939MPD2    H513739   2.657   1.117   0.622  1.4429 -0.0342 -0.3315
  939MPD2    N113740   2.187   1.039   0.666 -0.3696  0.2514  0.5947
  939MPD2    H713741   2.102   0.984   0.676 -1.0111  1.2460  0.6616
  940MPD2     C13742   1.828   0.798  12.757 -0.0742 -0.6347  0.0293
  940MPD2    C113743   1.897   0.733  12.859 -0.4578 -0.1959  0.6243
  940MPD2    C213744   1.938   0.601  12.830 -0.0706  0.4884  0.0919
  940MPD2    C313745   1.915   0.535  12.707 -0.0744 -0.8652 -0.2676
  940MPD2    C413746   1.842   0.602  12.617 -0.4116 -0.3201 -0.9264
  940MPD2    C513747   1.801   0.731  12.635 -0.4171  0.1233 -0.5275
  940MPD2     H13748   1.992   0.552  12.910  0.1076  0.0004 -0.3277
  940MPD2    H113749   1.825   0.562  12.518 -4.0727 -2.4422  0.5697
  940MPD2    H213750   1.780   0.894  12.769  0.2842 -0.0062 -3.4564
  940MPD2    H313751   1.742   0.781  12.559 -2.4318  0.6883  1.4127
  940MPD2     N13752   1.946   0.399  12.679  0.2022 -0.1783 -0.2377
  940MPD2    H513753   1.925   0.373  12.583 -2.0145 -0.4606  0.3212
  940MPD2    N113754   1.910   0.785  12.992 -0.4413  0.0990 -0.1920
  940MPD2    H713755   1.924   0.711  13.059 -1.7998  1.2948  1.4126
  941MPD2     C13756   0.744   0.217   9.416  0.2568 -0.9136 -0.0929
  941MPD2    C113757   0.763   0.118   9.515 -1.0412  0.3708 -0.3399
  941MPD2    C213758   0.685   0.007   9.515  0.3239  0.0594  0.6363
  941MPD2    C313759   0.568   0.003   9.438  0.2776  0.6023  0.6599
  941MPD2    C413760   0.547   0.105   9.347  0.2014  0.3756  0.0580
  941MPD2    C513761   0.636   0.207   9.327 -0.8910 -0.3226  0.3480
  941MPD2     H13762   0.711   4.656   9.587  0.7802 -1.6393 -1.3223
  941MPD2    H113763   0.460   0.115   9.282  1.0291 -0.6163 -1.2091
  941MPD2    H213764   0.796   0.312   9.417  1.5283 -1.5872 -2.2559
  941MPD2    H313765   0.607   0.285   9.257 -0.5591 -0.1816  0.3680
  941MPD2     N13766   0.477   4.621   9.439  0.6496 -0.1677 -0.1269
  941MPD2    H513767   0.399   4.623   9.374  0.4312  1.5044  0.1936
  941MPD2    N113768   0.858   0.121   9.615 -0.6978 -0.4591  0.0277
  941MPD2    H713769   0.880   0.036   9.664  1.0744 -0.9748 -1.6637
  942MPD2     C13770   0.795   2.084  10.219  0.1227 -0.3693 -0.3348
  942MPD2    C113771   0.812   2.117  10.082  0.4594 -0.4043 -0.0712
  942MPD2    C213772   0.919   2.065  10.011 -0.4816  0.6225  0.0670
  942MPD2    C313773   1.009   1.992  10.085  0.3092  0.0134 -0.5480
  942MPD2    C413774   0.993   1.965  10.220  0.0740  0.4020 -0.4564
  942MPD2    C513775   0.886   2.008  10.290  0.8462 -0.1494  0.4058
  942MPD2     H13776   0.950   2.099   9.913 -0.2535  0.3744  0.0536
  942MPD2    H113777   1.071   1.907  10.268  0.7029  2.1865  0.6477
  942MPD2    H213778   0.715   2.131  10.275  0.4504 -1.8451  1.3839
  942MPD2    H313779   0.875   1.994  10.397 -0.2741  2.7177  0.6696
  942MPD2     N13780   1.124   1.933  10.025 -0.6896 -1.1176  0.0398
  942MPD2    H513781   1.180   1.884  10.094  0.4408  0.1919  0.0358
  942MPD2    N113782   0.731   2.206  10.014 -0.1745  0.0492 -0.1827
  942MPD2    H713783   0.755   2.224   9.917  1.2831 -2.9938 -0.3870
  943MPD2     C13784   4.336   4.473   9.793 -0.6816  0.7101 -0.4586
  943MPD2    C113785   4.224   4.399   9.814  0.5677 -0.2951  0.6954
  943MPD2    C213786   4.144   4.359   9.710  0.4305 -0.2006  0.5578
  943MPD2    C313787   4.198   4.374   9.578  0.0440 -0.1863  0.0177
  943MPD2    C413788   4.319   4.437   9.559  0.0734  0.5100 -0.5228
  943MPD2    C513789   4.386   4.490   9.664  0.4546 -0.1158  0.0831
  943MPD2     H13790   4.053   4.301   9.723  0.6019 -0.5838  0.0396
  943MPD2    H113791   4.363   4.447   9.461 -1.3465 -0.3259 -1.2457
  943MPD2    H213792   4.400   4.496   9.878  0.0027  1.6811 -1.2374
  943MPD2    H313793   4.481   4.543   9.659  1.1331 -1.1822  1.6667
  943MPD2     N13794   4.131   4.317   9.464  0.3019 -0.0503 -0.1660
  943MPD2    H513795   4.185   4.321   9.378 -0.2969  1.1278 -0.4855
  943MPD2    N113796   4.179   4.397   9.950 -0.9061 -0.2878  0.6496
  943MPD2    H713797   4.229   4.457  10.015 -0.4181  1.1379 -1.0513
  944MPD2     C13798   4.086   3.236  11.440  0.2558 -0.6838 -0.0198
  944MPD2    C113799   4.088   3.302  11.320 -0.3029 -0.0582  0.1150
  944MPD2    C213800   4.055   3.439  11.313 -0.0068  0.4741  0.3472
  944MPD2    C313801   4.018   3.505  11.429 -0.0229  0.1315 -0.0936
  944MPD2    C413802   4.011   3.433  11.550 -0.5410 -0.6126  0.3716
  944MPD2    C513803   4.043   3.295  11.556 -0.1275  0.0876 -0.4635
  944MPD2     H13804   4.065   3.487  11.217  2.4192 -0.2051  0.2792
  944MPD2    H113805   3.970   3.481  11.639  1.6608 -1.6664  1.9525
  944MPD2    H213806   4.103   3.129  11.448  2.1051 -0.1754  2.8375
  944MPD2    H313807   4.035   3.235  11.645  1.6371  0.6702  0.0781
  944MPD2     N13808   3.984   3.646  11.417  0.0905  0.3350 -0.3046
  944MPD2    H513809   3.976   3.683  11.322  0.9128 -0.4215 -0.6739
  944MPD2    N113810   4.131   3.231  11.207  0.1809 -0.3669  0.6504
  944MPD2    H713811   4.149   3.131  11.215 -1.7630 -1.1843 -5.1334
    1TCq1    O113812   1.981   0.087  15.022  0.1015  0.1512  0.1360
    1TCq1    C113813   2.079   0.175  15.047  0.3652  0.5381 -1.2489
    1TCq1    O213814   2.199   0.147  15.053 -0.0274 -0.5712 -0.1777
    1TCq1    C213815   2.019   0.307  15.034 -0.0068  0.7807  0.4703
    1TCq1    C313816   1.930   0.322  14.927  0.3403 -0.2730  0.1833
    1TCq1    C413817   1.914   0.450  14.874  0.6445 -0.5815  0.6918
    1TCq1    C513818   2.000   0.551  14.911  0.8800 -0.6378  0.4503
    1TCq1    C613819   2.089   0.524  15.010 -0.0034  0.2416 -0.7444
    1TCq1    C713820   2.097   0.406  15.079 -0.9307  0.5585 -0.0675
    1TCq1    C813821   2.181   0.630  15.055 -0.3360  0.4280  0.9233
    1TCq1    O413822   2.233   0.611  15.165  0.2541 -0.7452 -0.8137
    1TCq1    C913823   1.823   0.481  14.776  0.8566 -0.0371  0.0924
    1TCq1    O513824   1.734   0.395  14.753 -0.1178  0.5903 -0.6102
    1TCq1    O613825   1.855   0.579  14.698  0.2681  0.1638 -0.3965
    1TCq1    H113826   1.899   0.138  15.039  0.8985  0.7202  2.3903
    1TCq1    H213827   1.869   0.241  14.889  0.9818 -0.2617 -0.8839
    1TCq1    H313828   1.972   0.645  14.866  0.7044 -0.7257  0.3760
    1TCq1    H413829   2.170   0.377  15.153 -1.1738  1.3330  0.4698
    2MPD2     C13830   2.428   1.063  15.012 -0.2427 -0.0017  0.9373
    2MPD2    C113831   2.332   1.064  14.916 -0.0251 -0.1964 -0.1235
    2MPD2    C213832   2.242   0.956  14.900 -0.5505 -0.0932  0.3480
    2MPD2    C313833   2.260   0.857  14.990 -0.2649 -0.1339  0.0651
    2MPD2    C413834   2.343   0.866  15.096 -0.2853  0.6833 -0.1007
    2MPD2    C513835   2.428   0.965  15.106 -0.4287 -0.1850  0.6666
    2MPD2     H13836   2.171   0.944  14.819  0.2562 -3.1838  0.0991
    2MPD2    H113837   2.350   0.797  15.179 -0.1382  0.5369 -0.2354
    2MPD2    H213838   2.501   1.143  15.014  2.1703 -2.1325 -0.9985
    2MPD2    H313839   2.484   0.975  15.198 -1.4034  1.9791  1.0342
    2MPD2     N13840   2.186   0.737  14.967  0.1018 -0.3469  0.3304
    2MPD2    H513841   2.134   0.733  14.880 -0.4703  0.8876  0.6083
    2MPD2    N113842   2.316   1.175  14.828 -0.3059 -0.0432 -0.2639
    2MPD2    H713843   2.395   1.238  14.816  1.2938 -2.4584 -2.4854
    3TMC2    C113844   2.261   1.283  14.630 -0.3664  0.2528 -0.1872
    3TMC2    C213845   2.347   1.388  14.660  0.2074 -0.0051  0.1539
    3TMC2    C313846   2.394   1.457  14.553 -0.7059  0.0597 -0.0656
    3TMC2    C413847   2.210   1.262  14.506  0.6595  0.5581 -0.4709
    3TMC2    C513848   2.259   1.337  14.405  0.1704 -0.3097  0.2329
    3TMC2    C613849   2.354   1.428  14.418 -0.7395  0.2315  0.7753
    3TMC2     C13850   2.221   1.187  14.732  0.3203  0.0143  0.3708
    3TMC2     O13851   2.119   1.124  14.712 -0.7471 -0.0217 -0.3397
    3TMC2     H13852   2.381   1.419  14.758 -4.4785  3.3133  0.7499
    3TMC2    H113853   2.126   1.197  14.485  1.2607 -1.3472  3.0528
    3TMC2    H213854   2.407   1.463  14.330 -0.8322  0.0865  0.6624
    3TMC2    C713855   2.213   1.291  14.279  0.5308 -0.4199  0.2012
    3TMC2    C813856   2.497   1.545  14.575 -0.6477 -0.0008 -0.4624
    3TMC2    O113857   2.187   1.170  14.272 -0.6029  0.7941 -0.3123
    3TMC2    O213858   2.563   1.556  14.680 -0.2942  0.4642 -0.3510
    3TMC2    O513859   2.489   1.633  14.472  0.2079  0.3913 -0.2722
    3TMC2    H513860   2.402   1.642  14.429 -0.1567 -1.2830  0.1108
    4MPD2     C13861   1.553   2.144  13.234  0.0267 -0.4947 -0.1574
    4MPD2    C113862   1.652   2.118  13.145  0.2741 -1.1671 -0.3220
    4MPD2    C213863   1.775   2.071  13.189  0.3803 -0.2574 -0.4405
    4MPD2    C313864   1.798   2.055  13.322 -0.0481 -0.3593 -0.4475
    4MPD2    C413865   1.697   2.087  13.412 -0.1580 -0.0218 -0.9009
    4MPD2    C513866   1.578   2.134  13.366  0.6090  0.1783 -0.3583
    4MPD2     H13867   1.855   2.066  13.116  0.8731 -0.3177  0.1032
    4MPD2    H113868   1.698   2.070  13.519  1.3234 -0.3721 -0.9653
    4MPD2    H213869   1.455   2.179  13.204 -0.5926 -0.4092  1.9613
    4MPD2    H313870   1.499   2.162  13.436  1.9244  3.6000 -0.3029
    4MPD2     N13871   1.926   2.012  13.364  0.1876 -0.1780  0.3449
    4MPD2    H513872   2.004   2.025  13.300  0.8432  1.1113  1.4020
    4MPD2    N113873   1.619   2.138  13.009  0.8939 -0.1704 -0.5265
    4MPD2    H713874   1.537   2.189  12.980  0.3340  0.0073  1.3892
    5TCq2    C113875   1.953   1.955  13.478 -0.1732  0.7383  0.8455
    5TCq2    O213876   1.895   1.954  13.590  0.5286 -0.0780  0.1178
    5TCq2    C213877   2.091   1.906  13.493  0.3019 -0.0746 -0.0498
    5TCq2    C313878   2.150   1.847  13.381 -0.0248  0.1180  0.4740
    5TCq2    C413879   2.251   1.750  13.386  0.3129  0.1213 -0.1040
    5TCq2    C513880   2.278   1.697  13.508  0.6927 -0.0590  0.4471
    5TCq2    C613881   2.215   1.754  13.618 -0.2317 -0.1596  0.2085
    5TCq2    C713882   2.125   1.860  13.613 -0.1914 -0.5690  0.0193
    5TCq2    C813883   2.227   1.691  13.747  0.1947 -1.1442  0.7730
    5TCq2    O413884   2.247   1.763  13.845 -0.8427 -0.1368  0.3934
    5TCq2    C913885   2.295   1.685  13.274  0.5933 -0.1888 -0.7981
    5TCq2    O513886   2.371   1.588  13.293 -0.2333 -0.3642  0.7500
    5TCq2    O613887   2.264   1.738  13.169  0.3887 -0.4775 -0.1972
    5TCq2    H213888   2.112   1.855  13.280 -1.1055 -1.5502  0.7604
    5TCq2    H313889   2.352   1.619  13.523  1.1268  0.2075 -0.3547
    5TCq2    H413890   2.096   1.902  13.708 -1.2483 -1.4720  0.0946
    6MPD1     C13891   0.901   2.939  11.401  0.3224 -0.5706 -0.1829
    6MPD1    C113892   0.988   3.029  11.469  0.0459 -0.6401  0.0445
    6MPD1    C213893   1.054   2.987  11.581 -0.7784  0.0451 -0.3325
    6MPD1    C313894   1.027   2.860  11.633  0.8525 -0.2443 -0.2737
    6MPD1    C413895   0.954   2.769  11.557  0.1958  0.2647  0.5394
    6MPD1    C513896   0.896   2.809  11.439  0.1533 -0.0336  0.5211
    6MPD1     H13897   1.110   3.059  11.639 -1.3221  1.4435 -1.5505
    6MPD1    H113898   0.937   2.670  11.597 -0.8319 -0.2369 -1.1660
    6MPD1    H213899   0.843   2.979  11.318 -0.0906  1.5090  1.1244
    6MPD1    H313900   0.839   2.735  11.383  2.8843 -1.0229 -0.9311
    6MPD1     N13901   1.095   2.809  11.751  0.1467  0.1557 -0.5734
    6MPD1    H513902   1.067   2.715  11.778 -0.5368  0.2091 -1.0783
    6MPD1    N113903   0.989   3.163  11.429  0.0810 -0.2472 -0.2670
    6MPD1    H613904   1.084   3.200  11.425  0.0639 -0.5362 -2.9286
    6MPD1    H713905   0.955   3.175  11.334  1.7957 -0.5959 -0.9292
    7MPD2     C13906   1.299   2.797  12.565  0.9659  0.0712 -1.0310
    7MPD2    C113907   1.352   2.695  12.481 -0.0956  0.2315  0.2663
    7MPD2    C213908   1.390   2.575  12.536  0.3491  0.1613  0.4265
    7MPD2    C313909   1.358   2.548  12.667  0.4856 -0.1531  0.3680
    7MPD2    C413910   1.303   2.642  12.747 -0.1306 -0.0021 -0.0715
    7MPD2    C513911   1.285   2.765  12.696  0.4490  0.1467 -0.3838
    7MPD2     H13912   1.440   2.499  12.476  1.3297  0.1178  1.3071
    7MPD2    H113913   1.266   2.624  12.847 -1.2345  2.5596 -0.0205
    7MPD2    H213914   1.270   2.896  12.533 -2.9375 -1.2290 -1.4833
    7MPD2    H313915   1.244   2.841  12.761  0.8916  0.5088 -0.5168
    7MPD2     N13916   1.390   2.422  12.717 -0.4716  0.1221 -0.0870
    7MPD2    H513917   1.383   2.403  12.816  1.3828  1.6540  0.3502
    7MPD2    N113918   1.389   2.715  12.346  0.6527  0.1381 -0.1332
    7MPD2    H713919   1.433   2.637  12.299  1.1172  0.4475 -0.2175
    8TMC3    C113920   1.448   2.207  12.703  0.3547  0.1373 -0.1372
    8TMC3    C213921   1.553   2.231  12.781  0.3596  0.5922  0.3795
    8TMC3    C313922   1.653   2.140  12.781  0.2210  0.0033  0.4691
    8TMC3    C413923   1.448   2.096  12.622 -0.8758 -0.4388  0.2513
    8TMC3    C513924   1.553   2.015  12.615 -0.0424 -0.2974  0.1519
    8TMC3    C613925   1.663   2.035  12.697 -0.2149  0.3308  0.0314
    8TMC3     C13926   1.397   2.320  12.634 -0.5800 -0.0240 -0.0360
    8TMC3     O13927   1.351   2.305  12.520 -0.3335  0.2610 -0.0054
    8TMC3     H13928   1.570   2.328  12.826 -0.7749  1.6965 -1.5417
    8TMC3    H113929   1.354   2.085  12.569 -0.5698  0.4784 -0.4832
    8TMC3    H213930   1.759   1.989  12.679  0.3682  1.4796  0.2444
    8TMC3    C713931   1.582   1.980  12.474  0.4151  0.6048  0.4501
    8TMC3    C813932   1.690   2.085  12.905  0.2474  0.0205  0.0456
    8TMC3    O113933   1.697   1.938  12.452  0.1589  0.2126  0.6002
    8TMC3    O213934   1.770   1.993  12.911  0.6346  0.2206  1.0958
    9TMC3    C113935   1.239   2.797  11.931 -0.3920 -0.5862  0.0787
    9TMC3    C213936   1.271   2.673  11.889 -0.4206  0.3148 -0.1392
    9TMC3    C313937   1.363   2.604  11.962 -0.4129 -0.8609 -0.3823
    9TMC3    C413938   1.276   2.851  12.050  0.0069  0.0807 -0.0889
    9TMC3    C513939   1.365   2.783  12.124 -1.1804  0.0428  0.1379
    9TMC3    C613940   1.413   2.659  12.084 -0.1188  0.0948  0.3311
    9TMC3     C13941   1.175   2.880  11.840  0.5682 -0.7165  0.3563
    9TMC3     O13942   1.196   2.999  11.857 -0.1797 -0.0407  0.0305
    9TMC3     H13943   1.259   2.636  11.788  1.0896 -1.8321  0.4775
    9TMC3    H113944   1.240   2.948  12.082  0.2163  0.4553 -0.9895
    9TMC3    H213945   1.490   2.610  12.141  0.7220  0.8439 -0.1504
    9TMC3    C713946   1.361   2.821  12.264 -0.8185 -0.0702  0.5413
    9TMC3    C813947   1.385   2.462  11.940  0.0877  0.1316  0.0450
    9TMC3    O113948   1.293   2.918  12.295  0.0092 -1.1794 -0.8649
    9TMC3    O213949   1.408   2.429  11.822  0.0124 -0.3288 -1.0199
   10MPD2     C13950   1.577   2.035  12.161  0.6700  0.3399 -0.1775
   10MPD2    C113951   1.521   2.114  12.263 -0.6702  0.3721  0.2940
   10MPD2    C213952   1.465   2.236  12.227 -0.5115 -0.6100  0.9841
   10MPD2    C313953   1.465   2.277  12.098  0.0187  0.1955  0.0646
   10MPD2    C413954   1.522   2.198  12.001 -0.7825 -0.4197  0.4800
   10MPD2    C513955   1.576   2.077  12.031  0.0288  0.0253  0.2140
   10MPD2     H13956   1.416   2.302  12.298  0.8229  1.5051 -0.0451
   10MPD2    H113957   1.523   2.226  11.896  0.3675  0.3836  0.7043
   10MPD2    H213958   1.610   1.935  12.189 -0.4564  0.1500  0.4597
   10MPD2    H313959   1.622   2.015  11.955 -1.8795  0.5423 -1.3811
   10MPD2     N13960   1.398   2.396  12.067  0.2435 -0.6297  0.1693
   10MPD2    H513961   1.344   2.443  12.139  2.2254 -0.3629  1.4734
   10MPD2    N113962   1.517   2.078  12.401 -0.9618 -0.1590 -0.3080
   10MPD2    H713963   1.451   2.140  12.446 -1.5077 -1.3713  0.5653
   11MPD2     C13964   2.147   1.250  13.992 -0.5347  0.0858  0.4244
   11MPD2    C113965   2.190   1.371  14.043  0.5738  0.2498  0.2150
   11MPD2    C213966   2.193   1.482  13.965  0.4537  0.5264  0.1820
   11MPD2    C313967   2.156   1.475  13.835 -0.0312 -0.0133 -0.3499
   11MPD2    C413968   2.093   1.362  13.790  0.0393 -0.2474  0.4714
   11MPD2    C513969   2.092   1.253  13.869  0.0191 -0.1460 -0.4268
   11MPD2     H13970   2.232   1.577  14.001  1.1141  1.1327 -2.1141
   11MPD2    H113971   2.047   1.351  13.692  1.2979  0.6539 -0.2240
   11MPD2    H213972   2.157   1.157  14.046  1.7404  0.1694  0.1557
   11MPD2    H313973   2.048   1.157  13.843  0.7454 -0.9105  1.2016
   11MPD2     N13974   2.182   1.571  13.733 -0.0004  0.3628 -0.2878
   11MPD2    H513975   2.145   1.540  13.643 -0.5637 -0.2761  0.1679
   11MPD2    N113976   2.225   1.383  14.182 -0.3686 -0.4408 -0.2370
   11MPD2    H713977   2.252   1.476  14.212 -1.3725 -0.6375  1.2376
    1MPD1     C13978   4.397   2.701  17.340 -0.2725  0.3016  0.4381
    1MPD1    C113979   4.515   2.630  17.310  0.2997 -0.1253 -0.3329
    1MPD1    C213980   4.619   2.711  17.266  0.4552  0.1026  0.1258
    1MPD1    C313981   4.600   2.841  17.217  1.1670 -0.3117  0.3895
    1MPD1    C413982   4.478   2.898  17.237 -0.2907 -0.1170 -0.5379
    1MPD1    C513983   4.387   2.830  17.307 -0.1823  0.2051 -0.9092
    1MPD1     H13984   4.720   2.670  17.270 -0.1220 -1.2469  1.0057
    1MPD1    H113985   4.453   3.000  17.210  0.2606 -0.2909 -1.7553
    1MPD1    H213986   4.313   2.644  17.380 -0.8370 -1.0273 -2.5398
    1MPD1    H313987   4.296   2.885  17.329  0.1486  0.0109  0.8946
    1MPD1     N13988   4.705   2.917  17.162  0.0812 -0.5735 -0.6931
    1MPD1    H513989   4.696   3.018  17.153  1.1314 -0.5571 -1.5405
    1MPD1    N113990   4.537   2.508  17.371  0.6063 -0.1234 -0.6707
    1MPD1    H613991   4.452   2.452  17.365 -0.7245  1.6654  1.3253
    1MPD1    H713992   4.626   2.465  17.348  0.6301 -0.5671  0.2617
    2MPD1     C13993   0.756   2.589  16.623 -0.0270  1.0247  0.3964
    2MPD1    C113994   0.782   2.622  16.753 -0.2315  0.0050  0.9708
    2MPD1    C213995   0.686   2.702  16.813  1.0642  0.1093  0.0359
    2MPD1    C313996   0.595   2.776  16.737  0.5547  1.0482 -0.0424
    2MPD1    C413997   0.595   2.755  16.598 -0.3685 -0.5174 -0.7803
    2MPD1    C513998   0.659   2.651  16.549  0.3728  0.6499 -0.1047
    2MPD1     H13999   0.694   2.717  16.920 -1.5927  0.8928  0.1387
    2MPD1    H114000   0.533   2.814  16.532  1.3175  0.0714 -1.8354
    2MPD1    H214001   0.813   2.509  16.578 -0.6182  0.5536  0.4827
    2MPD1    H314002   0.646   2.624  16.445  0.0233  0.0656  0.0881
    2MPD1     N14003   0.496   2.850  16.802 -0.1042 -0.0153  0.3638
    2MPD1    H514004   0.502   2.846  16.903  1.2760 -2.7116  0.1646
    2MPD1    N114005   0.871   2.550  16.833  0.8692 -0.2454 -0.0426
    2MPD1    H614006   0.957   2.530  16.783 -0.0586  1.0025 -2.0917
    2MPD1    H714007   0.903   2.602  16.915 -0.0380 -0.5349  0.4972
    3TMC3    C114008   0.314   2.990  16.847 -0.4868  0.0177 -0.1843
    3TMC3    C214009   0.243   3.103  16.806 -0.8912 -0.5684  0.0720
    3TMC3    C314010   0.133   3.144  16.875 -0.3670  0.7238  0.6374
    3TMC3    C414011   0.278   2.923  16.959  0.7046  1.4553  0.3435
    3TMC3    C514012   0.164   2.970  17.026 -0.0550  0.4376  0.3138
    3TMC3    C614013   0.097   3.083  16.985  0.1905  0.3339 -0.8111
    3TMC3     C14014   0.397   2.924  16.748 -0.0424 -0.5301 -0.4618
    3TMC3     O14015   0.372   2.937  16.633  0.3348  0.1244 -0.2471
    3TMC3     H14016   0.247   3.141  16.704 -1.6150 -2.3713 -0.6286
    3TMC3    H114017   0.303   2.819  16.971  0.6696  1.7906  3.3727
    3TMC3    H214018   0.013   3.127  17.038  0.3516  0.5435 -0.7279
    3TMC3    C714019   0.087   2.865  17.097 -0.2961  0.1715  0.4823
    3TMC3    C814020   0.043   3.243  16.816 -0.0866  0.0204  0.2002
    3TMC3    O114021   0.108   2.747  17.071 -0.0814  0.7115 -0.1337
    3TMC3    O214022   4.654   3.215  16.835 -0.1827  0.2583  0.8713
    4MPD1     C14023   4.687   3.686  16.588  0.0021  0.8882 -0.1134
    4MPD1    C114024   0.093   3.682  16.632  0.2078  0.1478 -0.6974
    4MPD1    C214025   0.140   3.565  16.693  0.0672 -0.5378  0.2303
    4MPD1    C314026   0.053   3.467  16.725  0.2124  0.2941 -0.0374
    4MPD1    C414027   4.644   3.488  16.705  0.4378 -0.0654 -0.0992
    4MPD1    C514028   4.593   3.594  16.639 -0.3744 -0.1897 -0.4758
    4MPD1     H14029   0.245   3.548  16.712  0.3489 -0.8454 -1.6403
    4MPD1    H114030   4.573   3.420  16.751  0.2817 -1.0832 -1.8249
    4MPD1    H214031   4.644   3.773  16.540 -0.7291  0.5505 -0.0620
    4MPD1    H314032   4.485   3.608  16.630 -0.3910 -0.6579 -0.9863
    4MPD1     N14033   0.113   3.348  16.766 -0.5953 -0.6012  0.2510
    4MPD1    H514034   0.214   3.342  16.770 -0.4916  0.9107 -0.1185
    4MPD1    N114035   0.179   3.773  16.581  0.3318  0.0634  0.1597
    4MPD1    H614036   0.132   3.862  16.571 -1.7852 -1.1752 -0.7517
    4MPD1    H714037   0.262   3.789  16.639  1.4460 -3.7266 -0.3255
    1TCq1    O114038   0.714   2.333  10.988  0.7956 -0.9775 -0.5290
    1TCq1    C114039   0.807   2.368  10.897 -0.7812  1.0395  0.0957
    1TCq1    O214040   0.789   2.450  10.808  0.2042 -0.5698 -0.3706
    1TCq1    C214041   0.932   2.363  10.973  0.4962  0.5247 -0.3325
    1TCq1    C314042   0.934   2.312  11.096 -0.0335  0.1593 -0.3459
    1TCq1    C414043   1.061   2.289  11.151 -0.0970 -0.4728  0.8616
    1TCq1    C514044   1.172   2.284  11.076 -0.5148  0.3557  0.6829
    1TCq1    C614045   1.156   2.341  10.953 -0.2958 -0.4647 -0.3020
    1TCq1    C714046   1.039   2.381  10.900 -0.0103 -0.4230  0.4040
    1TCq1    C814047   1.267   2.348  10.871  0.1310  0.2035 -0.3016
    1TCq1    O414048   1.256   2.425  10.776  0.4284 -0.6387 -0.1179
    1TCq1    C914049   1.079   2.233  11.285 -0.1003  0.1228  0.3198
    1TCq1    O514050   1.180   2.161  11.309  0.3561 -0.1507 -0.2522
    1TCq1    O614051   0.984   2.250  11.360  0.4049  0.0711 -0.2385
    1TCq1    H114052   0.756   2.265  11.044  1.4186 -0.0200  0.1632
    1TCq1    H214053   0.851   2.302  11.166  0.4593  0.4878  0.2804
    1TCq1    H314054   1.269   2.263  11.119 -0.1972  1.6309  0.5979
    1TCq1    H414055   1.033   2.427  10.801  0.1461 -1.3204 -0.0194
    2MPD1     C14056   1.612   2.109  10.600  0.1670  0.1760  0.2959
    2MPD1    C114057   1.567   2.018  10.697  0.0777  0.6346 -0.2640
    2MPD1    C214058   1.474   2.061  10.799 -0.3223 -0.5600  0.1635
    2MPD1    C314059   1.435   2.196  10.797 -0.3141  0.5149 -0.2479
    2MPD1    C414060   1.493   2.280  10.706 -0.5813 -0.0629  0.2451
    2MPD1    C514061   1.582   2.244  10.606 -0.0604 -0.2629  0.0783
    2MPD1     H14062   1.433   1.997  10.876  1.0316 -2.2201 -0.4832
    2MPD1    H114063   1.469   2.385  10.708  1.2039  0.3093  2.2569
    2MPD1    H214064   1.686   2.081  10.525  1.5629 -0.8991  2.0612
    2MPD1    H314065   1.632   2.315  10.542  0.1702 -1.2987 -0.8780
    2MPD1     N14066   1.332   2.232  10.885 -0.3112 -0.2225 -0.3411
    2MPD1    H514067   1.312   2.158  10.952  0.6402 -0.3329 -0.1722
    2MPD1    N114068   1.573   1.884  10.667  0.1472  0.4956  0.9233
    2MPD1    H614069   1.659   1.853  10.621 -0.1329  1.2943 -0.1291
    2MPD1    H714070   1.552   1.827  10.749 -2.3818 -1.5616 -1.1699
    1TCq1    O114071   1.758   2.911   9.190  0.2889  0.1974  0.0400
    1TCq1    C114072   1.792   3.035   9.154 -0.4737  0.1698  0.0808
    1TCq1    O214073   1.884   3.055   9.072  0.4835  0.5648  0.1174
    1TCq1    C214074   1.705   3.145   9.202 -0.8134  0.0832  0.6676
    1TCq1    C314075   1.576   3.119   9.243  0.3462  0.0310 -0.2744
    1TCq1    C414076   1.505   3.221   9.296  0.0234 -0.3595  0.5830
    1TCq1    C514077   1.560   3.351   9.296  0.2552 -0.3299  1.1792
    1TCq1    C614078   1.689   3.365   9.259 -0.9739  0.1188 -0.3065
    1TCq1    C714079   1.767   3.263   9.213 -0.0102  0.0758 -0.6065
    1TCq1    C814080   1.743   3.507   9.253  0.3433 -0.7691 -0.1304
    1TCq1    O414081   1.864   3.522   9.263  0.1039  0.6236  0.6946
    1TCq1    C914082   1.357   3.218   9.289 -0.0423  0.2828  0.4733
    1TCq1    O514083   1.304   3.330   9.267  0.4397  0.4233 -0.2250
    1TCq1    O614084   1.297   3.114   9.325  0.2180  0.1668  0.4363
    1TCq1    H114085   1.691   2.907   9.261  0.2908  0.2392  0.0442
    1TCq1    H214086   1.510   3.038   9.214  2.6009 -1.9304  0.0755
    1TCq1    H314087   1.490   3.429   9.324  0.5097 -0.1779  1.4012
    1TCq1    H414088   1.851   3.284   9.148  1.8555 -0.8838  1.4892
    2MPD1     C14089   1.686   4.015   9.184 -0.0121 -0.2525  0.6806
    2MPD1    C114090   1.571   3.953   9.143 -0.6689 -0.5657 -0.1377
    2MPD1    C214091   1.557   3.816   9.161  0.5890 -0.4700  0.6561
    2MPD1    C314092   1.656   3.744   9.228  0.1120 -1.1669 -0.1815
    2MPD1    C414093   1.777   3.809   9.266  0.1009  0.2758 -0.0203
    2MPD1    C514094   1.777   3.944   9.255  0.4849 -0.0658 -0.1966
    2MPD1     H14095   1.466   3.771   9.126  0.3486  1.1507 -0.7802
    2MPD1    H114096   1.856   3.757   9.319 -0.7006 -1.7729 -0.8458
    2MPD1    H214097   1.701   4.122   9.182  1.2409 -0.5112 -2.6645
    2MPD1    H314098   1.862   3.997   9.296  0.7471  1.8431 -3.1540
    2MPD1     N14099   1.642   3.604   9.237 -0.3244 -0.3806  0.5027
    2MPD1    H514100   1.550   3.574   9.207 -1.6213  3.8155  0.3638
    2MPD1    N114101   1.476   4.031   9.067  0.1695 -0.1606  0.6418
    2MPD1    H614102   1.380   3.998   9.058  0.3611 -0.4203 -0.4425
    2MPD1    H714103   1.487   4.130   9.087 -0.3191  0.1120 -0.4132
    1MPD1     C14104   2.477   2.036  12.461  0.0254  0.8003  0.1013
    1MPD1    C114105   2.526   1.969  12.341  0.5335 -0.1549 -0.0755
    1MPD1    C214106   2.638   2.026  12.274 -0.1655 -0.0022  0.9067
    1MPD1    C314107   2.690   2.150  12.308  0.3355  0.2025  0.3021
    1MPD1    C414108   2.645   2.206  12.425  0.3627  0.0933  1.3418
    1MPD1    C514109   2.540   2.149  12.500  0.6627  0.4894  0.1925
    1MPD1     H14110   2.662   1.980  12.180 -2.4046  0.1892  0.2406
    1MPD1    H114111   2.684   2.304  12.449 -1.5483  1.1142  0.1901
    1MPD1    H214112   2.396   1.999  12.522 -0.0838  2.1969  0.8039
    1MPD1    H314113   2.507   2.180  12.598  0.1735  0.5670  0.0062
    1MPD1     N14114   2.801   2.198  12.241  0.6483  0.3455 -0.6972
    1MPD1    H514115   2.822   2.152  12.153 -0.0562 -1.3774  0.0509
    1MPD1    N114116   2.471   1.845  12.298  0.2695  0.2330  0.2997
    1MPD1    H614117   2.474   1.842  12.196  0.1157  1.3577  0.2583
    1MPD1    H714118   2.385   1.808  12.339 -0.4217  1.6982  0.1798
    2MPD1     C14119   2.356   2.772  11.269  0.3446 -1.1202 -0.0055
    2MPD1    C114120   2.273   2.680  11.209 -0.0372  0.4604 -0.1958
    2MPD1    C214121   2.328   2.604  11.106 -0.6290  0.1843  0.5359
    2MPD1    C314122   2.464   2.592  11.083 -0.9947 -0.5017  0.5265
    2MPD1    C414123   2.540   2.684  11.152  0.8067 -0.2120 -0.0109
    2MPD1    C514124   2.488   2.768  11.243  0.6341 -0.3563  0.4727
    2MPD1     H14125   2.264   2.547  11.041 -3.2130 -0.4868  3.6450
    2MPD1    H114126   2.646   2.697  11.134  1.0288 -0.5700  1.0235
    2MPD1    H214127   2.310   2.843  11.337 -0.3632  0.0982 -1.7563
    2MPD1    H314128   2.557   2.839  11.287  0.3653  1.5816 -2.2708
    2MPD1     N14129   2.527   2.504  10.990  0.0162  0.4733 -1.0090
    2MPD1    H514130   2.626   2.523  10.975  0.1492  0.7104  0.1660
    2MPD1    N114131   2.134   2.704  11.228 -0.7205 -0.3344  0.5895
    2MPD1    H614132   2.072   2.627  11.204  1.1356 -1.8080  0.5417
    2MPD1    H714133   2.105   2.735  11.321 -3.8019 -2.5747  0.3756
    3MPD1     C14134   2.247   1.702  10.398  0.0528 -0.2488 -0.2194
    3MPD1    C114135   2.181   1.769  10.501  0.1006 -0.6779  0.7980
    3MPD1    C214136   2.247   1.877  10.554  0.2270 -0.1785 -0.3499
    3MPD1    C314137   2.358   1.931  10.499 -1.1473 -0.8061  0.6259
    3MPD1    C414138   2.419   1.861  10.393 -0.6043 -0.3256 -0.0113
    3MPD1    C514139   2.362   1.745  10.345  0.0586  0.2583  0.7838
    3MPD1     H14140   2.203   1.924  10.642  0.3022  1.7699 -1.3733
    3MPD1    H114141   2.512   1.895  10.350  0.6410 -2.5262  0.9070
    3MPD1    H214142   2.200   1.614  10.355 -3.0429  0.4792  1.6176
    3MPD1    H314143   2.416   1.675  10.283  0.2373  2.9730 -2.1118
    3MPD1     N14144   2.419   2.047  10.564  0.1168  0.9430  0.0587
    3MPD1    H514145   2.370   2.086  10.644  1.1337 -0.2255  1.2531
    3MPD1    N114146   2.073   1.713  10.571 -0.0436  0.5582 -0.3394
    3MPD1    H614147   2.014   1.779  10.622  3.6306  3.7576 -0.2698
    3MPD1    H714148   2.016   1.659  10.507  2.4164 -2.4267 -0.0045
    4MPD2     C14149   3.343   2.762  11.905 -0.0390 -0.3160 -0.1612
    4MPD2    C114150   3.335   2.625  11.895  0.6914  0.6309  0.2517
    4MPD2    C214151   3.402   2.560  11.797 -0.9744  0.2795 -0.5433
    4MPD2    C314152   3.462   2.629  11.697  1.1409 -0.3091  0.1342
    4MPD2    C414153   3.463   2.768  11.701  0.2587 -0.3014 -0.5624
    4MPD2    C514154   3.401   2.829  11.803 -0.7598 -0.1530  0.2665
    4MPD2     H14155   3.410   2.452  11.796  1.6057  0.4790 -0.3410
    4MPD2    H114156   3.507   2.833  11.625  2.2618 -2.4546 -1.2494
    4MPD2    H214157   3.307   2.812  11.994  0.4206  1.4314 -0.9541
    4MPD2    H314158   3.420   2.936  11.810 -0.8167 -0.2287  1.6309
    4MPD2     N14159   3.522   2.561  11.593 -0.0621 -0.2016 -0.0452
    4MPD2    H514160   3.525   2.461  11.608  1.8119 -0.1988 -0.5007
    4MPD2    N114161   3.275   2.541  11.988  0.7629 -0.5238 -0.0348
    4MPD2    H714162   3.274   2.442  11.965  0.9212 -0.7687  1.0034
    5TMC3    C114163   3.184   2.459  12.183 -0.8460 -0.3779  0.2349
    5TMC3    C214164   3.050   2.446  12.208 -0.1156 -0.4906 -0.5449
    5TMC3    C314165   3.004   2.318  12.215  0.3891 -0.9660 -0.1764
    5TMC3    C414166   3.259   2.353  12.154 -0.4849 -0.2925  0.5383
    5TMC3    C514167   3.204   2.229  12.132 -0.7696 -0.4097  0.4532
    5TMC3    C614168   3.076   2.212  12.169 -0.3407  1.0176  0.3361
    5TMC3     C14169   3.221   2.580  12.111  0.1167  0.7906  0.2630
    5TMC3     O14170   3.206   2.693  12.155  0.1683  0.0036 -0.7024
    5TMC3     H14171   2.992   2.534  12.234  1.8808  0.5664  0.3323
    5TMC3    H114172   3.362   2.362  12.119  0.1337  0.6192  2.5889
    5TMC3    H214173   3.023   2.121  12.140 -0.5720  1.4960 -0.7115
    5TMC3    C714174   3.235   2.190  11.998  0.3315 -0.3897 -0.2717
    5TMC3    C814175   2.882   2.296  12.285  0.3296  0.0881 -0.1467
    5TMC3    O114176   3.241   2.286  11.925 -0.5986 -0.1293  0.1994
    5TMC3    O214177   2.873   2.370  12.382  0.1105 -0.0070  0.5021
    6TMC3    C114178   2.552   2.353  10.805  0.3845  0.4557  0.2445
    6TMC3    C214179   2.497   2.261  10.718 -0.7176  0.2239  0.2295
    6TMC3    C314180   2.578   2.222  10.617  0.0707  0.0936  0.2782
    6TMC3    C414181   2.678   2.405  10.791  0.4428  0.3998 -0.6295
    6TMC3    C514182   2.753   2.351  10.685  0.0535  0.8502  0.2433
    6TMC3    C614183   2.702   2.279  10.593 -0.8045 -0.2425  0.2255
    6TMC3     C14184   2.464   2.413  10.907  0.7955  0.0728 -0.3900
    6TMC3     O14185   2.351   2.367  10.916  0.0771  0.1789  0.3072
    6TMC3     H14186   2.391   2.240  10.723 -1.1646  2.9151  2.0974
    6TMC3    H114187   2.725   2.487  10.844  1.4971  0.1575 -1.1715
    6TMC3    H214188   2.769   2.239  10.518 -0.2658  0.9806  0.0389
    6TMC3    C714189   2.896   2.361  10.678 -0.0780  0.4192  0.6694
    6TMC3    C814190   2.540   2.115  10.528 -0.1019  0.2466  0.1027
    6TMC3    O114191   2.955   2.339  10.575 -0.1191 -0.2243  0.5915
    6TMC3    O214192   2.623   2.088  10.442 -0.5505  0.5593 -0.2702
    7MPD2     C14193   3.351   1.879  11.597 -0.3178 -0.1773  0.2053
    7MPD2    C114194   3.387   2.006  11.630 -0.4878 -0.5113  0.3317
    7MPD2    C214195   3.342   2.065  11.749  0.2117  0.8511  0.6621
    7MPD2    C314196   3.265   1.997  11.844  0.1045 -0.0237  0.2003
    7MPD2    C414197   3.251   1.862  11.825  0.4044 -0.4686 -0.4743
    7MPD2    C514198   3.278   1.815  11.698  0.3005  0.6679  0.8183
    7MPD2     H14199   3.373   2.164  11.780  0.4800  2.3274 -4.2679
    7MPD2    H114200   3.189   1.808  11.895 -1.0052 -0.8177 -1.9765
    7MPD2    H214201   3.368   1.836  11.499 -1.1570  0.7958 -0.3723
    7MPD2    H314202   3.257   1.711  11.678  0.0756  1.1802 -1.6601
    7MPD2     N14203   3.234   2.056  11.969 -0.1052 -0.0377 -0.5808
    7MPD2    H514204   3.208   1.994  12.045 -1.5531 -1.2063 -2.0362
    7MPD2    N114205   3.462   2.075  11.531 -0.1100 -0.4786  0.4546
    7MPD2    H714206   3.490   2.020  11.451 -0.7759  1.3810 -1.0343
    8TMC3    C114207   3.574   2.263  11.426 -0.0465  0.5562 -0.4033
    8TMC3    C214208   3.495   2.259  11.311  0.7249 -0.2951 -0.2223
    8TMC3    C314209   3.457   2.371  11.252 -0.1832 -0.0014  0.4533
    8TMC3    C414210   3.621   2.381  11.470  0.8042 -0.1482  0.6136
    8TMC3    C514211   3.592   2.495  11.397  0.4039 -0.8230  0.1778
    8TMC3    C614212   3.503   2.494  11.298 -0.7345 -0.4983 -0.3951
    8TMC3     C14213   3.501   2.203  11.541  0.3313  0.3641  0.6646
    8TMC3     O14214   3.499   2.280  11.633  0.1655 -0.3470 -0.5585
    8TMC3     H14215   3.455   2.168  11.267  0.2189 -1.3802  2.5114
    8TMC3    H114216   3.693   2.380  11.551 -0.7632  1.8093  1.9846
    8TMC3    H214217   3.481   2.589  11.250  2.6695  0.1308 -0.7076
    8TMC3    C714218   3.570   2.606  11.474  0.7374  0.3661 -0.3062
    8TMC3    C814219   3.346   2.374  11.159  0.6146 -0.0111  0.3133
    8TMC3    O114220   3.573   2.716  11.414 -0.3428 -0.3004  0.4391
    8TMC3    O214221   3.277   2.273  11.162  0.3799 -0.0934 -0.2229
    9MPD2     C14222   3.325   2.569  10.853  0.4637 -0.6403 -1.0689
    9MPD2    C114223   3.277   2.489  10.950  0.2313 -0.1271  0.8778
    9MPD2    C214224   3.154   2.430  10.932 -0.0637 -0.1508 -0.1934
    9MPD2    C314225   3.087   2.447  10.816 -0.1487 -0.7338  0.4637
    9MPD2    C414226   3.141   2.535  10.712  0.1174 -0.7589  1.0167
    9MPD2    C514227   3.259   2.598  10.741 -0.2597 -0.0827  0.3724
    9MPD2     H14228   3.109   2.377  11.014  0.4195  0.9271  0.7637
    9MPD2    H114229   3.097   2.557  10.615  0.8037  2.7746  1.4997
    9MPD2    H214230   3.421   2.612  10.880 -0.8283  1.2364  0.5655
    9MPD2    H314231   3.302   2.661  10.664 -0.1582 -0.5585  0.0362
    9MPD2     N14232   2.957   2.388  10.804 -0.4063 -0.4779 -0.7266
    9MPD2    H514233   2.908   2.366  10.890 -1.9975  3.1100 -0.7035
    9MPD2    N114234   3.362   2.467  11.062 -0.2712 -0.0920 -0.1472
    9MPD2    H714235   3.443   2.528  11.061 -1.0090  0.9313  2.5105
    1MPD1     C14236   2.446   2.055  17.010  0.0551  0.1015 -0.1900
    1MPD1    C114237   2.486   1.944  16.946  0.0276  0.4437  0.3170
    1MPD1    C214238   2.407   1.898  16.834  0.1452  0.9141 -0.4975
    1MPD1    C314239   2.285   1.952  16.799 -0.4240 -0.1382  0.1334
    1MPD1    C414240   2.247   2.064  16.875 -0.1005 -0.7550  0.3844
    1MPD1    C514241   2.325   2.109  16.978 -0.6465  0.8465  0.6630
    1MPD1     H14242   2.454   1.815  16.783 -0.9648  0.9493 -1.5810
    1MPD1    H114243   2.152   2.113  16.856  1.1509  1.2580 -0.6864
    1MPD1    H214244   2.500   2.104  17.091 -0.4983  0.8034 -0.2405
    1MPD1    H314245   2.280   2.191  17.033 -1.3413  0.6535  0.3804
    1MPD1     N14246   2.196   1.907  16.697 -0.1190 -0.1033  0.3988
    1MPD1    H514247   2.105   1.952  16.690  1.1225  2.2996 -0.2388
    1MPD1    N114248   2.614   1.884  16.968  0.2059  0.4019 -0.4868
    1MPD1    H614249   2.645   1.896  17.064  2.8085 -1.1514 -1.1335
    1MPD1    H714250   2.604   1.783  16.958 -0.6475  0.4761 -0.3956
    2MPD1     C14251   1.736   0.954  16.499  0.4954 -0.0028  0.3580
    2MPD1    C114252   1.669   1.045  16.407 -0.0947  0.1456  0.0856
    2MPD1    C214253   1.703   1.176  16.398 -0.1365 -0.5111  0.0598
    2MPD1    C314254   1.806   1.230  16.468 -0.0536 -0.2273  0.6882
    2MPD1    C414255   1.882   1.135  16.549  0.8895  0.0226 -0.9443
    2MPD1    C514256   1.847   1.000  16.561  0.2243 -0.0718  0.1879
    2MPD1     H14257   1.646   1.237  16.328 -0.1299 -0.5970 -0.0200
    2MPD1    H114258   1.974   1.162  16.600 -0.1303  2.0419 -0.1927
    2MPD1    H214259   1.704   0.852  16.519  1.2194 -0.2388  0.3174
    2MPD1    H314260   1.907   0.943  16.632 -2.5373 -0.6831  2.0146
    2MPD1     N14261   1.838   1.371  16.456 -0.4764  0.2318  0.4194
    2MPD1    H514262   1.784   1.431  16.395  0.6548  1.5372  0.7023
    2MPD1    N114263   1.557   0.993  16.338 -0.0371  0.2070  0.1438
    2MPD1    H614264   1.581   0.898  16.309 -0.9476  0.4661 -1.3956
    2MPD1    H714265   1.523   1.041  16.255  0.0091 -0.0907 -0.0461
    3TCq2    C114266   1.929   1.431  16.538  0.4949  0.4119  0.4328
    3TCq2    O214267   1.998   1.384  16.631 -0.0110  0.2205  0.3983
    3TCq2    C214268   1.955   1.570  16.509 -0.1682  0.8470 -0.2754
    3TCq2    C314269   1.862   1.651  16.456 -0.2622 -0.6323 -0.7014
    3TCq2    C414270   1.892   1.787  16.443 -0.0333 -0.7597 -0.0716
    3TCq2    C514271   2.012   1.848  16.500 -0.0533 -0.4351  0.1541
    3TCq2    C614272   2.100   1.749  16.555  0.2212  0.3304  0.5995
    3TCq2    C714273   2.077   1.615  16.553 -0.7065  0.7783  0.1303
    3TCq2    C814274   2.209   1.780  16.639 -0.6894 -0.1837  0.5616
    3TCq2    O414275   2.288   1.691  16.670  0.3780  0.2352 -0.3080
    3TCq2    C914276   1.801   1.862  16.364 -0.1887 -0.4029 -0.3520
    3TCq2    O514277   1.703   1.805  16.312  0.5501 -0.0801  0.6893
    3TCq2    O614278   1.822   1.988  16.354  0.0470 -0.1199 -0.4647
    3TCq2    H214279   1.773   1.611  16.409 -1.0086 -1.5551  1.5022
    3TCq2    H314280   2.023   1.956  16.500 -1.7270 -0.2630 -0.8198
    3TCq2    H414281   2.143   1.545  16.603 -1.1964  1.4733  1.7487
    1TCq1    O114282   0.069   0.202  12.710 -0.4258  0.3497  0.7589
    1TCq1    C114283   0.180   0.281  12.722 -0.5773 -0.1409 -0.2969
    1TCq1    O214284   0.211   0.354  12.635  0.2029  0.3867  0.1252
    1TCq1    C214285   0.200   0.292  12.866 -0.0481 -0.3803  0.6434
    1TCq1    C314286   0.172   0.190  12.955 -0.4826 -0.4094 -0.5636
    1TCq1    C414287   0.187   0.208  13.090  0.4944  0.2143  0.1211
    1TCq1    C514288   0.233   0.327  13.144 -0.1642 -0.2812  0.3312
    1TCq1    C614289   0.257   0.426  13.052  0.0718 -0.1025 -0.4960
    1TCq1    C714290   0.247   0.410  12.914 -0.3643  0.1844 -0.0775
    1TCq1    C814291   0.345   0.533  13.086  0.0976  0.2969  0.1916
    1TCq1    O414292   0.400   0.595  12.998 -0.2595  0.4794 -0.6332
    1TCq1    C914293   0.160   0.095  13.173 -0.4140  0.2569  0.1300
    1TCq1    O514294   0.173   0.102  13.296 -0.1853 -0.0589  0.1241
    1TCq1    O614295   0.079   0.008  13.121  0.3508 -0.8783 -0.2029
    1TCq1    H114296   0.043   0.151  12.790 -0.0429  0.9130  1.2464
    1TCq1    H214297   0.131   0.095  12.922 -0.1008 -1.3021  1.5851
    1TCq1    H314298   0.240   0.326  13.252  0.3052 -0.8870  0.2945
    1TCq1    H414299   0.255   0.489  12.840  2.4529  0.5684  0.6391
    2MPD2     C14300   0.586   0.653  13.210 -0.1120  0.7438 -0.1771
    2MPD2    C114301   0.477   0.612  13.279  0.7779  0.8553 -0.4774
    2MPD2    C214302   0.478   0.628  13.416  0.5197  0.6637  0.0658
    2MPD2    C314303   0.590   0.663  13.494 -0.3958 -0.0483  0.4792
    2MPD2    C414304   0.696   0.705  13.419 -0.0933  0.5098 -0.4560
    2MPD2    C514305   0.690   0.701  13.280 -0.4218 -0.0759  0.3415
    2MPD2     H14306   0.399   0.588  13.479 -0.9813  3.2035 -0.1962
    2MPD2    H114307   0.787   0.745  13.463  0.7208  0.4094 -2.0465
    2MPD2    H214308   0.601   0.634  13.105 -1.2962  1.6147 -0.5046
    2MPD2    H314309   0.776   0.736  13.224 -1.0945  0.9251 -0.0552
    2MPD2     N14310   0.599   0.646  13.630 -0.0857 -0.4048  0.1762
    2MPD2    H514311   0.513   0.642  13.683 -0.4063 -0.3857 -0.3488
    2MPD2    N114312   0.370   0.544  13.222  0.1123  0.2400 -0.1042
    2MPD2    H714313   0.306   0.497  13.285  0.3123  0.5443  0.3319
    3TCq1    O114314   0.453   0.836  14.189  0.1111 -0.0266  0.2218
    3TCq1    C114315   0.451   0.818  14.055 -0.3917  0.1578  0.1951
    3TCq1    O214316   0.385   0.894  13.986  0.1130 -0.0754 -0.1296
    3TCq1    C214317   0.577   0.759  14.019  0.0646 -0.2239  0.2570
    3TCq1    C314318   0.685   0.748  14.105 -0.7623 -0.5559 -0.5104
    3TCq1    C414319   0.806   0.688  14.059  0.0254 -0.7217 -0.6277
    3TCq1    C514320   0.805   0.652  13.925  0.7851 -0.7720 -0.3643
    3TCq1    C614321   0.690   0.663  13.845  0.3716 -0.6304  0.3310
    3TCq1    C714322   0.575   0.722  13.887  0.1711  0.0961  0.0947
    3TCq1    C814323   0.718   0.640  13.704  0.3440 -0.0792  0.4394
    3TCq1    O414324   0.835   0.629  13.667  0.4649 -0.3895 -0.1685
    3TCq1    C914325   0.932   0.691  14.133  0.0246  0.1568  0.3693
    3TCq1    O514326   1.026   0.616  14.095 -0.3625 -0.2676  0.1942
    3TCq1    O614327   0.942   0.785  14.218  0.2281 -0.2755  0.2612
    3TCq1    H114328   0.503   0.763  14.232 -1.1108 -0.3652  1.0625
    3TCq1    H214329   0.692   0.805  14.197  1.0919 -2.0481  0.2829
    3TCq1    H314330   0.892   0.599  13.887  0.7340 -0.9163 -0.2805
    3TCq1    H414331   0.494   0.746  13.818  1.8082  0.9452 -1.5324
    1MPD2     C14332   0.678   1.776  14.690 -0.1653  0.0741 -0.0785
    1MPD2    C114333   0.553   1.755  14.750  0.1723 -0.4222 -0.0379
    1MPD2    C214334   0.545   1.673  14.860  0.4565 -0.0746  0.2568
    1MPD2    C314335   0.656   1.616  14.915 -0.2869 -0.1026  1.0529
    1MPD2    C414336   0.779   1.645  14.858  0.1449  0.1085  0.1781
    1MPD2    C514337   0.788   1.721  14.746  0.2656  0.0894  0.7564
    1MPD2     H14338   0.447   1.678  14.906  0.3898  0.2068  0.0843
    1MPD2    H114339   0.874   1.618  14.903  0.6528 -2.2310 -2.3036
    1MPD2    H214340   0.695   1.839  14.604  1.7647  1.2547  1.1567
    1MPD2    H314341   0.888   1.736  14.707  0.0448  2.1831  1.0013
    1MPD2     N14342   0.644   1.515  15.011  0.1603 -0.4272  0.2621
    1MPD2    H514343   0.725   1.472  15.054 -0.0213  0.7870  1.8269
    1MPD2    N114344   0.437   1.821  14.688 -0.2401 -0.8409 -0.4586
    1MPD2    H714345   0.449   1.896  14.620 -0.6573  1.2277  1.7211
    2TMC3    C114346   0.202   1.875  14.667 -0.2496  0.0594  0.2252
    2TMC3    C214347   0.074   1.844  14.714 -0.1188  0.3304  0.5205
    2TMC3    C314348   4.711   1.930  14.767 -0.2222  0.5408  0.0731
    2TMC3    C414349   0.238   2.005  14.670  0.4880  0.0801 -0.0178
    2TMC3    C514350   0.138   2.093  14.700  0.5244 -0.3630 -0.4607
    2TMC3    C614351   0.018   2.063  14.748  0.3173  0.7105 -0.0472
    2TMC3     C14352   0.306   1.782  14.701  0.1851 -0.1722 -0.3639
    2TMC3     O14353   0.270   1.679  14.756 -0.5544 -0.3946 -0.1205
    2TMC3     H14354   0.057   1.739  14.733  0.7832 -0.0325 -0.6732
    2TMC3    H114355   0.334   2.039  14.632  0.8546 -0.5740  0.3136
    2TMC3    H214356   4.681   2.136  14.797  1.3575  0.1799  2.0467
    2TMC3    C714357   0.164   2.239  14.710  0.1807  0.5532  0.2747
    2TMC3    C814358   4.658   1.896  14.898  0.4034 -0.0917  0.0918
    2TMC3    O114359   0.066   2.313  14.683 -0.7530  0.5137 -0.4030
    2TMC3    O214360   4.555   1.948  14.944 -0.2111 -0.0898  0.0088
    3TCq1    O114361   1.369   2.594  14.846  0.5580 -0.8070 -1.1545
    3TCq1    C114362   1.250   2.599  14.780  0.4968 -0.1531 -0.1965
    3TCq1    O214363   1.222   2.662  14.678 -0.5187  0.5248 -0.9794
    3TCq1    C214364   1.143   2.550  14.867  0.7076 -0.3129 -0.6695
    3TCq1    C314365   1.157   2.421  14.913  0.2258 -0.4607 -0.6615
    3TCq1    C414366   1.044   2.357  14.954  0.7545  0.7713 -0.4885
    3TCq1    C514367   0.922   2.417  14.939  0.3432  0.2784  0.2559
    3TCq1    C614368   0.911   2.548  14.895 -0.1575 -0.8567  0.0934
    3TCq1    C714369   1.023   2.605  14.845 -0.4750  0.1236 -0.1379
    3TCq1    C814370   0.784   2.608  14.855 -0.1300 -0.2281  0.1175
    3TCq1    O414371   0.790   2.717  14.800  0.1284 -0.0994 -0.2607
    3TCq1    C914372   1.046   2.232  15.030 -0.6673 -0.3101  0.4375
    3TCq1    O514373   0.960   2.147  14.994 -0.1178  0.0867  0.5685
    3TCq1    O614374   1.154   2.207  15.085 -0.1878  0.7333  0.1302
    3TCq1    H114375   1.352   2.567  14.939 -0.7597 -0.0098 -1.1659
    3TCq1    H214376   1.252   2.372  14.928  0.4033  0.5038  1.3631
    3TCq1    H314377   0.837   2.367  14.984 -0.6579 -0.0140 -1.9206
    3TCq1    H414378   1.017   2.692  14.780 -1.0818 -0.7320 -1.2196
    4MPD2     C14379   0.502   2.642  14.751 -0.2628  0.1409 -0.4455
    4MPD2    C114380   0.557   2.531  14.807  0.8217 -0.4938  0.1110
    4MPD2    C214381   0.486   2.414  14.810 -0.0774  1.4218  0.2746
    4MPD2    C314382   0.360   2.401  14.756  0.2645  0.1017 -0.0147
    4MPD2    C414383   0.303   2.515  14.703 -0.2770 -0.6262 -0.1962
    4MPD2    C514384   0.376   2.632  14.700 -0.5825  0.8901 -0.0192
    4MPD2     H14385   0.526   2.328  14.862 -1.4439  1.0892  0.7845
    4MPD2    H114386   0.199   2.509  14.672  0.5696 -1.5081 -2.9074
    4MPD2    H214387   0.550   2.740  14.757  0.6471 -0.2702 -1.0024
    4MPD2    H314388   0.320   2.718  14.665 -0.6055 -0.0194 -2.2538
    4MPD2     N14389   0.291   2.274  14.757  0.5545 -0.3585  0.2322
    4MPD2    H514390   0.349   2.197  14.787 -0.9245 -1.0325  1.3552
    4MPD2    N114391   0.690   2.513  14.856 -0.3920 -0.3214  0.6206
    4MPD2    H714392   0.714   2.424  14.899 -0.7942 -0.6758  0.1254
    5TMC2    C114393   0.358   1.350  15.343 -0.0338  0.5859 -0.4236
    5TMC2    C214394   0.441   1.380  15.448  0.6716 -0.4020  0.1408
    5TMC2    C314395   0.569   1.410  15.412 -0.4129 -0.1708  0.0359
    5TMC2    C414396   0.404   1.338  15.210  0.5269  1.0933 -0.6702
    5TMC2    C514397   0.533   1.377  15.179  0.8285 -0.6599 -0.4434
    5TMC2    C614398   0.615   1.409  15.286 -0.3159  0.1521  0.2920
    5TMC2     C14399   0.227   1.416  15.353  0.0222 -0.4627  0.0808
    5TMC2     O14400   0.182   1.453  15.461  0.7623  0.5105  0.1353
    5TMC2     H14401   0.400   1.407  15.545  0.7896  2.2839 -0.5643
    5TMC2    H114402   0.339   1.309  15.129  1.4636  1.8659 -1.6991
    5TMC2    H214403   0.707   1.467  15.274  0.2822 -0.6887  0.7927
    5TMC2    C714404   0.529   1.459  15.062  0.5395  1.0699  0.2552
    5TMC2    C814405   0.671   1.417  15.509  0.0239  0.2724 -0.5955
    5TMC2    O114406   0.414   1.490  15.037 -0.2686  0.1682 -0.7954
    5TMC2    O214407   0.766   1.341  15.503 -0.8631 -0.1397  0.0696
    5TMC2    O514408   0.622   1.501  15.606 -0.3728  0.1789 -0.0361
    5TMC2    H514409   0.560   1.559  15.558  0.3155  0.9417  0.0048
    6MPD2     C14410   4.595   1.720  15.144 -1.0141 -0.3995 -1.1125
    6MPD2    C114411   4.710   1.722  15.065  0.2521 -0.1554 -0.4011
    6MPD2    C214412   0.093   1.644  15.097 -0.0627 -0.2971 -0.3790
    6MPD2    C314413   0.084   1.557  15.208  0.2277  0.3864 -0.0852
    6MPD2    C414414   4.692   1.564  15.289  0.9363 -0.1455  0.1236
    6MPD2    C514415   4.581   1.644  15.252  0.4599 -0.4540  0.6711
    6MPD2     H14416   0.185   1.640  15.040  0.4625  1.3141  0.3708
    6MPD2    H114417   4.686   1.493  15.370 -0.3939 -1.8866 -1.4873
    6MPD2    H214418   4.505   1.774  15.119  0.2435  2.2626  0.1757
    6MPD2    H314419   4.488   1.639  15.307 -0.6882 -3.5113 -1.5668
    6MPD2     N14420   0.199   1.477  15.241 -0.3041 -0.2473  0.1544
    6MPD2    H514421   0.272   1.462  15.172 -0.4641 -1.4150  0.2345
    6MPD2    N114422   0.004   1.793  14.947  0.0266  0.3294 -0.6193
    6MPD2    H714423   0.087   1.765  14.895  0.4857 -1.5747  1.1325
  945NH4     N114424   1.917   0.621  17.035  0.0373  0.1420  0.3631
  945NH4     H214425   1.943   0.671  16.948 -4.3755  0.6426 -0.6754
  945NH4     H314426   2.001   0.617  17.096 -0.3198  2.0463  0.9575
  945NH4     H414427   1.889   0.522  17.016 -1.2088  0.4047  0.8700
  945NH4     H514428   1.839   0.675  17.077 -0.3564  0.3521 -0.6367
  946SOD     NA14429   4.619   4.305   9.127  0.3458  0.4373 -0.2220
  947SOD     NA14430   2.797   0.883  17.369  0.3133 -0.4707  0.4010
  948SOD     NA14431   0.644   4.446   9.835 -0.0499  0.0110  0.2245
  949SOD     NA14432   2.794   1.859  15.284  0.6081  0.1081  0.0097
  950SOD     NA14433   3.733   4.354   9.622  0.0884 -0.2536 -0.1940
  951SOD     NA14434   0.786   4.642  11.776  0.3963  0.3277  0.4743
  952SOD     NA14435   3.128   1.901  11.070  0.3091 -0.2285 -0.2847
  953SOD     NA14436   2.084   3.538   4.274  0.5216 -0.1209  0.1911
  954SOD     NA14437   3.710   2.794   0.812  0.5003 -0.1326 -0.1065
  955SOD     NA14438   0.520   4.702  10.667  0.1249  0.3595 -0.8825
  956SOD     NA14439   3.850   0.026  13.037  0.4048 -0.5379 -0.2043
  957SOD     NA14440   1.182   1.951  11.217  0.1761 -0.2650  0.6621
  958SOD     NA14441   1.350   4.473  17.613 -0.3284 -0.3922  0.2753
  959SOD     NA14442   0.246   0.047  13.492  0.3193 -0.1421 -0.5461
  960SOD     NA14443   4.175   1.317  11.440  0.3792 -0.0573  0.1324
  961SOD     NA14444   1.038   1.622   1.003 -0.4674 -0.1741  0.1401
  962SOD     NA14445   3.177   0.584   3.322 -0.5973  0.2785 -0.3854
  963SOD     NA14446   1.602   1.992  16.238 -0.2408  0.3883 -0.0171
  964SOD     NA14447   2.898   3.827  11.410  0.0309 -0.0889  0.1819
  965SOD     NA14448   2.848   3.212   3.177 -0.2323  0.4569  0.4989
  966SOD     NA14449   4.632   1.235  10.527  0.1551  0.1947 -0.6634
  967SOD     NA14450   0.576   3.994  10.403 -0.1458 -0.2040  0.0554
  968SOD     NA14451   3.820   3.103   1.247 -0.1703 -0.0648  0.0624
  969SOD     NA14452   1.205   4.641  10.224  0.1302  0.1622 -0.0116
  970SOD     NA14453   1.399   2.973   2.280 -0.1461  0.5958  0.3955
  971SOD     NA14454   4.431   4.006  10.410 -0.1679  0.0746  0.1135
  972SOD     NA14455   1.862   3.268  14.470  0.2448  0.0209  0.1237
  973SOD     NA14456   4.451   3.492  11.693  0.0369  0.1268  0.0169
  974SOD     NA14457   4.163   4.085  10.667 -0.6614  0.1659  0.0334
  975SOD     NA14458   1.123   4.213  12.198  0.4251  0.0245  0.3019
  976SOD     NA14459   1.820   0.533  14.501 -0.2925  0.4020  0.2978
  977SOD     NA14460   1.401   0.642  14.454 -0.0035 -0.1412  0.0436
  978SOD     NA14461   0.602   0.331  12.584 -0.5188  0.2025  0.5018
  979SOD     NA14462   1.009   3.301  16.829 -0.0578  0.3174 -0.4351
  980SOD     NA14463   2.529   3.269  12.355 -0.2557 -0.1083  0.1758
  981SOD     NA14464   3.416   0.600  12.049 -0.2715 -0.4099 -0.0164
  982SOD     NA14465   1.113   0.533  11.379  0.2341 -0.0607 -0.0965
  983SOD     NA14466   3.573   2.134   9.629  0.1623 -0.0226 -0.6575
  984SOD     NA14467   2.429   3.934   0.652  0.5962 -0.0875 -0.4090
  985SOD     NA14468   0.177   2.705  12.372  0.0429  0.0197 -0.4031
  986SOD     NA14469   3.962   0.652  15.309 -0.1164  0.1411  0.3926
  987SOD     NA14470   1.190   0.754  14.194 -0.2016 -0.2808 -0.1315
  988SOD     NA14471   2.287   0.934  14.277  0.1746  0.3701  0.3314
  989SOD     NA14472   1.599   4.112   8.856 -0.1071 -0.3122 -0.3359
  990SOD     NA14473   1.406   2.427   8.262 -0.1457  0.0489  0.1809
  991SOD     NA14474   3.288   1.376   0.973 -0.0834 -0.0645 -0.3602
  992SOD     NA14475   4.629   4.613  13.162 -0.5900  0.1557 -0.2783
  993SOD     NA14476   0.986   0.879  14.409 -0.0785 -0.5338  0.5051
  994SOD     NA14477   0.173   1.952  15.366 -0.4917  0.4793  0.2556
  995SOD     NA14478   4.310   1.847   3.961  0.0865 -0.3009 -0.0024
  996SOD     NA14479   2.444   1.466  13.125 -0.0221  0.2342  0.9188
  997SOD     NA14480   1.720   1.720  16.117 -0.1920 -0.0453  0.0941
  998SOD     NA14481   3.739   4.323   4.723 -0.3729 -0.0261 -0.1877
  999SOD     NA14482   4.488   4.372  10.390 -0.3587 -0.0010 -0.4700
 1000SOD     NA14483   3.316   2.239   2.310  0.1048  0.5092 -0.2686
 1001SOD     NA14484   3.246   4.687  13.959 -0.1750 -0.3004  0.4192
 1002SOD     NA14485   0.584   3.167   2.382 -0.6440  0.4422  0.3149
 1003SOD     NA14486   1.355   2.876  16.329  0.3002 -0.0526 -0.3802
 1004SOD     NA14487   1.114   1.588  14.282 -0.4147 -0.1821  0.3714
 1005SOD     NA14488   3.116   2.263   1.552  0.1218  0.3637  0.3093
 1006SOD     NA14489   1.071   0.402  11.642 -0.0351  0.2395  0.1463
 1007SOD     NA14490   4.042   1.555   8.597  0.0413  0.0001  0.2279
 1008SOD     NA14491   0.354   2.007   2.719  0.3440  0.1716 -0.1313
 1009SOD     NA14492   0.899   4.195  12.453 -0.2723  0.1285  0.4621
 1010SOD     NA14493   1.045   0.195   0.518 -0.1356  0.3735  0.6817
 1011SOL     OW14494   1.362   2.470   2.579 -0.2249 -0.5872 -0.3387
 1011SOL    HW114495   1.372   2.557   2.618 -2.4163 -0.0036 -1.0758
 1011SOL    HW214496   1.448   2.465   2.536  1.1327 -1.8709  2.5454
 1012SOL     OW14497   1.645   3.921  14.955  0.2943 -0.7048 -0.2042
 1012SOL    HW114498   1.611   3.872  14.880 -3.5371  0.0206  1.0865
 1012SOL    HW214499   1.683   3.848  15.004  2.0439  0.6306  0.4479
 1013SOL     OW14500   2.860   1.812   2.929  0.9355 -0.0829 -0.1190
 1013SOL    HW114501   2.934   1.809   2.869  3.1031 -0.4443  2.6049
 1013SOL    HW214502   2.798   1.838   2.860  2.0716  2.2107 -0.2526
 1014SOL     OW14503   0.738   1.941   3.746  0.0016  0.3256  0.4066
 1014SOL    HW114504   0.730   2.035   3.729  0.3737 -0.0820 -2.0037
 1014SOL    HW214505   0.829   1.937   3.715 -0.2131 -1.0564 -0.0466
 1015SOL     OW14506   3.672   1.416   2.718  0.1231  0.0401 -0.7914
 1015SOL    HW114507   3.713   1.500   2.699  1.4289 -0.5730 -0.6764
 1015SOL    HW214508   3.691   1.358   2.644  1.9900  0.8681 -0.9517
 1016SOL     OW14509   3.111   0.072   8.612  0.2739 -0.9006  0.6814
 1016SOL    HW114510   3.163   0.104   8.686  0.1649  1.6653 -0.3278
 1016SOL    HW214511   3.039   0.134   8.622 -0.2147 -1.3375 -0.1715
 1017SOL     OW14512   0.106   2.575   2.497 -0.4041  0.4113 -0.0177
 1017SOL    HW114513   0.103   2.661   2.455  0.5572  0.5337  0.1538
 1017SOL    HW214514   0.014   2.577   2.523 -0.5284 -0.7087 -0.3645
 1018SOL     OW14515   0.389   4.121   7.942  0.3012  0.1997  0.0541
 1018SOL    HW114516   0.393   4.032   7.907 -2.1936  0.2565 -0.3439
 1018SOL    HW214517   0.299   4.122   7.973  0.1969  1.8603 -0.2775
 1019SOL     OW14518   3.532   3.494   6.836 -0.1681  0.3860  0.0957
 1019SOL    HW114519   3.489   3.422   6.790  3.5699 -1.4755 -0.5039
 1019SOL    HW214520   3.598   3.514   6.769 -0.0771 -0.3809 -0.0417
 1020SOL     OW14521   4.255   1.876   0.515 -0.0425 -0.3897 -0.3398
 1020SOL    HW114522   4.314   1.872   0.440  0.1867  1.8193 -0.2984
 1020SOL    HW214523   4.248   1.784   0.541 -0.2182 -0.3334 -0.1831
 1021SOL     OW14524   0.976   4.656   7.683  0.0544  0.0046  0.2919
 1021SOL    HW114525   0.881   4.643   7.685  0.0725 -0.4267 -1.2627
 1021SOL    HW214526   0.998   4.579   7.631  1.2878  0.2427  0.4565
 1022SOL     OW14527   4.720   0.434   2.897  0.5355  0.0875 -0.2952
 1022SOL    HW114528   0.084   0.468   2.900 -0.1378  1.7989  0.2085
 1022SOL    HW214529   4.707   0.422   2.803 -0.7836  1.9196 -0.3466
 1023SOL     OW14530   0.786   2.208   8.578 -0.5327 -0.1344  0.1611
 1023SOL    HW114531   0.800   2.147   8.505 -2.8268  1.5036 -1.6393
 1023SOL    HW214532   0.878   2.231   8.588 -0.8959  0.6669  1.6510
 1024SOL     OW14533   2.723   4.488   2.564 -0.5942 -0.5582  0.4013
 1024SOL    HW114534   2.627   4.488   2.565 -0.5939  0.3403  2.2447
 1024SOL    HW214535   2.739   4.410   2.511 -0.2963  1.8401 -3.0146
 1025SOL     OW14536   0.301   2.163   6.679  0.4491  0.2667  0.1060
 1025SOL    HW114537   0.377   2.137   6.628  0.0735  0.2619 -0.4609
 1025SOL    HW214538   0.329   2.233   6.737 -1.0484  1.4661 -0.6356
 1026SOL     OW14539   2.786   0.223   5.550 -0.0377 -0.6504  0.2862
 1026SOL    HW114540   2.783   0.133   5.580 -3.2267 -0.6100  0.0667
 1026SOL    HW214541   2.788   0.274   5.631 -0.8737  1.5151 -1.0471
 1027SOL     OW14542   4.221   3.547   1.891 -0.4572 -0.7684 -0.7014
 1027SOL    HW114543   4.170   3.534   1.971  2.0276 -2.2654  0.6662
 1027SOL    HW214544   4.305   3.515   1.925  1.4502  3.3044 -1.6725
 1028SOL     OW14545   1.532   0.351   7.761 -0.1656 -0.0588  0.1730
 1028SOL    HW114546   1.507   0.268   7.801  0.5386 -0.1143  0.4996
 1028SOL    HW214547   1.626   0.355   7.778 -0.1725 -2.1859  0.6224
 1029SOL     OW14548   2.795   0.053  10.003  0.1964 -0.1758  0.5136
 1029SOL    HW114549   2.796   0.084   9.912  3.3996 -0.3425  0.5048
 1029SOL    HW214550   2.733   4.705  10.013 -0.6555  0.6146  1.0461
 1030SOL     OW14551   1.211   3.389   9.899  0.2778  0.4178  0.5709
 1030SOL    HW114552   1.194   3.482   9.885  1.3722  0.4736 -0.3300
 1030SOL    HW214553   1.182   3.347   9.818  0.3762  0.9835  0.2462
 1031SOL     OW14554   0.581   2.739   5.984  0.7404  0.0713  0.2702
 1031SOL    HW114555   0.496   2.768   5.949  0.2926 -0.3977  0.9561
 1031SOL    HW214556   0.637   2.772   5.914  0.6725  1.3682  0.8405
 1032SOL     OW14557   0.374   3.825   2.961  0.4944  0.2426 -0.0233
 1032SOL    HW114558   0.454   3.877   2.958  0.3474  0.5073  0.7027
 1032SOL    HW214559   0.407   3.755   2.904 -0.8123  0.2232 -0.7597
 1033SOL     OW14560   2.094   0.241   1.392  0.8505 -0.3091 -0.0451
 1033SOL    HW114561   2.022   0.282   1.440  0.6903 -1.0847  0.3765
 1033SOL    HW214562   2.048   0.244   1.308  0.9786  1.4256 -0.0658
 1034SOL     OW14563   4.138   3.776  16.598 -0.2795  0.3772  0.0811
 1034SOL    HW114564   4.063   3.741  16.645  1.4317 -2.3104  0.7983
 1034SOL    HW214565   4.098   3.791  16.512  1.0453 -1.5987 -0.8866
 1035SOL     OW14566   0.617   1.722   2.429 -0.8834 -0.2263 -0.1036
 1035SOL    HW114567   0.588   1.668   2.502 -0.1670  0.3703  0.6112
 1035SOL    HW214568   0.535   1.760   2.395 -0.4941  0.7678  0.0874
 1036SOL     OW14569   3.961   1.570   3.089  0.0638  0.2757  0.7493
 1036SOL    HW114570   3.897   1.620   3.038 -1.6609 -1.5049  1.1667
 1036SOL    HW214571   3.996   1.502   3.033  0.1283  0.1958  0.8861
 1037SOL     OW14572   1.248   0.457   7.806  0.2301 -0.0885  0.5564
 1037SOL    HW114573   1.182   0.394   7.833 -1.6484  1.4747 -0.4669
 1037SOL    HW214574   1.329   0.406   7.792  0.4335  0.2647  0.4496
 1038SOL     OW14575   0.999   2.817   8.113  0.0461 -0.3228 -0.3374
 1038SOL    HW114576   0.963   2.742   8.066  2.3540 -1.3428 -0.4727
 1038SOL    HW214577   0.976   2.783   8.199 -2.4864  1.5449 -0.2858
 1039SOL     OW14578   0.781   1.281   0.083 -0.7800  0.1616 -0.0578
 1039SOL    HW114579   0.860   1.226   0.089 -1.6719 -0.9593  1.2988
 1039SOL    HW214580   0.826   1.364   0.097  0.2323 -0.0743 -1.9023
 1040SOL     OW14581   2.291   1.237  11.124  1.3032 -0.5129 -0.2912
 1040SOL    HW114582   2.328   1.322  11.099  0.8651 -0.2278  0.0258
 1040SOL    HW214583   2.337   1.219  11.206  0.1103 -2.3184 -0.0343
 1041SOL     OW14584   4.469   4.619   7.785  0.1594  0.6118  0.0991
 1041SOL    HW114585   4.546   4.588   7.739  1.9735  0.0833  3.4813
 1041SOL    HW214586   4.401   4.564   7.746  0.8665 -0.3388  0.2277
 1042SOL     OW14587   3.396   1.324   7.239 -0.1393 -0.3163 -0.4236
 1042SOL    HW114588   3.431   1.273   7.166  2.1655 -0.0925  0.5360
 1042SOL    HW214589   3.388   1.261   7.311  2.4251 -0.5176 -0.3423
 1043SOL     OW14590   1.369   2.618   5.501  0.5621 -0.1124 -0.7939
 1043SOL    HW114591   1.356   2.709   5.474  0.7924  0.0990 -0.1858
 1043SOL    HW214592   1.399   2.639   5.589  2.3047  1.5184 -1.7792
 1044SOL     OW14593   2.611   1.698   1.403  0.0371 -0.1938  0.2251
 1044SOL    HW114594   2.581   1.651   1.481  2.3911 -0.4860  0.9409
 1044SOL    HW214595   2.694   1.736   1.432 -0.7113  1.5285  0.1346
 1045SOL     OW14596   2.450   1.165   9.294  0.2857  0.4115 -0.4885
 1045SOL    HW114597   2.530   1.215   9.278  1.7568 -1.1941  1.9507
 1045SOL    HW214598   2.391   1.206   9.231  1.6736  0.5543 -1.6923
 1046SOL     OW14599   0.990   1.219  15.654  0.3004  0.2236  0.6392
 1046SOL    HW114600   0.902   1.254  15.668 -0.0512 -1.1315  1.7597
 1046SOL    HW214601   0.982   1.145  15.594  1.1410  2.3448 -2.1021
 1047SOL     OW14602   3.061   0.158   4.032 -0.4932  0.4165  0.0621
 1047SOL    HW114603   3.064   0.135   3.939  2.4353  0.8879  0.0436
 1047SOL    HW214604   3.136   0.110   4.065  0.2889 -0.3712 -2.8042
 1048SOL     OW14605   0.353   1.263   0.566 -0.3975  0.0585  0.4111
 1048SOL    HW114606   0.328   1.335   0.508 -1.8621 -0.6334  0.1927
 1048SOL    HW214607   0.273   1.235   0.611 -3.0311  2.7370 -2.6317
 1049SOL     OW14608   0.620   4.603   9.071 -0.2775  0.4482  0.0074
 1049SOL    HW114609   0.669   4.539   9.121 -0.3348  1.1094  0.9133
 1049SOL    HW214610   0.528   4.584   9.092 -0.3934  0.0752 -0.8322
 1050SOL     OW14611   0.591   0.300  12.109 -0.4791  0.5379  0.0199
 1050SOL    HW114612   0.679   0.294  12.073  0.1645 -1.0426  1.8511
 1050SOL    HW214613   0.594   0.216  12.156 -3.9140 -1.2205 -2.8126
 1051SOL     OW14614   2.646   3.455  16.679  0.1559  0.2954  0.3164
 1051SOL    HW114615   2.673   3.501  16.759 -3.2785  1.7236  0.6581
 1051SOL    HW214616   2.729   3.418  16.648  1.2251  2.0272  1.1094
 1052SOL     OW14617   1.885   0.827   2.783 -0.2128 -0.3282 -0.1356
 1052SOL    HW114618   1.816   0.828   2.849 -1.0262  0.3214 -0.9794
 1052SOL    HW214619   1.959   0.865   2.829 -0.2112  0.2142 -0.5780
 1053SOL     OW14620   0.486   3.618   7.457 -0.0039 -0.4545 -0.1587
 1053SOL    HW114621   0.525   3.607   7.544 -0.9107  0.7823  0.4110
 1053SOL    HW214622   0.484   3.533   7.414  0.1856 -1.2582  1.4394
 1054SOL     OW14623   3.584   0.545   2.490  0.0214 -0.3835 -0.0750
 1054SOL    HW114624   3.507   0.529   2.436  0.4734  1.4117 -1.2399
 1054SOL    HW214625   3.578   0.632   2.530 -1.4835 -0.7941  0.6193
 1055SOL     OW14626   3.798   3.838  10.795  0.1947 -0.3930  0.3119
 1055SOL    HW114627   3.779   3.841  10.889 -1.6391  0.8710 -0.0959
 1055SOL    HW214628   3.812   3.744  10.784 -0.2622 -0.4312  0.0633
 1056SOL     OW14629   1.096   3.269   8.782 -0.8374 -0.0887 -0.5022
 1056SOL    HW114630   1.115   3.198   8.722  1.4592 -0.5019  0.7428
 1056SOL    HW214631   1.015   3.246   8.829 -0.5163 -1.6151 -0.7149
 1057SOL     OW14632   1.379   1.491   7.485  0.1027  0.7317 -0.7785
 1057SOL    HW114633   1.367   1.451   7.571 -3.0595  0.8208 -1.1808
 1057SOL    HW214634   1.456   1.541   7.514  0.9655 -0.9426 -0.1869
 1058SOL     OW14635   3.048   0.174   2.830  0.5793 -0.0625 -0.2402
 1058SOL    HW114636   3.010   0.116   2.765  1.5103  0.1341 -0.9558
 1058SOL    HW214637   3.118   0.116   2.859  0.4938  0.2777  0.6502
 1059SOL     OW14638   1.590   1.059  14.184 -0.9314  0.3114  0.3335
 1059SOL    HW114639   1.659   1.108  14.139  1.6614 -0.6628  3.2367
 1059SOL    HW214640   1.562   0.994  14.120 -1.4048 -0.5699  1.4407
 1060SOL     OW14641   0.326   2.365   2.916  0.0035 -0.1584  0.8853
 1060SOL    HW114642   0.382   2.310   2.862 -1.1574  0.4711 -0.9679
 1060SOL    HW214643   0.290   2.425   2.851 -1.1525  0.3085  1.9431
 1061SOL     OW14644   1.802   3.334   7.883 -0.2826 -0.0949 -0.1372
 1061SOL    HW114645   1.855   3.406   7.916  0.6776 -0.1688 -1.5195
 1061SOL    HW214646   1.862   3.288   7.824  1.1106 -0.7485  1.7824
 1062SOL     OW14647   2.340   1.723   2.203 -0.6387 -0.3737  0.0248
 1062SOL    HW114648   2.249   1.726   2.173 -1.0214  0.5985  1.2913
 1062SOL    HW214649   2.355   1.817   2.212 -1.5054 -0.3490  1.3267
 1063SOL     OW14650   1.814   3.867   3.316  0.1498  0.6092 -0.0889
 1063SOL    HW114651   1.849   3.945   3.272 -1.6947  0.5221 -1.7147
 1063SOL    HW214652   1.836   3.807   3.245  2.5297 -0.7105  1.7742
 1064SOL     OW14653   2.510   4.624   2.067  0.1595 -0.2695 -0.0279
 1064SOL    HW114654   2.535   4.695   2.126 -1.5870  1.2044 -1.0889
 1064SOL    HW214655   2.434   4.581   2.105 -0.7015  1.0468 -0.2798
 1065SOL     OW14656   4.594   0.505   1.955  0.1469 -0.0858 -0.0472
 1065SOL    HW114657   4.536   0.575   1.984 -0.2037 -0.1436 -0.6141
 1065SOL    HW214658   4.593   0.525   1.861  0.1172  1.7425  0.3567
 1066SOL     OW14659   0.847   3.269   4.254 -0.6382  0.0011 -0.4382
 1066SOL    HW114660   0.831   3.363   4.262  3.8590  0.5786  1.9803
 1066SOL    HW214661   0.938   3.281   4.226  0.4091 -0.5180  2.7525
 1067SOL     OW14662   3.644   0.311   6.594 -0.0289  0.0472 -0.0766
 1067SOL    HW114663   3.587   0.288   6.521 -0.6608  0.5113  0.2726
 1067SOL    HW214664   3.710   0.365   6.551  0.0635 -0.9231 -1.1527
 1068SOL     OW14665   0.499   0.564   3.520  0.3850 -0.2055 -0.3891
 1068SOL    HW114666   0.472   0.599   3.435 -0.4229  1.2757  0.4708
 1068SOL    HW214667   0.464   0.626   3.584 -0.6916  0.8592 -1.9810
 1069SOL     OW14668   0.417   3.352   9.058  0.1653  0.7244 -0.0180
 1069SOL    HW114669   0.324   3.331   9.060  0.2588  0.1107 -2.2458
 1069SOL    HW214670   0.444   3.263   9.083 -0.9147  1.2086  2.8145
 1070SOL     OW14671   0.072   2.771  12.584  0.1336 -0.4318  0.5240
 1070SOL    HW114672   0.078   2.735  12.673  0.6615 -0.9770  0.2588
 1070SOL    HW214673   0.074   2.863  12.611 -1.9569 -0.3012  0.2021
 1071SOL     OW14674   1.367   2.105   2.116  0.2220 -0.4307  0.2116
 1071SOL    HW114675   1.343   2.155   2.038 -0.1818 -1.1355 -0.1176
 1071SOL    HW214676   1.424   2.038   2.078  1.2931  1.0565 -0.8287
 1072SOL     OW14677   0.913   2.934   6.371 -0.0664  0.1170  0.3061
 1072SOL    HW114678   0.995   2.981   6.360  0.4625 -0.4798  1.6684
 1072SOL    HW214679   0.878   2.943   6.282 -0.5367 -0.8181  0.4003
 1073SOL     OW14680   1.772   2.049   0.575 -0.1540 -0.6885 -0.0871
 1073SOL    HW114681   1.767   2.106   0.652  1.3249 -0.0900 -0.4371
 1073SOL    HW214682   1.709   1.982   0.600  0.9421 -1.3647  0.8841
 1074SOL     OW14683   0.989   3.894   2.155  0.1629  0.9408  0.3172
 1074SOL    HW114684   0.987   3.989   2.143  1.2911  0.9353  0.1179
 1074SOL    HW214685   0.961   3.886   2.246  0.5457 -1.6466  0.1931
 1075SOL     OW14686   1.182   1.516  14.068 -0.0096  0.7159  0.0278
 1075SOL    HW114687   1.141   1.556  13.991 -1.8918 -0.1997  0.5429
 1075SOL    HW214688   1.234   1.441  14.040 -0.8573 -0.0888  0.6173
 1076SOL     OW14689   0.982   1.951   4.698 -0.2035 -0.1544 -0.6624
 1076SOL    HW114690   0.917   2.022   4.704  0.0029 -0.2836  3.6043
 1076SOL    HW214691   0.927   1.875   4.682  0.2935 -0.4960 -0.7636
 1077SOL     OW14692   0.230   1.211   7.077  0.1426 -0.4656  0.2823
 1077SOL    HW114693   0.244   1.198   7.171  1.9392  1.7438  0.3082
 1077SOL    HW214694   0.167   1.140   7.065  0.4991 -1.0359  1.7274
 1078SOL     OW14695   4.302   2.310   4.229  0.3402  0.3462  0.0195
 1078SOL    HW114696   4.223   2.258   4.243 -0.0276  1.0699  0.6405
 1078SOL    HW214697   4.354   2.304   4.308  0.6496 -0.6478 -0.2610
 1079SOL     OW14698   0.229   1.788  10.483  0.1915  0.4584  0.0339
 1079SOL    HW114699   0.171   1.863  10.462  1.4263  2.3629  3.4891
 1079SOL    HW214700   0.311   1.821  10.446  3.1015 -2.6801  3.8038
 1080SOL     OW14701   2.216   1.872  14.116 -0.2467 -0.0695  0.3993
 1080SOL    HW114702   2.274   1.928  14.168  0.8010 -1.5095  0.7793
 1080SOL    HW214703   2.237   1.895  14.025  1.4131 -3.7560 -0.1617
 1081SOL     OW14704   2.657   2.629   6.667  0.2581  0.6508  0.7282
 1081SOL    HW114705   2.740   2.595   6.632 -0.6476 -0.5622 -0.2119
 1081SOL    HW214706   2.599   2.556   6.645 -0.5994  1.1634  1.3152
 1082SOL     OW14707   2.764   4.686   5.220 -0.1666  0.2313  0.3863
 1082SOL    HW114708   2.686   4.664   5.170 -1.1935 -1.2632  2.6049
 1082SOL    HW214709   2.753   0.056   5.217 -2.1377  0.0298  0.7855
 1083SOL     OW14710   0.429   1.189   9.434 -0.2009 -0.1225  0.0366
 1083SOL    HW114711   0.452   1.122   9.498  0.7138  1.9106  1.8250
 1083SOL    HW214712   0.347   1.159   9.396  0.0200  0.1494 -0.6520
 1084SOL     OW14713   0.657   0.960   2.693  0.0427  0.1798  0.2518
 1084SOL    HW114714   0.742   1.000   2.708 -0.5079  1.1643  0.7924
 1084SOL    HW214715   0.599   1.029   2.727  0.9097  0.3873  1.3116
 1085SOL     OW14716   0.142   4.369   7.916  0.3826 -0.3455  0.2408
 1085SOL    HW114717   0.156   4.460   7.944 -0.1465 -0.2341  0.1401
 1085SOL    HW214718   0.153   4.319   7.996 -1.3947 -1.3166 -0.1320
 1086SOL     OW14719   2.175   0.401   2.294 -0.5110  0.7779  0.2499
 1086SOL    HW114720   2.213   0.331   2.240  1.8171  2.1576  0.0777
 1086SOL    HW214721   2.170   0.462   2.221 -2.9740  0.1996 -0.0537
 1087SOL     OW14722   2.088   4.403   1.678  0.2744 -0.3566 -0.5834
 1087SOL    HW114723   2.149   4.331   1.696  1.4930  0.5723 -1.0057
 1087SOL    HW214724   2.064   4.388   1.587 -2.2456 -2.6297  0.4413
 1088SOL     OW14725   2.337   3.181   3.530 -0.0204 -0.4401  0.0155
 1088SOL    HW114726   2.386   3.159   3.450 -0.3786 -0.9438 -0.0651
 1088SOL    HW214727   2.328   3.276   3.531 -0.8073 -0.5366  1.6593
 1089SOL     OW14728   0.516   0.411   4.198 -0.1324 -0.4709 -0.5325
 1089SOL    HW114729   0.546   0.399   4.288 -0.7289  2.6026  0.0425
 1089SOL    HW214730   0.600   0.438   4.161 -0.0468 -0.1237 -0.0864
 1090SOL     OW14731   1.508   3.660  14.137  0.2018 -0.6243  0.1906
 1090SOL    HW114732   1.575   3.637  14.201 -0.2447  0.2953  0.9830
 1090SOL    HW214733   1.499   3.752  14.161 -0.8321 -0.4143 -0.9790
 1091SOL     OW14734   3.556   0.467   4.909  0.0532 -0.3073  0.3916
 1091SOL    HW114735   3.617   0.501   4.974  0.0163 -1.2556  0.9245
 1091SOL    HW214736   3.470   0.485   4.947 -0.1204 -1.7041  0.6549
 1092SOL     OW14737   0.261   4.669   6.766  0.2361 -0.3084 -0.1599
 1092SOL    HW114738   0.312   4.631   6.837  2.6998  0.0016 -1.7884
 1092SOL    HW214739   0.171   4.656   6.795 -0.3287 -1.9394 -2.6052
 1093SOL     OW14740   1.057   0.287   7.861 -0.4299  0.3745  0.4808
 1093SOL    HW114741   1.034   0.208   7.909 -0.7790 -0.8869 -1.7379
 1093SOL    HW214742   0.999   0.345   7.908 -3.7794 -2.1986 -0.4886
 1094SOL     OW14743   0.201   3.962   5.253 -0.1600  0.1009 -0.0170
 1094SOL    HW114744   0.154   3.882   5.233 -1.1639  0.8273 -0.5867
 1094SOL    HW214745   0.287   3.924   5.236 -0.6962 -0.8570 -0.5571
 1095SOL     OW14746   4.479   1.023   1.462  0.9098  0.1709 -0.2496
 1095SOL    HW114747   4.541   1.029   1.389 -0.5149  4.5238 -1.1206
 1095SOL    HW214748   4.538   0.987   1.528 -0.5231 -1.5564  0.0792
 1096SOL     OW14749   0.349   3.736  16.303  0.7432  0.2315 -0.1836
 1096SOL    HW114750   0.311   3.755  16.389 -0.2009 -0.1660 -0.5137
 1096SOL    HW214751   0.416   3.801  16.284  0.9383 -0.4462 -1.8217
 1097SOL     OW14752   1.799   1.771  12.276 -0.2705 -0.0281 -0.0930
 1097SOL    HW114753   1.775   1.822  12.353 -3.2603 -2.1485  0.4057
 1097SOL    HW214754   1.718   1.729  12.245 -0.9109  0.9662  0.2579
 1098SOL     OW14755   4.231   1.431  15.173  0.2642 -0.5346  0.0702
 1098SOL    HW114756   4.157   1.383  15.136 -0.9018  0.3100  1.3186
 1098SOL    HW214757   4.292   1.454  15.103 -1.7444 -1.3606 -1.9515
 1099SOL     OW14758   2.587   1.498   5.459  0.5629  0.2418  0.0741
 1099SOL    HW114759   2.537   1.433   5.408 -0.0330  0.2974  0.5973
 1099SOL    HW214760   2.526   1.512   5.531  0.1143 -2.1421  0.1665
 1100SOL     OW14761   4.538   0.539   6.871  0.0804 -0.0843  0.0394
 1100SOL    HW114762   4.489   0.600   6.816 -0.6993  0.0544  0.8875
 1100SOL    HW214763   4.481   0.463   6.879  1.2689 -1.2821 -3.2174
 1101SOL     OW14764   4.348   2.049  15.091  0.2152  0.0954  0.1149
 1101SOL    HW114765   4.311   1.970  15.052  0.5245  0.0504 -0.0933
 1101SOL    HW214766   4.440   2.039  15.065 -0.4295 -2.6155 -1.1234
 1102SOL     OW14767   0.355   1.762   6.581 -0.7458  0.0996 -0.8830
 1102SOL    HW114768   0.374   1.686   6.637 -0.1356  0.7121 -0.2628
 1102SOL    HW214769   0.433   1.751   6.527 -1.0949 -0.9344 -1.1767
 1103SOL     OW14770   0.988   0.257   8.589  0.2740  0.0092  1.0410
 1103SOL    HW114771   0.923   0.219   8.649 -0.2131  0.8409  1.0445
 1103SOL    HW214772   0.968   0.217   8.505 -1.5161  2.7253  0.1606
 1104SOL     OW14773   3.388   2.198  16.460 -0.3113 -0.0213  0.2327
 1104SOL    HW114774   3.373   2.180  16.367 -2.2475  1.6424  0.2119
 1104SOL    HW214775   3.310   2.150  16.489  1.9895 -3.1720  1.1992
 1105SOL     OW14776   3.595   0.285   1.356  0.7080 -0.6650 -0.1632
 1105SOL    HW114777   3.688   0.306   1.355  0.4086  0.7192  1.5444
 1105SOL    HW214778   3.557   0.372   1.350 -3.9837 -2.7888 -1.2050
 1106SOL     OW14779   1.438   2.665   5.769  0.0681 -0.3721 -0.0465
 1106SOL    HW114780   1.484   2.738   5.810  0.3462 -1.1817  1.0695
 1106SOL    HW214781   1.374   2.650   5.837  0.9944  1.2423  1.1787
 1107SOL     OW14782   4.152   1.713   8.249  0.1705  0.2726 -0.3563
 1107SOL    HW114783   4.135   1.778   8.317 -1.5405 -1.1195  0.5285
 1107SOL    HW214784   4.161   1.762   8.167  1.1142  0.0282 -0.3989
 1108SOL     OW14785   3.059   4.513   1.166 -0.4469  0.6384  0.1935
 1108SOL    HW114786   2.991   4.526   1.232 -1.4632 -0.9617 -0.5589
 1108SOL    HW214787   2.999   4.497   1.094 -1.1300  4.9241 -0.1865
 1109SOL     OW14788   0.542   0.741   3.996 -0.3406 -0.8114  0.3738
 1109SOL    HW114789   0.600   0.703   3.931 -0.8594 -0.6599 -0.1769
 1109SOL    HW214790   0.591   0.731   4.078 -0.6127  0.7039  0.7363
 1110SOL     OW14791   3.023   2.798   4.237 -0.4582  0.0070  0.7941
 1110SOL    HW114792   3.010   2.707   4.211 -0.5389 -0.1554  1.4041
 1110SOL    HW214793   3.050   2.778   4.326 -0.3168  1.8001  1.1599
 1111SOL     OW14794   1.350   1.810   7.041 -0.6083  0.2143 -0.0014
 1111SOL    HW114795   1.415   1.740   7.035  0.5127  1.2021  0.5654
 1111SOL    HW214796   1.273   1.771   7.082 -0.0644  0.3853  1.1752
 1112SOL     OW14797   1.999   1.365   1.414  0.4763 -0.1904  0.2410
 1112SOL    HW114798   1.948   1.329   1.486 -0.6774  0.7332 -0.1162
 1112SOL    HW214799   2.038   1.289   1.371  0.6103  0.3373 -0.5725
 1113SOL     OW14800   2.832   1.519   6.192 -0.4539 -0.0810 -0.6397
 1113SOL    HW114801   2.847   1.575   6.115 -2.7415  0.5866 -0.6105
 1113SOL    HW214802   2.784   1.588   6.238 -0.5471 -0.7064  0.1927
 1114SOL     OW14803   0.888   1.459   7.153 -0.3179 -0.3940  0.0931
 1114SOL    HW114804   0.921   1.422   7.071 -0.8027 -0.5282 -0.0442
 1114SOL    HW214805   0.894   1.388   7.217 -2.2997  0.2768  1.0371
 1115SOL     OW14806   2.946   1.685   7.788 -0.5280  0.1943 -0.2602
 1115SOL    HW114807   2.896   1.609   7.759  0.2817 -0.2060 -0.6338
 1115SOL    HW214808   2.872   1.729   7.829 -0.8747  1.7065 -2.4874
 1116SOL     OW14809   1.710   1.543   5.270  0.2417 -0.1702 -0.2778
 1116SOL    HW114810   1.754   1.623   5.299 -1.8075  0.8525  0.0094
 1116SOL    HW214811   1.751   1.530   5.184  1.7638 -0.9251  0.5785
 1117SOL     OW14812   4.375   0.858   5.515 -0.1828  0.5319  0.3783
 1117SOL    HW114813   4.287   0.896   5.520 -0.8140 -1.0216  0.8216
 1117SOL    HW214814   4.404   0.892   5.600  0.4015 -1.0415  0.8004
 1118SOL     OW14815   2.315   3.896   6.500 -0.0709 -0.7512  0.3106
 1118SOL    HW114816   2.359   3.965   6.451 -0.5793 -0.5344  0.1624
 1118SOL    HW214817   2.382   3.884   6.568 -0.8259 -0.9712  1.0105
 1119SOL     OW14818   2.998   3.070   5.999 -0.4389  0.3324  0.0755
 1119SOL    HW114819   3.028   3.129   5.930  1.3043  1.7353  2.0400
 1119SOL    HW214820   3.022   3.111   6.082  1.2289  0.0577 -0.2792
 1120SOL     OW14821   0.329   4.524   2.279  0.0818  0.6504  0.3785
 1120SOL    HW114822   0.289   4.534   2.366  0.6073  1.0812  0.5658
 1120SOL    HW214823   0.319   4.613   2.246 -0.2785  0.0236 -1.2190
 1121SOL     OW14824   2.660   1.386   3.236 -0.2233  0.8101  0.2027
 1121SOL    HW114825   2.606   1.358   3.161 -1.0035  0.9117  0.7292
 1121SOL    HW214826   2.741   1.409   3.191 -0.4897 -0.1720 -0.7799
 1122SOL     OW14827   4.232   0.112   9.923 -0.3226 -0.0948 -0.6091
 1122SOL    HW114828   4.234   0.118   9.827 -1.9085 -2.4185 -0.7787
 1122SOL    HW214829   4.138   0.110   9.944 -0.4284  0.9422 -0.9743
 1123SOL     OW14830   0.226   2.292   1.315 -0.0876  0.3609 -0.0010
 1123SOL    HW114831   0.194   2.363   1.371  0.4588  0.0380  0.7208
 1123SOL    HW214832   0.185   2.300   1.229 -2.2115 -1.5547  0.8215
 1124SOL     OW14833   1.704   1.984   6.959 -0.7108  0.2910  0.3597
 1124SOL    HW114834   1.653   2.022   7.031  1.1169  0.8190  1.3842
 1124SOL    HW214835   1.709   2.060   6.901  1.3384  0.8827  1.3315
 1125SOL     OW14836   3.785   3.177   3.886 -0.8088  0.0074 -0.2436
 1125SOL    HW114837   3.757   3.258   3.927 -0.8486 -0.4465  0.6165
 1125SOL    HW214838   3.877   3.192   3.868 -0.1578 -1.4665  1.8459
 1126SOL     OW14839   3.629   2.259   9.442  0.2828 -0.3738 -0.1475
 1126SOL    HW114840   3.639   2.273   9.348  0.8608 -1.9907 -0.3179
 1126SOL    HW214841   3.721   2.266   9.468  0.3510 -0.3352 -0.3953
 1127SOL     OW14842   1.911   1.173   0.123  0.2719 -0.4358 -0.5483
 1127SOL    HW114843   1.920   1.266   0.102 -3.1862 -0.2649 -1.2713
 1127SOL    HW214844   1.894   1.137   0.036 -2.7662 -0.6942  0.1393
 1128SOL     OW14845   1.337   0.342   5.290 -0.4084 -0.2076 -0.1205
 1128SOL    HW114846   1.376   0.310   5.209 -1.8067  0.5265 -1.1013
 1128SOL    HW214847   1.297   0.259   5.315  0.4160 -0.8818 -1.0582
 1129SOL     OW14848   0.955   0.203  13.853 -0.7354 -0.1861  0.3029
 1129SOL    HW114849   1.025   0.194  13.919 -1.0992  0.2078  0.7464
 1129SOL    HW214850   0.986   0.286  13.816  0.8903 -0.0925  1.8883
 1130SOL     OW14851   4.396   3.504   2.565  0.1067  0.2292 -0.1405
 1130SOL    HW114852   4.475   3.557   2.557  0.2795  0.3328  2.1552
 1130SOL    HW214853   4.355   3.555   2.635  1.5405  1.1401  0.0364
 1131SOL     OW14854   2.271   3.858   8.389  0.6562 -0.0782  0.6344
 1131SOL    HW114855   2.290   3.781   8.335 -2.3245 -0.0817 -0.4237
 1131SOL    HW214856   2.265   3.929   8.327  0.5836  0.5465  1.3567
 1132SOL     OW14857   1.042   2.448   1.656  0.0902  0.4998 -0.0330
 1132SOL    HW114858   1.043   2.541   1.676  1.0323  0.2839  0.9379
 1132SOL    HW214859   0.953   2.412   1.650  0.8639 -1.5640  0.7944
 1133SOL     OW14860   0.292   3.437  12.397 -0.3433  0.0867 -0.3451
 1133SOL    HW114861   0.303   3.523  12.439  1.2633 -0.7787  1.0144
 1133SOL    HW214862   0.383   3.412  12.382 -0.1443  1.5713 -1.6634
 1134SOL     OW14863   2.250   3.741  17.476 -0.6727 -0.6962 -0.3610
 1134SOL    HW114864   2.302   3.793  17.415 -0.8865  1.0919  0.9760
 1134SOL    HW214865   2.231   3.660  17.428  1.6233 -1.9075  0.7823
 1135SOL     OW14866   2.817   3.128   2.227 -0.2552 -0.1131 -0.0414
 1135SOL    HW114867   2.752   3.167   2.287  0.4539 -0.6329  1.0735
 1135SOL    HW214868   2.777   3.042   2.212 -1.5786  0.3344  0.8618
 1136SOL     OW14869   3.298   0.399  12.773 -0.3864  0.4423 -0.0301
 1136SOL    HW114870   3.278   0.372  12.683 -1.1835  0.0348  0.2727
 1136SOL    HW214871   3.209   0.383  12.804  0.3570  0.5406  2.1622
 1137SOL     OW14872   0.578   2.726   2.417  0.6699  0.0423 -0.2451
 1137SOL    HW114873   0.604   2.744   2.326 -0.5491  0.7138 -0.4623
 1137SOL    HW214874   0.649   2.668   2.445  0.2122 -0.5523 -0.3169
 1138SOL     OW14875   2.979   1.866  13.557 -0.0717  0.3075  0.3555
 1138SOL    HW114876   2.961   1.777  13.525  0.7259  0.0856  0.5224
 1138SOL    HW214877   3.046   1.897  13.496  0.6179 -0.5656  0.6639
 1139SOL     OW14878   4.174   3.727   4.793  0.3605  0.5218 -0.4668
 1139SOL    HW114879   4.210   3.745   4.880  2.0490  0.7373 -1.2038
 1139SOL    HW214880   4.241   3.764   4.736  0.7137  1.7083  0.7220
 1140SOL     OW14881   2.025   2.935   7.135  0.0547  0.4209  0.1586
 1140SOL    HW114882   2.062   2.853   7.104 -1.4203 -0.3423  0.4380
 1140SOL    HW214883   2.018   2.996   7.061  0.1546 -0.3104 -0.4480
 1141SOL     OW14884   1.833   2.505   7.044 -0.6119 -1.1193  0.0422
 1141SOL    HW114885   1.779   2.576   7.009  1.0626  0.2119  0.1619
 1141SOL    HW214886   1.843   2.533   7.135  0.1998  0.5368 -0.5491
 1142SOL     OW14887   2.181   0.223  16.943  0.2887  0.0728  0.3324
 1142SOL    HW114888   2.214   0.207  17.031  0.2777  4.3544  1.0902
 1142SOL    HW214889   2.247   0.166  16.903 -1.8667 -2.7268  0.7218
 1143SOL     OW14890   2.652   2.681   1.129 -0.3467  0.1561 -0.0560
 1143SOL    HW114891   2.691   2.714   1.047 -1.8464  0.6815 -0.5688
 1143SOL    HW214892   2.648   2.587   1.116 -0.7508  0.3699 -1.4880
 1144SOL     OW14893   0.495   0.361   7.832  0.3577 -0.2503  0.2476
 1144SOL    HW114894   0.499   0.434   7.893  1.8271  0.0263 -0.1871
 1144SOL    HW214895   0.553   0.298   7.873 -0.7991  0.3781  2.8483
 1145SOL     OW14896   2.653   4.363   7.024  0.9343  0.0575  0.3740
 1145SOL    HW114897   2.748   4.352   7.023  0.6287 -2.3664 -1.8409
 1145SOL    HW214898   2.622   4.321   7.103 -1.5502  0.7905 -0.2211
 1146SOL     OW14899   0.325   1.352   3.916 -0.4955 -0.0871 -0.3648
 1146SOL    HW114900   0.352   1.420   3.977  1.9178 -0.1452 -1.3532
 1146SOL    HW214901   0.317   1.277   3.975  0.4637 -0.7099 -1.0238
 1147SOL     OW14902   0.631   2.132   6.780 -0.4473  0.0226  0.3894
 1147SOL    HW114903   0.584   2.200   6.828 -0.1703  1.2722 -1.0877
 1147SOL    HW214904   0.643   2.059   6.840 -0.3762  2.3481  3.2038
 1148SOL     OW14905   3.476   2.907   7.338  0.0935 -0.4155  0.2920
 1148SOL    HW114906   3.473   2.835   7.400  1.8041 -1.1901 -0.5309
 1148SOL    HW214907   3.381   2.918   7.336 -0.0703 -1.6345  1.2686
 1149SOL     OW14908   4.389   3.820   1.939 -0.5544 -0.3625 -0.5807
 1149SOL    HW114909   4.377   3.773   1.856 -0.0402  1.3985 -1.6476
 1149SOL    HW214910   4.299   3.821   1.972  0.9878 -0.1241  3.5986
 1150SOL     OW14911   1.056   0.822   1.066 -0.4686 -0.1681 -0.3924
 1150SOL    HW114912   1.143   0.840   1.103 -1.1512  0.9189  0.6691
 1150SOL    HW214913   1.049   0.729   1.086 -1.3872 -0.3498 -1.5181
 1151SOL     OW14914   3.299   2.200   3.495  0.2978 -0.1167 -0.3262
 1151SOL    HW114915   3.348   2.137   3.442 -1.1598 -1.2466 -0.3335
 1151SOL    HW214916   3.325   2.177   3.584 -0.3467 -2.5396 -0.7575
 1152SOL     OW14917   0.921   0.233   6.878 -0.2629 -0.4477  0.0736
 1152SOL    HW114918   0.855   0.180   6.924 -0.8843  2.0720  2.1074
 1152SOL    HW214919   0.865   0.289   6.824  2.2301  0.9903 -1.0015
 1153SOL     OW14920   3.062   2.678   3.674  0.0564  0.1728  0.0569
 1153SOL    HW114921   3.085   2.771   3.673 -1.8865  0.6491 -1.8849
 1153SOL    HW214922   3.045   2.670   3.580  0.8455 -4.6422  0.3500
 1154SOL     OW14923   3.292   1.284  12.646 -0.4165 -0.5600 -0.0171
 1154SOL    HW114924   3.375   1.314  12.609  0.6042 -3.2143  0.1492
 1154SOL    HW214925   3.312   1.205  12.697  2.4071 -0.4158 -0.8997
 1155SOL     OW14926   2.133   3.051   0.396 -0.1006  0.4070  0.1006
 1155SOL    HW114927   2.126   3.098   0.479  0.5060  2.8661 -1.2524
 1155SOL    HW214928   2.089   3.119   0.345  0.5788 -1.3537 -2.8125
 1156SOL     OW14929   3.724   4.224   7.099  0.3842  0.4507 -0.1017
 1156SOL    HW114930   3.664   4.167   7.050  0.2046  0.0081  0.6394
 1156SOL    HW214931   3.803   4.212   7.045 -0.8168 -2.7212 -1.1876
 1157SOL     OW14932   1.244   3.796   7.504  0.5736 -0.1124 -0.5174
 1157SOL    HW114933   1.173   3.828   7.559  2.4444 -0.0504  1.8601
 1157SOL    HW214934   1.264   3.710   7.543  0.9247 -0.2899 -1.0802
 1158SOL     OW14935   3.113   1.190   2.624 -0.8082  0.3642 -0.2298
 1158SOL    HW114936   3.056   1.212   2.550 -1.0790  0.2321 -0.0625
 1158SOL    HW214937   3.064   1.120   2.668 -1.0626  1.8412  1.8605
 1159SOL     OW14938   2.003   3.241   7.090  0.7253 -0.1423  0.0989
 1159SOL    HW114939   1.996   3.184   7.013  0.8315 -0.5714  0.4030
 1159SOL    HW214940   2.092   3.263   7.064  0.7470  0.2885  0.5294
 1160SOL     OW14941   2.144   1.102   6.069 -0.4832  0.3247 -0.3093
 1160SOL    HW114942   2.073   1.167   6.076 -2.0046 -1.5392  1.3856
 1160SOL    HW214943   2.152   1.080   6.162 -0.9659  0.1513 -0.3095
 1161SOL     OW14944   0.896   2.134   2.310  0.5561 -0.2440 -0.7309
 1161SOL    HW114945   0.874   2.227   2.303  1.4077  0.1477  1.6556
 1161SOL    HW214946   0.830   2.115   2.376 -1.2345  2.2556 -1.8375
 1162SOL     OW14947   4.324   4.535  10.351 -0.2095 -0.1196 -0.9502
 1162SOL    HW114948   4.320   4.587  10.271 -0.0128 -1.3466 -1.7693
 1162SOL    HW214949   4.232   4.523  10.378 -0.4781  1.3877 -1.1846
 1163SOL     OW14950   2.283   4.231   3.067 -0.1002 -0.0849  0.0593
 1163SOL    HW114951   2.361   4.230   3.013 -0.0641  0.2571  0.1082
 1163SOL    HW214952   2.211   4.235   3.003  2.6446  0.3477 -2.9556
 1164SOL     OW14953   1.773   3.083   6.231 -0.3590 -0.1758 -0.5622
 1164SOL    HW114954   1.687   3.049   6.256 -1.2046  2.3449 -0.0486
 1164SOL    HW214955   1.741   3.161   6.186 -2.8251 -2.1742 -2.2877
 1165SOL     OW14956   1.278   2.743   8.670  0.0742 -0.0588 -0.0770
 1165SOL    HW114957   1.306   2.652   8.682  1.7284  0.6868  1.7565
 1165SOL    HW214958   1.222   2.753   8.747  3.3940  1.6818  2.1339
 1166SOL     OW14959   1.418   2.424   6.345  0.1025  0.0374 -0.2540
 1166SOL    HW114960   1.443   2.506   6.388 -1.0864  0.2567  0.0095
 1166SOL    HW214961   1.497   2.371   6.356 -0.2244 -0.6653 -1.2951
 1167SOL     OW14962   0.647   0.541   7.698  0.2532 -0.4741 -0.4511
 1167SOL    HW114963   0.690   0.588   7.770  0.8232 -0.4596 -0.8018
 1167SOL    HW214964   0.648   0.450   7.726  0.6011 -0.4475 -0.3732
 1168SOL     OW14965   0.872   2.765   2.383 -0.2700  0.2994  0.6486
 1168SOL    HW114966   0.892   2.687   2.331  2.4378  3.3536 -2.8943
 1168SOL    HW214967   0.892   2.827   2.313  0.8737  1.2205  1.7992
 1169SOL     OW14968   2.174   4.471   1.912 -0.0988  0.1699 -0.5287
 1169SOL    HW114969   2.234   4.397   1.902  1.0121  1.1782 -1.1992
 1169SOL    HW214970   2.138   4.476   1.823 -2.1637 -0.5892  0.2759
 1170SOL     OW14971   1.688   1.750   2.303 -0.0812  0.2088  0.2059
 1170SOL    HW114972   1.735   1.672   2.276  0.6360  0.3847  0.9529
 1170SOL    HW214973   1.599   1.717   2.293 -0.5315  0.3818  3.8284
 1171SOL     OW14974   0.895   1.032   0.203  0.1209  0.0786  0.0182
 1171SOL    HW114975   0.923   1.107   0.255 -0.5389  0.2004  0.1980
 1171SOL    HW214976   0.958   0.965   0.228 -2.0576 -2.5299 -1.4661
 1172SOL     OW14977   0.029   4.112   5.099  0.1926 -0.3198  0.2013
 1172SOL    HW114978   0.097   4.177   5.117 -1.4491  1.2821  0.6743
 1172SOL    HW214979   0.068   4.034   5.138  1.1408  2.1788  4.2680
 1173SOL     OW14980   3.609   1.791   6.903 -0.0235  0.2007  0.1675
 1173SOL    HW114981   3.570   1.836   6.979 -0.9238  0.2499 -0.3187
 1173SOL    HW214982   3.697   1.826   6.894 -0.0167  0.2508  0.4081
 1174SOL     OW14983   3.601   1.859  10.594 -0.1562  0.2608  0.7691
 1174SOL    HW114984   3.565   1.908  10.521 -1.2067 -2.2249 -0.3597
 1174SOL    HW214985   3.539   1.890  10.660 -0.0482  0.0500  0.9691
 1175SOL     OW14986   1.506   4.369   4.363 -0.0814 -0.3237 -0.6767
 1175SOL    HW114987   1.424   4.407   4.334  1.6551  1.7512 -2.8334
 1175SOL    HW214988   1.533   4.322   4.284 -0.8984 -1.7938 -0.0836
 1176SOL     OW14989   2.581   1.015   5.051  0.2901  0.0332  0.8150
 1176SOL    HW114990   2.647   1.047   5.114  0.3822  1.0199  0.2187
 1176SOL    HW214991   2.620   0.982   4.971 -0.3425 -0.5937  0.7704
 1177SOL     OW14992   2.712   3.629  15.710  0.2635 -0.7115  0.9647
 1177SOL    HW114993   2.642   3.686  15.741  0.0416 -1.4446  1.8175
 1177SOL    HW214994   2.748   3.689  15.644  3.1035 -1.3923  1.8744
 1178SOL     OW14995   2.864   2.655   8.315 -0.4187 -0.2496 -0.2734
 1178SOL    HW114996   2.905   2.593   8.255  2.3464  1.6397 -0.3091
 1178SOL    HW214997   2.779   2.613   8.331 -0.1859 -1.1056 -1.2869
 1179SOL     OW14998   2.193   4.720   1.445 -0.4509 -0.2125  0.1315
 1179SOL    HW114999   2.185   4.655   1.375 -0.2560  1.9971 -1.9542
 1179SOL    HW215000   2.171   0.076   1.398 -0.6361 -0.2087  0.2264
 1180SOL     OW15001   4.523   2.259   1.711 -0.1288 -0.0822  0.2582
 1180SOL    HW115002   4.580   2.186   1.689 -1.7879 -1.4823  0.6429
 1180SOL    HW215003   4.540   2.269   1.804 -1.0369  2.2832  0.1830
 1181SOL     OW15004   4.180   1.960   6.352  0.1731 -0.1891  0.2120
 1181SOL    HW115005   4.261   1.925   6.388  1.1565  0.3186 -1.5160
 1181SOL    HW215006   4.191   1.950   6.258  2.9998 -1.8155  0.7278
 1182SOL     OW15007   3.067   4.627   2.728  0.2190 -0.3338 -0.4343
 1182SOL    HW115008   3.141   4.632   2.667  1.2733 -5.0794  0.4674
 1182SOL    HW215009   3.098   4.546   2.767 -1.7545 -1.3873 -1.0324
 1183SOL     OW15010   2.045   2.834   3.794  0.3975  0.3959 -0.3474
 1183SOL    HW115011   1.956   2.869   3.789  0.6221  0.8494 -1.3082
 1183SOL    HW215012   2.097   2.904   3.753 -3.1756  2.9691 -0.4599
 1184SOL     OW15013   2.682   0.878  14.627 -0.3373 -0.1519  0.0969
 1184SOL    HW115014   2.744   0.949  14.610 -2.4390  1.0689 -2.4606
 1184SOL    HW215015   2.636   0.863  14.545  1.2916  1.0594 -1.0425
 1185SOL     OW15016   1.205   4.204   6.354  0.2130 -0.5740 -0.3767
 1185SOL    HW115017   1.152   4.192   6.433 -1.5933 -0.5022 -1.5838
 1185SOL    HW215018   1.264   4.129   6.359  3.0984  1.5344 -3.0090
 1186SOL     OW15019   0.318   0.860   9.491  0.2536 -0.7773 -0.3732
 1186SOL    HW115020   0.360   0.777   9.470 -1.0421 -0.5933 -3.7286
 1186SOL    HW215021   0.387   0.911   9.447 -0.4281 -0.4716 -1.0881
 1187SOL     OW15022   0.622   0.035   0.720  0.2171 -0.4112  0.2339
 1187SOL    HW115023   0.612   0.032   0.815  2.2781 -0.9042  0.4402
 1187SOL    HW215024   0.535   0.045   0.680  0.1781 -1.9158 -0.0466
 1188SOL     OW15025   4.465   0.685   9.888 -0.0338  0.8405 -0.4355
 1188SOL    HW115026   4.556   0.680   9.917 -0.4447  2.0525  1.0563
 1188SOL    HW215027   4.460   0.592   9.865 -1.2256  1.0620 -1.0296
 1189SOL     OW15028   0.579   3.654  12.416 -0.3754 -0.2149  0.5058
 1189SOL    HW115029   0.581   3.561  12.441  0.5633  0.2916  2.3268
 1189SOL    HW215030   0.658   3.652  12.361 -1.4743  2.2354 -1.1173
 1190SOL     OW15031   1.863   1.207   1.957 -0.1533  0.1735 -0.2975
 1190SOL    HW115032   1.905   1.281   2.001 -0.8469  1.4507 -1.7890
 1190SOL    HW215033   1.784   1.174   2.001 -0.8513 -0.0995 -1.7610
 1191SOL     OW15034   1.100   1.443   6.685 -0.1129  0.1506  0.0440
 1191SOL    HW115035   1.164   1.514   6.686  0.1327 -0.0813  1.2877
 1191SOL    HW215036   1.157   1.381   6.639  0.1967  0.2646  0.2801
 1192SOL     OW15037   2.155   0.775   2.362  0.4686  0.3306 -0.2833
 1192SOL    HW115038   2.144   0.713   2.290 -2.1193  1.2015 -0.6463
 1192SOL    HW215039   2.067   0.787   2.398  1.1718 -0.4212  1.6920
 1193SOL     OW15040   2.067   1.450  13.252  0.3465  0.2070 -0.3812
 1193SOL    HW115041   2.127   1.400  13.198 -0.1158 -1.5603  0.7542
 1193SOL    HW215042   2.006   1.485  13.187 -1.0299 -0.9252  0.3132
 1194SOL     OW15043   0.605   2.290  17.612  0.3059 -0.7443 -0.9633
 1194SOL    HW115044   0.529   2.317  17.560 -0.0430 -1.0491 -0.6132
 1194SOL    HW215045   0.655   2.370  17.596  0.8471 -0.5049  1.8644
 1195SOL     OW15046   4.404   3.300   2.879 -0.5926  0.1828  0.1632
 1195SOL    HW115047   4.345   3.315   2.805 -1.7219  0.5272  1.1167
 1195SOL    HW215048   4.366   3.349   2.952  0.2788 -0.8897  1.3408
 1196SOL     OW15049   3.903   2.285  16.167  1.0004 -0.1160  0.1004
 1196SOL    HW115050   3.885   2.302  16.075 -1.3934  0.0884  0.6155
 1196SOL    HW215051   3.934   2.370  16.198  2.5476 -0.6464  0.0044
 1197SOL     OW15052   0.164   3.397   2.376  0.0238  0.1764 -0.2086
 1197SOL    HW115053   0.098   3.377   2.443 -1.4818 -1.1043 -2.0974
 1197SOL    HW215054   0.112   3.454   2.319  2.0217  2.8142  0.5765
 1198SOL     OW15055   3.943   2.593   7.120 -0.1676 -0.0260 -0.9712
 1198SOL    HW115056   3.973   2.506   7.094 -0.2252 -0.6158  0.9428
 1198SOL    HW215057   4.029   2.632   7.140 -0.8347  1.2931 -0.6846
 1199SOL     OW15058   3.892   1.058   3.562  0.2356 -0.0820 -0.2365
 1199SOL    HW115059   3.817   1.070   3.505 -0.1605  0.4103  0.3910
 1199SOL    HW215060   3.861   0.998   3.630  1.5802 -0.5656 -0.0391
 1200SOL     OW15061   3.345   4.228   8.383 -0.1586 -0.3312 -0.2372
 1200SOL    HW115062   3.378   4.179   8.458 -1.0905 -0.2119  0.2523
 1200SOL    HW215063   3.375   4.315   8.411  0.6196 -0.8064  0.4024
 1201SOL     OW15064   0.638   1.093  17.600 -0.2919 -0.2478  0.0802
 1201SOL    HW115065   0.670   1.109  17.512 -1.7021  0.0971 -0.3730
 1201SOL    HW215066   0.671   1.177  17.633 -0.2166 -0.4022  0.4051
 1202SOL     OW15067   2.125   3.641   3.623  0.2487  0.3201  0.5431
 1202SOL    HW115068   2.164   3.651   3.537  1.5009  1.4628  1.2429
 1202SOL    HW215069   2.129   3.734   3.646 -1.2092 -0.5701  4.4402
 1203SOL     OW15070   1.133   0.647  11.024 -0.2945 -0.7342 -0.0498
 1203SOL    HW115071   1.094   0.577  11.075  0.5522 -1.8252 -0.9231
 1203SOL    HW215072   1.145   0.709  11.096 -3.2580  0.2295 -0.3623
 1204SOL     OW15073   3.195   3.585   7.163  0.3021 -1.1351 -0.6288
 1204SOL    HW115074   3.203   3.563   7.070  2.6452  3.0706 -1.4532
 1204SOL    HW215075   3.102   3.604   7.174  0.5913 -1.2287  1.8512
 1205SOL     OW15076   0.994   2.658  17.067 -0.1432  0.2561 -0.2175
 1205SOL    HW115077   1.039   2.587  17.112 -0.8108  0.4773  0.8064
 1205SOL    HW215078   1.014   2.736  17.117 -1.3171 -0.4181  1.3041
 1206SOL     OW15079   1.863   0.792   6.089  0.2470 -0.1233  0.0188
 1206SOL    HW115080   1.890   0.726   6.025 -0.7943 -1.8679  1.3809
 1206SOL    HW215081   1.949   0.801   6.130 -0.9061  1.3842  2.0729
 1207SOL     OW15082   2.366   4.298  12.338 -0.2142 -0.5356 -0.0483
 1207SOL    HW115083   2.414   4.373  12.301 -0.5946 -0.6453 -0.7742
 1207SOL    HW215084   2.381   4.317  12.430 -0.8183  0.7815 -0.2160
 1208SOL     OW15085   3.207   3.240  13.594  0.3489 -0.0264 -0.4243
 1208SOL    HW115086   3.146   3.314  13.588 -1.2675 -1.2611  0.9235
 1208SOL    HW215087   3.165   3.172  13.543 -1.8809 -0.4939  2.0391
 1209SOL     OW15088   0.223   1.070   8.492 -0.0896 -0.1426  0.3347
 1209SOL    HW115089   0.278   1.062   8.570 -0.4405  0.0230  0.5972
 1209SOL    HW215090   0.157   1.001   8.499 -0.3594  0.1212  0.4046
 1210SOL     OW15091   2.464   4.294   7.225  0.2390 -0.2780  0.0128
 1210SOL    HW115092   2.409   4.300   7.303 -1.2656  1.3125 -1.1593
 1210SOL    HW215093   2.437   4.206   7.198 -1.1271  0.4118 -0.8427
 1211SOL     OW15094   1.276   3.935   8.328  0.5035  0.2243 -0.4916
 1211SOL    HW115095   1.257   3.844   8.307 -1.2921  0.6169 -0.6398
 1211SOL    HW215096   1.196   3.970   8.287 -0.0707  1.3598  1.5830
 1212SOL     OW15097   4.132   1.986   8.433  0.4082 -0.1884  0.2492
 1212SOL    HW115098   4.084   2.067   8.417  0.4911 -0.1634  0.1256
 1212SOL    HW215099   4.149   1.974   8.339 -1.3732 -0.1851 -0.0746
 1213SOL     OW15100   1.399   1.173   8.353  0.3897 -0.7565  0.1987
 1213SOL    HW115101   1.358   1.213   8.430 -1.0002 -0.6645 -0.5858
 1213SOL    HW215102   1.330   1.108   8.339  0.6909 -1.5407  2.4395
 1214SOL     OW15103   1.090   1.920   2.516 -0.5133 -0.2802 -0.1306
 1214SOL    HW115104   1.015   1.958   2.471  0.2149 -0.2419 -1.2990
 1214SOL    HW215105   1.147   1.904   2.440 -1.5903  0.2404 -1.0443
 1215SOL     OW15106   3.902   3.078   4.314  0.1525 -0.1294 -0.4915
 1215SOL    HW115107   3.865   2.993   4.336  0.9911 -0.4258 -0.2202
 1215SOL    HW215108   3.981   3.093   4.366  1.2779 -0.3175 -2.1284
 1216SOL     OW15109   2.322   2.327   9.295 -0.0895  0.0830  0.0983
 1216SOL    HW115110   2.262   2.307   9.223  0.0432 -0.1682  0.0576
 1216SOL    HW215111   2.310   2.253   9.355  0.3093  0.1740  0.2907
 1217SOL     OW15112   0.158   1.365   5.882  0.1416 -0.3813 -0.4449
 1217SOL    HW115113   0.121   1.372   5.794  0.5724 -1.3531 -0.7034
 1217SOL    HW215114   0.202   1.450   5.893  1.8989 -1.2226 -0.9604
 1218SOL     OW15115   3.931   4.668   9.348  0.0260  1.2408 -0.4483
 1218SOL    HW115116   4.023   4.665   9.373  0.2705  1.7921 -1.2626
 1218SOL    HW215117   3.928   0.036   9.328  0.1516  1.2089 -0.6148
 1219SOL     OW15118   0.235   0.869   7.645 -0.2902 -0.5172  0.0947
 1219SOL    HW115119   0.287   0.805   7.694  0.1532 -1.3829 -1.4951
 1219SOL    HW215120   0.240   0.837   7.555 -0.8055 -1.3890  0.3661
 1220SOL     OW15121   3.990   3.962   2.707 -0.0031 -0.0936 -0.5813
 1220SOL    HW115122   3.990   4.041   2.654  1.9152 -0.5785 -1.2767
 1220SOL    HW215123   3.984   4.006   2.792  1.3499 -2.3621  0.6905
 1221SOL     OW15124   2.377   0.030   8.577 -0.2221 -0.2027  0.2064
 1221SOL    HW115125   2.313   0.098   8.600  0.3928  0.0459  1.1739
 1221SOL    HW215126   2.428   0.022   8.658 -0.4963 -1.8126  0.2285
 1222SOL     OW15127   4.067   2.406   2.359  0.2078 -0.0912  0.0036
 1222SOL    HW115128   4.137   2.400   2.424  0.6718 -0.4128 -0.5255
 1222SOL    HW215129   3.998   2.356   2.402 -0.3478  0.6313 -0.0505
 1223SOL     OW15130   0.878   4.188   5.883 -0.6639  0.2010 -0.3559
 1223SOL    HW115131   0.860   4.275   5.847 -1.3275  1.3234  2.6970
 1223SOL    HW215132   0.882   4.198   5.978 -0.1759 -0.4066 -0.3136
 1224SOL     OW15133   3.179   1.211  15.413 -0.0395  0.5032 -0.1538
 1224SOL    HW115134   3.220   1.200  15.327 -0.8669 -0.7980 -0.3808
 1224SOL    HW215135   3.090   1.230  15.384  0.0952 -0.0252 -0.9194
 1225SOL     OW15136   1.095   3.710  11.922 -0.4245 -0.0941 -0.0587
 1225SOL    HW115137   1.079   3.635  11.864 -1.3119 -1.2330  1.6728
 1225SOL    HW215138   1.172   3.744  11.877 -1.1871  1.1259 -0.4535
 1226SOL     OW15139   1.024   1.112   0.593 -0.5361  0.2278 -0.7236
 1226SOL    HW115140   1.035   1.143   0.682 -0.2563  0.4183 -0.8241
 1226SOL    HW215141   0.955   1.171   0.563  1.3612  2.5382 -0.5205
 1227SOL     OW15142   3.781   2.414  13.538  0.9257 -0.3164 -0.4442
 1227SOL    HW115143   3.819   2.351  13.599  0.3336 -0.0146  0.2265
 1227SOL    HW215144   3.862   2.454  13.507  0.5048  0.4047 -0.6008
 1228SOL     OW15145   2.505   3.483  12.268  0.2473 -0.6483  0.6559
 1228SOL    HW115146   2.537   3.514  12.183 -3.0502  0.4255 -0.2115
 1228SOL    HW215147   2.459   3.560  12.301  1.3925 -0.1613  1.1088
 1229SOL     OW15148   0.606   3.319  10.650 -0.1612  0.3228  0.6609
 1229SOL    HW115149   0.696   3.293  10.670 -0.1025 -1.0484 -1.3782
 1229SOL    HW215150   0.558   3.243  10.682 -1.3283  1.5135  1.7167
 1230SOL     OW15151   3.793   0.366  10.357  0.2599 -0.1767  0.4297
 1230SOL    HW115152   3.756   0.446  10.395  1.5421  0.5079  0.2477
 1230SOL    HW215153   3.787   0.300  10.426  0.6616 -0.9025 -0.2297
 1231SOL     OW15154   0.453   3.622   5.392  0.0438 -0.3614 -0.1767
 1231SOL    HW115155   0.522   3.668   5.344 -0.4039  0.8610  0.3357
 1231SOL    HW215156   0.437   3.685   5.462 -1.2173 -0.7673 -0.0945
 1232SOL     OW15157   3.829   2.019   2.955 -0.0573 -0.3013  0.3719
 1232SOL    HW115158   3.764   2.088   2.965 -0.0793 -0.4904  1.5220
 1232SOL    HW215159   3.914   2.061   2.945  0.1453 -1.1587 -1.4728
 1233SOL     OW15160   2.544   3.750  13.424 -1.0065 -0.0818 -0.1392
 1233SOL    HW115161   2.552   3.831  13.374  0.5574  0.6418  1.2795
 1233SOL    HW215162   2.637   3.726  13.425 -0.5403  1.7503 -0.2832
 1234SOL     OW15163   1.917   0.274   3.578  0.6720 -0.7613  0.3735
 1234SOL    HW115164   1.888   0.194   3.534 -0.3170  0.9538 -2.0671
 1234SOL    HW215165   2.011   0.259   3.594  1.3545  2.3836 -0.7657
 1235SOL     OW15166   3.950   3.817  13.447 -0.5963 -0.0180  0.1123
 1235SOL    HW115167   3.998   3.766  13.382 -0.4532  1.5451 -0.9916
 1235SOL    HW215168   3.975   3.763  13.523 -2.0939  0.1859  0.7665
 1236SOL     OW15169   1.443   4.692   5.791 -0.3657  0.5297 -0.5276
 1236SOL    HW115170   1.357   4.651   5.797  0.3497 -0.8432  0.3146
 1236SOL    HW215171   1.444   4.702   5.696  1.3176  1.3811 -0.4141
 1237SOL     OW15172   0.655   3.903   7.726  0.4339 -0.3447  0.2482
 1237SOL    HW115173   0.703   3.972   7.772  2.7133 -1.0217 -1.1221
 1237SOL    HW215174   0.585   3.883   7.788  0.6704 -0.1310  0.5901
 1238SOL     OW15175   4.567   3.652   5.302  0.3560 -0.0984  0.3091
 1238SOL    HW115176   4.580   3.668   5.209 -0.8533 -0.0581  0.1495
 1238SOL    HW215177   4.587   3.740   5.335 -2.5690  0.9535 -0.7677
 1239SOL     OW15178   2.926   4.012   6.262  0.4945  0.0819  0.1903
 1239SOL    HW115179   2.926   4.054   6.348 -1.5867  2.2085 -0.8577
 1239SOL    HW215180   3.007   3.962   6.272  1.0253  0.7274 -0.8282
 1240SOL     OW15181   3.671   0.966   9.199  0.1194 -0.4913  0.4556
 1240SOL    HW115182   3.727   0.903   9.153 -0.9699 -1.7738  0.9046
 1240SOL    HW215183   3.585   0.928   9.180 -0.8069  2.8399 -1.9382
 1241SOL     OW15184   0.398   3.168   1.443  0.6444  0.3357 -0.4442
 1241SOL    HW115185   0.316   3.155   1.492  0.5917 -0.0937 -0.6454
 1241SOL    HW215186   0.370   3.177   1.352 -0.2439 -0.8906 -0.2888
 1242SOL     OW15187   2.606   2.392   2.682 -0.3393  0.1386  0.2416
 1242SOL    HW115188   2.528   2.356   2.639 -1.6457  2.1976  0.9363
 1242SOL    HW215189   2.568   2.437   2.757  0.3387  2.4701 -0.8145
 1243SOL     OW15190   0.407   4.001  15.504  0.7354 -0.0514 -0.0208
 1243SOL    HW115191   0.335   3.999  15.567  0.0223  0.4510 -0.8181
 1243SOL    HW215192   0.482   3.957  15.544  0.3930 -1.0369 -0.4588
 1244SOL     OW15193   1.387   1.655  11.902 -0.2114 -0.2148 -0.2547
 1244SOL    HW115194   1.414   1.671  11.993  1.7684  4.0087 -1.5850
 1244SOL    HW215195   1.386   1.741  11.859 -1.6614  0.2173  0.6460
 1245SOL     OW15196   2.319   4.266   3.992  0.5682 -1.1042 -0.2880
 1245SOL    HW115197   2.385   4.223   4.046 -0.8248  0.9304  3.0439
 1245SOL    HW215198   2.330   4.356   4.022 -0.8017 -0.4255 -1.8394
 1246SOL     OW15199   1.581   1.461  12.125 -0.1256  0.0698  0.5390
 1246SOL    HW115200   1.556   1.553  12.114 -0.9309  0.2798  4.3514
 1246SOL    HW215201   1.580   1.422  12.037  0.4310  0.2556  0.4512
 1247SOL     OW15202   4.563   4.688   8.078  0.4261 -0.2462  0.1416
 1247SOL    HW115203   4.508   4.651   8.010  1.0551  2.3812 -1.8105
 1247SOL    HW215204   4.651   4.677   8.043 -0.0719 -1.2431 -0.7746
 1248SOL     OW15205   4.393   0.646   3.446 -0.2003  0.2681  0.1313
 1248SOL    HW115206   4.435   0.580   3.392 -0.1819 -0.7017  1.3406
 1248SOL    HW215207   4.459   0.661   3.514 -0.8334 -0.6886  0.9536
 1249SOL     OW15208   4.169   3.855   4.377 -0.2680  0.5878  0.3959
 1249SOL    HW115209   4.137   3.924   4.319 -1.5828 -2.3671 -2.4197
 1249SOL    HW215210   4.215   3.811   4.305  1.1352 -0.6440  2.0563
 1250SOL     OW15211   3.970   3.013   1.419  0.1077 -0.3730 -0.3982
 1250SOL    HW115212   4.052   2.991   1.463  0.1231  0.9751  0.2678
 1250SOL    HW215213   3.946   2.925   1.392 -0.6217 -0.0969 -0.6579
 1251SOL     OW15214   3.835   1.576   3.864  0.4032  0.1067 -0.9972
 1251SOL    HW115215   3.811   1.650   3.807 -1.2312  1.4912  1.4883
 1251SOL    HW215216   3.745   1.545   3.874  0.8092 -0.6810  0.1859
 1252SOL     OW15217   0.827   0.976   6.086 -0.0490 -0.6052 -0.0234
 1252SOL    HW115218   0.898   1.039   6.074  0.4884 -1.3417 -0.6709
 1252SOL    HW215219   0.840   0.915   6.014 -0.5517  0.3419 -0.9152
 1253SOL     OW15220   2.187   3.869  11.657 -0.3115  0.0908  0.1708
 1253SOL    HW115221   2.201   3.924  11.581 -1.1474 -0.3304 -0.2870
 1253SOL    HW215222   2.160   3.938  11.718 -1.0350  0.2331 -0.3153
 1254SOL     OW15223   4.408   2.270   3.132  0.2008  0.0143 -0.1091
 1254SOL    HW115224   4.476   2.336   3.122  0.4084 -0.2908 -0.7519
 1254SOL    HW215225   4.396   2.263   3.226 -2.2820  2.1314 -0.2821
 1255SOL     OW15226   0.643   4.623   8.771  0.3374 -0.1492 -0.0443
 1255SOL    HW115227   0.705   4.559   8.805 -0.8193 -1.1490  0.2083
 1255SOL    HW215228   0.567   4.567   8.787  1.0740 -1.3178 -0.7067
 1256SOL     OW15229   4.093   0.236  11.716 -0.5530  0.3131 -0.0045
 1256SOL    HW115230   4.120   0.206  11.629  0.3406  2.0656 -0.3434
 1256SOL    HW215231   4.161   0.302  11.732 -1.4454  1.2782 -0.2019
 1257SOL     OW15232   2.115   4.417   6.908 -0.3592 -0.2568 -0.3404
 1257SOL    HW115233   2.070   4.501   6.911 -0.9144 -0.5650 -0.0232
 1257SOL    HW215234   2.182   4.450   6.849 -0.8529 -1.3641 -1.5268
 1258SOL     OW15235   1.034   1.383   5.218  0.4350 -0.2018 -0.1232
 1258SOL    HW115236   1.041   1.288   5.226 -0.3077 -0.2654 -0.2303
 1258SOL    HW215237   1.119   1.398   5.177 -0.4981  0.7102 -1.7272
 1259SOL     OW15238   3.024   0.033  13.962  0.3501 -0.2645  0.1499
 1259SOL    HW115239   2.965   0.007  14.033  0.6715 -1.4990 -0.0285
 1259SOL    HW215240   2.985   0.113  13.929 -0.9425 -1.8398 -2.1267
 1260SOL     OW15241   1.352   4.170  11.323  0.0780  0.3142  0.3573
 1260SOL    HW115242   1.386   4.090  11.361  1.0644  1.3919  1.7203
 1260SOL    HW215243   1.326   4.212  11.405  2.1204  0.1926  1.0456
 1261SOL     OW15244   0.016   2.016   3.840 -0.6091  0.1135  0.0352
 1261SOL    HW115245   4.707   1.954   3.904  0.5086 -0.7591 -0.1922
 1261SOL    HW215246   0.071   2.069   3.898  0.9217 -0.2468 -1.0816
 1262SOL     OW15247   3.398   4.316   7.888 -0.5407  0.1999 -0.2839
 1262SOL    HW115248   3.459   4.359   7.828 -2.2305  0.2875 -1.9465
 1262SOL    HW215249   3.420   4.371   7.963 -2.3023 -1.2062  1.2694
 1263SOL     OW15250   1.729   1.256   4.775 -0.2693  0.1763  0.1759
 1263SOL    HW115251   1.815   1.237   4.739  0.3100 -0.7010  1.9865
 1263SOL    HW215252   1.732   1.352   4.785  1.7269  0.3434 -1.8989
 1264SOL     OW15253   2.046   0.822   1.320 -0.6394 -0.0413 -0.3809
 1264SOL    HW115254   2.003   0.895   1.366 -1.3130 -1.6413  1.5297
 1264SOL    HW215255   1.981   0.753   1.308 -0.1889 -0.4186 -0.6457
 1265SOL     OW15256   1.484   4.513   6.266 -0.4041  0.4297  0.6554
 1265SOL    HW115257   1.416   4.453   6.234 -0.4023  0.5218  0.4821
 1265SOL    HW215258   1.529   4.445   6.316 -0.6553 -2.0474 -2.5437
 1266SOL     OW15259   2.531   0.578   5.214  0.0800 -0.3034 -0.1938
 1266SOL    HW115260   2.608   0.635   5.220 -0.8089  1.0775 -1.7658
 1266SOL    HW215261   2.482   0.651   5.177 -1.3262 -1.6138 -0.8986
 1267SOL     OW15262   4.419   3.597   7.275 -0.9636  0.4608 -0.4084
 1267SOL    HW115263   4.336   3.565   7.309  0.0655  0.2979  1.9269
 1267SOL    HW215264   4.400   3.618   7.183  0.3472  2.5455 -0.2090
 1268SOL     OW15265   4.229   4.407   7.674  0.0172  0.2823 -0.1655
 1268SOL    HW115266   4.164   4.444   7.733 -0.1813 -1.0775  0.4760
 1268SOL    HW215267   4.270   4.338   7.726 -2.4574  0.5201  2.1193
 1269SOL     OW15268   4.113   2.518  11.110 -0.2364 -0.5780 -0.3537
 1269SOL    HW115269   4.193   2.492  11.063 -0.0310 -0.7494  0.0912
 1269SOL    HW215270   4.131   2.611  11.123  0.0277 -0.7639  0.6000
 1270SOL     OW15271   2.065   3.746  10.542  0.0947 -0.4028 -0.1409
 1270SOL    HW115272   2.025   3.674  10.493 -2.6053  1.3270 -0.4349
 1270SOL    HW215273   2.007   3.820  10.525  2.2789  1.6562  1.4041
 1271SOL     OW15274   0.079   1.558   7.838  0.4368  0.8585  0.0405
 1271SOL    HW115275   0.091   1.543   7.931  0.9210 -2.3557 -0.5513
 1271SOL    HW215276   0.154   1.513   7.800 -1.1277 -0.9195 -0.9303
 1272SOL     OW15277   4.038   0.535   3.207  0.0584  0.0097 -0.1721
 1272SOL    HW115278   4.058   0.618   3.163  2.8868 -0.7931 -0.3460
 1272SOL    HW215279   3.986   0.486   3.144  0.9226  0.7468 -1.4597
 1273SOL     OW15280   0.092   0.713   7.863 -0.1571 -0.1331 -0.4794
 1273SOL    HW115281   0.176   0.675   7.836  1.0856  1.6915  0.8775
 1273SOL    HW215282   0.060   0.644   7.921  0.3636  0.6002  0.6846
 1274SOL     OW15283   0.663   2.047   2.447 -0.0268 -0.0719  0.4276
 1274SOL    HW115284   0.575   2.022   2.475 -0.4375  1.1387  0.1807
 1274SOL    HW215285   0.695   2.081   2.531 -2.8932 -0.1070  1.5233
 1275SOL     OW15286   4.021   3.090   2.913  0.2398 -0.0773  0.3376
 1275SOL    HW115287   4.030   3.030   2.839  1.1360 -0.6422  0.9082
 1275SOL    HW215288   3.926   3.099   2.919  0.3224  1.6595 -0.7766
 1276SOL     OW15289   0.936   1.208   1.113  0.7451  0.1442  0.2244
 1276SOL    HW115290   0.866   1.234   1.053  0.1237  1.2979  1.4657
 1276SOL    HW215291   1.005   1.201   1.047 -0.1959 -1.7844 -0.5488
 1277SOL     OW15292   3.336   1.917   6.291  0.5489 -0.1036 -0.2714
 1277SOL    HW115293   3.266   1.979   6.312  0.7606 -0.1158  0.4745
 1277SOL    HW215294   3.335   1.887   6.382 -2.1486  0.5967 -0.0626
 1278SOL     OW15295   1.138   2.514   2.365 -0.6604 -0.3326  0.0174
 1278SOL    HW115296   1.073   2.535   2.298 -0.5121  0.5256  0.1527
 1278SOL    HW215297   1.175   2.429   2.339 -0.2718 -0.1935  0.1185
 1279SOL     OW15298   3.498   3.227  16.369  0.4436  0.2268  0.7364
 1279SOL    HW115299   3.520   3.134  16.361 -0.0433 -0.0717  2.9987
 1279SOL    HW215300   3.432   3.225  16.438 -1.2083  1.3052 -0.8209
 1280SOL     OW15301   1.456   3.168   6.534 -0.0586  0.1881 -0.1777
 1280SOL    HW115302   1.465   3.141   6.442  0.1192  0.2055 -0.1654
 1280SOL    HW215303   1.529   3.229   6.543 -2.3791  2.7501  1.2352
 1281SOL     OW15304   4.481   3.331   5.462  0.1146 -0.0632 -0.2817
 1281SOL    HW115305   4.546   3.384   5.508  0.0256 -0.1042 -0.1095
 1281SOL    HW215306   4.420   3.315   5.534  1.4274  0.0561  0.8607
 1282SOL     OW15307   0.990   1.607   9.194  0.4012  0.3097  0.1345
 1282SOL    HW115308   1.047   1.674   9.232 -0.1626  0.4164  0.8098
 1282SOL    HW215309   0.908   1.653   9.175  0.0628 -0.6779 -0.7772
 1283SOL     OW15310   2.844   2.546   5.416 -0.1306  0.0179 -0.1534
 1283SOL    HW115311   2.856   2.619   5.477  0.6444 -1.2273  1.1720
 1283SOL    HW215312   2.754   2.556   5.384  0.4087  0.2499 -1.6084
 1284SOL     OW15313   1.175   4.386   8.418 -0.0249  0.4196  0.4945
 1284SOL    HW115314   1.155   4.480   8.414  0.8502  0.6147  0.6584
 1284SOL    HW215315   1.231   4.372   8.341  0.2289 -1.3741  1.0034
 1285SOL     OW15316   3.147   2.896   4.996  0.1865 -0.1240 -0.3477
 1285SOL    HW115317   3.071   2.952   5.016  0.4309  0.5929 -1.4622
 1285SOL    HW215318   3.106   2.815   4.965  1.4936 -0.1224 -2.0561
 1286SOL     OW15319   2.334   1.009   2.277  0.5053  0.3203  0.0033
 1286SOL    HW115320   2.265   1.007   2.344 -0.4748  0.0803 -1.0189
 1286SOL    HW215321   2.345   0.918   2.251 -2.1494 -0.5660  1.9017
 1287SOL     OW15322   4.307   2.847  14.303  0.2517 -0.1130  0.1749
 1287SOL    HW115323   4.381   2.899  14.273 -0.8849  0.9814 -0.7466
 1287SOL    HW215324   4.274   2.814  14.219 -1.0502 -1.5989  1.2766
 1288SOL     OW15325   4.531   3.943   2.283 -0.3144  0.2938 -0.4581
 1288SOL    HW115326   4.586   3.869   2.256  0.7636  1.1948 -0.7623
 1288SOL    HW215327   4.597   4.010   2.300  1.8057 -1.6926 -0.8679
 1289SOL     OW15328   3.527   2.034  17.090 -0.5274  0.4144 -0.7344
 1289SOL    HW115329   3.584   2.072  17.023 -0.9019  2.4717  0.1145
 1289SOL    HW215330   3.591   2.025  17.160  0.5454 -0.9022 -1.8830
 1290SOL     OW15331   3.693   0.158   1.928  0.3149  0.0892 -0.2022
 1290SOL    HW115332   3.626   0.212   1.971  0.4789 -0.8465  1.2446
 1290SOL    HW215333   3.693   0.075   1.977  1.0349  0.0073 -0.3399
 1291SOL     OW15334   2.604   2.549   0.235  0.0429 -0.1344 -0.2029
 1291SOL    HW115335   2.685   2.593   0.208 -0.8695  1.7531  0.0922
 1291SOL    HW215336   2.626   2.457   0.224  2.6855  0.3802  0.7070
 1292SOL     OW15337   0.964   2.530   9.017 -0.5172 -0.1773  1.3139
 1292SOL    HW115338   0.881   2.577   9.005 -1.7813 -2.6104  0.6686
 1292SOL    HW215339   0.988   2.566   9.102 -1.4736  3.6807 -0.0192
 1293SOL     OW15340   1.043   3.142   7.083  0.1581  0.4660 -0.2053
 1293SOL    HW115341   1.013   3.052   7.098  0.8009  0.2178 -0.4056
 1293SOL    HW215342   1.079   3.166   7.168 -1.4527  0.1478  0.5811
 1294SOL     OW15343   2.975   2.405   9.067 -0.3089 -0.4377  0.2401
 1294SOL    HW115344   3.053   2.358   9.038 -0.3583 -1.6965  2.2153
 1294SOL    HW215345   3.029   2.463   9.120 -2.5782 -0.0630  2.1402
 1295SOL     OW15346   1.140   4.300  11.222 -0.2725 -0.2673  0.2636
 1295SOL    HW115347   1.179   4.317  11.136  0.1231 -1.1968  0.2685
 1295SOL    HW215348   1.204   4.237  11.253 -0.4071 -0.7086 -0.3616
 1296SOL     OW15349   4.720   0.553   7.448 -0.2276 -0.6619  0.6094
 1296SOL    HW115350   4.670   0.502   7.511  1.3656  0.3583  2.6802
 1296SOL    HW215351   4.700   0.499   7.371 -0.1008 -0.1086  0.1839
 1297SOL     OW15352   0.520   2.524  10.927 -0.5841 -0.3126 -0.4313
 1297SOL    HW115353   0.460   2.451  10.936  0.5579 -1.3119 -0.8836
 1297SOL    HW215354   0.597   2.468  10.935  1.6296  2.5089 -1.5978
 1298SOL     OW15355   2.928   3.624   7.224 -0.1748  0.5019  0.0777
 1298SOL    HW115356   2.845   3.659   7.193 -0.3896  1.1161  1.3831
 1298SOL    HW215357   2.909   3.590   7.311 -0.5403  0.6747  0.0640
 1299SOL     OW15358   3.007   1.749   8.721  0.0916 -0.3440 -0.1745
 1299SOL    HW115359   2.936   1.809   8.699  1.2415  0.1053 -2.6338
 1299SOL    HW215360   3.002   1.676   8.660 -2.1701 -0.6513  0.3630
 1300SOL     OW15361   4.375   3.893   2.826  0.0106 -0.0704 -0.5453
 1300SOL    HW115362   4.447   3.952   2.804  2.1360 -2.4298  0.0539
 1300SOL    HW215363   4.344   3.873   2.738  0.3504 -0.4102 -0.5888
 1301SOL     OW15364   2.795   0.375   6.713 -0.0367 -0.2928 -0.3927
 1301SOL    HW115365   2.733   0.354   6.643  0.9302 -0.9889 -1.0338
 1301SOL    HW215366   2.737   0.427   6.769 -0.6566 -0.4525 -0.8901
 1302SOL     OW15367   1.705   1.481  16.160 -0.5235  0.2091  0.6441
 1302SOL    HW115368   1.789   1.434  16.156 -0.5051  0.0603  2.4443
 1302SOL    HW215369   1.677   1.486  16.069  0.3240 -1.9021  0.2661
 1303SOL     OW15370   1.431   2.101  16.071 -0.3247 -0.3592  0.0744
 1303SOL    HW115371   1.502   2.166  16.072  0.6925 -1.4715  0.3327
 1303SOL    HW215372   1.428   2.078  15.978  0.4220  0.9143 -0.2641
 1304SOL     OW15373   1.299   3.510  12.597 -0.1540 -0.3452 -0.4563
 1304SOL    HW115374   1.245   3.444  12.641  0.4171 -0.8914 -0.5636
 1304SOL    HW215375   1.242   3.535  12.524 -1.8787  0.0829  1.0309
 1305SOL     OW15376   3.003   0.793  16.423 -0.5755 -0.1255  0.5514
 1305SOL    HW115377   2.966   0.860  16.480 -0.4846  0.7324 -0.3972
 1305SOL    HW215378   3.053   0.741  16.486  0.2148  1.1843  1.0025
 1306SOL     OW15379   2.121   1.361   6.307 -0.2203  0.3925  0.0980
 1306SOL    HW115380   2.097   1.442   6.263 -0.7881 -0.0107 -0.3392
 1306SOL    HW215381   2.047   1.303   6.287 -1.5364  2.6632 -1.6016
 1307SOL     OW15382   3.092   0.127   6.214  0.3603  0.2591 -0.7866
 1307SOL    HW115383   3.162   0.088   6.161 -0.9849 -1.8164 -1.0382
 1307SOL    HW215384   3.142   0.169   6.284 -0.8214  0.9302 -0.3465
 1308SOL     OW15385   3.558   1.354  12.521 -0.0709 -0.0414 -0.1717
 1308SOL    HW115386   3.536   1.429  12.466 -0.3783 -0.1026 -0.1358
 1308SOL    HW215387   3.638   1.324  12.477  0.5521 -0.1873  1.0618
 1309SOL     OW15388   0.489   2.890   4.279  0.4047 -0.6301  0.3672
 1309SOL    HW115389   0.434   2.866   4.353  0.6409  3.0250  1.7602
 1309SOL    HW215390   0.562   2.938   4.317  1.2425 -2.3603  0.9383
 1310SOL     OW15391   2.927   1.450  14.925 -0.1314 -0.3133 -0.5449
 1310SOL    HW115392   2.952   1.464  15.016 -0.0619 -3.6981 -0.0494
 1310SOL    HW215393   2.847   1.503  14.926 -0.0044 -0.1331  0.0514
 1311SOL     OW15394   3.635   1.228   3.643  0.3368 -0.0528 -0.2760
 1311SOL    HW115395   3.667   1.303   3.594 -0.2844  1.4423  1.5746
 1311SOL    HW215396   3.544   1.214   3.617 -0.1749  1.5056  0.6519
 1312SOL     OW15397   1.282   3.931   4.270 -0.1502  0.0202  0.1645
 1312SOL    HW115398   1.376   3.919   4.261 -0.3091  0.4350 -2.0606
 1312SOL    HW215399   1.278   3.991   4.345  3.0194 -0.0002  0.3280
 1313SOL     OW15400   2.875   3.509   8.062  0.1643  0.7502  0.1554
 1313SOL    HW115401   2.941   3.476   8.122  2.2271 -0.1439 -2.6081
 1313SOL    HW215402   2.921   3.500   7.979  1.1206 -1.3425  0.9067
 1314SOL     OW15403   3.979   3.730   2.236  0.1558 -0.8080  0.3210
 1314SOL    HW115404   3.948   3.802   2.291  1.2390  0.5374 -0.7958
 1314SOL    HW215405   3.906   3.669   2.240 -2.0686  1.6597 -2.3994
 1315SOL     OW15406   3.850   2.558  17.556 -0.0725 -0.1009 -0.0633
 1315SOL    HW115407   3.799   2.511  17.622 -0.7042 -0.0237 -0.4930
 1315SOL    HW215408   3.821   2.517  17.474  0.3550  0.2444 -0.3883
 1316SOL     OW15409   4.437   1.085   5.689  0.7702  0.5812  0.6590
 1316SOL    HW115410   4.397   1.091   5.775  1.2935 -0.3963  0.9630
 1316SOL    HW215411   4.374   1.127   5.629  0.0668 -1.7691 -0.2286
 1317SOL     OW15412   2.241   1.778  17.498 -0.1998 -0.0273  0.0071
 1317SOL    HW115413   2.320   1.790  17.551 -0.4384 -2.4723  0.9375
 1317SOL    HW215414   2.216   1.871  17.494 -0.4588 -0.0331  1.4330
 1318SOL     OW15415   2.155   2.555   8.960  0.0924  0.2617  0.1562
 1318SOL    HW115416   2.191   2.505   8.887  2.1360 -1.2470  2.1882
 1318SOL    HW215417   2.168   2.647   8.936 -0.4382 -0.1973 -1.8736
 1319SOL     OW15418   3.637   3.639   7.909  0.4767 -0.5932 -0.3114
 1319SOL    HW115419   3.597   3.551   7.911 -0.3847 -0.1610  2.0652
 1319SOL    HW215420   3.559   3.693   7.921  1.6481  1.2538 -0.9879
 1320SOL     OW15421   1.041   4.596   3.286  0.6719 -0.1935 -0.8633
 1320SOL    HW115422   1.123   4.573   3.330 -0.8559 -0.7750  1.6951
 1320SOL    HW215423   1.047   4.687   3.315 -1.8926  0.3986 -2.1907
 1321SOL     OW15424   2.197   2.135   1.102  0.4301  0.1394  0.0253
 1321SOL    HW115425   2.200   2.206   1.167  1.9630 -0.4762  0.6242
 1321SOL    HW215426   2.104   2.141   1.081  0.6090 -0.3389 -0.9028
 1322SOL     OW15427   0.229   0.849  16.935 -0.1244 -0.2589  0.0423
 1322SOL    HW115428   0.267   0.924  16.889 -0.6841  0.4019  0.6552
 1322SOL    HW215429   0.273   0.840  17.019  1.5497  1.3283 -0.6514
 1323SOL     OW15430   2.333   4.490  13.492  0.3827  0.5305 -0.0065
 1323SOL    HW115431   2.313   4.404  13.454  0.9389 -0.1475  1.2226
 1323SOL    HW215432   2.429   4.483  13.495  0.3482  0.0666  0.0344
 1324SOL     OW15433   0.751   0.500   4.081 -0.4486 -0.2023  0.2036
 1324SOL    HW115434   0.745   0.550   4.000  0.4492  0.8174  0.7626
 1324SOL    HW215435   0.843   0.497   4.109  0.3042 -0.2754 -2.3109
 1325SOL     OW15436   4.231   2.756   5.020 -0.1864 -0.1230 -0.1230
 1325SOL    HW115437   4.137   2.768   5.036 -0.4006 -0.1258 -1.3804
 1325SOL    HW215438   4.261   2.814   5.090  0.0424  1.7740 -1.8015
 1326SOL     OW15439   2.820   3.102   6.737 -0.2682  0.4097 -0.1828
 1326SOL    HW115440   2.781   3.175   6.785  1.6905  0.4402  1.3906
 1326SOL    HW215441   2.898   3.154   6.715  0.6831 -0.5122  0.9868
 1327SOL     OW15442   2.166   1.057   4.334 -0.8211 -0.3767  0.0264
 1327SOL    HW115443   2.217   1.004   4.395 -0.5773  0.7075  0.7663
 1327SOL    HW215444   2.165   0.993   4.263  0.7855 -0.5155  0.1304
 1328SOL     OW15445   2.153   2.267   6.224  0.5756 -0.4985  0.4271
 1328SOL    HW115446   2.195   2.184   6.249 -1.4147 -1.2788  1.1941
 1328SOL    HW215447   2.134   2.245   6.133 -0.3890 -2.6437  1.1380
 1329SOL     OW15448   3.537   0.879  13.084 -0.3551 -0.7433  0.2332
 1329SOL    HW115449   3.460   0.878  13.141  0.1800 -1.1188  0.9355
 1329SOL    HW215450   3.610   0.875  13.145  0.2068  1.6558 -0.2809
 1330SOL     OW15451   4.623   2.289   8.123  0.1733 -0.0442 -0.1856
 1330SOL    HW115452   4.657   2.314   8.209  1.8263  1.0827 -1.1645
 1330SOL    HW215453   4.534   2.264   8.149  0.4477 -0.2238  0.5713
 1331SOL     OW15454   0.281   2.842   5.899 -0.0289 -0.0188  0.3492
 1331SOL    HW115455   0.290   2.844   5.804  2.5991 -3.4632  0.5250
 1331SOL    HW215456   0.190   2.814   5.912 -0.3025  0.4994 -0.4168
 1332SOL     OW15457   1.305   1.398   4.126 -0.5137  0.5540 -0.4268
 1332SOL    HW115458   1.384   1.447   4.106  0.7337 -0.2929  2.4165
 1332SOL    HW215459   1.237   1.439   4.071 -2.9244 -0.9069  1.4332
 1333SOL     OW15460   2.732   0.981  15.817  0.2061  0.3609 -0.4530
 1333SOL    HW115461   2.677   0.918  15.771 -0.7727  1.5634 -0.9412
 1333SOL    HW215462   2.664   1.039  15.850 -1.0549 -1.3328 -0.0800
 1334SOL     OW15463   3.633   4.295   8.900 -0.1353 -0.3625  0.5155
 1334SOL    HW115464   3.642   4.289   8.805  1.8315 -1.6890  0.7678
 1334SOL    HW215465   3.710   4.349   8.918  0.6728 -0.3244 -3.0981
 1335SOL     OW15466   0.368   2.935   3.539  0.6016  0.8235 -0.8270
 1335SOL    HW115467   0.317   2.957   3.461 -1.1205  1.8646  0.6048
 1335SOL    HW215468   0.295   2.923   3.600  1.0064 -0.5957 -0.6127
 1336SOL     OW15469   0.563   0.814   5.864 -0.7304 -0.7662 -0.7110
 1336SOL    HW115470   0.539   0.766   5.944  2.8288  0.0245  0.8513
 1336SOL    HW215471   0.541   0.898   5.904 -1.4386 -1.0852 -0.4357
 1337SOL     OW15472   1.825   3.036   3.892 -0.1763 -0.1855 -0.5190
 1337SOL    HW115473   1.815   3.106   3.827  0.6050  0.5493  0.1470
 1337SOL    HW215474   1.908   3.065   3.930 -0.2146 -0.5955 -0.1305
 1338SOL     OW15475   1.601   0.809   5.861 -0.7632 -0.7284  0.6262
 1338SOL    HW115476   1.631   0.818   5.771 -1.2623  3.7868  0.9448
 1338SOL    HW215477   1.684   0.829   5.905 -0.4439 -0.8239  0.0637
 1339SOL     OW15478   1.218   0.305   2.259 -0.4541  0.2771  0.1127
 1339SOL    HW115479   1.299   0.317   2.210 -0.0104  0.7053  0.9446
 1339SOL    HW215480   1.143   0.298   2.200 -1.2842  0.0030  1.1970
 1340SOL     OW15481   1.891   1.724   5.322 -0.0917  0.0145  0.6414
 1340SOL    HW115482   1.977   1.732   5.282 -0.6782  0.9801 -0.4195
 1340SOL    HW215483   1.858   1.812   5.304 -0.8199 -0.0499  1.6935
 1341SOL     OW15484   4.336   0.349   4.107 -0.1801  0.5806 -0.0128
 1341SOL    HW115485   4.356   0.307   4.191 -1.6937  0.3517  0.2325
 1341SOL    HW215486   4.416   0.344   4.055 -0.2991 -0.9560 -0.0666
 1342SOL     OW15487   1.898   0.390   2.330 -0.0351  0.0816 -0.2301
 1342SOL    HW115488   1.908   0.325   2.260  0.3926 -0.6987  0.5490
 1342SOL    HW215489   1.988   0.424   2.334 -0.2662  0.6593 -0.0244
 1343SOL     OW15490   0.671   2.474   9.188 -0.2025  0.5136 -0.3776
 1343SOL    HW115491   0.751   2.460   9.138 -0.3270  0.4212 -0.5531
 1343SOL    HW215492   0.667   2.386   9.226  1.7532  0.0870 -1.1763
 1344SOL     OW15493   3.636   0.471   3.392  0.5143 -0.2034  0.3320
 1344SOL    HW115494   3.605   0.406   3.456 -0.7933 -0.8992 -0.9992
 1344SOL    HW215495   3.681   0.406   3.338  0.2456 -1.6264  1.8022
 1345SOL     OW15496   0.594   1.841   4.029 -0.2908 -0.1219  0.1891
 1345SOL    HW115497   0.582   1.893   3.950 -2.0723 -0.1958  0.4057
 1345SOL    HW215498   0.580   1.752   3.995 -1.4742 -0.4025  1.3728
 1346SOL     OW15499   3.960   4.443  10.826  0.6492 -0.2310 -0.5314
 1346SOL    HW115500   4.024   4.383  10.788 -0.7216 -2.6367  0.9640
 1346SOL    HW215501   3.897   4.380  10.860 -1.6070  2.5938  0.5385
 1347SOL     OW15502   0.103   2.819  10.111 -0.2076  0.1263  0.3951
 1347SOL    HW115503   0.153   2.741  10.089 -0.0820  0.5870 -0.9385
 1347SOL    HW215504   0.179   2.875  10.127  0.4847 -0.7656  0.2161
 1348SOL     OW15505   4.161   3.046   0.533 -0.5436  0.4089 -0.2663
 1348SOL    HW115506   4.077   3.046   0.487 -0.8105 -0.2124  0.2145
 1348SOL    HW215507   4.227   3.031   0.465  1.0499 -0.6405  1.5328
 1349SOL     OW15508   3.842   0.748   8.484  0.0088  0.0650  0.1724
 1349SOL    HW115509   3.841   0.653   8.479  1.2739 -0.0012  1.2505
 1349SOL    HW215510   3.838   0.770   8.391 -0.4873  0.5389  0.3017
 1350SOL     OW15511   1.238   0.103  16.534  0.2909 -0.0491 -0.0674
 1350SOL    HW115512   1.315   0.054  16.562 -0.2551  0.6490  2.6643
 1350SOL    HW215513   1.184   0.104  16.613 -0.1475  1.8242 -0.3662
 1351SOL     OW15514   2.421   2.872   7.568 -0.5089  0.2220 -0.1723
 1351SOL    HW115515   2.361   2.844   7.499 -1.1335 -1.9312  1.2606
 1351SOL    HW215516   2.501   2.826   7.547 -1.7716 -2.4131  0.7977
 1352SOL     OW15517   1.320   1.643   6.255 -0.2902  0.2723  0.4698
 1352SOL    HW115518   1.256   1.582   6.218  1.4698 -2.5799  2.2226
 1352SOL    HW215519   1.345   1.581   6.323 -0.7965  0.3741  0.7492
 1353SOL     OW15520   3.131   2.594   2.951  0.1567  0.3519  0.2561
 1353SOL    HW115521   3.158   2.677   2.910  0.2154 -0.9791 -2.4106
 1353SOL    HW215522   3.220   2.559   2.941 -0.6350 -0.8785 -2.4926
 1354SOL     OW15523   2.785   1.546   8.934  0.8584 -0.3814 -0.4630
 1354SOL    HW115524   2.770   1.463   8.889  1.1217 -1.8285  2.1621
 1354SOL    HW215525   2.880   1.540   8.947  0.7770  2.8953  1.5191
 1355SOL     OW15526   1.432   0.314   7.303 -0.1810  0.3950  0.0243
 1355SOL    HW115527   1.515   0.319   7.350 -0.2790 -1.5568  0.3687
 1355SOL    HW215528   1.455   0.332   7.212  0.0453  0.0283  0.0120
 1356SOL     OW15529   1.343   0.550   3.416  0.0141  0.2388  0.0439
 1356SOL    HW115530   1.354   0.455   3.413 -1.7259 -0.0414  2.7754
 1356SOL    HW215531   1.252   0.566   3.443 -0.6447  0.4894 -2.2758
 1357SOL     OW15532   3.936   4.628   3.730  0.2507  0.5821  0.3078
 1357SOL    HW115533   3.980   4.613   3.646  0.2870  1.3212  0.1972
 1357SOL    HW215534   3.932   4.723   3.728 -0.4271  0.5317 -0.4885
 1358SOL     OW15535   0.588   4.271  14.881  0.3505 -0.6545 -0.2639
 1358SOL    HW115536   0.522   4.218  14.926  0.7793 -1.3469 -0.4629
 1358SOL    HW215537   0.524   4.343  14.873  1.1770  0.2116  0.9049
 1359SOL     OW15538   4.239   4.619  10.106  0.0913  0.5637  0.1567
 1359SOL    HW115539   4.261   4.704  10.068 -0.8271  0.4385 -0.6473
 1359SOL    HW215540   4.145   4.613  10.089  0.4011 -2.8307 -0.3490
 1360SOL     OW15541   3.911   0.959   5.370 -0.0174  0.1561 -0.0279
 1360SOL    HW115542   3.824   0.964   5.331  0.6762 -2.6964 -1.9619
 1360SOL    HW215543   3.945   0.871   5.356 -1.7762 -0.3738 -0.9854
 1361SOL     OW15544   4.161   3.939  12.657  0.0717 -0.0070  0.4718
 1361SOL    HW115545   4.100   3.993  12.708 -0.2444  0.4716 -0.4101
 1361SOL    HW215546   4.123   3.955  12.570  0.0606 -2.1600  0.0812
 1362SOL     OW15547   2.455   3.081  10.016  0.2077  0.2412 -0.8179
 1362SOL    HW115548   2.471   2.994   9.980  0.0430 -0.4287  0.7351
 1362SOL    HW215549   2.544   3.092  10.049 -0.5878  0.9002  1.0999
 1363SOL     OW15550   4.461   4.699   3.909 -0.3302  0.1710  0.3677
 1363SOL    HW115551   4.553   4.717   3.932 -0.5513 -0.2001  1.5297
 1363SOL    HW215552   4.466   0.018   3.824  1.8935 -0.8900 -0.0658
 1364SOL     OW15553   1.626   0.809   2.315 -0.4101 -0.2294  0.3627
 1364SOL    HW115554   1.547   0.754   2.317 -0.4120 -0.2439 -0.3671
 1364SOL    HW215555   1.681   0.737   2.286  0.2937  0.0416  1.0269
 1365SOL     OW15556   4.456   0.989   6.644 -0.2768  0.2740  0.2394
 1365SOL    HW115557   4.546   1.020   6.633 -0.5602  1.1780  0.4923
 1365SOL    HW215558   4.420   1.076   6.626  0.5651  0.2724 -1.4536
 1366SOL     OW15559   4.292   1.858   3.741 -0.1903  0.3040 -0.5776
 1366SOL    HW115560   4.269   1.931   3.683  0.8756 -1.1433 -2.8329
 1366SOL    HW215561   4.300   1.781   3.685 -0.7634  0.9213 -1.5009
 1367SOL     OW15562   4.379   1.180   3.161 -0.0458  0.5004  0.2366
 1367SOL    HW115563   4.461   1.186   3.211 -0.1154  1.3258  0.2444
 1367SOL    HW215564   4.384   1.259   3.109 -0.2628 -0.5291 -1.3525
 1368SOL     OW15565   1.401   3.671  14.973  0.2494  0.0777  0.2686
 1368SOL    HW115566   1.396   3.725  15.052 -0.4938 -0.3519  0.5181
 1368SOL    HW215567   1.313   3.634  14.978  1.2757 -2.3290  0.3546
 1369SOL     OW15568   4.637   0.062  12.008 -0.0173  0.4519  0.4756
 1369SOL    HW115569   4.568   0.115  11.969  0.0256  0.5402  0.5201
 1369SOL    HW215570   4.622   0.061  12.102 -0.7705  2.0681  0.3764
 1370SOL     OW15571   2.143   2.601  11.571  0.3564  0.0939 -0.1567
 1370SOL    HW115572   2.143   2.692  11.542  0.1777 -0.3750 -1.6203
 1370SOL    HW215573   2.213   2.595  11.635  1.0469  0.1119 -0.9069
 1371SOL     OW15574   1.509   1.652   1.520 -0.7322  0.2467  0.0127
 1371SOL    HW115575   1.537   1.591   1.452 -2.0685  0.2469 -0.5342
 1371SOL    HW215576   1.442   1.701   1.472 -0.8626  0.6589  0.6246
 1372SOL     OW15577   0.545   0.630  16.965  0.1564  0.0778 -0.3886
 1372SOL    HW115578   0.583   0.697  17.022  0.7330 -0.5797 -0.0010
 1372SOL    HW215579   0.629   0.604  16.929  1.1756 -0.3933  2.3215
 1373SOL     OW15580   0.387   0.013   1.916 -0.4586 -0.0052  0.0499
 1373SOL    HW115581   0.356   0.099   1.944 -1.3478  0.4306 -2.3215
 1373SOL    HW215582   0.339   4.682   1.977 -1.4104  0.3704 -0.3608
 1374SOL     OW15583   4.649   0.557   8.284  0.4496 -0.3702 -0.3648
 1374SOL    HW115584   4.621   0.532   8.373  1.0818 -0.1009 -0.0930
 1374SOL    HW215585   4.567   0.580   8.240 -0.6229 -1.6209  0.9540
 1375SOL     OW15586   3.441   3.609   4.954  0.0382  0.4343  0.6011
 1375SOL    HW115587   3.426   3.517   4.932  3.9436  0.0875 -0.6583
 1375SOL    HW215588   3.527   3.605   4.996  0.0450 -2.0992  0.3188
 1376SOL     OW15589   4.299   0.848   3.837 -0.5935 -0.4455 -0.3193
 1376SOL    HW115590   4.375   0.801   3.869  0.8661  1.4693 -1.0009
 1376SOL    HW215591   4.321   0.865   3.745  1.3609 -1.9279 -0.1010
 1377SOL     OW15592   4.462   2.214  12.019 -0.0534  0.3311  0.1746
 1377SOL    HW115593   4.398   2.234  11.950  2.3497  1.7095 -1.6549
 1377SOL    HW215594   4.495   2.296  12.055  1.6191 -0.6236  0.8242
 1378SOL     OW15595   0.467   0.145  10.487  0.2812 -0.0064 -0.5177
 1378SOL    HW115596   0.499   0.232  10.508 -0.5502  0.0092  0.6787
 1378SOL    HW215597   0.387   0.159  10.435 -1.6434 -0.9627  2.1836
 1379SOL     OW15598   2.204   0.100  11.468  0.1419 -0.5821  0.1527
 1379SOL    HW115599   2.296   0.109  11.496  0.3535  0.0764 -0.7800
 1379SOL    HW215600   2.167   0.182  11.499 -0.1569 -0.1743 -1.3179
 1380SOL     OW15601   0.648   1.142   8.723 -0.5228  0.3750  0.7023
 1380SOL    HW115602   0.638   1.178   8.636 -1.8693  0.2295  0.7993
 1380SOL    HW215603   0.560   1.107   8.737 -0.5452 -0.1620 -0.7560
 1381SOL     OW15604   4.168   0.037   8.428  0.0171  0.2763 -0.1809
 1381SOL    HW115605   4.170   0.106   8.361  1.0781  1.2489  0.8511
 1381SOL    HW215606   4.225   0.073   8.495 -1.1875  0.7069  0.6147
 1382SOL     OW15607   4.544   3.357   8.732 -0.2458 -0.6578  0.3605
 1382SOL    HW115608   4.617   3.301   8.707 -0.0165 -0.2959  0.2250
 1382SOL    HW215609   4.519   3.316   8.815 -0.1282  1.3310  1.3646
 1383SOL     OW15610   3.489   3.562  14.733 -0.0385 -0.2297 -0.4755
 1383SOL    HW115611   3.417   3.499  14.735 -0.2859  0.0743  0.1859
 1383SOL    HW215612   3.445   3.639  14.768 -0.7444 -0.4994 -0.7748
 1384SOL     OW15613   4.400   3.433   8.523  0.2668  0.3356 -0.3880
 1384SOL    HW115614   4.338   3.487   8.573 -0.9127 -0.4823 -0.9617
 1384SOL    HW215615   4.443   3.390   8.597 -0.6302  1.4094  0.7814
 1385SOL     OW15616   2.017   2.740   4.858 -0.1021  0.2750 -0.3661
 1385SOL    HW115617   2.010   2.781   4.771 -0.3730  0.9054 -0.0500
 1385SOL    HW215618   2.078   2.669   4.842 -1.2030 -1.0750  1.4012
 1386SOL     OW15619   0.225   0.569   2.284  0.2991 -0.0191 -0.0206
 1386SOL    HW115620   0.149   0.612   2.324 -1.2373 -2.1731 -0.6087
 1386SOL    HW215621   0.292   0.636   2.297  0.7382 -0.5902  0.7072
 1387SOL     OW15622   4.224   3.649  14.849 -0.1879  0.3025 -0.4840
 1387SOL    HW115623   4.261   3.735  14.826  0.7396 -0.0246 -0.2133
 1387SOL    HW215624   4.230   3.603  14.766 -0.6851 -0.0777 -0.3097
 1388SOL     OW15625   2.869   4.534   5.007 -0.0251 -0.6787  0.0699
 1388SOL    HW115626   2.839   4.578   5.086 -2.1510  0.7744 -1.5386
 1388SOL    HW215627   2.802   4.466   5.001 -2.7518  2.1607 -1.8908
 1389SOL     OW15628   1.204   2.750   3.519 -0.0437 -0.0672  0.4280
 1389SOL    HW115629   1.165   2.837   3.531 -0.2456 -0.0886 -0.0853
 1389SOL    HW215630   1.198   2.708   3.605  0.1830 -1.6718 -0.3440
 1390SOL     OW15631   1.822   3.706   7.399  0.1464 -0.6359  0.2936
 1390SOL    HW115632   1.828   3.783   7.343 -0.0120  0.4146  1.7151
 1390SOL    HW215633   1.734   3.716   7.435  0.0829 -1.5421  0.4049
 1391SOL     OW15634   4.414   4.233   7.736  0.2989 -0.2194  0.2171
 1391SOL    HW115635   4.501   4.238   7.775  1.1237  0.5429 -1.7152
 1391SOL    HW215636   4.442   4.234   7.645  0.8633 -0.5523  0.3906
 1392SOL     OW15637   3.503   1.201   9.989  0.2064  0.4612  0.1215
 1392SOL    HW115638   3.457   1.175   9.910  0.1748  0.5112  0.1233
 1392SOL    HW215639   3.591   1.167   9.977 -0.5395 -1.1462 -0.8017
 1393SOL     OW15640   2.128   1.859   1.962  0.1230  0.0722 -0.0591
 1393SOL    HW115641   2.119   1.953   1.974 -1.0083 -0.2363  1.5757
 1393SOL    HW215642   2.185   1.851   1.885  0.7464  1.6164  0.2565
 1394SOL     OW15643   3.865   2.005  10.803  0.7209 -0.3935  0.2140
 1394SOL    HW115644   3.946   2.034  10.845 -0.3609  1.4223  1.0225
 1394SOL    HW215645   3.805   2.036  10.872 -0.1565 -2.2851  0.3073
 1395SOL     OW15646   4.134   4.512   5.105 -0.7917  0.5611 -0.2921
 1395SOL    HW115647   4.084   4.487   5.027 -1.0066  0.3740 -0.0950
 1395SOL    HW215648   4.156   4.602   5.080  0.1749  0.4290  0.1079
 1396SOL     OW15649   0.266   3.220  13.235 -0.4271  0.1137  0.1532
 1396SOL    HW115650   0.204   3.151  13.257 -0.6372  0.2606  0.0131
 1396SOL    HW215651   0.290   3.247  13.324 -0.5599  0.9085 -0.0499
 1397SOL     OW15652   1.239   3.494   5.142  0.2746  0.1229  0.0413
 1397SOL    HW115653   1.222   3.458   5.229 -0.4163  1.8403  0.6193
 1397SOL    HW215654   1.149   3.479   5.114  0.5723  0.9939 -1.3824
 1398SOL     OW15655   3.458   0.010   3.655  0.4930 -0.3692 -0.1479
 1398SOL    HW115656   3.392   0.046   3.715  0.8860 -0.8124  0.5401
 1398SOL    HW215657   3.404   4.664   3.620 -1.3684  1.3467 -0.8115
 1399SOL     OW15658   3.761   2.906   3.884 -0.0841  0.8107 -0.5947
 1399SOL    HW115659   3.667   2.890   3.889 -0.3818  2.3635 -1.2947
 1399SOL    HW215660   3.766   3.001   3.900  0.8177  0.4578  1.2545
 1400SOL     OW15661   0.588   3.750   8.400 -0.3227 -0.4935 -0.1179
 1400SOL    HW115662   0.649   3.819   8.424 -0.7505 -1.1754  2.9386
 1400SOL    HW215663   0.644   3.675   8.421  1.0824  0.0857 -1.7611
 1401SOL     OW15664   3.164   0.414   4.102 -0.9013  0.3685 -0.2512
 1401SOL    HW115665   3.190   0.464   4.025 -1.8582  2.2801  0.6903
 1401SOL    HW215666   3.138   0.332   4.060  1.3465 -0.4267 -0.0932
 1402SOL     OW15667   0.213   2.555   2.758  0.0307 -0.0671 -0.0349
 1402SOL    HW115668   0.249   2.615   2.694 -0.1364 -1.4095 -1.3777
 1402SOL    HW215669   0.155   2.507   2.699 -1.5582 -1.2199  2.4386
 1403SOL     OW15670   4.304   1.302  14.621  0.2955 -0.7317  0.6539
 1403SOL    HW115671   4.399   1.290  14.612  0.3398  0.6910 -0.8015
 1403SOL    HW215672   4.282   1.375  14.562 -0.2477 -0.3661  1.3085
 1404SOL     OW15673   1.101   2.141  17.625  0.0951  0.4058 -1.1540
 1404SOL    HW115674   1.120   2.170   0.012 -0.4553  0.0950 -0.9360
 1404SOL    HW215675   1.173   2.078  17.619 -0.0313  0.2495 -1.0201
 1405SOL     OW15676   4.601   3.332  15.422  0.3397 -0.2466 -0.5307
 1405SOL    HW115677   4.521   3.379  15.400  0.7734 -0.9203 -3.6133
 1405SOL    HW215678   4.563   3.244  15.422  0.3850 -0.2660 -0.6094
 1406SOL     OW15679   4.476   2.185   1.998 -0.5785  0.2366  0.0991
 1406SOL    HW115680   4.521   2.269   2.005  1.3894 -0.5412 -2.9813
 1406SOL    HW215681   4.530   2.129   2.054 -0.2138  0.8574  0.3640
 1407SOL     OW15682   3.251   2.587   8.495  0.5346 -0.1497 -0.6256
 1407SOL    HW115683   3.255   2.612   8.403  2.4990 -0.8309 -0.7118
 1407SOL    HW215684   3.329   2.531   8.498  0.5001 -0.1507  0.3472
 1408SOL     OW15685   0.548   0.400   5.074 -0.5680  0.0776 -0.1424
 1408SOL    HW115686   0.637   0.432   5.061  0.2615 -1.1026  2.7323
 1408SOL    HW215687   0.571   0.313   5.109 -0.8652 -0.5419 -1.4960
 1409SOL     OW15688   2.682   4.330   1.338  0.1548 -0.2133  0.5085
 1409SOL    HW115689   2.741   4.405   1.335  1.5406 -1.3565 -0.8387
 1409SOL    HW215690   2.705   4.291   1.422 -3.5722 -1.8359  0.8123
 1410SOL     OW15691   3.799   3.316  16.917  0.2555  0.2425 -0.0450
 1410SOL    HW115692   3.808   3.305  16.823 -3.2415 -1.7978 -0.1062
 1410SOL    HW215693   3.785   3.225  16.942 -0.1793 -0.4557 -2.8585
 1411SOL     OW15694   1.104   1.466   7.969  0.1837  0.1446  0.5099
 1411SOL    HW115695   1.179   1.412   7.992  2.0662  1.3155 -2.8780
 1411SOL    HW215696   1.072   1.428   7.887  0.9303  0.7058 -0.0477
 1412SOL     OW15697   3.150   2.669  11.644  0.4599  0.0539  0.7484
 1412SOL    HW115698   3.165   2.658  11.738  0.8306 -4.1906  0.1701
 1412SOL    HW215699   3.097   2.749  11.647  1.6230  0.8147  1.2235
 1413SOL     OW15700   0.686   4.420  14.169  0.1045 -0.3669 -0.0559
 1413SOL    HW115701   0.769   4.402  14.125  0.6040 -1.1073  1.1930
 1413SOL    HW215702   0.691   4.356  14.240 -2.2638 -0.0576  0.3945
 1414SOL     OW15703   2.233   4.587  11.652 -0.1790 -0.6235 -0.1138
 1414SOL    HW115704   2.196   4.658  11.600  1.2073 -0.9493 -1.5579
 1414SOL    HW215705   2.317   4.618  11.685 -0.8583  0.0744  0.9710
 1415SOL     OW15706   0.815   1.754   6.511 -0.2139  0.1191  0.5898
 1415SOL    HW115707   0.791   1.842   6.539 -0.4910  0.9993 -2.4039
 1415SOL    HW215708   0.833   1.765   6.418  1.2843  0.5455  0.9356
 1416SOL     OW15709   2.619   4.407   9.427 -0.2514 -0.0805  0.2684
 1416SOL    HW115710   2.648   4.406   9.518  0.7634 -0.6243 -0.0668
 1416SOL    HW215711   2.582   4.318   9.426 -4.6800  1.7340 -1.3969
 1417SOL     OW15712   2.644   3.559   2.965 -0.6892  0.1096 -0.6604
 1417SOL    HW115713   2.732   3.581   2.996 -1.2531  1.0418  0.2751
 1417SOL    HW215714   2.608   3.544   3.052 -0.0100 -0.7410 -0.5290
 1418SOL     OW15715   0.832   3.345   8.559 -0.9420 -0.4218  0.3586
 1418SOL    HW115716   0.782   3.263   8.564 -0.9850 -0.4834 -1.2850
 1418SOL    HW215717   0.924   3.321   8.549 -0.8857 -0.2780  0.5315
 1419SOL     OW15718   1.875   3.504   8.332 -0.0968 -0.1076 -0.5347
 1419SOL    HW115719   1.963   3.487   8.366 -0.8656 -0.7114  1.1390
 1419SOL    HW215720   1.819   3.431   8.360  1.0175 -0.1848  1.5218
 1420SOL     OW15721   4.012   1.766   5.252  0.7562 -0.5783 -0.3961
 1420SOL    HW115722   3.980   1.850   5.285 -0.4113 -1.0826 -0.2445
 1420SOL    HW215723   4.079   1.759   5.321 -0.0497  1.0134  0.5525
 1421SOL     OW15724   0.993   2.745   4.525  0.5988  0.5444 -0.2359
 1421SOL    HW115725   0.930   2.684   4.487  0.0819  0.3032  1.0026
 1421SOL    HW215726   1.017   2.698   4.605 -0.7148  0.1731 -0.0622
 1422SOL     OW15727   2.279   0.475   6.351 -0.0132  0.6600  0.3790
 1422SOL    HW115728   2.265   0.390   6.308 -0.9217  0.7217  0.5649
 1422SOL    HW215729   2.278   0.454   6.444 -0.2398 -1.6791 -0.1513
 1423SOL     OW15730   1.883   0.387   3.853 -0.3401  0.0458  0.1365
 1423SOL    HW115731   1.840   0.379   3.767 -0.0419 -0.1086  0.0017
 1423SOL    HW215732   1.929   0.304   3.859  0.8998  0.8323  1.2957
 1424SOL     OW15733   1.206   0.233   7.480 -0.1838 -0.6886  0.4038
 1424SOL    HW115734   1.192   0.322   7.512  0.5352  0.9107 -3.7161
 1424SOL    HW215735   1.277   0.247   7.418  0.2720 -0.8325  0.8884
 1425SOL     OW15736   1.055   3.835   7.705 -0.2280  0.5526  0.7520
 1425SOL    HW115737   1.003   3.887   7.766 -0.7559  1.0000 -0.0703
 1425SOL    HW215738   0.997   3.762   7.685 -1.1991  1.7582 -0.8930
 1426SOL     OW15739   3.077   2.683   8.021  0.0783  0.1928  0.6352
 1426SOL    HW115740   3.105   2.595   8.047  0.4154  0.6903  1.9655
 1426SOL    HW215741   3.147   2.716   7.965  0.7612  0.9555  1.9483
 1427SOL     OW15742   4.655   3.401  11.694  0.2384  0.4196  0.0663
 1427SOL    HW115743   4.700   3.363  11.769 -1.2458 -1.0251  0.2425
 1427SOL    HW215744   0.007   3.413  11.638 -0.2379 -0.1344 -0.7247
 1428SOL     OW15745   4.204   3.110   6.334  0.0003 -0.2227  0.3052
 1428SOL    HW115746   4.191   3.108   6.239  3.5307 -1.5610 -0.1579
 1428SOL    HW215747   4.299   3.116   6.344  0.1970 -2.0990 -0.4261
 1429SOL     OW15748   1.390   4.590   4.633  0.0798 -0.1545  0.1102
 1429SOL    HW115749   1.447   4.650   4.584 -0.5203 -2.0906 -2.9313
 1429SOL    HW215750   1.443   4.510   4.640  0.2279  0.0919  1.7834
 1430SOL     OW15751   1.074   3.220   7.367  0.0498 -0.4252  0.2527
 1430SOL    HW115752   1.092   3.194   7.457 -1.4613 -0.3120  0.5803
 1430SOL    HW215753   1.117   3.305   7.356  0.8512 -0.8393  0.1603
 1431SOL     OW15754   3.088   1.061   7.551 -0.0369 -0.1081 -0.5981
 1431SOL    HW115755   3.074   0.974   7.512 -1.2538 -1.8023  3.6452
 1431SOL    HW215756   3.039   1.038   7.630  2.1014 -1.2037  0.4082
 1432SOL     OW15757   4.114   1.716  12.417 -0.4423  0.4849 -0.4761
 1432SOL    HW115758   4.117   1.620  12.416  0.0760  0.5148 -1.4073
 1432SOL    HW215759   4.111   1.719  12.321 -1.7210  1.2750 -0.4090
 1433SOL     OW15760   3.560   0.589   7.315 -0.1445 -0.4317  0.6026
 1433SOL    HW115761   3.505   0.624   7.245 -0.9865 -1.5433  0.7111
 1433SOL    HW215762   3.528   0.499   7.322  0.6237 -1.0278 -3.2700
 1434SOL     OW15763   4.302   3.075   3.608  0.2295  0.1024 -0.6529
 1434SOL    HW115764   4.281   2.994   3.561 -0.8538  0.2509 -0.4327
 1434SOL    HW215765   4.345   3.124   3.538 -1.0213  0.3687 -1.2276
 1435SOL     OW15766   4.149   2.261   6.346 -0.1136 -0.1331 -0.0518
 1435SOL    HW115767   4.053   2.267   6.343 -0.1270 -0.2290  0.1912
 1435SOL    HW215768   4.156   2.166   6.353  0.0688 -0.1225 -0.1000
 1436SOL     OW15769   0.601   0.605   6.098 -0.3681 -0.0243  0.5040
 1436SOL    HW115770   0.549   0.545   6.044  1.1890 -1.9600  1.1504
 1436SOL    HW215771   0.535   0.626   6.164  0.1322 -0.1289  1.0302
 1437SOL     OW15772   4.712   4.611  17.575 -0.7356 -0.1800  0.2300
 1437SOL    HW115773   4.715   4.694  17.621  1.6290 -0.9585  1.4794
 1437SOL    HW215774   0.043   4.629  17.499 -0.6435 -0.5119  0.2191
 1438SOL     OW15775   2.432   3.109   3.785 -0.0218  0.1944  0.6339
 1438SOL    HW115776   2.423   3.122   3.691  0.7506  0.4781  0.5923
 1438SOL    HW215777   2.445   3.014   3.780  0.3721  0.3055 -0.5085
 1439SOL     OW15778   2.818   0.344   2.759  0.1302 -0.1362  0.1274
 1439SOL    HW115779   2.890   0.299   2.714  0.4660  0.2559  0.2772
 1439SOL    HW215780   2.768   0.265   2.783 -3.2008  1.7716 -0.4603
 1440SOL     OW15781   2.013   4.194   5.014  0.3441  0.1325  0.5076
 1440SOL    HW115782   2.026   4.226   5.103  1.9263  0.1705  0.2647
 1440SOL    HW215783   1.925   4.222   4.989  0.2576 -1.4082 -0.9164
 1441SOL     OW15784   2.262   0.294   4.402  0.8825  0.3791  0.6666
 1441SOL    HW115785   2.187   0.326   4.452  0.7757  0.7584  0.2627
 1441SOL    HW215786   2.316   0.288   4.481 -0.0289 -1.2887  1.1625
 1442SOL     OW15787   0.216   0.639   0.846 -0.4102 -0.2511 -0.0379
 1442SOL    HW115788   0.132   0.621   0.804  0.4172  0.1746 -1.8690
 1442SOL    HW215789   0.230   0.564   0.904  0.0146 -0.6884 -0.7144
 1443SOL     OW15790   1.110   4.123   8.193  0.0741 -0.1102  0.0381
 1443SOL    HW115791   1.016   4.105   8.185 -0.2644  1.4334  0.5443
 1443SOL    HW215792   1.107   4.209   8.234 -0.9199 -2.2854  4.5828
 1444SOL     OW15793   1.086   1.143   8.084 -0.1903 -0.1919  0.1626
 1444SOL    HW115794   1.059   1.055   8.060 -0.7870  0.0759 -0.1343
 1444SOL    HW215795   1.003   1.187   8.100 -1.2771 -2.0424 -0.4343
 1445SOL     OW15796   3.184   2.178   4.376  0.0989  0.0178 -0.0108
 1445SOL    HW115797   3.193   2.183   4.471  3.2083 -0.7874 -0.2580
 1445SOL    HW215798   3.107   2.121   4.376  1.1015 -1.3319 -0.1039
 1446SOL     OW15799   0.383   0.524   4.882 -0.0151  0.0118  0.3981
 1446SOL    HW115800   0.433   0.490   4.956  2.1918 -0.2051 -1.1675
 1446SOL    HW215801   0.449   0.525   4.812 -0.9160 -0.6392 -0.4691
 1447SOL     OW15802   2.477   1.604  15.323  0.4185  0.0806  0.2667
 1447SOL    HW115803   2.407   1.662  15.293  1.5850  0.5933 -1.4482
 1447SOL    HW215804   2.492   1.636  15.411  0.7501 -0.4532  0.4046
 1448SOL     OW15805   1.325   4.222   1.526  0.3629  0.1230  0.9562
 1448SOL    HW115806   1.318   4.184   1.614  2.0504 -0.6639  0.7564
 1448SOL    HW215807   1.380   4.298   1.546  0.1332  0.3685  0.6365
 1449SOL     OW15808   1.186   3.477   6.210  0.1628  0.3719  0.0915
 1449SOL    HW115809   1.131   3.403   6.234  0.3058 -0.0082 -0.7490
 1449SOL    HW215810   1.218   3.489   6.299  0.8692  3.5071 -0.5665
 1450SOL     OW15811   2.348   2.833   0.388 -0.2377 -0.5071  0.3149
 1450SOL    HW115812   2.283   2.885   0.436  0.1617  0.3180 -0.0386
 1450SOL    HW215813   2.378   2.898   0.325 -0.1255  1.3696  2.2999
 1451SOL     OW15814   1.658   4.700   9.196 -0.2456  0.1061 -0.4383
 1451SOL    HW115815   1.746   4.674   9.168  0.6017  2.0576  0.4432
 1451SOL    HW215816   1.682   0.032   9.268 -1.6645 -1.4827  1.3000
 1452SOL     OW15817   4.659   3.908  12.957 -0.4772  0.5513 -0.2104
 1452SOL    HW115818   4.642   3.822  12.920 -0.8965  0.5739 -0.0699
 1452SOL    HW215819   0.003   3.946  12.903 -0.2511  0.7239  0.2020
 1453SOL     OW15820   4.636   4.170   5.666  0.0270  0.1610 -0.1339
 1453SOL    HW115821   4.553   4.203   5.632 -0.2481 -0.1018  0.2774
 1453SOL    HW215822   4.677   4.149   5.582 -0.9300  0.4369 -0.6774
 1454SOL     OW15823   1.140   2.885  11.221 -0.0138 -0.0027  0.0101
 1454SOL    HW115824   1.077   2.875  11.293 -0.6484 -0.0764 -0.5555
 1454SOL    HW215825   1.208   2.820  11.235  2.0524  2.4934  1.5159
 1455SOL     OW15826   0.405   0.796   5.080 -0.2155 -0.4802  0.3864
 1455SOL    HW115827   0.441   0.780   5.167 -2.5418 -1.3175  1.2021
 1455SOL    HW215828   0.441   0.724   5.029  0.1280 -0.0613  0.0411
 1456SOL     OW15829   3.527   1.364  12.849  0.1763 -0.1223  0.2727
 1456SOL    HW115830   3.536   1.280  12.894 -1.2493 -0.5301 -0.1887
 1456SOL    HW215831   3.614   1.390  12.821 -0.5119  0.8181 -0.9809
 1457SOL     OW15832   1.186   4.171   4.391  0.0702 -0.0013 -0.0587
 1457SOL    HW115833   1.160   4.256   4.355 -1.0655 -0.0601  0.6066
 1457SOL    HW215834   1.164   4.180   4.484 -0.8163 -1.6902 -0.1075
 1458SOL     OW15835   2.891   1.980   5.771  0.5954 -0.5802 -0.1893
 1458SOL    HW115836   2.830   2.037   5.816  0.6484 -0.7097  0.0518
 1458SOL    HW215837   2.861   1.889   5.775 -3.3395  0.8273  1.5348
 1459SOL     OW15838   4.308   1.375  11.807 -0.2783 -0.1570 -0.1977
 1459SOL    HW115839   4.312   1.280  11.796  1.7023 -0.3625  2.3626
 1459SOL    HW215840   4.309   1.406  11.717  0.9442  2.2473  0.6469
 1460SOL     OW15841   2.382   3.048  16.685  0.3954  0.4436 -0.1112
 1460SOL    HW115842   2.426   3.130  16.665  0.7176  0.1281 -0.7177
 1460SOL    HW215843   2.394   3.055  16.779 -2.2555  0.0704  0.2487
 1461SOL     OW15844   4.263   4.151  17.471 -0.3858  0.1034 -0.3053
 1461SOL    HW115845   4.171   4.138  17.448 -1.3517  1.5342  2.7184
 1461SOL    HW215846   4.308   4.067  17.465 -0.6923 -0.1476  1.0437
 1462SOL     OW15847   4.325   2.533   9.208 -0.7740  0.1675  0.4134
 1462SOL    HW115848   4.256   2.572   9.154  0.8739  0.2478 -1.6338
 1462SOL    HW215849   4.270   2.480   9.265  0.2648 -0.2672  1.0197
 1463SOL     OW15850   1.960   4.035   0.254 -0.3053  0.0159 -0.3113
 1463SOL    HW115851   1.979   3.978   0.328  0.9817  1.1597  0.2484
 1463SOL    HW215852   1.908   3.983   0.192  0.9320 -0.0168 -1.3330
 1464SOL     OW15853   2.524   3.400  12.548 -0.0280 -0.3468 -0.1146
 1464SOL    HW115854   2.559   3.383  12.635  1.5379  0.1083 -0.6510
 1464SOL    HW215855   2.487   3.488  12.556  0.5472 -0.1817  0.6797
 1465SOL     OW15856   3.092   4.402  13.189  0.6024  0.0087 -0.3513
 1465SOL    HW115857   3.176   4.374  13.226  0.9654  1.9686  0.2780
 1465SOL    HW215858   3.063   4.443  13.270 -0.3407 -0.5709 -0.3890
 1466SOL     OW15859   3.795   0.450   6.991  0.4917  0.4339 -1.1463
 1466SOL    HW115860   3.847   0.517   6.946 -1.4517  3.7682  1.5438
 1466SOL    HW215861   3.718   0.435   6.936  0.3323  1.7635 -1.2864
 1467SOL     OW15862   3.655   3.838   9.850  0.0766 -0.0222 -0.2408
 1467SOL    HW115863   3.730   3.823   9.907 -0.9533 -1.2327  0.7752
 1467SOL    HW215864   3.623   3.749   9.841  0.3792 -0.1701  0.1356
 1468SOL     OW15865   3.966   3.798   3.637 -0.4006 -0.9132  0.4218
 1468SOL    HW115866   4.023   3.872   3.617 -1.1633 -0.4908 -0.1825
 1468SOL    HW215867   3.983   3.755   3.553 -2.2958  0.1501 -0.4760
 1469SOL     OW15868   2.709   1.956   2.196  0.1694  0.0162 -0.2937
 1469SOL    HW115869   2.704   1.930   2.104 -0.6736  1.7647 -0.7299
 1469SOL    HW215870   2.755   2.039   2.184 -0.9554  0.5489 -0.9033
 1470SOL     OW15871   2.752   3.571  15.312 -0.0407 -0.2025 -0.2304
 1470SOL    HW115872   2.786   3.613  15.391 -3.7730  0.8568  0.7967
 1470SOL    HW215873   2.805   3.618  15.247  0.6010  0.1537  0.5438
 1471SOL     OW15874   0.762   4.296   5.158  0.2918  0.6487 -0.0643
 1471SOL    HW115875   0.752   4.223   5.220 -0.8072  0.3213 -0.6296
 1471SOL    HW215876   0.809   4.239   5.098  1.3607  1.3653  0.0850
 1472SOL     OW15877   1.934   1.074   1.473 -0.1333  0.4085  0.4251
 1472SOL    HW115878   2.027   1.096   1.471  0.0435 -0.2997  0.9100
 1472SOL    HW215879   1.907   1.115   1.556 -0.2242  1.3950 -0.0951
 1473SOL     OW15880   1.589   1.698   5.866 -0.0342 -0.6948 -0.3435
 1473SOL    HW115881   1.543   1.774   5.901  0.6663 -0.6016  0.3758
 1473SOL    HW215882   1.583   1.723   5.774 -0.7999 -1.1877 -0.4310
 1474SOL     OW15883   4.152   1.709  11.132  0.2652 -0.4574 -0.4874
 1474SOL    HW115884   4.179   1.736  11.044  2.8641 -0.1436  0.4008
 1474SOL    HW215885   4.237   1.716  11.177  0.6537  0.5450 -1.3619
 1475SOL     OW15886   3.307   0.153   9.153 -0.3517  0.8138  0.3059
 1475SOL    HW115887   3.382   0.094   9.154 -1.0367 -0.0053  2.8280
 1475SOL    HW215888   3.289   0.156   9.247 -2.9282 -0.4820 -0.1442
 1476SOL     OW15889   0.691   1.910  12.435  0.1303  0.0851  0.0247
 1476SOL    HW115890   0.781   1.923  12.463  0.0844 -0.7046  0.5215
 1476SOL    HW215891   0.685   1.983  12.372  1.3525  1.2540  1.2595
 1477SOL     OW15892   1.635   1.691   7.237 -0.2165  0.2048  0.8140
 1477SOL    HW115893   1.595   1.778   7.232 -0.8467 -0.0705  1.1483
 1477SOL    HW215894   1.602   1.660   7.322 -1.0734  1.9607  1.1215
 1478SOL     OW15895   3.777   3.414   4.038 -0.2204  0.2705  0.5361
 1478SOL    HW115896   3.778   3.474   3.963  0.8221  1.0647  1.1753
 1478SOL    HW215897   3.871   3.412   4.057 -0.0424  1.1431 -0.2572
 1479SOL     OW15898   2.177   1.740   3.660 -0.2933 -0.3828  0.2351
 1479SOL    HW115899   2.227   1.732   3.579 -0.5250  2.3439 -0.1991
 1479SOL    HW215900   2.097   1.694   3.635  0.0035 -0.1386 -1.1729
 1480SOL     OW15901   4.032   0.757   2.997 -0.1676  0.1710  0.3166
 1480SOL    HW115902   4.029   0.812   2.919  0.9709 -0.7746 -0.4021
 1480SOL    HW215903   3.979   0.808   3.058 -1.1489 -1.0206  0.4827
 1481SOL     OW15904   2.978   3.694  10.937 -0.4666 -0.3211 -0.8666
 1481SOL    HW115905   2.966   3.600  10.921 -1.5105 -0.0150 -1.8183
 1481SOL    HW215906   3.064   3.695  10.894 -0.1222 -1.5072 -0.2327
 1482SOL     OW15907   1.001   3.882   8.533 -0.3068  0.0156  0.2316
 1482SOL    HW115908   1.065   3.811   8.521 -0.4118 -0.2482  1.2396
 1482SOL    HW215909   1.044   3.927   8.606 -1.2410 -1.1177  1.4930
 1483SOL     OW15910   1.144   0.627   5.920 -0.3011 -0.3174  0.0161
 1483SOL    HW115911   1.227   0.648   5.963 -0.6234  0.7449  0.1045
 1483SOL    HW215912   1.110   0.714   5.901  0.7327 -0.3381 -2.0219
 1484SOL     OW15913   2.056   1.754   7.622  0.1735 -0.1166  0.7050
 1484SOL    HW115914   2.086   1.667   7.649  1.4605 -0.5314 -2.0867
 1484SOL    HW215915   2.097   1.763   7.537 -1.0132  0.3556  0.1838
 1485SOL     OW15916   1.805   1.408  17.245  0.1621  0.7428 -0.5267
 1485SOL    HW115917   1.729   1.460  17.272 -1.7948 -1.8561 -1.0181
 1485SOL    HW215918   1.806   1.429  17.152 -1.1799  0.2877 -0.6367
 1486SOL     OW15919   0.678   2.407  12.057  0.2377  0.0033  0.1057
 1486SOL    HW115920   0.614   2.373  12.119 -0.0319 -0.8972 -0.6720
 1486SOL    HW215921   0.626   2.391  11.979  0.7311  1.7460 -0.5735
 1487SOL     OW15922   3.073   4.422   4.794 -0.1585  0.1084  0.0691
 1487SOL    HW115923   3.105   4.509   4.768  0.2519 -0.5356 -1.5249
 1487SOL    HW215924   2.997   4.447   4.846 -0.6086  0.4997 -0.7814
 1488SOL     OW15925   1.176   2.250   2.296 -0.3373 -0.1866 -0.4568
 1488SOL    HW115926   1.097   2.196   2.304 -0.0782 -0.3737  0.7703
 1488SOL    HW215927   1.226   2.207   2.227 -0.7764  0.1627 -0.9959
 1489SOL     OW15928   0.549   1.259   6.461 -0.6065 -0.7646 -0.2745
 1489SOL    HW115929   0.539   1.245   6.555  0.4391  1.5003  0.1743
 1489SOL    HW215930   0.638   1.229   6.441 -0.6606 -1.3398  0.3448
 1490SOL     OW15931   2.795   1.280   4.968 -0.2852 -0.0911  0.1023
 1490SOL    HW115932   2.720   1.316   5.015 -0.6899 -2.1812  1.0580
 1490SOL    HW215933   2.757   1.216   4.908  0.6606 -0.4601 -0.1038
 1491SOL     OW15934   0.284   0.828   3.148 -0.2120 -0.0501  0.0604
 1491SOL    HW115935   0.284   0.908   3.096  1.3328  1.0686  1.7410
 1491SOL    HW215936   0.207   0.781   3.116 -0.0701 -1.1407  1.3010
 1492SOL     OW15937   3.549   1.833  17.479  0.0004  0.3450 -0.3128
 1492SOL    HW115938   3.557   1.778  17.401 -0.4384 -1.8299  1.1898
 1492SOL    HW215939   3.587   1.779  17.548  1.9571  0.5318 -1.2253
 1493SOL     OW15940   3.040   1.714  13.126  0.2639 -0.5336  0.4088
 1493SOL    HW115941   3.132   1.736  13.142  0.3856 -0.3430 -0.5006
 1493SOL    HW215942   3.014   1.785  13.067  0.0892 -0.4444  0.5940
 1494SOL     OW15943   3.793   0.093   6.773 -0.4193 -0.2791  0.3300
 1494SOL    HW115944   3.738   0.168   6.752  0.7312  1.4974  3.5456
 1494SOL    HW215945   3.755   0.029   6.713 -2.3208 -1.2558  2.5887
 1495SOL     OW15946   1.935   2.956   8.809 -0.0771  0.0001  0.5267
 1495SOL    HW115947   2.030   2.960   8.797 -0.2080 -0.6289 -0.6495
 1495SOL    HW215948   1.926   2.984   8.900 -1.3781  0.4531  0.2600
 1496SOL     OW15949   0.944   3.541   1.748  0.3716  0.4846  0.4250
 1496SOL    HW115950   0.959   3.634   1.766  0.8697  0.6622 -0.8324
 1496SOL    HW215951   0.910   3.513   1.833 -3.1584 -0.6489 -1.3682
 1497SOL     OW15952   1.912   4.675   5.589  0.3181  0.0917 -0.6134
 1497SOL    HW115953   1.840   0.007   5.561  0.5158  0.3913 -0.5048
 1497SOL    HW215954   1.975   4.713   5.528  0.1766  0.5849 -0.4571
 1498SOL     OW15955   0.218   0.309   7.590  0.2951 -0.5350 -0.2829
 1498SOL    HW115956   0.271   0.379   7.554 -0.1285 -0.2604 -0.3738
 1498SOL    HW215957   0.182   0.353   7.668  0.7689 -1.7673  0.6419
 1499SOL     OW15958   4.082   0.779  12.973  0.1992 -0.4792  0.5602
 1499SOL    HW115959   4.051   0.790  12.883  0.5659  0.5834  0.5657
 1499SOL    HW215960   4.019   0.832  13.021  0.8576  2.3605 -1.7288
 1500SOL     OW15961   2.951   2.472   8.637  0.1990 -0.3165 -0.8416
 1500SOL    HW115962   3.013   2.401   8.624 -1.6104 -2.0536  0.0679
 1500SOL    HW215963   2.996   2.542   8.590 -0.2041 -0.6798 -1.7595
 1501SOL     OW15964   3.352   2.524   2.759 -0.0658  0.7572  0.3895
 1501SOL    HW115965   3.317   2.436   2.776  0.4040  0.4040 -0.4791
 1501SOL    HW215966   3.320   2.538   2.670 -1.8023 -1.8483  0.5776
 1502SOL     OW15967   1.816   4.047   8.841 -0.4495 -0.0715  0.0525
 1502SOL    HW115968   1.883   4.045   8.909 -0.2159 -0.5360 -0.1900
 1502SOL    HW215969   1.850   3.997   8.767  1.6858  1.2087  0.1821
 1503SOL     OW15970   0.209   3.985  10.538 -0.2981 -0.6210  0.1992
 1503SOL    HW115971   0.302   4.008  10.544  0.0235 -1.3415 -1.9798
 1503SOL    HW215972   0.210   3.908  10.481  1.6029 -2.1972  2.3470
 1504SOL     OW15973   0.438   2.308   2.338  0.6859  0.4651 -0.6949
 1504SOL    HW115974   0.354   2.268   2.361  0.8444  0.4414 -0.1485
 1504SOL    HW215975   0.411   2.362   2.264  1.1757  2.9147  0.9203
 1505SOL     OW15976   0.941   0.508  11.211 -0.1033 -0.0081  0.5151
 1505SOL    HW115977   0.876   0.535  11.276  0.4643  2.6005  0.0054
 1505SOL    HW215978   0.882   0.487  11.139  1.3435 -1.3971 -0.2614
 1506SOL     OW15979   2.712   3.025  10.134  0.2795  0.1953 -0.0776
 1506SOL    HW115980   2.802   3.056  10.137 -0.0112  1.1666 -1.3198
 1506SOL    HW215981   2.703   2.990  10.223  0.8843 -2.7106 -1.1811
 1507SOL     OW15982   2.920   3.282  16.814  0.4260 -0.0538 -0.3193
 1507SOL    HW115983   2.865   3.305  16.889  1.0511  2.8174 -0.7357
 1507SOL    HW215984   2.948   3.195  16.841  1.8426  0.4397 -0.1874
 1508SOL     OW15985   2.551   2.122   7.983  0.6756 -0.5621  0.4844
 1508SOL    HW115986   2.511   2.185   7.923 -0.8645 -2.1652 -0.1725
 1508SOL    HW215987   2.490   2.049   7.972  0.4625 -0.7559  3.0608
 1509SOL     OW15988   0.796   2.218   3.737  0.6848 -0.0815  0.1436
 1509SOL    HW115989   0.884   2.180   3.730  1.7091  1.5095  4.0029
 1509SOL    HW215990   0.786   2.284   3.668  1.5336  1.1433  1.1758
 1510SOL     OW15991   2.741   4.664   5.534  0.5991  0.3086  0.1247
 1510SOL    HW115992   2.799   4.608   5.484 -1.8126 -0.8702 -1.3494
 1510SOL    HW215993   2.660   4.613   5.525  0.6895  0.5364 -1.8967
 1511SOL     OW15994   2.943   2.115   1.656 -0.2332 -0.2060  0.1976
 1511SOL    HW115995   2.907   2.097   1.742  0.3437 -1.2196  0.2183
 1511SOL    HW215996   2.866   2.157   1.618  0.4476  1.7138  0.9307
 1512SOL     OW15997   3.499   0.908   6.590 -0.1530  0.0919 -0.0005
 1512SOL    HW115998   3.535   0.822   6.568 -0.6083 -0.0407 -0.2416
 1512SOL    HW215999   3.413   0.893   6.550  0.1301  1.0475 -0.9773
 1513SOL     OW16000   3.483   3.085   0.480  0.2447 -0.5738  0.3117
 1513SOL    HW116001   3.433   3.055   0.404 -1.3038 -0.8929  1.4535
 1513SOL    HW216002   3.464   3.177   0.467 -0.1624 -0.5258  1.2676
 1514SOL     OW16003   0.616   2.964   8.850  0.6501  0.4588  0.3228
 1514SOL    HW116004   0.529   2.949   8.813  0.6368  0.5707  0.3085
 1514SOL    HW216005   0.610   2.923   8.936  1.4240 -2.3254 -0.9764
 1515SOL     OW16006   0.295   0.023   0.652 -0.3674  0.0407  0.5759
 1515SOL    HW116007   0.317   4.660   0.623 -2.3394 -0.6280  1.1663
 1515SOL    HW216008   0.285   0.064   0.566 -1.8862 -1.0452  0.2484
 1516SOL     OW16009   1.155   3.020  16.695  0.1970  0.2991  0.7417
 1516SOL    HW116010   1.115   3.090  16.643 -0.2436  0.3604  1.1553
 1516SOL    HW216011   1.232   2.994  16.645 -0.6405 -1.1242  0.1974
 1517SOL     OW16012   1.267   3.791  11.065 -0.2405 -0.0530 -0.2454
 1517SOL    HW116013   1.242   3.869  11.016  1.2503  0.5621 -0.0030
 1517SOL    HW216014   1.231   3.814  11.150 -2.6289  0.7377 -1.4718
 1518SOL     OW16015   1.717   0.638   2.636 -0.4159  0.0085  0.6069
 1518SOL    HW116016   1.779   0.708   2.659  1.1106 -0.5039 -1.9214
 1518SOL    HW216017   1.632   0.680   2.651  0.0098  1.2249 -0.3265
 1519SOL     OW16018   2.100   1.758  10.867 -1.0519 -0.3739 -0.1675
 1519SOL    HW116019   2.140   1.714  10.792 -0.7951  0.5770 -0.5843
 1519SOL    HW216020   2.180   1.778  10.915 -0.9599 -0.6698 -0.1962
 1520SOL     OW16021   4.220   3.864   2.588 -0.0415 -0.3028 -0.2777
 1520SOL    HW116022   4.239   3.783   2.637 -0.1069  0.8031  1.5709
 1520SOL    HW216023   4.141   3.897   2.630  0.9439  0.8878  0.6398
 1521SOL     OW16024   0.780   4.198   7.968 -0.0219  0.2585 -0.2241
 1521SOL    HW116025   0.706   4.180   8.026 -1.0691  0.1482 -1.5930
 1521SOL    HW216026   0.817   4.270   8.020  1.6039 -0.7262 -0.0455
 1522SOL     OW16027   2.971   0.286   0.727  0.2981 -0.1156 -0.1745
 1522SOL    HW116028   3.044   0.245   0.772  0.4424  0.4192  0.0780
 1522SOL    HW216029   2.887   0.248   0.753 -0.0548  0.9660  0.2869
 1523SOL     OW16030   2.606   2.774   5.032  0.1646 -0.0458 -0.5681
 1523SOL    HW116031   2.521   2.737   5.054  0.6015  0.6090  2.2549
 1523SOL    HW216032   2.670   2.705   5.050  1.0720  1.1674  0.8300
 1524SOL     OW16033   0.902   0.332   0.411 -0.0513  0.2212 -0.1285
 1524SOL    HW116034   0.914   0.426   0.402  0.2075  0.2183  0.1581
 1524SOL    HW216035   0.817   0.329   0.454 -1.7073 -0.9256 -3.5017
 1525SOL     OW16036   2.708   3.936   3.165 -0.0821  0.0126 -0.1395
 1525SOL    HW116037   2.618   3.905   3.164  0.0234 -0.3099  0.1460
 1525SOL    HW216038   2.752   3.890   3.094 -1.7091  0.8343 -1.6547
 1526SOL     OW16039   3.781   4.205  12.936  0.5314  0.0923 -0.4734
 1526SOL    HW116040   3.797   4.178  13.027  2.0849 -1.5164 -1.2191
 1526SOL    HW216041   3.735   4.289  12.944 -0.1701 -0.0828 -2.5905
 1527SOL     OW16042   3.102   3.237   6.210  0.4018 -0.1383  0.0024
 1527SOL    HW116043   3.155   3.189   6.274 -1.7564 -0.8444  1.2367
 1527SOL    HW216044   3.024   3.259   6.259 -0.3204 -1.4656 -0.5386
 1528SOL     OW16045   4.585   1.873   7.948 -0.1170  0.5638  0.1574
 1528SOL    HW116046   4.674   1.844   7.927 -1.2869 -3.2808  0.4981
 1528SOL    HW216047   4.535   1.792   7.948  2.2951 -0.9218 -1.6216
 1529SOL     OW16048   0.999   3.303   6.307 -0.3255  0.7309  0.0006
 1529SOL    HW116049   0.912   3.288   6.269 -2.1187  3.2612  3.1263
 1529SOL    HW216050   0.982   3.294   6.401 -1.5458 -3.4692 -0.6523
 1530SOL     OW16051   3.805   0.135   6.394  0.1324 -0.3105 -0.5327
 1530SOL    HW116052   3.753   0.210   6.366 -0.6012 -0.5528  0.1633
 1530SOL    HW216053   3.770   0.066   6.338 -1.8502  0.4835 -0.2793
 1531SOL     OW16054   3.274   3.091   6.386  0.2119 -0.0916 -0.0220
 1531SOL    HW116055   3.331   3.078   6.462 -0.6525 -0.1251  0.6290
 1531SOL    HW216056   3.304   3.016   6.334  0.9282  1.1504 -1.3700
 1532SOL     OW16057   4.522   2.298  10.839  0.0340  0.0418 -0.6356
 1532SOL    HW116058   4.552   2.355  10.768  0.2560  0.2940 -0.3400
 1532SOL    HW216059   4.589   2.230  10.831  1.3734  1.3688 -0.6491
 1533SOL     OW16060   4.405   3.907   6.911 -0.1555 -0.3034 -0.2302
 1533SOL    HW116061   4.479   3.944   6.864 -1.4207 -0.0809 -2.0285
 1533SOL    HW216062   4.398   3.824   6.864  0.9604 -0.2840 -0.4222
 1534SOL     OW16063   1.725   3.032   8.186  0.6003  0.3026  0.4266
 1534SOL    HW116064   1.747   2.968   8.254  0.2871  0.4379  0.6509
 1534SOL    HW216065   1.641   2.999   8.153  0.5347 -0.6939  1.5945
 1535SOL     OW16066   2.654   0.063  12.011  0.0700  0.0267 -0.1190
 1535SOL    HW116067   2.666   0.155  11.988 -2.0165  0.1589 -0.6539
 1535SOL    HW216068   2.703   0.061  12.093  0.0011  0.4150 -0.0717
 1536SOL     OW16069   1.993   2.422   7.681  0.9565  0.4628  0.2256
 1536SOL    HW116070   1.930   2.491   7.701  2.5212  1.8035  0.4820
 1536SOL    HW216071   2.017   2.445   7.592 -2.4467 -1.9783 -1.3377
 1537SOL     OW16072   0.065   4.388   7.458  0.2109 -0.4667  0.5047
 1537SOL    HW116073   0.103   4.365   7.373 -0.3699  2.0706 -0.4634
 1537SOL    HW216074   0.135   4.361   7.517 -0.5670 -0.4103  1.4603
 1538SOL     OW16075   1.339   2.706   1.996 -0.3681 -0.3169  0.6602
 1538SOL    HW116076   1.373   2.773   2.056  0.7311 -1.0035  0.8073
 1538SOL    HW216077   1.256   2.747   1.975  0.1324  0.0807 -0.5180
 1539SOL     OW16078   3.646   2.717  15.029  0.7586  0.3180 -0.0296
 1539SOL    HW116079   3.668   2.748  14.941  0.9637  2.9119  0.9436
 1539SOL    HW216080   3.651   2.798  15.080  0.5486 -0.1262  0.6986
 1540SOL     OW16081   2.966   2.813   5.888  0.0772 -0.2188 -0.8754
 1540SOL    HW116082   3.041   2.766   5.925 -1.2013 -2.2969 -0.9205
 1540SOL    HW216083   2.975   2.894   5.939 -2.1290  0.2813 -1.3037
 1541SOL     OW16084   3.127   0.836   5.001 -0.4095 -0.3403 -0.2086
 1541SOL    HW116085   3.102   0.928   5.001 -1.2934 -0.5778  2.6826
 1541SOL    HW216086   3.222   0.846   5.006 -0.4629  1.2860 -2.3729
 1542SOL     OW16087   0.289   2.849   6.681 -0.7928  0.3419 -0.3712
 1542SOL    HW116088   0.373   2.825   6.642 -0.6851 -0.0488  0.1015
 1542SOL    HW216089   0.269   2.764   6.721 -1.2590  0.7967  0.3796
 1543SOL     OW16090   2.420   3.481  17.624 -0.3429  0.0636 -0.4201
 1543SOL    HW116091   2.399   3.440   0.005 -1.2217  0.4915 -0.4384
 1543SOL    HW216092   2.340   3.481  17.572 -0.4045 -1.0154 -0.3351
 1544SOL     OW16093   1.931   1.891   7.107  0.1854 -0.1096 -0.2490
 1544SOL    HW116094   1.879   1.887   7.187  0.1182  3.3305 -0.1199
 1544SOL    HW216095   1.862   1.914   7.044 -1.8167 -1.0202  1.6593
 1545SOL     OW16096   2.830   3.800  17.679 -0.6107  0.2681  0.1531
 1545SOL    HW116097   2.894   3.739  17.643 -1.5194 -0.1509 -0.7501
 1545SOL    HW216098   2.757   3.819  17.620 -0.1557 -0.0243 -0.4964
 1546SOL     OW16099   1.570   0.996  17.470  0.2721 -0.7259  0.3646
 1546SOL    HW116100   1.595   0.991  17.562 -1.1369  0.2237  0.8018
 1546SOL    HW216101   1.611   1.079  17.442 -1.0097 -0.6823 -1.3739
 1547SOL     OW16102   3.847   0.827  11.327 -0.3409  0.2883 -0.5928
 1547SOL    HW116103   3.777   0.771  11.294  0.2553  0.0518 -1.4828
 1547SOL    HW216104   3.922   0.776  11.358 -1.1778  1.8140  3.9062
 1548SOL     OW16105   0.777   2.338   1.673  0.1002 -0.8827 -0.1040
 1548SOL    HW116106   0.696   2.315   1.717  0.7829 -3.7744 -0.4101
 1548SOL    HW216107   0.826   2.257   1.683  1.1135 -0.0700  1.4862
 1549SOL     OW16108   2.514   0.621   8.780  0.2418 -0.0534 -0.3517
 1549SOL    HW116109   2.462   0.561   8.835  1.4701 -1.0612 -0.2813
 1549SOL    HW216110   2.587   0.643   8.838 -1.2266  1.0237  1.1009
 1550SOL     OW16111   3.629   4.615   1.615 -0.3883 -0.1212 -0.1091
 1550SOL    HW116112   3.697   4.618   1.549 -0.7837 -1.4397 -0.5685
 1550SOL    HW216113   3.653   4.535   1.661  1.8485 -0.0688 -1.1853
 1551SOL     OW16114   2.106   0.636  10.306 -0.1186  0.0726 -0.8553
 1551SOL    HW116115   2.076   0.662  10.219  3.7720  1.1792 -1.8480
 1551SOL    HW216116   2.035   0.580  10.337 -0.3312 -0.0246 -1.5253
 1552SOL     OW16117   2.640   3.013   9.010 -0.4115  0.3069 -0.0772
 1552SOL    HW116118   2.709   2.989   9.072 -3.2137 -0.1802  2.8067
 1552SOL    HW216119   2.618   3.102   9.037 -0.9150  0.5219 -1.2115
 1553SOL     OW16120   1.829   0.161   6.700  0.2572 -0.1511  0.7664
 1553SOL    HW116121   1.792   0.080   6.734  0.0857 -0.6391 -0.5855
 1553SOL    HW216122   1.838   0.140   6.607 -0.0362 -3.2561  1.4563
 1554SOL     OW16123   0.985   2.591   0.150  0.4533 -0.6637 -0.1051
 1554SOL    HW116124   1.055   2.558   0.094 -1.0213 -0.8630 -1.8013
 1554SOL    HW216125   0.920   2.624   0.088  1.8382  1.3991 -0.4516
 1555SOL     OW16126   2.048   0.659   0.394 -0.0797  0.4064 -0.1165
 1555SOL    HW116127   2.089   0.612   0.322  0.4465  2.0592 -0.8768
 1555SOL    HW216128   2.076   0.745   0.365 -0.6955  0.3672 -0.8403
 1556SOL     OW16129   1.469   0.164   0.488  0.0692  0.1140  0.0565
 1556SOL    HW116130   1.402   0.228   0.513 -0.1519 -0.2321  0.3502
 1556SOL    HW216131   1.515   0.215   0.422 -2.2739  2.1083 -0.0325
 1557SOL     OW16132   2.545   1.596   9.073  0.0235 -0.5837  0.0681
 1557SOL    HW116133   2.570   1.594   9.165  1.4153 -1.5808 -0.3328
 1557SOL    HW216134   2.629   1.586   9.028  0.4389  2.3616  0.1748
 1558SOL     OW16135   3.728   0.019   4.788 -0.0488  0.1643  0.0062
 1558SOL    HW116136   3.813   0.061   4.789  1.9518 -3.7923 -1.2733
 1558SOL    HW216137   3.699   0.061   4.869 -0.3299  1.9152 -1.0164
 1559SOL     OW16138   1.152   3.386   8.143  0.1743  0.1660 -0.3123
 1559SOL    HW116139   1.175   3.294   8.131 -0.0053  0.0463  0.2586
 1559SOL    HW216140   1.137   3.404   8.236 -0.3913  1.3728 -0.6337
 1560SOL     OW16141   2.945   3.475  16.274  0.3785  0.1284  0.0291
 1560SOL    HW116142   2.946   3.401  16.334  2.1114  0.4780  0.4405
 1560SOL    HW216143   2.960   3.551  16.330  2.3248 -0.5768  0.4770
 1561SOL     OW16144   0.277   0.979   3.587  0.0363  0.0351 -0.0484
 1561SOL    HW116145   0.315   0.913   3.644 -1.0687  0.5450  1.2882
 1561SOL    HW216146   0.245   0.919   3.520  1.4398  0.0304 -0.7256
 1562SOL     OW16147   2.739   4.133   2.963 -0.6874  0.1903 -0.5511
 1562SOL    HW116148   2.783   4.212   2.994  3.6690 -3.9599  3.7207
 1562SOL    HW216149   2.725   4.082   3.043  1.6569 -0.9147 -0.8704
 1563SOL     OW16150   1.029   1.992  14.794 -0.4240  0.2728 -0.2457
 1563SOL    HW116151   1.102   2.046  14.762 -1.2550 -0.1658 -2.8865
 1563SOL    HW216152   0.993   2.053  14.858  0.9631 -0.2535  1.0440
 1564SOL     OW16153   2.758   1.756  15.092 -0.2699 -0.8566 -0.0207
 1564SOL    HW116154   2.741   1.690  15.026  2.2799 -0.8896 -0.6639
 1564SOL    HW216155   2.828   1.804  15.046  0.1818 -0.5326  0.9997
 1565SOL     OW16156   2.541   3.757   6.280  0.4913  0.1193  0.0513
 1565SOL    HW116157   2.450   3.752   6.252  0.3627  1.6100  0.1883
 1565SOL    HW216158   2.529   3.753   6.375  0.7326 -0.2710  0.0655
 1566SOL     OW16159   4.454   2.207   3.422 -0.0372 -0.2552  0.4747
 1566SOL    HW116160   4.442   2.295   3.458 -0.5404 -0.5515  1.0402
 1566SOL    HW216161   4.520   2.165   3.477  0.4047 -0.9615 -0.6008
 1567SOL     OW16162   2.040   1.885   2.650  0.4699 -0.1381 -0.4779
 1567SOL    HW116163   2.133   1.906   2.650  1.0483 -2.6664  0.8936
 1567SOL    HW216164   2.005   1.917   2.566  0.7810  1.2893 -0.0563
 1568SOL     OW16165   0.560   2.742  12.897 -0.2620  0.1514 -0.1466
 1568SOL    HW116166   0.577   2.720  12.805  0.8868 -0.6724  0.2638
 1568SOL    HW216167   0.647   2.737  12.936 -0.1411 -0.8081 -0.5420
 1569SOL     OW16168   1.688   3.403   6.712  0.4228  0.1720  0.5040
 1569SOL    HW116169   1.772   3.449   6.710  0.0481  0.8584  0.4603
 1569SOL    HW216170   1.689   3.355   6.629 -0.4763 -0.3247  0.7809
 1570SOL     OW16171   0.719   3.268   6.226 -0.1064 -0.1255 -0.7028
 1570SOL    HW116172   0.691   3.188   6.273 -3.6837  0.9863 -0.9057
 1570SOL    HW216173   0.638   3.317   6.215  0.9754  1.7666 -0.1651
 1571SOL     OW16174   2.245   4.470  14.242 -0.6384  0.1016 -0.1487
 1571SOL    HW116175   2.273   4.378  14.237 -2.0923 -0.3834  0.3948
 1571SOL    HW216176   2.271   4.511  14.159  0.9956 -3.1767 -1.2808
 1572SOL     OW16177   2.484   0.606   2.357 -0.2830 -0.3989  0.2939
 1572SOL    HW116178   2.456   0.615   2.266 -3.6245 -1.2001  1.2173
 1572SOL    HW216179   2.408   0.644   2.401 -0.0826  0.0230  0.2748
 1573SOL     OW16180   2.958   2.344  11.309  0.3536 -0.0275  0.3051
 1573SOL    HW116181   3.052   2.357  11.323  0.9726 -1.8043 -2.3036
 1573SOL    HW216182   2.917   2.407  11.368 -0.1835 -0.4298  0.3629
 1574SOL     OW16183   1.576   3.207   4.841 -0.6448 -0.1325 -0.0998
 1574SOL    HW116184   1.498   3.222   4.787 -0.3864  0.7168 -0.2366
 1574SOL    HW216185   1.539   3.140   4.899 -1.4198  0.4658  0.1020
 1575SOL     OW16186   2.856   0.498   8.355  0.0672 -0.0382 -0.3459
 1575SOL    HW116187   2.762   0.515   8.353 -0.0038 -0.4527 -0.6441
 1575SOL    HW216188   2.873   0.438   8.428  0.1173  0.1728 -0.1853
 1576SOL     OW16189   4.050   3.104   8.395 -0.0689  0.3755 -0.4579
 1576SOL    HW116190   4.048   3.020   8.349  1.4647  0.4734 -0.7076
 1576SOL    HW216191   3.960   3.132   8.377  0.2179  1.6762  0.1153
 1577SOL     OW16192   2.994   1.090   6.547  0.4280 -0.0205  0.2295
 1577SOL    HW116193   2.932   1.067   6.616  0.2432 -0.6692 -0.1557
 1577SOL    HW216194   3.039   1.160   6.595 -0.9912  0.3682  0.9731
 1578SOL     OW16195   1.206   4.408  10.250 -0.2781 -0.5132 -0.2201
 1578SOL    HW116196   1.237   4.325  10.286  2.1076  1.8934  3.2531
 1578SOL    HW216197   1.137   4.380  10.190 -1.4275  1.9675 -0.0644
 1579SOL     OW16198   2.262   0.927  14.025 -0.6735  0.0242 -0.9679
 1579SOL    HW116199   2.332   0.873  13.988  1.4336 -0.5729  3.8860
 1579SOL    HW216200   2.191   0.877  13.985 -0.1484 -1.9385  0.5272
 1580SOL     OW16201   0.623   2.346   6.211  0.0137 -0.1457  0.2311
 1580SOL    HW116202   0.644   2.385   6.296 -0.9837  1.7027 -0.3692
 1580SOL    HW216203   0.661   2.407   6.148  1.0831 -0.2459  0.7648
 1581SOL     OW16204   2.404   4.599   7.706 -0.0184 -0.2357 -0.9801
 1581SOL    HW116205   2.459   4.616   7.782 -0.4142 -0.7481 -0.5750
 1581SOL    HW216206   2.337   4.543   7.747 -0.2880  1.4884  0.9528
 1582SOL     OW16207   0.760   2.117   4.685  0.3258  0.0581 -0.1685
 1582SOL    HW116208   0.683   2.060   4.696 -0.6159  1.0917 -1.4030
 1582SOL    HW216209   0.766   2.124   4.590  0.8037  0.5269 -0.1007
 1583SOL     OW16210   4.660   3.524   5.550 -0.7313 -0.2497  0.0196
 1583SOL    HW116211   4.658   3.550   5.458 -0.4070 -0.7025 -0.1174
 1583SOL    HW216212   0.013   3.570   5.582 -2.6426  1.1605  2.6148
 1584SOL     OW16213   4.383   4.189  14.975  0.1840 -0.5518  0.8609
 1584SOL    HW116214   4.463   4.188  15.027 -0.1375  0.6417  1.3866
 1584SOL    HW216215   4.387   4.270  14.924  2.5355 -0.2149  1.5758
 1585SOL     OW16216   3.002   4.246   6.742 -0.0292  0.2230 -0.5116
 1585SOL    HW116217   2.974   4.260   6.833 -0.4634 -1.6666 -0.3490
 1585SOL    HW216218   3.085   4.293   6.745  0.7275 -1.2132  1.0400
 1586SOL     OW16219   3.792   1.955  16.391  0.5120  0.0992  0.4054
 1586SOL    HW116220   3.706   1.914  16.395  0.5250  0.0275  0.0021
 1586SOL    HW216221   3.777   2.043  16.423  1.2198  0.1718  0.5510
 1587SOL     OW16222   1.877   4.556   9.160  0.6428  0.5993  0.3061
 1587SOL    HW116223   1.874   4.464   9.136 -2.5919  0.3997  1.4684
 1587SOL    HW216224   1.916   4.544   9.246  0.8148  1.6594  0.3824
 1588SOL     OW16225   4.561   3.500   4.163  0.5261 -0.7047 -0.2038
 1588SOL    HW116226   4.505   3.451   4.103  1.2648 -0.3911 -1.1532
 1588SOL    HW216227   4.600   3.430   4.215 -0.0139 -2.8236 -2.6546
 1589SOL     OW16228   4.033   0.830  10.645 -0.5044 -0.0213 -0.4516
 1589SOL    HW116229   4.024   0.899  10.711  2.7092  0.6737 -0.7546
 1589SOL    HW216230   4.059   0.878  10.566  1.2823 -1.4129 -0.6937
 1590SOL     OW16231   2.889   3.217   5.615  0.0250  0.0822  0.0041
 1590SOL    HW116232   2.906   3.167   5.535 -1.6317  0.2538 -0.4565
 1590SOL    HW216233   2.856   3.298   5.576 -1.2880  0.7812  2.6088
 1591SOL     OW16234   0.795   0.950  13.032 -0.0891 -0.7080  0.0867
 1591SOL    HW116235   0.831   0.928  13.118  0.8834  0.5066 -0.0030
 1591SOL    HW216236   0.806   0.862  12.997 -0.2762 -0.2828 -1.0224
 1592SOL     OW16237   4.219   2.274   2.010 -0.2102  0.3934 -0.4239
 1592SOL    HW116238   4.302   2.242   1.976 -1.6519 -3.1826 -0.5846
 1592SOL    HW216239   4.148   2.237   1.958  0.8678 -1.4540 -0.5967
 1593SOL     OW16240   0.354   2.655  11.961  0.3031  0.3362  0.0292
 1593SOL    HW116241   0.339   2.741  11.922  1.4940 -0.0811 -1.3743
 1593SOL    HW216242   0.291   2.661  12.032 -1.6813  1.7678 -1.8699
 1594SOL     OW16243   3.265   4.067   9.889  0.0189 -0.3535  0.3249
 1594SOL    HW116244   3.264   3.998   9.823 -0.3374  0.6981 -0.7565
 1594SOL    HW216245   3.329   4.019   9.942 -0.1699 -1.2078 -0.2289
 1595SOL     OW16246   4.435   2.272   7.103 -0.4266 -0.1310  0.3050
 1595SOL    HW116247   4.425   2.178   7.122  1.2993 -0.8125 -2.1347
 1595SOL    HW216248   4.510   2.291   7.160  1.0854  0.2887 -1.8143
 1596SOL     OW16249   0.689   1.295   9.478 -0.9247 -0.2757  0.0808
 1596SOL    HW116250   0.619   1.234   9.458 -1.0617  0.0078 -0.3131
 1596SOL    HW216251   0.717   1.321   9.390 -3.1006 -1.2906 -0.8905
 1597SOL     OW16252   3.878   3.709   9.082 -0.2888 -0.8578  0.0862
 1597SOL    HW116253   3.829   3.788   9.102 -1.3339 -1.6580  0.6980
 1597SOL    HW216254   3.942   3.736   9.016 -0.8461  0.5693  0.1400
 1598SOL     OW16255   2.632   3.162  12.184 -0.4158 -0.1979 -0.1148
 1598SOL    HW116256   2.683   3.188  12.108 -2.1041  1.0292 -0.8145
 1598SOL    HW216257   2.612   3.068  12.179  0.8629 -0.5424  1.3098
 1599SOL     OW16258   1.085   2.316   8.021 -0.1282  0.2905 -0.4209
 1599SOL    HW116259   1.029   2.239   8.032  2.7333 -1.8469 -0.8343
 1599SOL    HW216260   1.024   2.377   7.980 -0.0997  1.1634  0.8568
 1600SOL     OW16261   1.082   0.316  12.414 -0.4869  0.0705  0.0036
 1600SOL    HW116262   1.173   0.340  12.395  0.1100 -3.0334 -0.9639
 1600SOL    HW216263   1.090   0.252  12.485  1.4552 -2.2864 -2.3531
 1601SOL     OW16264   1.677   0.580   7.574  0.5526 -0.3380  0.1694
 1601SOL    HW116265   1.680   0.618   7.661  2.6407  0.0866 -0.0694
 1601SOL    HW216266   1.689   0.485   7.582  2.2532 -0.0453  1.1422
 1602SOL     OW16267   3.810   3.200   6.349  0.5748 -0.6383 -0.0580
 1602SOL    HW116268   3.753   3.131   6.315 -1.6076  1.2683 -0.2512
 1602SOL    HW216269   3.762   3.212   6.431  1.5374 -1.1618  0.5844
 1603SOL     OW16270   1.026   4.325  17.391 -0.2515  0.5193 -0.5236
 1603SOL    HW116271   0.980   4.241  17.386 -0.0258  0.1890  3.2245
 1603SOL    HW216272   0.988   4.357  17.473  2.1051 -0.0208  0.7710
 1604SOL     OW16273   3.575   1.143  13.013  0.0990  0.3145 -0.0703
 1604SOL    HW116274   3.564   1.048  13.019  0.0650  0.3790  0.8116
 1604SOL    HW216275   3.513   1.174  13.079 -0.4558  1.2477 -1.0178
 1605SOL     OW16276   3.302   3.545   4.398 -0.0061  0.2168  0.1366
 1605SOL    HW116277   3.273   3.541   4.307  3.1600 -1.0835 -0.7872
 1605SOL    HW216278   3.263   3.626   4.432 -0.0111 -0.7859  2.5529
 1606SOL     OW16279   2.806   4.227   1.955  0.1822  0.6369 -0.2574
 1606SOL    HW116280   2.837   4.266   1.874 -2.3234 -2.7288 -2.8238
 1606SOL    HW216281   2.718   4.264   1.956  0.3777  1.0988 -0.0802
 1607SOL     OW16282   3.352   0.595   7.581 -0.3572 -0.1854 -0.0062
 1607SOL    HW116283   3.418   0.664   7.590 -1.0765  0.6297 -0.9642
 1607SOL    HW216284   3.390   0.529   7.638  2.5647  0.7734 -0.8554
 1608SOL     OW16285   2.914   3.701   3.071 -0.2615 -0.0989 -0.0396
 1608SOL    HW116286   2.940   3.715   2.980  0.0854  2.2263  0.4299
 1608SOL    HW216287   2.989   3.745   3.111  0.6854 -2.0877  0.4039
 1609SOL     OW16288   3.310   3.140  16.584  0.1924  0.2886  0.2676
 1609SOL    HW116289   3.369   3.074  16.620 -1.0784 -0.2252  1.4150
 1609SOL    HW216290   3.235   3.096  16.545  0.1564 -0.7762  1.5191
 1610SOL     OW16291   1.105   3.149   4.638  0.3750 -0.1360 -0.0095
 1610SOL    HW116292   1.037   3.081   4.643 -0.1601  0.4196  0.3047
 1610SOL    HW216293   1.049   3.221   4.609  0.2820  0.1462  0.8794
 1611SOL     OW16294   2.494   2.419   6.631  0.2903  0.2489  0.6290
 1611SOL    HW116295   2.401   2.433   6.612  0.0202 -0.5709  1.3782
 1611SOL    HW216296   2.485   2.325   6.640 -1.0036  0.4482  1.3761
 1612SOL     OW16297   2.958   4.681   8.140 -0.3169 -0.9766 -0.3430
 1612SOL    HW116298   2.888   4.649   8.197 -1.1843  1.4824 -0.0427
 1612SOL    HW216299   2.910   0.031   8.106  0.9058 -0.1554 -0.2758
 1613SOL     OW16300   0.963   1.341   5.471  0.6932 -0.1065  0.1548
 1613SOL    HW116301   1.008   1.363   5.389  1.2798 -1.5820  0.0696
 1613SOL    HW216302   1.025   1.373   5.536 -2.1408  1.3707  2.1025
 1614SOL     OW16303   2.916   3.009   1.292 -0.3184 -0.0627  0.7440
 1614SOL    HW116304   2.931   3.104   1.294  0.7397 -0.1852 -2.3630
 1614SOL    HW216305   2.913   2.992   1.198  0.7309  3.6839 -0.0034
 1615SOL     OW16306   4.329   4.116  17.091  0.5875  0.3451  0.0696
 1615SOL    HW116307   4.253   4.174  17.094  0.0659 -0.3491  0.2039
 1615SOL    HW216308   4.397   4.180  17.070  3.5238 -2.0049  2.2444
 1616SOL     OW16309   2.147   1.541   9.435 -0.1770 -0.4944 -0.0591
 1616SOL    HW116310   2.239   1.532   9.459 -0.8884 -1.8156  2.2029
 1616SOL    HW216311   2.112   1.457   9.466  0.9776 -0.7662  0.5049
 1617SOL     OW16312   1.522   2.580   5.266  0.2510  0.1142 -0.0893
 1617SOL    HW116313   1.480   2.506   5.310  1.0903 -0.2524  0.0982
 1617SOL    HW216314   1.446   2.612   5.218  1.9849  1.5524 -1.8539
 1618SOL     OW16315   3.203   3.718   2.437 -0.5307 -0.3735 -0.1176
 1618SOL    HW116316   3.230   3.759   2.355 -0.6506 -1.1932 -0.5683
 1618SOL    HW216317   3.248   3.636   2.418  0.4189  0.5996 -2.0007
 1619SOL     OW16318   1.571   0.700  11.307 -0.1099  0.1267  0.2931
 1619SOL    HW116319   1.501   0.694  11.372 -1.8934 -1.1899 -1.7225
 1619SOL    HW216320   1.547   0.775  11.253  2.8151  2.3571  2.1251
 1620SOL     OW16321   2.521   1.060   8.725  0.3653 -0.1813 -0.0550
 1620SOL    HW116322   2.478   1.091   8.804 -1.9542 -0.1260 -1.3417
 1620SOL    HW216323   2.544   1.138   8.674  0.0410  0.8403  1.3928
 1621SOL     OW16324   0.396   4.173   3.969  0.2479  0.4529  0.1108
 1621SOL    HW116325   0.321   4.113   3.967  1.8898 -1.6155 -0.1019
 1621SOL    HW216326   0.364   4.240   3.909  1.8713  2.0727  1.0854
 1622SOL     OW16327   3.810   1.544   8.165  0.5195  0.2955 -0.5196
 1622SOL    HW116328   3.868   1.496   8.105 -0.0484 -1.5392  0.4017
 1622SOL    HW216329   3.734   1.488   8.152 -0.3599  1.3981 -0.0455
 1623SOL     OW16330   4.088   3.907   3.266 -0.3371 -0.5039  0.0885
 1623SOL    HW116331   4.065   3.891   3.174 -0.3013  0.9819 -0.1737
 1623SOL    HW216332   4.049   3.994   3.276 -0.4366 -0.4095 -1.0779
 1624SOL     OW16333   0.700   0.990  12.765  0.3107  0.1225 -0.6251
 1624SOL    HW116334   0.619   0.991  12.817 -0.0441 -1.4227 -1.1538
 1624SOL    HW216335   0.770   0.994  12.830  0.4535  0.6050 -0.8098
 1625SOL     OW16336   3.803   3.803  16.705 -0.4197 -0.1336  0.0554
 1625SOL    HW116337   3.787   3.808  16.610 -0.8081  4.2468  0.3451
 1625SOL    HW216338   3.843   3.719  16.725 -1.4301 -1.1354 -2.1011
 1626SOL     OW16339   2.357   2.689   6.243  0.1141 -0.4609 -0.4903
 1626SOL    HW116340   2.387   2.733   6.322  0.1797  0.6293 -1.1233
 1626SOL    HW216341   2.301   2.622   6.283  0.5378  1.5213  3.4086
 1627SOL     OW16342   0.866   2.473   7.710  0.3274  0.1954  0.1326
 1627SOL    HW116343   0.861   2.380   7.685 -3.9472  0.5956 -0.4631
 1627SOL    HW216344   0.961   2.483   7.708  0.1762  1.2721 -1.6721
 1628SOL     OW16345   0.172   3.851   9.041 -0.1751  0.4623  0.2208
 1628SOL    HW116346   0.118   3.773   9.056 -2.8422  1.8049 -2.1481
 1628SOL    HW216347   0.143   3.879   8.954  1.5280  1.2066 -0.0909
 1629SOL     OW16348   4.477   4.055  12.396  0.3479  0.4846 -0.0507
 1629SOL    HW116349   4.464   4.019  12.309  0.8642 -0.4977  0.2732
 1629SOL    HW216350   4.444   4.142  12.376 -1.0063 -0.2679 -1.0554
 1630SOL     OW16351   2.597   4.468  12.276  0.2261  0.1497 -0.2739
 1630SOL    HW116352   2.681   4.438  12.240  0.4177  1.5996 -1.0441
 1630SOL    HW216353   2.615   4.450  12.368 -2.0125  0.3795  0.2082
 1631SOL     OW16354   1.370   4.006   6.396  0.0747 -0.5118 -0.0633
 1631SOL    HW116355   1.365   3.963   6.481 -1.6447 -4.0362 -1.9162
 1631SOL    HW216356   1.463   4.001   6.374  0.5193  0.5000  1.6563
 1632SOL     OW16357   2.718   2.194   8.954  0.1102  0.9907 -0.7531
 1632SOL    HW116358   2.639   2.209   9.005  0.3199 -2.1845  0.4885
 1632SOL    HW216359   2.729   2.281   8.914 -2.4696  0.7389 -2.0283
 1633SOL     OW16360   0.158   3.336   6.402 -0.0782  0.4688  0.0995
 1633SOL    HW116361   0.216   3.267   6.370  0.8643  1.7758 -0.9695
 1633SOL    HW216362   0.118   3.291   6.477 -0.1813 -0.0387 -0.2608
 1634SOL     OW16363   4.468   2.994  12.543 -0.0679  0.0890  0.3772
 1634SOL    HW116364   4.558   3.021  12.524 -0.2113  1.0786  1.0823
 1634SOL    HW216365   4.422   3.014  12.462 -0.4173  0.2993  0.6300
 1635SOL     OW16366   3.966   0.537   5.198  0.4327 -0.0699 -0.7839
 1635SOL    HW116367   4.011   0.458   5.227  0.9834  0.0067 -1.4095
 1635SOL    HW216368   4.039   0.598   5.184 -1.2285  2.1451  0.0893
 1636SOL     OW16369   0.425   0.991  10.344 -0.1443 -0.2831 -0.2657
 1636SOL    HW116370   0.406   0.908  10.301 -0.4336 -0.2169 -0.2649
 1636SOL    HW216371   0.343   1.004  10.391  0.3567  2.3268 -0.1261
 1637SOL     OW16372   1.424   1.990  13.708  0.3904  0.6770  0.0386
 1637SOL    HW116373   1.390   1.928  13.644 -0.6041  0.3572  0.8702
 1637SOL    HW216374   1.341   2.015  13.749  0.5174  1.7345 -0.3379
 1638SOL     OW16375   1.028   1.434   2.248 -0.1128  0.3172 -0.0576
 1638SOL    HW116376   0.996   1.469   2.164  0.3952 -0.2691 -0.4958
 1638SOL    HW216377   0.963   1.465   2.310  0.3101  0.6661  0.2100
 1639SOL     OW16378   0.142   4.531  10.907  1.0245  0.4283  0.4046
 1639SOL    HW116379   0.146   4.625  10.926 -0.5683  0.9505 -1.8946
 1639SOL    HW216380   0.160   4.505  10.998  2.5461 -0.7693 -0.2587
 1640SOL     OW16381   4.691   1.115   9.474 -0.1351 -0.0184  0.4336
 1640SOL    HW116382   0.014   1.187   9.513  0.9002  0.7499 -2.2727
 1640SOL    HW216383   4.604   1.118   9.514 -1.1818 -0.4795 -1.8008
 1641SOL     OW16384   0.690   0.172   5.495 -0.0480 -0.2405  0.6219
 1641SOL    HW116385   0.654   0.088   5.523  1.8693 -1.4689 -0.5972
 1641SOL    HW216386   0.755   0.203   5.558  1.5462 -0.4809 -0.8970
 1642SOL     OW16387   2.819   0.557   5.484 -0.2707 -0.7651 -0.1783
 1642SOL    HW116388   2.912   0.559   5.507 -0.8101  2.9288  1.8221
 1642SOL    HW216389   2.785   0.613   5.554  1.6877  0.5366 -0.2614
 1643SOL     OW16390   2.877   3.991  10.964  0.3251 -0.2614 -0.3625
 1643SOL    HW116391   2.894   3.900  10.943 -1.1938 -0.7794  0.5945
 1643SOL    HW216392   2.802   3.975  11.022 -0.3195  1.9731 -0.5523
 1644SOL     OW16393   3.383   1.257  10.611  0.1086 -0.3145  0.4391
 1644SOL    HW116394   3.374   1.258  10.706  0.5278  1.1258  0.4544
 1644SOL    HW216395   3.427   1.172  10.601 -0.4932 -0.4799 -0.8010
 1645SOL     OW16396   2.481   1.440   4.566 -0.0602 -0.3192  0.7493
 1645SOL    HW116397   2.552   1.494   4.599  0.2559  0.1523 -0.7216
 1645SOL    HW216398   2.531   1.359   4.553 -0.4806 -0.6389  1.0964
 1646SOL     OW16399   2.278   1.648   5.013 -0.0220  0.6660 -0.2581
 1646SOL    HW116400   2.359   1.698   5.002  0.5998 -0.4383 -0.7838
 1646SOL    HW216401   2.317   1.564   5.039 -2.8167 -0.4753  0.2477
 1647SOL     OW16402   0.128   1.340  10.874 -0.3363 -0.5908 -0.7630
 1647SOL    HW116403   0.087   1.311  10.956  1.2495  0.3335  0.3498
 1647SOL    HW216404   0.221   1.343  10.898 -0.2013  1.8289 -1.6185
 1648SOL     OW16405   1.292   3.774   2.930  0.3658 -0.3323  0.1419
 1648SOL    HW116406   1.386   3.758   2.934  0.2230 -1.2272  0.0971
 1648SOL    HW216407   1.285   3.789   3.024  0.4012 -0.3616  0.1490
 1649SOL     OW16408   3.721   4.707   1.379 -0.2014 -0.5711  0.0500
 1649SOL    HW116409   3.663   0.053   1.405  2.0541  1.3501 -0.2263
 1649SOL    HW216410   3.714   4.709   1.284  1.3122 -1.1468 -0.0738
 1650SOL     OW16411   3.543   4.562  14.531  0.0769  0.2798  0.5859
 1650SOL    HW116412   3.633   4.594  14.539 -1.0713  2.9107  3.2177
 1650SOL    HW216413   3.552   4.474  14.494 -0.7672 -0.2088  1.5276
 1651SOL     OW16414   0.284   4.261   5.290 -0.0933  0.9221  0.3851
 1651SOL    HW116415   0.284   4.166   5.302  1.3923  0.5372 -2.5674
 1651SOL    HW216416   0.287   4.274   5.195  0.8978 -2.1365 -0.0096
 1652SOL     OW16417   3.586   1.516   9.086  0.6548 -0.0609  0.6153
 1652SOL    HW116418   3.558   1.603   9.113 -3.1556 -1.4978  1.3273
 1652SOL    HW216419   3.663   1.531   9.031  0.7658  0.7110  0.9730
 1653SOL     OW16420   2.967   1.865   8.473  0.7330 -0.3772 -0.2369
 1653SOL    HW116421   2.895   1.928   8.482  1.5448  0.7293 -1.4874
 1653SOL    HW216422   3.020   1.918   8.413  1.1945 -1.5073 -0.8200
 1654SOL     OW16423   1.972   2.686   5.909  0.2954 -0.4348  0.3918
 1654SOL    HW116424   1.910   2.719   5.845  1.2189 -0.0644 -0.3058
 1654SOL    HW216425   1.985   2.768   5.957  0.3285  1.1768 -2.3865
 1655SOL     OW16426   1.936   4.061   1.323  0.1918 -0.4138  1.3746
 1655SOL    HW116427   1.866   4.125   1.333 -0.8639 -1.4211  0.4379
 1655SOL    HW216428   1.950   4.030   1.413  1.6160  0.2208  1.3746
 1656SOL     OW16429   0.237   4.514   2.564 -0.4916 -0.1568  0.0431
 1656SOL    HW116430   0.150   4.505   2.603  0.4389  0.0418  2.1079
 1656SOL    HW216431   0.293   4.567   2.620  2.5189 -0.6465 -2.4967
 1657SOL     OW16432   3.684   2.732   3.169  0.3086  0.2621 -0.3848
 1657SOL    HW116433   3.645   2.744   3.082  0.4966 -1.7105 -0.7515
 1657SOL    HW216434   3.603   2.734   3.219  0.2995 -1.4411 -0.3250
 1658SOL     OW16435   0.121   1.188   2.000 -0.0431  0.1529  0.4583
 1658SOL    HW116436   0.189   1.243   2.038 -1.0129  1.3314  0.4956
 1658SOL    HW216437   0.050   1.244   2.033 -1.5104 -2.0177  1.0106
 1659SOL     OW16438   0.968   1.328   8.392  0.7492  0.2859 -0.0894
 1659SOL    HW116439   0.923   1.298   8.313 -1.5334 -0.0852  1.3644
 1659SOL    HW216440   1.045   1.374   8.358 -1.2116  3.4735 -0.2091
 1660SOL     OW16441   0.112   1.112  11.611 -0.1401  0.4723 -0.1492
 1660SOL    HW116442   0.178   1.043  11.618 -0.9902 -0.4472 -1.3714
 1660SOL    HW216443   0.034   1.068  11.579 -0.5837  1.4144 -0.3474
 1661SOL     OW16444   1.702   1.817   8.090  0.6586  0.5752 -0.3132
 1661SOL    HW116445   1.667   1.856   8.010  1.5654  2.4160  0.1681
 1661SOL    HW216446   1.753   1.747   8.050  2.1967  0.7427  1.3431
 1662SOL     OW16447   0.228   2.594   6.104 -0.3503 -0.1036 -0.3311
 1662SOL    HW116448   0.163   2.524   6.099 -0.5397  0.0690 -0.2541
 1662SOL    HW216449   0.170   2.669   6.106 -0.5999 -0.2296 -2.9398
 1663SOL     OW16450   2.463   3.090   2.988 -0.3144  0.3301  0.3013
 1663SOL    HW116451   2.450   2.996   2.971 -0.1425  0.6262 -1.4301
 1663SOL    HW216452   2.395   3.126   2.931 -0.1670  1.4162  0.8071
 1664SOL     OW16453   0.945   0.903   8.008  0.3022 -0.3582 -0.6216
 1664SOL    HW116454   0.876   0.884   8.071  0.3325 -0.2971 -0.5697
 1664SOL    HW216455   0.907   0.872   7.926 -0.4241 -0.3094 -0.3081
 1665SOL     OW16456   4.520   1.744   4.899  0.0571 -0.3093  0.9419
 1665SOL    HW116457   4.491   1.751   4.990 -1.1406 -1.8580  0.6675
 1665SOL    HW216458   4.454   1.684   4.866 -0.6972  0.3135  1.3230
 1666SOL     OW16459   1.183   0.374   2.650 -0.2946  0.7719  0.6444
 1666SOL    HW116460   1.164   0.335   2.736 -2.6677  1.0519  0.2429
 1666SOL    HW216461   1.224   0.460   2.660 -0.6136  0.7571  2.1935
 1667SOL     OW16462   3.944   2.154   4.546  0.1884 -0.4172  0.2542
 1667SOL    HW116463   3.851   2.172   4.558  0.2636  0.7828 -0.9507
 1667SOL    HW216464   3.947   2.070   4.592  2.1404  1.2343  3.1291
 1668SOL     OW16465   3.377   1.610  15.795  0.3177 -0.2951 -0.1961
 1668SOL    HW116466   3.359   1.539  15.733  2.5438 -0.8245 -0.2661
 1668SOL    HW216467   3.316   1.596  15.867 -1.2133  0.9630 -1.2554
 1669SOL     OW16468   4.584   4.532   3.241  0.9033  0.5469 -0.1955
 1669SOL    HW116469   4.567   4.597   3.173 -0.2109  0.7418  0.2703
 1669SOL    HW216470   4.593   4.586   3.319  1.7198 -1.3664  1.0468
 1670SOL     OW16471   2.887   0.508   4.413  0.7062 -0.3757  0.0343
 1670SOL    HW116472   2.867   0.541   4.500  1.9954  0.1718  0.1157
 1670SOL    HW216473   2.849   0.421   4.425  1.5653 -0.6344  0.8845
 1671SOL     OW16474   4.076   1.317   7.547  1.1273 -0.5974 -0.4135
 1671SOL    HW116475   4.008   1.250   7.544  0.0064  0.5375 -0.6630
 1671SOL    HW216476   4.082   1.314   7.642  0.0587  0.3073 -0.3040
 1672SOL     OW16477   2.251   2.264   7.936 -0.1349  0.7113  0.0178
 1672SOL    HW116478   2.202   2.323   7.994 -1.0859  1.7594 -1.8450
 1672SOL    HW216479   2.323   2.240   7.995 -0.0201 -1.6354 -1.0803
 1673SOL     OW16480   4.098   0.933  11.602 -0.1552 -0.1116  0.6951
 1673SOL    HW116481   4.087   0.851  11.554 -0.0609  0.5895 -0.5214
 1673SOL    HW216482   4.023   0.987  11.576 -1.3722 -1.9162  0.4796
 1674SOL     OW16483   2.524   1.866  13.851 -0.6179 -0.1616 -0.3248
 1674SOL    HW116484   2.541   1.784  13.804  2.1930 -0.2452  0.8348
 1674SOL    HW216485   2.431   1.879  13.834 -0.8633  0.8112  1.8702
 1675SOL     OW16486   3.762   0.281   5.658  0.3613  0.0143  0.0308
 1675SOL    HW116487   3.720   0.367   5.655 -0.0709 -0.1499  1.3798
 1675SOL    HW216488   3.824   0.306   5.726  0.3902  2.5203 -0.9171
 1676SOL     OW16489   0.048   3.313   7.182  1.0621  0.1792  0.6087
 1676SOL    HW116490   0.042   3.394   7.131 -0.0204 -0.2086  0.1219
 1676SOL    HW216491   4.681   3.318   7.207  0.7642  0.9634 -0.6497
 1677SOL     OW16492   3.842   1.175  10.180  0.2066  0.4897 -0.5083
 1677SOL    HW116493   3.781   1.139  10.116  0.0347 -1.0488  0.5229
 1677SOL    HW216494   3.790   1.233  10.235  1.3219  0.5487  0.4889
 1678SOL     OW16495   2.158   2.458   2.636 -0.3013  0.2650  0.1855
 1678SOL    HW116496   2.073   2.438   2.675  0.4607  1.6798  2.5712
 1678SOL    HW216497   2.207   2.457   2.718  3.4993 -0.5215 -2.0694
 1679SOL     OW16498   2.952   4.290   3.410 -0.4268  0.1021 -0.3937
 1679SOL    HW116499   2.874   4.247   3.376 -0.3174 -1.0640  0.8048
 1679SOL    HW216500   2.987   4.330   3.331  1.2919  2.0306  1.3429
 1680SOL     OW16501   3.139   1.545   6.646 -0.1327 -0.8312 -0.6926
 1680SOL    HW116502   3.099   1.503   6.570 -0.3364 -2.4074  0.2713
 1680SOL    HW216503   3.134   1.637   6.621 -1.0476 -0.6448  0.1627
 1681SOL     OW16504   3.183   4.438   1.600 -0.1790 -0.1412 -0.5901
 1681SOL    HW116505   3.239   4.493   1.545  1.8270 -1.2548  0.3324
 1681SOL    HW216506   3.095   4.472   1.584  0.3568  1.7022  0.3723
 1682SOL     OW16507   4.394   0.480   9.354 -0.7756  0.0847 -0.0982
 1682SOL    HW116508   4.310   0.434   9.355 -0.2519 -0.8598  0.4887
 1682SOL    HW216509   4.426   0.450   9.439 -0.0592 -0.5308 -0.5901
 1683SOL     OW16510   4.477   1.141   1.846 -0.5651  0.3829 -0.4010
 1683SOL    HW116511   4.514   1.213   1.897 -1.1180 -0.2813  0.9443
 1683SOL    HW216512   4.387   1.135   1.880 -0.0658  1.5516  1.1532
 1684SOL     OW16513   0.298   1.085   1.287 -0.4862 -0.3685 -0.4438
 1684SOL    HW116514   0.374   1.043   1.248 -0.0256  0.2177 -0.1706
 1684SOL    HW216515   0.226   1.050   1.234 -0.8810  0.3883 -0.4175
 1685SOL     OW16516   2.627   3.107   2.397  0.0035 -0.0534  0.0909
 1685SOL    HW116517   2.568   3.068   2.332 -0.7444  1.9535 -0.4411
 1685SOL    HW216518   2.564   3.131   2.464  0.9167  2.6686 -0.0325
 1686SOL     OW16519   3.474   1.756   8.111  0.0664  0.2796 -0.2324
 1686SOL    HW116520   3.553   1.786   8.156 -0.2203  0.4131  0.1845
 1686SOL    HW216521   3.502   1.671   8.076  1.4192  1.1699 -1.3087
 1687SOL     OW16522   2.805   2.494   7.664 -0.4878  0.0433 -0.7188
 1687SOL    HW116523   2.743   2.538   7.605  0.6930  2.2779 -0.2813
 1687SOL    HW216524   2.805   2.539   7.748 -2.9547 -0.6658 -0.3370
 1688SOL     OW16525   3.073   2.117   2.811  0.6011  0.2608 -0.1298
 1688SOL    HW116526   3.026   2.065   2.746  0.6811 -0.3315  0.2843
 1688SOL    HW216527   3.029   2.088   2.891 -0.3684 -0.1944 -0.8351
 1689SOL     OW16528   3.842   0.137  10.955 -0.2617 -0.0518  0.6005
 1689SOL    HW116529   3.929   0.099  10.941 -0.5089 -0.0514 -0.9753
 1689SOL    HW216530   3.822   0.185  10.875  0.4663 -0.3537  0.2355
 1690SOL     OW16531   0.081   0.112  10.363 -0.6947 -0.8145 -0.1943
 1690SOL    HW116532   0.127   0.141  10.284 -0.6197  0.5325  0.3533
 1690SOL    HW216533   0.103   0.187  10.418  0.0314 -0.9361 -0.3265
 1691SOL     OW16534   0.763   0.686   9.377 -0.3330 -0.4812 -0.4579
 1691SOL    HW116535   0.837   0.639   9.415 -0.3086 -1.5104 -1.7676
 1691SOL    HW216536   0.789   0.692   9.285 -0.5708  1.7322 -0.3953
 1692SOL     OW16537   2.672   1.580  14.906  0.0923  0.1923  0.6895
 1692SOL    HW116538   2.584   1.546  14.924  0.3118 -0.5485  0.3318
 1692SOL    HW216539   2.667   1.576  14.811 -1.6929 -2.1440  0.8809
 1693SOL     OW16540   0.147   3.511   4.366 -0.0778  0.2194 -0.5835
 1693SOL    HW116541   0.197   3.514   4.284 -0.2226 -0.9108 -0.7080
 1693SOL    HW216542   0.095   3.436   4.337  1.8115 -0.9888 -0.8327
 1694SOL     OW16543   2.175   3.759  12.162 -0.6291  0.3375 -0.4661
 1694SOL    HW116544   2.191   3.837  12.110  2.9272  1.8148  2.8150
 1694SOL    HW216545   2.095   3.726  12.123 -0.3960  0.9186 -1.4226
 1695SOL     OW16546   4.128   1.923   7.045  0.1077 -0.2197  0.3389
 1695SOL    HW116547   4.128   1.991   7.112  0.7109 -0.2148  0.3341
 1695SOL    HW216548   4.220   1.898   7.053  0.5703  1.9187  1.6088
 1696SOL     OW16549   2.267   0.305  11.187  0.4320 -0.6135  0.0318
 1696SOL    HW116550   2.279   0.388  11.141 -0.3570 -0.3150  0.3567
 1696SOL    HW216551   2.172   0.297  11.198  0.7553 -2.3553  1.5455
 1697SOL     OW16552   0.217   2.779   3.170  0.1260  0.4701 -1.0781
 1697SOL    HW116553   0.174   2.753   3.089 -1.2240  0.7352 -0.4559
 1697SOL    HW216554   0.299   2.800   3.125  0.3139  0.5233 -0.7145
 1698SOL     OW16555   3.562   3.477   7.509 -0.7986  0.4736 -0.5330
 1698SOL    HW116556   3.639   3.428   7.537 -0.9107  0.4104 -0.3376
 1698SOL    HW216557   3.607   3.547   7.461  2.1534 -0.4788  0.8625
 1699SOL     OW16558   4.306   0.300   6.699  0.2361  0.4846  0.6044
 1699SOL    HW116559   4.240   0.237   6.670  0.6898 -0.6118  1.9658
 1699SOL    HW216560   4.258   0.340   6.772 -1.6667  0.6987 -0.7727
 1700SOL     OW16561   1.262   3.167  12.365 -0.1649  0.3302  0.3149
 1700SOL    HW116562   1.249   3.170  12.270 -0.4291  1.8143  0.3939
 1700SOL    HW216563   1.300   3.080  12.376  0.8469  0.4549 -2.1960
 1701SOL     OW16564   1.277   4.218  13.249  0.0546  0.0021 -0.0877
 1701SOL    HW116565   1.235   4.305  13.247 -0.1432 -0.0984 -0.2979
 1701SOL    HW216566   1.204   4.158  13.265  0.1595 -0.2812 -0.6790
 1702SOL     OW16567   3.930   0.526   2.543 -0.2146 -0.3223  0.2280
 1702SOL    HW116568   3.850   0.479   2.562  0.0376 -0.8696 -0.0608
 1702SOL    HW216569   3.902   0.616   2.558  4.0932  1.3228 -1.4267
 1703SOL     OW16570   1.041   4.515   5.543  0.1641  0.1033  0.1320
 1703SOL    HW116571   0.968   4.472   5.499 -1.1516 -0.2691  2.6741
 1703SOL    HW216572   1.110   4.491   5.482  0.4122  0.6703  0.1884
 1704SOL     OW16573   1.669   0.462  17.089  0.2686  0.2718  0.1980
 1704SOL    HW116574   1.669   0.540  17.144 -1.1660  0.7391 -0.4786
 1704SOL    HW216575   1.588   0.477  17.040  1.5759  0.8668 -1.7807
 1705SOL     OW16576   3.965   4.187   2.521  0.2867  0.0894  0.1982
 1705SOL    HW116577   4.000   4.276   2.522  0.5575 -0.0176  0.1403
 1705SOL    HW216578   3.881   4.197   2.565  0.2663 -0.6884  0.3445
 1706SOL     OW16579   1.535   3.211  16.493 -0.1886  0.4852 -0.5303
 1706SOL    HW116580   1.536   3.126  16.447 -1.3070 -0.5102  1.3059
 1706SOL    HW216581   1.625   3.217  16.525  0.2923 -1.3340 -1.5268
 1707SOL     OW16582   2.214   1.911  15.571  0.4187 -0.1700 -0.2652
 1707SOL    HW116583   2.252   1.875  15.651 -1.5127  0.0643  0.7686
 1707SOL    HW216584   2.252   1.999  15.573 -2.6009  1.1489 -0.8306
 1708SOL     OW16585   4.322   2.786   3.108 -0.3597  0.4774  0.6186
 1708SOL    HW116586   4.305   2.712   3.050 -1.4018  0.1101  1.4159
 1708SOL    HW216587   4.356   2.850   3.044 -1.5854 -0.3724 -0.8701
 1709SOL     OW16588   4.416   0.608   6.423  0.4947 -0.0539 -0.0147
 1709SOL    HW116589   4.331   0.635   6.388  1.2279  1.3490 -0.7314
 1709SOL    HW216590   4.453   0.553   6.354  3.3323 -0.4492  1.8202
 1710SOL     OW16591   4.144   2.759   1.992  0.0345 -0.1497 -0.2779
 1710SOL    HW116592   4.236   2.732   1.989  0.0405  0.1323 -2.2945
 1710SOL    HW216593   4.107   2.683   2.038 -1.2214  0.7634  0.2250
 1711SOL     OW16594   2.599   2.769   7.121 -0.2417  0.1329  0.2226
 1711SOL    HW116595   2.594   2.798   7.029 -1.7188  0.8219  0.5147
 1711SOL    HW216596   2.623   2.852   7.164 -1.1534 -0.2898  1.5533
 1712SOL     OW16597   0.029   4.003  16.387  0.4604  0.2277 -0.0562
 1712SOL    HW116598   0.043   4.018  16.293  0.1470  3.7623  0.4562
 1712SOL    HW216599   0.026   4.096  16.411 -3.5398 -1.0657  4.2186
 1713SOL     OW16600   2.838   1.682  14.039 -0.3209  0.4959  0.5872
 1713SOL    HW116601   2.932   1.687  14.053 -0.3052 -0.0542  0.6770
 1713SOL    HW216602   2.808   1.728  14.118  0.1444 -1.3700  1.8394
 1714SOL     OW16603   2.442   0.840   9.427 -0.4005  0.5095  0.0678
 1714SOL    HW116604   2.347   0.842   9.430 -0.3986 -2.0623  1.7467
 1714SOL    HW216605   2.451   0.836   9.331  2.8447 -0.7003  0.4295
 1715SOL     OW16606   1.232   4.456  14.601  0.0968 -0.5538  0.4494
 1715SOL    HW116607   1.194   4.424  14.519 -1.4051 -0.0018  0.9304
 1715SOL    HW216608   1.296   4.515  14.561 -0.1746  0.1927  1.1176
 1716SOL     OW16609   4.618   4.441   7.661 -0.0555  0.2142 -0.1381
 1716SOL    HW116610   4.653   4.422   7.574  1.7914  0.5324  0.5403
 1716SOL    HW216611   4.650   4.362   7.704  1.2049 -0.1286 -1.6987
 1717SOL     OW16612   3.490   4.230  12.857 -0.0477  0.1485  0.4408
 1717SOL    HW116613   3.439   4.174  12.915 -1.8052  0.8397 -0.4361
 1717SOL    HW216614   3.519   4.290  12.925  1.0664  1.4142 -1.1412
 1718SOL     OW16615   0.719   1.603   9.139  0.3856 -0.2646 -0.7225
 1718SOL    HW116616   0.708   1.698   9.151 -0.3731 -0.6247  1.3529
 1718SOL    HW216617   0.634   1.568   9.166  0.1772  1.2905  0.6616
 1719SOL     OW16618   1.457   3.212   0.123 -0.1180  0.1640  0.2688
 1719SOL    HW116619   1.395   3.253   0.183 -1.5752 -1.2025 -0.2966
 1719SOL    HW216620   1.516   3.163   0.180 -0.2423 -1.5665 -1.0560
 1720SOL     OW16621   2.464   3.832  11.680  0.2627 -0.2159 -0.4989
 1720SOL    HW116622   2.437   3.805  11.768  3.2171 -2.3423 -0.2662
 1720SOL    HW216623   2.432   3.922  11.673  1.7170  0.2126 -1.4584
 1721SOL     OW16624   0.199   3.823   5.811  0.5839 -0.0699 -0.2226
 1721SOL    HW116625   0.207   3.856   5.900  0.4611 -1.5158  0.3240
 1721SOL    HW216626   0.160   3.898   5.765 -0.8860 -0.4662  0.3922
 1722SOL     OW16627   3.610   1.431  10.735 -0.0538 -0.0135 -0.3664
 1722SOL    HW116628   3.561   1.396  10.661  2.4010 -1.6344 -1.2265
 1722SOL    HW216629   3.676   1.486  10.693  0.3440 -1.3685 -1.5188
 1723SOL     OW16630   2.764   0.095   3.231  0.3105 -0.3742  0.5736
 1723SOL    HW116631   2.678   0.057   3.216  1.8250 -2.4575 -2.7207
 1723SOL    HW216632   2.754   0.188   3.209 -1.4113 -0.4090  1.2283
 1724SOL     OW16633   1.851   3.427   5.926  0.1554 -0.2353 -0.2117
 1724SOL    HW116634   1.935   3.385   5.908  0.7127  0.6967  0.1701
 1724SOL    HW216635   1.836   3.395   6.015 -2.1101 -1.5233 -1.0700
 1725SOL     OW16636   1.039   0.783   8.999  0.0839  0.3737 -0.1928
 1725SOL    HW116637   1.124   0.748   9.027  0.8932  1.7011 -0.9985
 1725SOL    HW216638   1.058   0.787   8.906 -1.8584  1.3468 -0.5579
 1726SOL     OW16639   2.106   0.583   4.341 -0.4502 -0.8384  0.3136
 1726SOL    HW116640   2.075   0.659   4.292  0.5376  2.7840  5.2766
 1726SOL    HW216641   2.028   0.527   4.338 -2.0383  1.4755 -0.7297
 1727SOL     OW16642   3.735   3.005   7.413  0.1874  0.3312 -0.9559
 1727SOL    HW116643   3.714   2.966   7.498  1.5701 -0.0898 -0.8105
 1727SOL    HW216644   3.661   2.970   7.363 -1.3870 -0.1355  1.6951
 1728SOL     OW16645   1.350   3.555   9.142 -0.2037 -0.2417  0.0628
 1728SOL    HW116646   1.344   3.475   9.194  0.7359  0.6338  1.5041
 1728SOL    HW216647   1.305   3.616   9.200  0.5847 -0.9612  1.4332
 1729SOL     OW16648   0.016   1.968   4.883 -0.0367 -0.2694 -0.5702
 1729SOL    HW116649   4.652   1.992   4.905  0.1590 -0.4469  0.4552
 1729SOL    HW216650   0.056   2.053   4.865  1.2645 -0.9786 -1.0804
 1730SOL     OW16651   2.675   2.243  13.004  0.1744 -0.4383  0.7804
 1730SOL    HW116652   2.632   2.325  12.981  0.9319 -0.5731 -1.1103
 1730SOL    HW216653   2.706   2.268  13.092 -1.1106 -3.1965  1.9893
 1731SOL     OW16654   4.148   2.243   3.737 -0.1802  0.4829 -0.4690
 1731SOL    HW116655   4.219   2.203   3.688 -0.4069  0.4977 -0.8085
 1731SOL    HW216656   4.165   2.213   3.827  0.0049 -0.3870 -0.7901
 1732SOL     OW16657   3.756   1.191   0.984  0.0040 -0.0715  0.3767
 1732SOL    HW116658   3.789   1.153   1.065  1.1715  0.5456  0.1931
 1732SOL    HW216659   3.835   1.171   0.933  0.2177 -1.1788  1.1543
 1733SOL     OW16660   1.167   0.382   8.411 -0.0810  0.1092  0.2424
 1733SOL    HW116661   1.091   0.395   8.354 -0.3899 -0.3791  0.5470
 1733SOL    HW216662   1.127   0.355   8.494  2.8606  0.0084  1.6226
 1734SOL     OW16663   4.664   1.255   2.225 -0.0620 -0.2456  0.1037
 1734SOL    HW116664   4.640   1.164   2.243 -2.7304  0.7041  1.4055
 1734SOL    HW216665   4.608   1.279   2.151 -2.2138 -3.0564  0.8375
 1735SOL     OW16666   0.694   4.245   3.634 -0.0649 -0.6297 -0.3643
 1735SOL    HW116667   0.628   4.184   3.600 -1.1553  1.5334 -2.1599
 1735SOL    HW216668   0.639   4.309   3.680 -0.2071 -1.6544  0.8998
 1736SOL     OW16669   3.885   2.901   9.865  0.1042  0.6797  0.5016
 1736SOL    HW116670   3.923   2.989   9.866 -1.7260  1.4963 -3.0567
 1736SOL    HW216671   3.887   2.888   9.960 -1.0841 -1.5784  0.2014
 1737SOL     OW16672   2.014   2.176   3.096  0.6413 -0.4215 -0.0379
 1737SOL    HW116673   1.978   2.247   3.043 -0.9225 -1.2839 -0.1421
 1737SOL    HW216674   2.052   2.230   3.166 -2.7570  0.8112  0.8605
 1738SOL     OW16675   3.484   4.472   0.042  0.4712 -0.3353  0.2453
 1738SOL    HW116676   3.475   4.449  17.652  1.7059  0.8056 -0.1641
 1738SOL    HW216677   3.579   4.482   0.040  0.2891  1.3381 -0.1893
 1739SOL     OW16678   3.882   1.727  11.220 -0.1321 -0.3496 -0.6653
 1739SOL    HW116679   3.970   1.720  11.183  0.4385  2.5952  0.1131
 1739SOL    HW216680   3.850   1.637  11.213 -1.7167  0.0589  1.4733
 1740SOL     OW16681   2.855   2.375   5.804 -0.1728 -0.1925 -0.8471
 1740SOL    HW116682   2.931   2.424   5.775  0.2916 -0.4249 -0.0118
 1740SOL    HW216683   2.817   2.339   5.724 -1.1603  1.3758 -1.0781
 1741SOL     OW16684   1.695   4.434  14.753 -0.2837  0.1517 -0.4698
 1741SOL    HW116685   1.787   4.432  14.726 -0.4908  0.0066 -1.1578
 1741SOL    HW216686   1.688   4.339  14.764 -1.3026  0.4391  1.3929
 1742SOL     OW16687   0.341   3.671   4.502  0.4459  0.3084  0.1782
 1742SOL    HW116688   0.287   3.621   4.440  0.2498 -2.1668  2.3769
 1742SOL    HW216689   0.323   3.759   4.469 -1.0701  0.4980  1.5058
 1743SOL     OW16690   4.131   1.949   4.055  0.7508  0.0399  0.6446
 1743SOL    HW116691   4.051   1.937   4.105  0.5089 -1.5557 -0.1433
 1743SOL    HW216692   4.133   2.045   4.057  0.5058  0.0300  1.4037
 1744SOL     OW16693   1.665   4.393   6.407 -0.1880  0.2036 -0.0394
 1744SOL    HW116694   1.706   4.352   6.332 -2.0669  1.9536 -2.0197
 1744SOL    HW216695   1.745   4.411   6.457 -1.0580  1.9787  0.7214
 1745SOL     OW16696   0.687   2.407  12.421 -0.0862  0.2107 -0.3067
 1745SOL    HW116697   0.726   2.319  12.423  0.8611  0.6702  0.9935
 1745SOL    HW216698   0.665   2.422  12.513 -0.0952  0.3648 -0.3339
 1746SOL     OW16699   0.451   1.785  17.587 -0.0502 -0.2288 -0.3090
 1746SOL    HW116700   0.497   1.865  17.611 -0.0706 -0.4841  0.5767
 1746SOL    HW216701   0.363   1.819  17.599  0.0255 -0.6313  1.4316
 1747SOL     OW16702   0.749   0.460   9.109  0.0157  0.2563  0.2146
 1747SOL    HW116703   0.654   0.453   9.119  0.1410  0.1911  1.4158
 1747SOL    HW216704   0.772   0.552   9.118  0.8762  0.0945 -0.3536
 1748SOL     OW16705   4.103   4.309   8.157  0.1637 -0.5856  0.3107
 1748SOL    HW116706   4.145   4.381   8.203  1.8041  0.1730 -2.3596
 1748SOL    HW216707   4.167   4.274   8.095  1.4849 -0.3159  1.5324
 1749SOL     OW16708   1.244   0.528  13.633 -0.4056  0.2916 -0.0304
 1749SOL    HW116709   1.245   0.579  13.714 -0.2401 -0.1226  0.2270
 1749SOL    HW216710   1.330   0.487  13.645 -0.3566  0.0621 -1.1654
 1750SOL     OW16711   4.056   0.108  11.322 -0.1279 -0.1146  0.0639
 1750SOL    HW116712   3.964   0.089  11.304  0.0813  0.4717 -1.6618
 1750SOL    HW216713   4.090   0.075  11.238 -0.6098  1.7989 -0.8818
 1751SOL     OW16714   1.284   4.594   7.377  0.0013  0.1471  0.2849
 1751SOL    HW116715   1.309   4.510   7.415  2.1968  1.2675  1.3561
 1751SOL    HW216716   1.291   4.644   7.458 -1.6166 -2.0787  1.7903
 1752SOL     OW16717   1.620   4.250   2.026  0.0738 -0.5730  0.2109
 1752SOL    HW116718   1.565   4.185   2.069  1.5993 -0.0313  3.0432
 1752SOL    HW216719   1.591   4.326   2.076 -0.0081 -0.0834 -0.5784
 1753SOL     OW16720   1.069   4.437   4.100 -0.4164  0.4660 -0.9927
 1753SOL    HW116721   1.011   4.490   4.156 -1.3120  0.8666 -2.3075
 1753SOL    HW216722   1.006   4.403   4.037 -1.9186 -0.1363  0.8310
 1754SOL     OW16723   1.129   3.134  16.943  0.9251 -0.1451  0.0990
 1754SOL    HW116724   1.182   3.120  17.022 -0.8926  0.9496  1.4986
 1754SOL    HW216725   1.155   3.057  16.892 -3.0934 -2.0780  0.9713
 1755SOL     OW16726   0.111   0.624   6.238  0.1191 -0.0255 -0.2278
 1755SOL    HW116727   0.191   0.640   6.289  0.1851 -0.6413 -0.1360
 1755SOL    HW216728   0.067   0.709   6.241  1.4612  0.5527  3.8628
 1756SOL     OW16729   1.608   3.452   4.973 -0.4522 -0.0933 -0.7276
 1756SOL    HW116730   1.689   3.459   5.024 -0.4185  0.1192 -0.8073
 1756SOL    HW216731   1.617   3.372   4.922  1.4318 -0.2607 -0.1407
 1757SOL     OW16732   0.666   1.357   7.352  0.1487  0.2043 -0.4243
 1757SOL    HW116733   0.748   1.332   7.393 -0.8368 -0.1681  1.3483
 1757SOL    HW216734   0.668   1.304   7.273 -1.1515  0.0539 -0.3622
 1758SOL     OW16735   1.075   1.048   6.839  0.3677 -0.3439  0.9720
 1758SOL    HW116736   1.110   0.973   6.886  0.9041 -1.1712 -0.7451
 1758SOL    HW216737   1.132   1.040   6.763 -1.8868 -2.0818 -0.5390
 1759SOL     OW16738   1.327   4.002   5.208 -0.6523  0.3347 -0.4164
 1759SOL    HW116739   1.306   3.913   5.182 -1.4651  0.3144  0.2788
 1759SOL    HW216740   1.417   4.004   5.241 -0.4437 -0.4588 -0.9319
 1760SOL     OW16741   1.989   4.364   8.341 -0.3805  0.3195  0.0745
 1760SOL    HW116742   1.919   4.417   8.379  0.3493  1.8199 -0.6723
 1760SOL    HW216743   2.067   4.406   8.378  0.3541  1.1621 -2.3940
 1761SOL     OW16744   3.842   4.396   5.813  0.8227  0.6349 -0.4199
 1761SOL    HW116745   3.869   4.487   5.822  1.5037  0.2545  1.3556
 1761SOL    HW216746   3.886   4.373   5.731  0.6874  0.8385 -0.5495
 1762SOL     OW16747   0.541   0.499  11.282  0.1525 -0.3436  0.2845
 1762SOL    HW116748   0.623   0.501  11.331  0.9575 -3.6302 -0.9441
 1762SOL    HW216749   0.567   0.548  11.204 -1.6918  2.6629  1.5682
 1763SOL     OW16750   2.793   1.881  10.400  0.0906 -0.0581  0.0518
 1763SOL    HW116751   2.795   1.853  10.308  1.5705 -1.8587  0.6456
 1763SOL    HW216752   2.726   1.950  10.399  0.0439 -0.1050 -0.0621
 1764SOL     OW16753   1.117   2.740   8.884  0.2221 -0.3539  0.3145
 1764SOL    HW116754   1.071   2.660   8.910  1.2087 -0.1572  2.7290
 1764SOL    HW216755   1.063   2.809   8.922 -1.2832 -0.5214 -1.5392
 1765SOL     OW16756   0.473   3.051  15.629 -0.1399  0.1457 -0.1740
 1765SOL    HW116757   0.445   3.003  15.707 -1.3456 -0.2306 -0.8342
 1765SOL    HW216758   0.414   3.025  15.557 -0.6367 -0.4884  0.4600
 1766SOL     OW16759   3.094   2.676   0.773 -0.4549 -0.1229  0.4840
 1766SOL    HW116760   3.084   2.591   0.732  0.4126 -0.8244  1.7333
 1766SOL    HW216761   3.180   2.677   0.816  0.2510 -2.6035 -0.9002
 1767SOL     OW16762   1.175   0.385   6.664  0.4699  0.0643  0.1585
 1767SOL    HW116763   1.243   0.412   6.603  0.5712  1.0354  0.6877
 1767SOL    HW216764   1.135   0.469   6.688  2.2779  0.5508  1.3967
 1768SOL     OW16765   2.949   4.211  11.116 -0.1513 -0.2314  0.4862
 1768SOL    HW116766   3.038   4.245  11.123 -0.4896  0.9668 -1.2258
 1768SOL    HW216767   2.950   4.149  11.043 -0.0294 -1.4176  1.4914
 1769SOL     OW16768   1.483   1.232  17.638  0.0338 -0.2632 -0.0268
 1769SOL    HW116769   1.573   1.219  17.668 -0.6995 -1.6795  1.5394
 1769SOL    HW216770   1.427   1.171  17.688  0.6769 -0.2762  0.6838
 1770SOL     OW16771   0.180   2.787  10.516 -0.2017  0.6219  0.0509
 1770SOL    HW116772   0.270   2.814  10.498  0.1045  0.4965  1.4449
 1770SOL    HW216773   0.183   2.795  10.611  2.6311 -0.3651  0.0664
 1771SOL     OW16774   1.355   2.763   7.630  0.4078 -0.3792  0.5996
 1771SOL    HW116775   1.286   2.782   7.566 -0.3289  0.7374  1.7110
 1771SOL    HW216776   1.432   2.802   7.589  0.4265  1.7347  2.6651
 1772SOL     OW16777   3.237   0.085   9.411  0.0271 -0.4779 -0.4728
 1772SOL    HW116778   3.236   0.109   9.503 -0.8515  0.2478 -0.6678
 1772SOL    HW216779   3.288   0.004   9.415 -0.8710 -1.0489 -0.6159
 1773SOL     OW16780   3.007   4.507   3.888  0.1253 -0.2445  0.0189
 1773SOL    HW116781   2.926   4.536   3.929 -1.6328 -2.2663 -2.0239
 1773SOL    HW216782   2.968   4.497   3.801 -1.5579 -2.1190  0.9903
 1774SOL     OW16783   3.838   1.373  16.495 -0.3618  0.2188  0.4899
 1774SOL    HW116784   3.774   1.303  16.484 -1.7334  1.4390  0.5959
 1774SOL    HW216785   3.820   1.427  16.417  0.6334 -0.5325 -0.2529
 1775SOL     OW16786   2.546   2.570   8.800  0.2434 -0.5051  0.2705
 1775SOL    HW116787   2.539   2.662   8.828 -1.8924 -1.2582  2.2355
 1775SOL    HW216788   2.635   2.551   8.827  0.4283  0.6451  0.4981
 1776SOL     OW16789   2.617   1.236   5.843 -0.0117 -0.4650  0.4622
 1776SOL    HW116790   2.589   1.294   5.914  1.8131  0.8676  0.0986
 1776SOL    HW216791   2.532   1.200   5.816  0.4346 -0.5474 -0.8442
 1777SOL     OW16792   3.329   2.472   3.500 -0.2751 -0.7135 -0.1103
 1777SOL    HW116793   3.335   2.379   3.479 -2.0480 -0.9384  0.3172
 1777SOL    HW216794   3.244   2.475   3.545 -1.0589 -1.8330 -1.5423
 1778SOL     OW16795   1.715   1.480  17.605  0.1032 -0.7468 -0.3668
 1778SOL    HW116796   1.802   1.471  17.643 -0.1537 -1.0201  0.1570
 1778SOL    HW216797   1.734   1.527  17.524 -1.1824 -1.2384 -0.9654
 1779SOL     OW16798   1.808   2.534   6.314  0.2555 -0.4424 -0.5989
 1779SOL    HW116799   1.820   2.458   6.372 -0.7437 -1.6340 -1.9670
 1779SOL    HW216800   1.847   2.606   6.363  0.4414 -1.3028  0.5324
 1780SOL     OW16801   3.494   0.223   7.782 -0.5345 -0.5295  0.1089
 1780SOL    HW116802   3.464   0.314   7.785  0.8326 -0.0673 -0.2632
 1780SOL    HW216803   3.561   0.228   7.714  0.2409 -3.4156  0.6675
 1781SOL     OW16804   0.998   4.443   6.760 -0.3830 -0.7267  0.3666
 1781SOL    HW116805   1.080   4.395   6.772  1.5256  2.4582  0.2785
 1781SOL    HW216806   1.031   4.533   6.754 -0.1737 -0.7706  0.8536
 1782SOL     OW16807   3.213   2.776   7.422 -0.0496 -0.0812 -0.1030
 1782SOL    HW116808   3.159   2.778   7.343  1.2225 -2.0480 -1.0228
 1782SOL    HW216809   3.143   2.766   7.485  1.0564 -4.4933  0.4098
 1783SOL     OW16810   3.635   4.700  12.466  0.3348 -0.2121  0.0681
 1783SOL    HW116811   3.557   4.690  12.521  0.4378  3.7427  0.9447
 1783SOL    HW216812   3.706   4.697  12.530  1.7357 -0.7633 -1.5314
 1784SOL     OW16813   2.394   2.516   4.684  0.1401  1.0061  0.0106
 1784SOL    HW116814   2.428   2.477   4.603  1.0606  1.2001  0.3018
 1784SOL    HW216815   2.480   2.541   4.717  0.5822 -1.6246  0.8006
 1785SOL     OW16816   1.476   1.925   0.340  0.3197 -0.3387  0.6158
 1785SOL    HW116817   1.492   1.915   0.246 -1.0750  2.2838  0.1096
 1785SOL    HW216818   1.410   1.857   0.355 -0.3285 -0.4931 -2.8796
 1786SOL     OW16819   4.185   3.457   5.401  0.1606 -0.4629 -0.0210
 1786SOL    HW116820   4.125   3.505   5.458  0.2438 -1.8128  1.2147
 1786SOL    HW216821   4.248   3.424   5.465 -0.2167 -2.3003 -0.5904
 1787SOL     OW16822   2.783   4.612  11.840  0.2458 -0.0656 -0.2175
 1787SOL    HW116823   2.696   4.576  11.824  0.2725 -0.1285 -0.2240
 1787SOL    HW216824   2.762   4.680  11.904  1.3836 -0.0653  0.1507
 1788SOL     OW16825   4.274   3.991   6.323 -0.1182 -0.3047  0.5624
 1788SOL    HW116826   4.259   3.984   6.417 -2.3558  0.8535  0.2896
 1788SOL    HW216827   4.265   4.084   6.302 -0.3983 -0.2250  1.0383
 1789SOL     OW16828   3.736   1.281   6.746  0.1377  0.1151 -0.4703
 1789SOL    HW116829   3.748   1.278   6.651 -1.3429 -0.3766 -0.6421
 1789SOL    HW216830   3.811   1.338   6.760 -0.0992  0.2936  0.0709
 1790SOL     OW16831   3.726   0.129  10.529  0.2277 -0.0045 -0.1928
 1790SOL    HW116832   3.648   0.127  10.584  0.6121  3.4992  0.5289
 1790SOL    HW216833   3.693   0.095  10.446  0.6825 -0.4692 -0.1853
 1791SOL     OW16834   2.468   3.075   6.280  0.2082 -0.4763 -0.5708
 1791SOL    HW116835   2.377   3.048   6.266  0.1302  0.7137 -2.4906
 1791SOL    HW216836   2.513   3.013   6.223 -0.8943 -0.9786 -0.9035
 1792SOL     OW16837   3.690   3.280   4.280  0.2880 -0.0199 -0.2021
 1792SOL    HW116838   3.765   3.221   4.267  1.0664  0.7252  0.9253
 1792SOL    HW216839   3.725   3.364   4.252  2.3082 -0.5143  0.8330
 1793SOL     OW16840   0.210   0.579  12.479 -0.4596  0.3637  0.6722
 1793SOL    HW116841   0.244   0.504  12.527 -0.0218 -0.5933 -1.1256
 1793SOL    HW216842   0.189   0.557  12.388  0.1083 -2.1852  1.1478
 1794SOL     OW16843   0.969   1.641   5.249 -0.2074  0.5426  0.2498
 1794SOL    HW116844   0.974   1.547   5.232 -3.0407  0.7417 -1.6284
 1794SOL    HW216845   0.905   1.651   5.319 -0.9400  1.3905 -0.5350
 1795SOL     OW16846   2.289   0.439   9.195  0.1390  0.0380  0.1538
 1795SOL    HW116847   2.252   0.395   9.271 -1.7924  0.2546 -0.6560
 1795SOL    HW216848   2.378   0.463   9.222  0.8524 -2.4270  0.0510
 1796SOL     OW16849   0.049   2.289   9.895 -0.0506  0.0316 -0.0019
 1796SOL    HW116850   0.047   2.303   9.989 -1.1955 -0.9438  0.1362
 1796SOL    HW216851   0.026   2.375   9.861 -0.8487  0.0336  0.5383
 1797SOL     OW16852   2.031   3.945  10.726  0.4110 -0.1163  0.2164
 1797SOL    HW116853   2.050   3.855  10.699  0.2077 -0.1126  0.0574
 1797SOL    HW216854   1.966   3.977  10.664  0.6161 -1.7079 -0.8042
 1798SOL     OW16855   1.248   2.825   6.271 -0.4798 -0.0525 -0.3521
 1798SOL    HW116856   1.178   2.787   6.324 -0.7296 -1.8513 -1.9939
 1798SOL    HW216857   1.210   2.913   6.265  1.5765  0.7403 -1.7995
 1799SOL     OW16858   4.169   0.961  14.954  0.3581 -0.1107 -0.1660
 1799SOL    HW116859   4.205   0.987  14.869  2.2530 -4.1317 -0.5790
 1799SOL    HW216860   4.148   0.869  14.939  0.8472  0.2399 -3.0232
 1800SOL     OW16861   3.977   3.974   6.608  0.0122 -0.7105  0.3697
 1800SOL    HW116862   4.061   3.955   6.567  0.1071  0.0953  0.1925
 1800SOL    HW216863   3.989   3.938   6.696 -0.9745  0.2748  0.9033
 1801SOL     OW16864   2.937   0.509   9.830  0.2466  0.3983  0.6060
 1801SOL    HW116865   2.881   0.571   9.877 -1.2322 -0.3019 -0.2232
 1801SOL    HW216866   2.987   0.476   9.905  0.7374  0.0046  0.0979
 1802SOL     OW16867   2.347   0.895   3.416  1.2378 -0.0492 -0.4559
 1802SOL    HW116868   2.304   0.892   3.502 -0.0830 -1.8073 -1.1613
 1802SOL    HW216869   2.357   0.988   3.395  0.0159  0.1485 -0.2113
 1803SOL     OW16870   0.344   1.057  17.467 -0.1896 -0.2579  0.4417
 1803SOL    HW116871   0.394   1.139  17.457  0.6607 -0.8505 -0.1923
 1803SOL    HW216872   0.332   1.059  17.562 -1.2593 -2.9896  0.3433
 1804SOL     OW16873   3.340   3.694  16.201  0.2063  0.6943  0.1694
 1804SOL    HW116874   3.387   3.748  16.264  1.0053 -0.8206  0.8712
 1804SOL    HW216875   3.361   3.606  16.232  1.0801  0.9024  0.1664
 1805SOL     OW16876   3.831   4.117   5.300  0.0162  0.0303 -0.3808
 1805SOL    HW116877   3.807   4.094   5.210 -0.7995 -1.3273  0.1860
 1805SOL    HW216878   3.748   4.150   5.334  0.3314  1.6444 -1.1451
 1806SOL     OW16879   1.754   4.634   6.787  0.3627  0.0107  0.0897
 1806SOL    HW116880   1.732   4.561   6.844 -0.7902 -0.4926 -1.0038
 1806SOL    HW216881   1.677   4.628   6.731  0.6923 -0.3835 -0.3292
 1807SOL     OW16882   2.132   3.756   4.223  0.3019  0.2224 -0.1133
 1807SOL    HW116883   2.175   3.799   4.150 -0.7478 -1.8877 -1.9672
 1807SOL    HW216884   2.160   3.812   4.295 -1.1526 -0.0418  0.6547
 1808SOL     OW16885   3.468   3.357   3.047  0.5221  0.9071  0.5731
 1808SOL    HW116886   3.393   3.356   2.987  1.2387 -4.1169 -0.2538
 1808SOL    HW216887   3.479   3.268   3.080 -0.7967  0.7027  0.4789
 1809SOL     OW16888   3.197   4.080   9.106 -0.5283 -0.2150  0.3869
 1809SOL    HW116889   3.255   4.156   9.107 -0.9528  0.1113  0.3503
 1809SOL    HW216890   3.258   4.007   9.102  1.4996  1.5201 -0.3990
 1810SOL     OW16891   4.208   3.665   0.898  0.2540  0.4011 -0.3149
 1810SOL    HW116892   4.256   3.735   0.943  3.2265 -2.5513  1.0748
 1810SOL    HW216893   4.121   3.704   0.907 -0.5661 -1.8606  1.4978
 1811SOL     OW16894   3.738   1.127  14.834  1.1698  0.4424  0.0913
 1811SOL    HW116895   3.704   1.074  14.761  3.3782 -0.6742 -0.1242
 1811SOL    HW216896   3.798   1.061  14.869 -0.1243 -0.5411  0.4556
 1812SOL     OW16897   3.035   4.479   5.224  0.2327 -0.2011 -0.2078
 1812SOL    HW116898   3.105   4.432   5.180  0.1733 -1.2955  0.8670
 1812SOL    HW216899   2.998   4.498   5.138 -2.1009  0.6051  0.9823
 1813SOL     OW16900   4.035   1.311   4.482  0.3945  0.1031  0.1292
 1813SOL    HW116901   4.082   1.352   4.554  0.1850 -0.7161  0.7275
 1813SOL    HW216902   4.076   1.224   4.479 -1.4843 -0.7077 -2.6180
 1814SOL     OW16903   4.092   2.316   5.232 -0.0943  0.4021  0.0601
 1814SOL    HW116904   4.003   2.308   5.197 -0.4624 -1.6617  1.4603
 1814SOL    HW216905   4.120   2.393   5.183  2.7880 -0.3470  0.5350
 1815SOL     OW16906   4.522   2.506   0.852 -0.9289  0.4119  0.6401
 1815SOL    HW116907   4.470   2.569   0.901 -1.9841  0.8729 -1.0437
 1815SOL    HW216908   4.573   2.562   0.794  0.1332  0.3191  1.5053
 1816SOL     OW16909   2.683   0.396   3.622 -0.5416  0.3282  0.0059
 1816SOL    HW116910   2.611   0.334   3.632 -0.1628 -0.2260 -0.6740
 1816SOL    HW216911   2.648   0.440   3.545  0.0185  0.6209 -0.0830
 1817SOL     OW16912   2.723   1.663  12.034  0.2535 -0.0158  0.4327
 1817SOL    HW116913   2.759   1.669  11.946  1.9065 -0.4893  1.0850
 1817SOL    HW216914   2.777   1.719  12.091 -1.7198  1.5456  0.7743
 1818SOL     OW16915   2.409   0.639   3.347 -0.2019 -0.1301  0.0504
 1818SOL    HW116916   2.414   0.733   3.363 -2.1190  0.0302 -0.2709
 1818SOL    HW216917   2.349   0.618   3.419 -1.8641  6.5545  0.5656
 1819SOL     OW16918   3.493   2.629   3.649 -0.0089  0.2086 -0.0355
 1819SOL    HW116919   3.548   2.600   3.577 -0.9193 -1.0713 -0.2182
 1819SOL    HW216920   3.416   2.581   3.617 -1.0064  0.7807  1.5203
 1820SOL     OW16921   1.102   1.621  17.258 -0.0643  0.3254 -0.0591
 1820SOL    HW116922   1.052   1.610  17.177 -1.4910  0.2335  0.8371
 1820SOL    HW216923   1.110   1.530  17.285  0.2657 -0.0704 -1.5065
 1821SOL     OW16924   0.085   3.867   3.855  0.7880  0.4308 -0.4222
 1821SOL    HW116925   0.045   3.848   3.940 -0.0304  0.0089 -0.9011
 1821SOL    HW216926   0.017   3.838   3.795  1.5338 -0.5238 -0.7970
 1822SOL     OW16927   2.760   1.487  12.628 -1.0438 -0.8294 -0.2436
 1822SOL    HW116928   2.698   1.414  12.628 -0.2412 -1.5209  0.8964
 1822SOL    HW216929   2.710   1.559  12.590  0.2965  1.1543  1.6916
 1823SOL     OW16930   1.935   4.190  11.845 -0.0870 -0.4780 -0.2652
 1823SOL    HW116931   1.916   4.170  11.937  0.2186 -2.6140 -0.6791
 1823SOL    HW216932   1.989   4.269  11.845 -0.2997 -0.3345 -0.5064
 1824SOL     OW16933   1.923   3.993   6.225  0.0462  0.0051 -0.0881
 1824SOL    HW116934   1.978   3.986   6.303 -2.0619 -0.6991  1.3533
 1824SOL    HW216935   1.963   3.931   6.164 -0.7067 -0.2193 -0.3557
 1825SOL     OW16936   0.455   0.188   7.077 -0.0298 -0.1725 -0.3452
 1825SOL    HW116937   0.381   0.162   7.022 -0.8988 -1.6446  1.5182
 1825SOL    HW216938   0.454   0.118   7.143  0.2364  0.3883  0.2478
 1826SOL     OW16939   1.843   0.693   9.540 -0.0199 -0.5527 -0.3007
 1826SOL    HW116940   1.835   0.622   9.476 -0.6233  0.1435 -0.9949
 1826SOL    HW216941   1.764   0.689   9.594 -1.4032 -3.5884 -2.6019
 1827SOL     OW16942   0.562   2.528  17.311  0.1423  0.1243  0.4897
 1827SOL    HW116943   0.604   2.531  17.397 -0.2841 -0.1162  0.7111
 1827SOL    HW216944   0.563   2.434  17.294  0.2852  0.5276 -1.7222
 1828SOL     OW16945   1.541   3.498   3.110 -0.4096  0.1789  0.3382
 1828SOL    HW116946   1.604   3.428   3.090  1.1460  2.0494 -1.3125
 1828SOL    HW216947   1.548   3.515   3.204  0.0115 -0.2680  0.3881
 1829SOL     OW16948   2.951   4.360   4.417 -0.2886  0.2174  0.1362
 1829SOL    HW116949   3.031   4.410   4.403 -1.1732  1.9765  1.2821
 1829SOL    HW216950   2.889   4.430   4.437 -0.9506 -0.2064 -0.4641
 1830SOL     OW16951   0.210   0.372   7.131 -0.3425  0.2691  0.6787
 1830SOL    HW116952   0.185   0.292   7.084  1.2014 -0.3608  0.9379
 1830SOL    HW216953   0.225   0.325   7.213 -1.7862 -1.9209 -0.3015
 1831SOL     OW16954   0.431   2.342   6.868  0.2326 -0.3364 -0.2045
 1831SOL    HW116955   0.464   2.425   6.833 -2.0974  0.6270 -0.0866
 1831SOL    HW216956   0.419   2.348   6.963 -4.2107 -0.8594 -0.7304
 1832SOL     OW16957   4.586   2.574   7.327  0.7541  0.0477 -0.0784
 1832SOL    HW116958   4.627   2.497   7.367  2.1647  0.6487 -0.3672
 1832SOL    HW216959   4.496   2.545   7.314  0.4339  1.5338 -1.1547
 1833SOL     OW16960   1.591   2.365  14.502 -0.4645 -0.4157  0.2763
 1833SOL    HW116961   1.669   2.418  14.514 -1.2191  1.0878 -1.3010
 1833SOL    HW216962   1.600   2.298  14.569  1.1940  0.8392  1.2946
 1834SOL     OW16963   0.072   3.464   7.839 -0.4571  0.1679  0.0475
 1834SOL    HW116964   4.707   3.458   7.869 -0.2783  4.0131  1.2809
 1834SOL    HW216965   0.110   3.384   7.878 -0.5304  0.9895  1.8237
 1835SOL     OW16966   0.518   2.436  16.040  0.4255  0.1755 -0.0479
 1835SOL    HW116967   0.522   2.379  15.963 -3.9862 -0.5335  0.2420
 1835SOL    HW216968   0.431   2.469  16.017  1.0353  3.3313  2.2719
 1836SOL     OW16969   0.407   0.318   6.715 -0.2544  0.2660  0.7156
 1836SOL    HW116970   0.457   0.344   6.638  1.6050  0.5164  1.9956
 1836SOL    HW216971   0.480   0.288   6.769 -1.7391 -2.2078  1.3634
 1837SOL     OW16972   0.993   1.052   7.686  0.1559 -0.0928  0.3780
 1837SOL    HW116973   1.066   1.025   7.630  0.4196  1.0329  0.1698
 1837SOL    HW216974   0.995   0.973   7.741 -0.1860  0.3019  0.9535
 1838SOL     OW16975   2.643   3.335   7.668 -0.5023  0.4791 -0.7569
 1838SOL    HW116976   2.632   3.249   7.630  1.1712  0.3218 -0.8803
 1838SOL    HW216977   2.692   3.313   7.747  0.3066 -0.6328 -1.5758
 1839SOL     OW16978   2.886   2.514  11.501  0.5945 -0.0854 -0.2344
 1839SOL    HW116979   2.845   2.448  11.556 -0.7628  1.5048  0.6642
 1839SOL    HW216980   2.977   2.505  11.528  0.4094 -2.8935 -0.4952
 1840SOL     OW16981   4.093   0.493   6.501 -0.4404 -0.8124  0.2188
 1840SOL    HW116982   4.104   0.512   6.594  2.2589 -0.0712 -0.2693
 1840SOL    HW216983   4.053   0.406   6.505 -3.3932  0.3747 -3.2571
 1841SOL     OW16984   4.334   2.187   2.315 -0.0077 -0.3598 -0.1000
 1841SOL    HW116985   4.293   2.193   2.229 -0.4969 -0.6990  0.1092
 1841SOL    HW216986   4.299   2.260   2.366  0.8508 -0.4575  0.6312
 1842SOL     OW16987   0.191   2.800  10.817  0.3542  0.1037 -0.8859
 1842SOL    HW116988   0.214   2.708  10.832 -0.9658 -0.3084 -1.3868
 1842SOL    HW216989   0.278   2.839  10.828  0.1843  0.0638  0.6886
 1843SOL     OW16990   1.350   4.125   0.953 -0.0661  0.7192  0.0018
 1843SOL    HW116991   1.262   4.159   0.939 -0.0015  0.7955 -0.2215
 1843SOL    HW216992   1.313   4.058   1.009  3.0209 -0.3523  0.7693
 1844SOL     OW16993   1.582   0.228   8.437  0.1042  0.1376 -0.3698
 1844SOL    HW116994   1.670   0.214   8.472  0.0108 -0.3367 -0.3172
 1844SOL    HW216995   1.542   0.207   8.522  0.8536 -1.3724 -0.3831
 1845SOL     OW16996   4.558   3.515   7.506  0.1173 -0.2451  0.2916
 1845SOL    HW116997   4.505   3.539   7.431 -1.2850  0.1252  1.4054
 1845SOL    HW216998   4.620   3.588   7.510  1.0784 -1.0083 -0.4853
 1846SOL     OW16999   4.532   1.437  14.279  0.0416  0.3202 -0.1817
 1846SOL    HW117000   4.577   1.424  14.363  1.2364  6.3250  0.0685
 1846SOL    HW217001   4.581   1.384  14.216 -0.4286  0.5202 -0.7089
 1847SOL     OW17002   1.574   4.468   2.200  0.0212 -0.1973  0.3928
 1847SOL    HW117003   1.502   4.469   2.263  0.7198  0.4810  1.1669
 1847SOL    HW217004   1.646   4.502   2.253 -1.1286  2.2285  0.4281
 1848SOL     OW17005   1.814   2.569   3.796 -0.5793 -0.0253 -0.0057
 1848SOL    HW117006   1.768   2.651   3.814  1.0786  0.8683  0.1108
 1848SOL    HW217007   1.781   2.514   3.867 -1.1626  0.1997 -0.0959
 1849SOL     OW17008   3.573   3.414   9.197  0.1312  0.3008  0.8530
 1849SOL    HW117009   3.555   3.341   9.257  0.9331 -1.1210 -0.6450
 1849SOL    HW217010   3.483   3.437   9.171  0.4883  0.6954 -0.0278
 1850SOL     OW17011   3.460   0.365  17.085  0.4715  0.0585 -0.1183
 1850SOL    HW117012   3.440   0.300  17.153  1.0290 -1.7723 -1.7007
 1850SOL    HW217013   3.409   0.436  17.125  0.4991  0.4271 -0.7411
 1851SOL     OW17014   0.788   4.058  12.301 -0.8987  0.3556 -0.2546
 1851SOL    HW117015   0.713   4.001  12.321 -1.3037  1.3310  0.9938
 1851SOL    HW217016   0.777   4.070  12.207  0.1556 -2.1780 -0.7082
 1852SOL     OW17017   3.806   2.586   3.843 -0.4841  0.8106  0.9016
 1852SOL    HW117018   3.738   2.566   3.779 -1.7063  1.1397  2.0973
 1852SOL    HW217019   3.797   2.680   3.853 -2.6450  0.6488  0.3751
 1853SOL     OW17020   1.307   1.131   4.029  0.0201  0.0224 -0.0353
 1853SOL    HW117021   1.328   1.221   4.054  3.2399 -0.6168 -0.3521
 1853SOL    HW217022   1.357   1.112   3.949 -0.3220 -2.1807  0.2875
 1854SOL     OW17023   4.609   0.977  11.499  0.0014 -0.1388  0.1104
 1854SOL    HW117024   4.611   1.067  11.467 -1.4273  0.6312  2.2209
 1854SOL    HW217025   4.520   0.957  11.471  0.8029 -2.6148 -0.7681
 1855SOL     OW17026   2.695   1.594   7.703  0.1715  0.1201  0.2240
 1855SOL    HW117027   2.686   1.654   7.777 -2.2406 -1.2118  0.9899
 1855SOL    HW217028   2.623   1.627   7.650  1.0944 -0.9028 -1.6660
 1856SOL     OW17029   1.213   3.397  16.776  0.1928  0.4397 -0.0320
 1856SOL    HW117030   1.246   3.420  16.689  0.4117  1.8303  0.4092
 1856SOL    HW217031   1.297   3.387  16.820  1.1409 -2.5003 -2.5406
 1857SOL     OW17032   2.690   2.529   5.084 -0.5129 -0.3909 -0.2954
 1857SOL    HW117033   2.656   2.512   5.171  0.0191 -0.6264 -0.1353
 1857SOL    HW217034   2.660   2.452   5.035 -1.8191  0.0833 -0.2370
 1858SOL     OW17035   1.343   2.495   8.700 -0.0238 -0.2241 -0.4594
 1858SOL    HW117036   1.333   2.402   8.685  1.2906 -0.6593  1.3209
 1858SOL    HW217037   1.430   2.502   8.741 -0.9404  0.5601  1.3677
 1859SOL     OW17038   1.348   0.291   1.572  0.0538 -0.1786  0.3430
 1859SOL    HW117039   1.297   0.370   1.584 -1.4267 -0.9728 -0.7363
 1859SOL    HW217040   1.300   0.247   1.501 -1.7570 -1.2714  2.2512
 1860SOL     OW17041   4.306   2.491   2.815  0.6235 -0.1408  0.0599
 1860SOL    HW117042   4.357   2.567   2.843 -2.0410  0.6964  2.5376
 1860SOL    HW217043   4.225   2.504   2.863  1.6141 -0.4427  1.8129
 1861SOL     OW17044   4.711   1.371   9.241  0.1139  0.2069  0.2427
 1861SOL    HW117045   4.627   1.407   9.268  0.3376 -0.0288  1.2712
 1861SOL    HW217046   0.037   1.451   9.233  0.8822 -0.2115  0.8881
 1862SOL     OW17047   2.594   3.375   1.909 -0.1061  0.2009  0.5164
 1862SOL    HW117048   2.526   3.335   1.855  0.8554  1.7049 -1.8283
 1862SOL    HW217049   2.651   3.401   1.836 -0.7037  1.3348  0.4508
 1863SOL     OW17050   1.282   2.705   6.762  0.4187  0.0207  0.4011
 1863SOL    HW117051   1.287   2.643   6.835 -0.2520 -1.9545 -1.2274
 1863SOL    HW217052   1.278   2.791   6.804 -0.7362  0.4443 -0.5631
 1864SOL     OW17053   3.873   0.172   0.415 -0.2995  0.2044  0.7473
 1864SOL    HW117054   3.879   0.267   0.426  0.0309  0.0002  2.3845
 1864SOL    HW217055   3.783   0.154   0.388  1.4441 -0.4697 -4.5479
 1865SOL     OW17056   0.394   4.051  10.294  0.2706  0.1723  0.3067
 1865SOL    HW117057   0.356   4.133  10.323  1.9158  1.1888 -0.4081
 1865SOL    HW217058   0.327   4.021  10.232  1.3022 -1.1393 -0.1751
 1866SOL     OW17059   4.442   0.132   6.105 -0.1158  0.6105 -0.2828
 1866SOL    HW117060   4.392   0.193   6.051  0.7290  1.0426 -0.5700
 1866SOL    HW217061   4.401   0.141   6.191 -1.0228  2.1144 -0.8778
 1867SOL     OW17062   3.393   1.275  10.892 -0.0846 -0.0298  0.8269
 1867SOL    HW117063   3.358   1.233  10.970 -0.8523  1.6935  1.4150
 1867SOL    HW217064   3.483   1.283  10.925  0.3280 -2.7268  0.3488
 1868SOL     OW17065   4.608   4.262   5.942 -0.0270 -0.4532 -0.3191
 1868SOL    HW117066   4.574   4.234   5.857 -0.1556  2.5786 -1.2325
 1868SOL    HW217067   4.530   4.238   5.992 -0.6071 -0.7929 -1.3910
 1869SOL     OW17068   3.381   0.238   5.973  0.1581 -0.3854  0.5031
 1869SOL    HW117069   3.467   0.273   5.997 -0.1055  2.2018 -2.3786
 1869SOL    HW217070   3.352   0.299   5.905 -0.1933 -0.4966  0.5493
 1870SOL     OW17071   1.622   0.513   9.115  0.1929  0.4481  0.4166
 1870SOL    HW117072   1.713   0.527   9.091  0.0456 -1.9100 -1.5171
 1870SOL    HW217073   1.586   0.582   9.059 -2.0072 -0.4665  0.6988
 1871SOL     OW17074   4.132   0.744   6.392 -0.0126 -0.2272  0.3735
 1871SOL    HW117075   4.094   0.744   6.304  0.3583 -2.8715  0.2034
 1871SOL    HW217076   4.098   0.659   6.421  0.6758 -0.9267 -0.8955
 1872SOL     OW17077   2.931   1.374   2.746  0.0199  0.7269  0.0897
 1872SOL    HW117078   2.910   1.329   2.665  1.7480 -1.1595  0.6793
 1872SOL    HW217079   3.016   1.339   2.773  0.3981  1.0580 -0.6619
 1873SOL     OW17080   4.009   0.138   5.558  0.0212 -1.5475 -0.0311
 1873SOL    HW117081   3.940   0.165   5.497 -0.4952 -2.9456 -0.0675
 1873SOL    HW217082   4.087   0.193   5.545 -1.4735  0.9418  1.5490
 1874SOL     OW17083   1.452   0.573   9.312  0.5279  0.0550  0.0750
 1874SOL    HW117084   1.426   0.482   9.298  0.7718  0.1758 -1.2229
 1874SOL    HW217085   1.521   0.588   9.247 -0.7270 -1.9525 -1.6910
 1875SOL     OW17086   0.882   0.277   6.005  0.5053 -0.3304  0.1467
 1875SOL    HW117087   0.804   0.298   5.953 -1.2236  1.3191  3.3865
 1875SOL    HW217088   0.853   0.265   6.095  2.1528  0.0952  0.7356
 1876SOL     OW17089   0.974   0.123   3.542 -0.2440  0.2307  0.0017
 1876SOL    HW117090   1.041   0.092   3.603  0.4757 -0.7490 -1.2711
 1876SOL    HW217091   1.033   0.146   3.470  0.2761  0.4207  0.4850
 1877SOL     OW17092   4.409   1.254   0.695  0.3361 -0.2540  0.2927
 1877SOL    HW117093   4.458   1.324   0.652  0.6398  0.0449  1.1242
 1877SOL    HW217094   4.470   1.222   0.762  0.7115  0.4142  0.2701
 1878SOL     OW17095   1.198   3.141   6.604 -0.0094  0.2457 -0.0690
 1878SOL    HW117096   1.293   3.132   6.597  0.3013  1.1936  2.6227
 1878SOL    HW217097   1.191   3.218   6.660 -1.3585 -0.6758  1.0647
 1879SOL     OW17098   4.026   0.027   2.810  0.2321 -0.1500 -0.6181
 1879SOL    HW117099   3.959   0.029   2.742  1.4017 -0.7638 -1.7865
 1879SOL    HW217100   3.980   4.701   2.876  0.1972 -0.5830 -0.9801
 1880SOL     OW17101   2.017   2.645   2.900 -0.0646 -0.4506  0.8861
 1880SOL    HW117102   2.038   2.734   2.871 -0.9223  0.1086  2.0174
 1880SOL    HW217103   2.100   2.622   2.942  0.8102 -0.3969 -0.8109
 1881SOL     OW17104   4.274   3.580   7.686 -1.1406 -0.3807 -0.4803
 1881SOL    HW117105   4.331   3.564   7.611 -1.0163  1.6115 -0.8003
 1881SOL    HW217106   4.192   3.598   7.640 -1.4990 -3.4406 -1.0736
 1882SOL     OW17107   4.333   2.813   0.695 -0.6136 -0.0194 -0.1887
 1882SOL    HW117108   4.295   2.768   0.620  0.3441 -2.1745  0.6269
 1882SOL    HW217109   4.271   2.799   0.767 -0.8913  0.3984 -0.3457
 1883SOL     OW17110   2.334   1.779   3.904 -0.0284  0.4088 -0.3936
 1883SOL    HW117111   2.259   1.811   3.952  0.2986 -0.6401  0.8013
 1883SOL    HW217112   2.283   1.750   3.828 -0.1761 -1.1235  0.2788
 1884SOL     OW17113   3.887   3.859   6.264  0.2241  0.1791  0.1611
 1884SOL    HW117114   3.971   3.874   6.220 -0.4913 -0.3400 -1.3677
 1884SOL    HW217115   3.846   3.945   6.271  1.2193  0.4279  2.8163
 1885SOL     OW17116   2.131   0.351   2.628  0.6486  0.3704 -0.2032
 1885SOL    HW117117   2.151   0.372   2.536 -1.5135 -1.4415 -1.0643
 1885SOL    HW217118   2.039   0.375   2.625  0.1578 -1.7035 -1.5567
 1886SOL     OW17119   3.290   4.123   1.716  0.0576 -0.3897 -0.1534
 1886SOL    HW117120   3.323   4.208   1.743  1.6854 -1.0557 -0.0532
 1886SOL    HW217121   3.288   4.136   1.621 -1.3399 -1.0796 -0.2319
 1887SOL     OW17122   4.263   3.013   1.936 -0.4743  0.3515 -0.2499
 1887SOL    HW117123   4.223   2.926   1.938  1.8715 -0.6798  3.4599
 1887SOL    HW217124   4.201   3.064   1.989 -1.1338 -0.4594 -0.2360
 1888SOL     OW17125   0.379   0.245  16.672 -0.2610 -0.3880  0.2413
 1888SOL    HW117126   0.326   0.201  16.738  0.0689  0.7979  1.2940
 1888SOL    HW217127   0.363   0.339  16.683  1.3515 -0.0888  0.1129
 1889SOL     OW17128   2.980   4.549   8.608  0.5159  0.2778  0.1524
 1889SOL    HW117129   3.042   4.480   8.630 -0.1478 -0.1406  0.7484
 1889SOL    HW217130   3.040   4.621   8.592  1.3748  0.1288  2.6555
 1890SOL     OW17131   2.832   1.297   9.138 -0.0243  0.3596  0.0364
 1890SOL    HW117132   2.745   1.301   9.176 -0.1418  0.9969 -0.3145
 1890SOL    HW217133   2.873   1.380   9.162  1.4491 -0.5517  0.6625
 1891SOL     OW17134   0.915   4.417  13.970 -0.1046  0.0453 -0.4225
 1891SOL    HW117135   0.970   4.481  14.015  0.2435  0.5605 -1.6140
 1891SOL    HW217136   0.968   4.340  13.992  2.4382  1.5573 -1.3254
 1892SOL     OW17137   0.781   2.354   6.892  0.3893 -0.7806 -0.3612
 1892SOL    HW117138   0.718   2.425   6.886  2.1276  0.6895 -1.3518
 1892SOL    HW217139   0.833   2.365   6.812  0.8363  3.8143  0.5881
 1893SOL     OW17140   0.870   2.989   4.589  0.0606 -0.2105  0.0753
 1893SOL    HW117141   0.901   2.902   4.562 -0.6803 -0.1585 -0.9393
 1893SOL    HW217142   0.794   3.003   4.533  0.7108 -0.6509 -0.9119
 1894SOL     OW17143   4.655   0.691  17.643 -0.3032  0.2957  0.3482
 1894SOL    HW117144   4.675   0.776  17.605  0.0932  0.4753  0.9528
 1894SOL    HW217145   4.602   0.653  17.574 -0.0982  0.4075  0.1296
 1895SOL     OW17146   1.293   3.266   1.996  0.0336 -0.3184  0.1235
 1895SOL    HW117147   1.344   3.347   1.987  1.3804 -1.4146 -2.0623
 1895SOL    HW217148   1.250   3.250   1.912 -0.5325 -1.0018  0.5408
 1896SOL     OW17149   4.105   3.245   6.734 -0.3715  0.2621 -0.1267
 1896SOL    HW117150   4.151   3.161   6.729  1.3876  1.1702  0.7626
 1896SOL    HW217151   4.097   3.274   6.643 -0.6625  0.1691 -0.1309
 1897SOL     OW17152   0.841   3.494   8.884  0.2059  0.2610 -0.1370
 1897SOL    HW117153   0.822   3.509   8.791 -0.8196  2.0560  0.3647
 1897SOL    HW217154   0.757   3.509   8.928 -0.4232 -1.1702 -0.8444
 1898SOL     OW17155   4.201   1.980   1.912 -0.0677 -0.2076 -0.5181
 1898SOL    HW117156   4.153   2.059   1.886 -1.0490  0.5259  3.4839
 1898SOL    HW217157   4.250   1.969   1.831  1.4882 -1.3554  0.5884
 1899SOL     OW17158   3.391   1.533   8.420  0.1965  0.4075  0.3171
 1899SOL    HW117159   3.319   1.595   8.409 -0.6917 -0.6113  0.3617
 1899SOL    HW217160   3.465   1.591   8.437  1.0434 -0.2697 -0.9735
 1900SOL     OW17161   3.030   2.387   5.323 -0.7993 -0.6209  0.2302
 1900SOL    HW117162   3.055   2.331   5.397 -1.0375 -1.1809 -0.1129
 1900SOL    HW217163   2.960   2.443   5.355  1.4069  1.1596  1.9515
 1901SOL     OW17164   4.326   2.325   8.245 -0.1990 -0.4019  0.0220
 1901SOL    HW117165   4.282   2.323   8.330  2.3824  1.0274  1.3983
 1901SOL    HW217166   4.257   2.293   8.188  0.6252 -0.2895 -1.0361
 1902SOL     OW17167   2.815   3.559   6.618  0.2520 -0.0061  0.1681
 1902SOL    HW117168   2.871   3.605   6.556 -0.0522  0.9091  0.5672
 1902SOL    HW217169   2.741   3.535   6.562  1.5501 -0.9195 -1.1760
 1903SOL     OW17170   1.095   1.011  11.230 -0.1278  0.5914 -0.2609
 1903SOL    HW117171   1.163   1.007  11.163 -0.1035 -1.0829 -0.1460
 1903SOL    HW217172   1.117   1.091  11.278 -2.9502  0.7006  0.8219
 1904SOL     OW17173   4.039   1.998  14.288 -0.3286 -0.1018  0.7466
 1904SOL    HW117174   4.090   1.928  14.248 -0.7482  1.0092 -1.7350
 1904SOL    HW217175   3.997   2.033  14.209  3.8550 -1.5016 -2.1077
 1905SOL     OW17176   3.767   2.222   8.626  0.3404  0.0922  0.0101
 1905SOL    HW117177   3.805   2.282   8.689 -0.4125  0.2950  0.2750
 1905SOL    HW217178   3.674   2.236   8.644  0.0067  0.1737 -1.7621
 1906SOL     OW17179   0.804   0.260   3.009 -0.0924  0.0437  0.0346
 1906SOL    HW117180   0.781   0.287   3.098 -0.7753  1.9742 -0.7338
 1906SOL    HW217181   0.797   0.166   3.027  1.3592 -0.3779 -1.5717
 1907SOL     OW17182   3.935   4.072  10.622 -0.6190  0.1501 -0.0515
 1907SOL    HW117183   3.856   4.122  10.603 -0.0685  0.5537 -1.2728
 1907SOL    HW217184   3.895   3.990  10.651  1.6914 -0.3205  1.8098
 1908SOL     OW17185   1.431   1.167   2.277 -0.6712  0.0940 -0.1647
 1908SOL    HW117186   1.405   1.082   2.311  0.1155  0.0072  0.2162
 1908SOL    HW217187   1.344   1.207   2.282 -0.8355 -0.4346  1.1542
 1909SOL     OW17188   2.551   0.069   2.284 -0.5774  0.3255 -0.6566
 1909SOL    HW117189   2.494   0.076   2.361  0.8066  1.1062  0.3006
 1909SOL    HW217190   2.616   0.137   2.300  0.4737 -1.0835  1.0561
 1910SOL     OW17191   0.355   3.623   7.071 -1.3676 -0.1204 -0.3193
 1910SOL    HW117192   0.364   3.527   7.068  1.2225  0.1628 -2.0783
 1910SOL    HW217193   0.321   3.629   7.160 -0.9425 -0.2357 -0.1473
 1911SOL     OW17194   0.172   4.487   8.998  0.6156  0.0343  0.2745
 1911SOL    HW117195   0.085   4.488   8.958  0.3241  0.2458  0.9278
 1911SOL    HW217196   0.140   4.455   9.082  1.0023 -1.1007 -0.0164
 1912SOL     OW17197   4.093   1.632   4.316  0.6709 -0.1080  0.3207
 1912SOL    HW117198   4.184   1.603   4.311  1.2647  2.3119 -2.9920
 1912SOL    HW217199   4.055   1.593   4.237  4.2490 -0.7809 -1.0552
 1913SOL     OW17200   2.774   4.391   9.214  0.7014  0.1692 -0.1239
 1913SOL    HW117201   2.705   4.369   9.151  1.6206  0.5778 -1.2841
 1913SOL    HW217202   2.724   4.411   9.293 -0.8804 -0.7962 -0.8688
 1914SOL     OW17203   3.864   1.046  11.553 -0.0293 -0.1967 -0.5215
 1914SOL    HW117204   3.793   0.993  11.516 -0.4630 -0.9043  1.3228
 1914SOL    HW217205   3.812   1.121  11.579  1.6818  0.2615  1.6311
 1915SOL     OW17206   0.091   1.025   2.375  0.1597 -0.4324  0.0214
 1915SOL    HW117207   0.165   1.010   2.317 -0.3810  0.0205 -0.7860
 1915SOL    HW217208   0.021   1.006   2.313 -0.5889  1.7533  0.1974
 1916SOL     OW17209   3.495   1.788   9.744 -0.3151 -0.5074 -0.2112
 1916SOL    HW117210   3.583   1.803   9.777 -1.1897  0.0775  1.9184
 1916SOL    HW217211   3.486   1.857   9.678  0.0589 -1.0639 -0.8380
 1917SOL     OW17212   1.399   0.605   1.413 -0.1338 -0.2669  0.0755
 1917SOL    HW117213   1.386   0.556   1.332  0.3825 -2.9743  1.6522
 1917SOL    HW217214   1.488   0.640   1.402 -0.5336  0.0758 -2.1341
 1918SOL     OW17215   0.142   3.880   8.286 -0.4404 -0.0348  0.2853
 1918SOL    HW117216   0.072   3.926   8.239  2.1210 -0.1378 -3.6629
 1918SOL    HW217217   0.222   3.919   8.250  0.2086 -0.0667  1.6886
 1919SOL     OW17218   1.867   2.672   1.756 -0.0450  0.1014  0.2448
 1919SOL    HW117219   1.856   2.636   1.844  1.8726  0.1147  0.4979
 1919SOL    HW217220   1.850   2.763   1.782 -0.5637  0.2655 -0.6598
 1920SOL     OW17221   3.363   2.269   7.064 -0.4095  0.3095 -0.2923
 1920SOL    HW117222   3.375   2.284   7.157 -2.5032 -3.0268  0.5151
 1920SOL    HW217223   3.276   2.230   7.063 -0.7648  1.1609 -1.7794
 1921SOL     OW17224   0.390   3.362   1.827  0.1427 -0.4308  0.4739
 1921SOL    HW117225   0.467   3.310   1.806 -0.8619 -1.6474 -0.2265
 1921SOL    HW217226   0.418   3.403   1.909 -2.5904  0.7022  0.8454
 1922SOL     OW17227   3.099   0.941   3.271 -0.5282 -0.5452 -0.5155
 1922SOL    HW117228   3.026   0.883   3.290 -1.1076  0.4019  0.1708
 1922SOL    HW217229   3.082   0.971   3.182 -1.7513  1.5615  0.4346
 1923SOL     OW17230   1.618   1.142  13.094  0.2563  0.2240  0.5895
 1923SOL    HW117231   1.639   1.228  13.057  0.0997  0.4156  0.9473
 1923SOL    HW217232   1.618   1.090  13.013 -0.3517  0.0555  0.6966
 1924SOL     OW17233   3.169   1.184   1.263 -0.2278 -0.4272  0.3550
 1924SOL    HW117234   3.229   1.123   1.305  2.5424  1.0721 -1.4369
 1924SOL    HW217235   3.216   1.265   1.243  0.8138 -1.1058  0.0376
 1925SOL     OW17236   1.085   4.601   2.026 -0.2697 -0.5619 -0.2558
 1925SOL    HW117237   1.170   4.584   2.067  0.7069  1.0444 -1.6388
 1925SOL    HW217238   1.027   4.600   2.102  0.0183 -2.1607 -0.0506
 1926SOL     OW17239   3.590   0.631   3.931  0.2644  0.4297  0.6539
 1926SOL    HW117240   3.675   0.625   3.973  1.7339  1.3766 -2.2437
 1926SOL    HW217241   3.540   0.614   4.012 -0.3893  2.1859  0.6235
 1927SOL     OW17242   1.261   2.753   4.034  0.4131 -0.4676 -0.3618
 1927SOL    HW117243   1.318   2.754   4.111  0.8029  1.6870 -0.6848
 1927SOL    HW217244   1.193   2.693   4.063  0.0626 -0.6935 -1.6229
 1928SOL     OW17245   3.423   3.583   9.532  0.3215  0.0060  0.4516
 1928SOL    HW117246   3.510   3.597   9.572  1.1405  0.3454 -1.4525
 1928SOL    HW217247   3.432   3.657   9.473  0.4095  1.7140  2.5950
 1929SOL     OW17248   4.564   4.500  10.191 -0.4649  0.4830 -0.5965
 1929SOL    HW117249   4.520   4.585  10.189 -0.1956  0.6491  0.8750
 1929SOL    HW217250   4.657   4.520  10.195 -0.3594 -0.4504  1.4965
 1930SOL     OW17251   0.973   1.624   1.217 -0.5169 -0.4019  0.0088
 1930SOL    HW117252   1.033   1.604   1.288  0.1670 -0.6133 -0.6277
 1930SOL    HW217253   0.888   1.598   1.252 -0.4181  1.5625  1.7019
 1931SOL     OW17254   2.138   2.431   4.096  0.1125 -0.3650  0.2978
 1931SOL    HW117255   2.186   2.466   4.172 -0.5457 -1.5913  1.2886
 1931SOL    HW217256   2.124   2.514   4.052 -1.3053 -0.2211  1.0292
 1932SOL     OW17257   1.179   2.241   7.198 -0.0815 -0.1354  0.6403
 1932SOL    HW117258   1.115   2.273   7.135  2.2841 -0.3786 -1.8725
 1932SOL    HW217259   1.256   2.284   7.163  0.3071 -1.4231 -0.0859
 1933SOL     OW17260   0.924   0.704  16.293  0.3237 -0.5651 -0.7049
 1933SOL    HW117261   0.833   0.711  16.320 -0.0209  0.0941 -2.0114
 1933SOL    HW217262   0.924   0.702  16.197  0.2624  1.8253 -0.7501
 1934SOL     OW17263   2.872   1.269   3.006  0.0391  0.4906 -0.7102
 1934SOL    HW117264   2.884   1.299   2.916  2.5999  0.4947 -0.3573
 1934SOL    HW217265   2.890   1.352   3.049  2.1776 -1.2198  1.6858
 1935SOL     OW17266   0.609   4.072   7.461  1.0502 -0.5883  0.2745
 1935SOL    HW117267   0.598   3.981   7.434  0.8976 -0.0567 -1.4930
 1935SOL    HW217268   0.526   4.100   7.422 -0.2021 -1.6779  2.1487
 1936SOL     OW17269   0.964   1.203   9.080  0.1899 -0.2146  0.1642
 1936SOL    HW117270   0.895   1.246   9.030  1.7501  1.1872 -0.7624
 1936SOL    HW217271   0.936   1.112   9.073  0.0218 -0.1944  0.5385
 1937SOL     OW17272   3.555   2.136  14.377 -0.4779  0.1389  0.3818
 1937SOL    HW117273   3.582   2.224  14.403 -1.3864  0.8467 -1.0467
 1937SOL    HW217274   3.628   2.080  14.405 -0.2670 -0.1008 -0.6297
 1938SOL     OW17275   2.480   2.146   6.679 -0.7277  0.5952 -0.1638
 1938SOL    HW117276   2.432   2.064   6.684  1.3100 -0.5461  0.8106
 1938SOL    HW217277   2.559   2.108   6.639 -0.7769 -1.8788  2.1393
 1939SOL     OW17278   4.447   2.361   4.718 -0.0987  0.2564 -0.7577
 1939SOL    HW117279   4.374   2.382   4.660 -0.8241  0.5734  0.2733
 1939SOL    HW217280   4.443   2.441   4.769 -1.6615  0.8946 -1.8762
 1940SOL     OW17281   2.242   0.387   8.457 -0.3542  0.8512  0.9435
 1940SOL    HW117282   2.237   0.475   8.494  1.7099  1.0138  0.8398
 1940SOL    HW217283   2.181   0.335   8.510  1.1144 -0.1831  1.6312
 1941SOL     OW17284   4.719   2.563   9.718  0.5340  0.1318  0.6704
 1941SOL    HW117285   0.043   2.623   9.661 -0.3583 -0.0624 -0.2976
 1941SOL    HW217286   4.629   2.578   9.691  0.5956  0.2396  0.5224
 1942SOL     OW17287   1.071   2.438  15.578  0.0880 -0.4628 -0.3084
 1942SOL    HW117288   1.054   2.495  15.504  0.4435  0.6008  0.4235
 1942SOL    HW217289   1.166   2.428  15.578  0.1887  0.4969  0.3854
 1943SOL     OW17290   2.298   2.984  15.468  0.0576  0.3835 -0.7812
 1943SOL    HW117291   2.345   2.956  15.389 -0.5771 -0.1577 -0.9729
 1943SOL    HW217292   2.356   3.054  15.497  0.1660 -0.5760  1.2705
 1944SOL     OW17293   0.443   1.471   0.196  0.0209  0.0258 -0.0401
 1944SOL    HW117294   0.534   1.497   0.204 -0.1576  1.3437 -2.2433
 1944SOL    HW217295   0.408   1.504   0.279 -0.4724 -0.6438  0.0132
 1945SOL     OW17296   3.454   4.504   8.468 -0.1656 -0.3058  0.9910
 1945SOL    HW117297   3.412   4.580   8.427  1.2737 -0.0648 -0.0547
 1945SOL    HW217298   3.535   4.494   8.417 -0.4310  1.5128  0.2099
 1946SOL     OW17299   0.787   1.049   1.428 -0.6395 -0.1105  0.4320
 1946SOL    HW117300   0.854   1.117   1.431  0.2651 -0.8907 -1.3708
 1946SOL    HW217301   0.722   1.093   1.481 -0.9603  1.9811 -1.6968
 1947SOL     OW17302   4.303   2.757   6.343 -0.1542  0.0556 -0.7750
 1947SOL    HW117303   4.269   2.669   6.330 -1.3909  0.7185 -1.9987
 1947SOL    HW217304   4.352   2.784   6.265  0.9810 -0.2419 -0.1703
 1948SOL     OW17305   0.367   3.834   3.305  0.8585 -0.1369  0.0838
 1948SOL    HW117306   0.443   3.819   3.249  0.6207 -1.1961  0.0439
 1948SOL    HW217307   0.302   3.766   3.288  1.0428 -0.4605  0.6988
 1949SOL     OW17308   0.473   4.534  10.458  0.1983 -0.6650  0.6257
 1949SOL    HW117309   0.426   4.452  10.445  0.8642 -0.4771 -2.8915
 1949SOL    HW217310   0.516   4.517  10.542 -1.6415  2.0761  2.1674
 1950SOL     OW17311   4.691   0.851   6.199  0.1089 -0.5525  0.4803
 1950SOL    HW117312   4.643   0.926   6.162  0.4165 -0.5508  0.0810
 1950SOL    HW217313   4.716   0.898   6.278  0.2782 -2.0167  1.2939
 1951SOL     OW17314   2.392   2.004   7.507  0.6003  0.2901 -0.7296
 1951SOL    HW117315   2.352   2.089   7.492  0.3614  0.0985 -1.1785
 1951SOL    HW217316   2.477   2.030   7.544  1.1593 -0.7481 -1.2607
 1952SOL     OW17317   2.911   0.882  16.006  0.0869  0.1118 -0.0410
 1952SOL    HW117318   2.846   0.892  15.936  2.6721 -0.0979 -2.4810
 1952SOL    HW217319   2.952   0.800  15.978 -3.4183 -1.6283 -0.0897
 1953SOL     OW17320   0.989   2.091   1.623  0.3196  0.8632  0.5746
 1953SOL    HW117321   1.072   2.052   1.651 -0.1020  0.8936  1.8651
 1953SOL    HW217322   1.022   2.145   1.551  2.0345 -0.4200  0.3861
 1954SOL     OW17323   3.228   1.231   3.247 -0.4532 -0.3250  0.6207
 1954SOL    HW117324   3.165   1.160   3.262  0.5470 -0.7787  2.6346
 1954SOL    HW217325   3.241   1.206   3.156 -0.7568  0.1649  0.4411
 1955SOL     OW17326   1.086   0.297  11.410  0.0285  0.0470 -0.8720
 1955SOL    HW117327   1.151   0.246  11.458 -2.5195 -1.9109  0.4880
 1955SOL    HW217328   1.054   0.224  11.357  0.7598  0.0586 -1.3383
 1956SOL     OW17329   2.206   4.599  12.036 -0.1698  0.8509 -0.3936
 1956SOL    HW117330   2.267   4.605  12.109 -1.6326 -3.1364  1.1544
 1956SOL    HW217331   2.255   4.645  11.968 -2.7679  2.0264 -1.4730
 1957SOL     OW17332   3.499   3.843   0.572  0.3939  0.4784 -0.0219
 1957SOL    HW117333   3.522   3.898   0.497  2.1198  1.0066  0.8850
 1957SOL    HW217334   3.502   3.907   0.643  2.2380 -0.6336  0.9042
 1958SOL     OW17335   1.459   3.151   2.997 -0.3658  0.0434  0.4174
 1958SOL    HW117336   1.447   3.233   2.949 -0.7925 -0.5072 -0.4133
 1958SOL    HW217337   1.373   3.108   3.004  0.9166 -2.2206  2.3303
 1959SOL     OW17338   2.617   0.427   6.896 -0.4756  0.0198  0.1289
 1959SOL    HW117339   2.537   0.462   6.935 -1.7496 -1.3919 -1.2125
 1959SOL    HW217340   2.614   0.332   6.913 -0.8547  0.0146  0.0369
 1960SOL     OW17341   1.723   0.572   5.522 -0.1792  0.4741 -0.3186
 1960SOL    HW117342   1.775   0.539   5.448 -2.3700 -0.8757 -1.2275
 1960SOL    HW217343   1.644   0.519   5.516  1.3205 -1.8329  0.3891
 1961SOL     OW17344   0.725   1.805   3.249  0.0847 -0.5073 -0.0396
 1961SOL    HW117345   0.811   1.841   3.269 -0.0436  0.1251 -0.6310
 1961SOL    HW217346   0.680   1.828   3.330 -1.4133 -1.3451 -0.6288
 1962SOL     OW17347   3.631   0.181   2.813 -0.8427 -0.7134 -0.5670
 1962SOL    HW117348   3.690   0.249   2.847 -1.6635  0.4866 -1.5232
 1962SOL    HW217349   3.608   0.237   2.739 -0.2210  0.7360  0.3269
 1963SOL     OW17350   2.521   4.495  11.086  0.1131  0.7245 -0.2048
 1963SOL    HW117351   2.612   4.478  11.060  0.2000 -2.9410  2.4218
 1963SOL    HW217352   2.478   4.424  11.038 -0.3262  1.1018 -0.3620
 1964SOL     OW17353   3.953   2.180   7.448  0.7243 -0.1975 -0.0324
 1964SOL    HW117354   3.956   2.275   7.457  0.6897 -0.1204 -0.7773
 1964SOL    HW217355   3.910   2.164   7.532  1.4309 -1.2401  0.1219
 1965SOL     OW17356   4.651   4.267  16.461 -0.1252  0.0623  0.3596
 1965SOL    HW117357   4.564   4.246  16.494  1.0486 -1.6923  2.3328
 1965SOL    HW217358   4.673   4.343  16.515  0.9506  0.3708 -0.5065
 1966SOL     OW17359   0.987   0.488   1.455 -0.3438  0.0192  0.3096
 1966SOL    HW117360   0.964   0.567   1.407 -0.8691 -1.9689 -2.7480
 1966SOL    HW217361   0.924   0.489   1.526  1.3591 -0.4898  1.8384
 1967SOL     OW17362   0.664   1.376   2.051 -0.1281 -0.0848  0.2775
 1967SOL    HW117363   0.727   1.447   2.062 -0.4879  0.1589  0.7636
 1967SOL    HW217364   0.594   1.408   2.108 -0.1526 -2.2841  1.4838
 1968SOL     OW17365   1.983   0.722   5.225 -0.2172  0.0926  0.7327
 1968SOL    HW117366   2.016   0.792   5.167  1.1663 -0.5988  0.6752
 1968SOL    HW217367   1.899   0.756   5.255  0.8273  0.5438  3.0994
 1969SOL     OW17368   0.475   0.479   9.166  0.0566  0.4250 -0.5826
 1969SOL    HW117369   0.415   0.550   9.186 -0.2477  0.4939 -1.7766
 1969SOL    HW217370   0.416   0.414   9.129  0.5328 -0.4728  0.2359
 1970SOL     OW17371   3.306   1.587   0.916 -0.2228 -0.4774  0.0669
 1970SOL    HW117372   3.341   1.610   0.830  0.0884  0.4198  0.4298
 1970SOL    HW217373   3.279   1.676   0.941 -0.0624 -1.0965  2.4514
 1971SOL     OW17374   4.095   2.522   9.400  0.3092 -0.3802 -0.6394
 1971SOL    HW117375   4.051   2.486   9.477 -0.4815  0.6427 -0.6151
 1971SOL    HW217376   4.059   2.610   9.391  1.3678 -0.0717 -1.9278
 1972SOL     OW17377   0.958   1.622   3.089 -0.1325  1.0856 -0.0526
 1972SOL    HW117378   1.033   1.578   3.049  1.3761  1.0333  2.8441
 1972SOL    HW217379   0.978   1.611   3.182 -1.2255  1.9509  0.2869
 1973SOL     OW17380   2.655   1.402  16.434  0.1196 -0.1691 -0.1731
 1973SOL    HW117381   2.652   1.417  16.339 -1.1414  2.4019  0.2588
 1973SOL    HW217382   2.634   1.493  16.457  0.1600 -0.2782  0.2956
 1974SOL     OW17383   4.018   1.214   5.394  0.0317  0.2693  0.1341
 1974SOL    HW117384   3.941   1.268   5.408 -0.1111  0.0880  0.0443
 1974SOL    HW217385   3.985   1.128   5.419  0.4881 -0.1978 -0.8548
 1975SOL     OW17386   2.322   3.570   5.300  0.0865  0.0552 -0.2037
 1975SOL    HW117387   2.265   3.614   5.362  0.3295 -0.9948  0.7564
 1975SOL    HW217388   2.408   3.596   5.332  0.4459  0.8119 -1.7888
 1976SOL     OW17389   3.042   4.262   2.605  0.0064 -0.0890 -0.1786
 1976SOL    HW117390   2.995   4.196   2.656  0.5821  1.4401  2.3317
 1976SOL    HW217391   2.967   4.299   2.558 -0.3332  0.3167  0.6782
 1977SOL     OW17392   0.964   2.798   6.601 -0.4487  0.0978  0.0783
 1977SOL    HW117393   0.943   2.831   6.514 -2.1184  0.2785  0.5510
 1977SOL    HW217394   0.998   2.882   6.632  0.7080  0.3750 -1.9303
 1978SOL     OW17395   2.820   1.040   2.771  0.3172 -0.0259  0.0538
 1978SOL    HW117396   2.778   1.079   2.695 -2.9654  0.0273  1.8776
 1978SOL    HW217397   2.851   0.958   2.733  1.9321  0.2218  0.8771
 1979SOL     OW17398   2.038   0.221   3.254 -0.2232 -0.2334 -0.1297
 1979SOL    HW117399   2.094   0.289   3.292  1.6319 -1.1816 -1.1472
 1979SOL    HW217400   2.097   0.146   3.248  2.0148  1.4583  0.4781
 1980SOL     OW17401   2.293   1.927   3.097 -0.0053  1.0469 -0.0021
 1980SOL    HW117402   2.198   1.924   3.087 -0.0533  1.5167  0.3155
 1980SOL    HW217403   2.316   1.862   3.030 -3.0367 -0.1434  0.1281
 1981SOL     OW17404   0.029   4.518   5.972  0.1649 -0.3631 -0.5307
 1981SOL    HW117405   4.711   4.434   5.988  0.6632 -0.5346 -0.1027
 1981SOL    HW217406   4.718   4.574   6.039  0.8885 -1.7721  1.0332
 1982SOL     OW17407   4.096   1.249   7.831 -0.1191  0.3414 -0.2511
 1982SOL    HW117408   4.177   1.238   7.881 -0.2490 -0.3227 -0.1864
 1982SOL    HW217409   4.058   1.162   7.840  2.8485 -0.8989  0.1580
 1983SOL     OW17410   0.515   1.994   4.737 -0.5750  0.9040 -0.4448
 1983SOL    HW117411   0.537   2.028   4.825 -0.6367 -1.1102  0.3411
 1983SOL    HW217412   0.446   1.930   4.753  0.9261 -0.5198  0.2728
 1984SOL     OW17413   0.320   1.233   6.051 -0.3940 -0.1816  0.1067
 1984SOL    HW117414   0.264   1.237   5.973 -1.0370  1.4018  0.6431
 1984SOL    HW217415   0.334   1.327   6.064 -3.6447  0.2825  0.3262
 1985SOL     OW17416   3.693   4.382   4.269  0.1927  0.4117 -0.1684
 1985SOL    HW117417   3.632   4.330   4.216  0.7897 -1.2726  0.8021
 1985SOL    HW217418   3.641   4.389   4.349 -0.7643  0.4020 -0.7942
 1986SOL     OW17419   4.143   4.065   3.565 -0.3984  0.3659 -0.0831
 1986SOL    HW117420   4.128   4.118   3.643 -0.3921  1.0102 -0.5254
 1986SOL    HW217421   4.082   4.110   3.507  1.0611 -0.2012 -2.0581
 1987SOL     OW17422   0.256   4.282   4.259 -0.6697 -0.2536  0.2612
 1987SOL    HW117423   0.272   4.197   4.217  1.3926 -0.8589  2.2954
 1987SOL    HW217424   0.184   4.267   4.320 -0.8835 -1.2318 -0.2262
 1988SOL     OW17425   3.219   1.014   9.544  0.0344  0.5314 -0.0108
 1988SOL    HW117426   3.202   0.926   9.578  0.3761  0.6963  0.5911
 1988SOL    HW217427   3.135   1.043   9.509 -0.3629 -1.5532 -0.7740
 1989SOL     OW17428   0.712   3.840   6.146 -0.6291 -0.2427 -0.1167
 1989SOL    HW117429   0.699   3.782   6.221  3.5186 -2.5408 -1.1832
 1989SOL    HW217430   0.804   3.828   6.122 -0.1429 -3.1087  3.1279
 1990SOL     OW17431   1.119   4.611   7.091 -0.0929  0.1690 -0.0379
 1990SOL    HW117432   1.152   4.616   7.180 -2.8581  2.1598  0.8849
 1990SOL    HW217433   1.069   4.529   7.089 -1.7917  1.1807  1.0286
 1991SOL     OW17434   3.665   1.181   4.118 -0.0418 -0.1444 -0.1768
 1991SOL    HW117435   3.685   1.209   4.029 -0.8516  0.2270 -0.2420
 1991SOL    HW217436   3.721   1.235   4.174  2.6063 -1.5558 -1.4985
 1992SOL     OW17437   2.122   1.122   3.074 -0.1562 -0.2288 -0.0476
 1992SOL    HW117438   2.118   1.050   3.011  2.4174  1.0988 -1.7447
 1992SOL    HW217439   2.036   1.160   3.056  0.1209 -0.0846 -1.0860
 1993SOL     OW17440   0.056   0.217   8.668 -0.3097  0.7201  0.2384
 1993SOL    HW117441   4.697   0.181   8.640  0.3322 -1.2729  0.8487
 1993SOL    HW217442   0.100   0.136   8.695  0.2190  0.5684 -1.0677
 1994SOL     OW17443   3.192   3.794   4.386 -0.0166 -0.2576 -0.3190
 1994SOL    HW117444   3.099   3.789   4.407  0.5459  2.2660  2.9755
 1994SOL    HW217445   3.219   3.854   4.457  0.8889  0.4182 -1.2338
 1995SOL     OW17446   1.422   4.044   3.726  0.7173 -0.3349  0.6046
 1995SOL    HW117447   1.422   3.997   3.643  2.1113  1.1543 -0.2326
 1995SOL    HW217448   1.344   4.099   3.723  1.4032  0.6871  1.3041
 1996SOL     OW17449   3.012   3.135   2.762  0.0202  0.1847  0.1773
 1996SOL    HW117450   2.993   3.228   2.770 -1.3817 -0.1780  0.9853
 1996SOL    HW217451   2.925   3.103   2.739  0.6166 -1.0990 -0.2754
 1997SOL     OW17452   3.425   2.693   4.378 -0.3426 -0.1630  0.2661
 1997SOL    HW117453   3.448   2.779   4.412  1.5930  0.4552 -2.6515
 1997SOL    HW217454   3.373   2.719   4.302  0.6795  0.2312 -0.2950
 1998SOL     OW17455   3.616   0.395   2.064 -0.4984  0.2088  0.7548
 1998SOL    HW117456   3.696   0.403   2.011 -0.0404 -0.6550  1.3225
 1998SOL    HW217457   3.540   0.398   2.005 -1.1460 -1.4655  1.5184
 1999SOL     OW17458   1.894   3.748  16.557  0.5018 -0.0488  0.3981
 1999SOL    HW117459   1.971   3.778  16.606  1.9373 -2.8177 -0.1841
 1999SOL    HW217460   1.940   3.755  16.473 -1.2338  1.6329 -0.4120
 2000SOL     OW17461   1.762   0.605   1.446  0.5924  0.0898  0.4180
 2000SOL    HW117462   1.700   0.556   1.499  1.2482 -1.6340 -0.4157
 2000SOL    HW217463   1.759   0.690   1.491  0.1024  0.3795 -0.1540
 2001SOL     OW17464   3.043   2.725   7.628 -0.5609 -0.4776 -0.1407
 2001SOL    HW117465   3.063   2.771   7.709  0.4122 -1.2295  0.0506
 2001SOL    HW217466   3.000   2.645   7.658  0.7239 -0.7596  0.9530
 2002SOL     OW17467   1.629   4.267   7.589 -0.1806  0.1628 -0.2408
 2002SOL    HW117468   1.639   4.357   7.558 -1.9023  0.6018  0.5112
 2002SOL    HW217469   1.536   4.245   7.585 -0.3120  0.0137  3.4688
 2003SOL     OW17470   2.443   3.977  12.478  0.3383  0.3286 -0.5339
 2003SOL    HW117471   2.424   4.026  12.559  0.7706  1.5810 -1.1931
 2003SOL    HW217472   2.537   3.959  12.489  0.3491  0.6214 -0.1629
 2004SOL     OW17473   1.599   1.902   3.391  0.0861 -0.3783  0.2596
 2004SOL    HW117474   1.607   1.881   3.484  0.0489  2.9250  0.9892
 2004SOL    HW217475   1.517   1.951   3.396  1.6970  2.4025 -0.7476
 2005SOL     OW17476   3.520   4.654   5.930 -0.2325  0.2051  0.1272
 2005SOL    HW117477   3.470   4.657   5.848  1.5542 -0.2039 -0.9757
 2005SOL    HW217478   3.605   4.696   5.917 -1.2191  1.6112 -1.7182
 2006SOL     OW17479   1.488   4.102   4.972  0.1035  0.1173 -0.0172
 2006SOL    HW117480   1.479   4.022   4.921  0.1401  0.3777 -0.4259
 2006SOL    HW217481   1.449   4.081   5.057  1.9669 -0.4369  0.7079
 2007SOL     OW17482   1.675   2.473   2.527 -0.3197 -0.2208  0.0757
 2007SOL    HW117483   1.656   2.510   2.441  0.0889 -3.7193 -1.5271
 2007SOL    HW217484   1.718   2.546   2.569  0.7731 -0.2377 -1.0151
 2008SOL     OW17485   3.294   1.841   6.532 -0.1978 -0.3505  0.0977
 2008SOL    HW117486   3.244   1.905   6.582  0.1870 -0.0796  0.1310
 2008SOL    HW217487   3.381   1.867   6.561  0.7947 -1.4011 -1.9504
 2009SOL     OW17488   1.002   1.252   1.662  0.0853 -0.1384  0.0370
 2009SOL    HW117489   1.017   1.347   1.658  0.1903 -0.2060 -1.1366
 2009SOL    HW217490   0.994   1.232   1.569  1.4242 -1.6110  0.2375
 2010SOL     OW17491   4.256   1.521   7.576 -0.6754 -0.3050 -0.3311
 2010SOL    HW117492   4.319   1.456   7.544 -0.8851 -0.4610 -0.4301
 2010SOL    HW217493   4.178   1.471   7.552 -0.1083 -0.6678 -1.4178
 2011SOL     OW17494   2.180   1.256   4.890 -0.3004  0.4521 -0.0411
 2011SOL    HW117495   2.250   1.191   4.885 -3.2492 -2.7609  0.2915
 2011SOL    HW217496   2.128   1.234   4.968  0.1532 -1.4788 -0.2777
 2012SOL     OW17497   2.472   1.824   7.311 -0.4948 -0.0756  0.0677
 2012SOL    HW117498   2.442   1.896   7.366  1.0631  0.4124  0.2779
 2012SOL    HW217499   2.545   1.862   7.263  0.3952 -1.4471  0.3322
 2013SOL     OW17500   4.095   2.889  17.486  0.3055  0.1334 -0.0676
 2013SOL    HW117501   4.086   2.844  17.402 -1.2231  0.2349  0.0318
 2013SOL    HW217502   4.147   2.824  17.533  0.7092  0.0402 -0.6361
 2014SOL     OW17503   3.199   1.088   3.833  0.1058 -0.4354 -0.2953
 2014SOL    HW117504   3.165   1.147   3.766 -1.0097 -0.1759  0.5024
 2014SOL    HW217505   3.293   1.083   3.815 -0.2690 -2.6781 -1.5374
 2015SOL     OW17506   3.679   1.217  16.906 -0.4371 -0.0492 -0.3435
 2015SOL    HW117507   3.643   1.171  16.830 -0.5446  0.4168 -0.5816
 2015SOL    HW217508   3.664   1.157  16.978  0.3360 -0.6146 -0.6587
 2016SOL     OW17509   0.521   0.567   6.827  0.6804  0.0685  0.2531
 2016SOL    HW117510   0.429   0.562   6.801  0.0883  1.7180  2.0612
 2016SOL    HW217511   0.507   0.571   6.921 -0.6211 -1.6818  0.1370
 2017SOL     OW17512   3.778   2.828   8.327 -0.5803 -0.1972  0.4221
 2017SOL    HW117513   3.860   2.808   8.282 -0.5596 -0.0137  0.3782
 2017SOL    HW217514   3.791   2.922   8.340 -0.3373 -0.1509 -0.1996
 2018SOL     OW17515   2.679   0.139   6.910  0.2894 -0.1526 -0.1352
 2018SOL    HW117516   2.773   0.151   6.897  0.5755 -1.9945  0.2536
 2018SOL    HW217517   2.683   0.096   6.996 -0.9069 -0.2293 -0.1296
 2019SOL     OW17518   4.167   3.581   6.294  0.2048  0.3847 -0.0183
 2019SOL    HW117519   4.234   3.612   6.232  3.1026 -0.6090  2.6036
 2019SOL    HW217520   4.127   3.513   6.240 -0.6608  0.1436  0.9276
 2020SOL     OW17521   0.355   0.787   9.209  0.2339  0.3064 -0.2054
 2020SOL    HW117522   0.301   0.865   9.193 -0.2878 -0.0002  0.0380
 2020SOL    HW217523   0.437   0.825   9.240 -0.1339  3.9147 -3.7400
 2021SOL     OW17524   0.962   1.797  14.193  0.5520 -0.6694 -0.2273
 2021SOL    HW117525   1.022   1.812  14.120 -0.6730 -0.3891 -1.1700
 2021SOL    HW217526   0.955   1.882  14.236 -1.5535 -0.4130 -1.1020
 2022SOL     OW17527   1.199   0.279   6.920  0.2188 -0.1084 -0.2626
 2022SOL    HW117528   1.104   0.269   6.915  0.0325  2.2069 -1.1061
 2022SOL    HW217529   1.220   0.300   6.829  0.8274  2.5840  0.5256
 2023SOL     OW17530   3.656   4.320  13.820  0.1512  0.5753  0.2964
 2023SOL    HW117531   3.674   4.335  13.913  1.7599 -1.2573  0.2997
 2023SOL    HW217532   3.561   4.311  13.827  0.4776 -1.8813  1.5694
 2024SOL     OW17533   0.532   3.010  12.261  0.4112  0.2054 -0.2275
 2024SOL    HW117534   0.626   2.996  12.272 -0.0265 -0.0353  3.2825
 2024SOL    HW217535   0.504   2.953  12.332 -0.5927  0.0240 -0.7648
 2025SOL     OW17536   2.632   3.327  11.294  0.0160  0.1825  0.0038
 2025SOL    HW117537   2.696   3.262  11.264  1.0768  0.3862  1.8342
 2025SOL    HW217538   2.574   3.333  11.219 -0.4922  0.6861  0.4340
 2026SOL     OW17539   0.840   1.452  17.352  0.0091  0.2029 -0.2896
 2026SOL    HW117540   0.921   1.402  17.362  0.5333  1.3714  1.2959
 2026SOL    HW217541   0.786   1.376  17.334  0.4618  0.1530 -1.4729
 2027SOL     OW17542   0.051   2.704   2.947  0.1872  0.2943 -0.3905
 2027SOL    HW117543   0.075   2.634   2.886 -2.5557  1.8432 -3.1861
 2027SOL    HW217544   0.037   2.776   2.886 -3.3650  1.2876  1.5682
 2028SOL     OW17545   2.910   0.356   3.796 -0.5101 -0.0342  0.0424
 2028SOL    HW117546   2.940   0.445   3.815  0.9006 -0.3626 -0.6165
 2028SOL    HW217547   2.848   0.373   3.725 -0.3759 -0.0582 -0.0811
 2029SOL     OW17548   2.406   2.322   2.510  0.2659  0.2887  0.2109
 2029SOL    HW117549   2.321   2.360   2.534  0.0089 -1.0647  1.4566
 2029SOL    HW217550   2.384   2.236   2.473  0.3659  0.0047  0.8022
 2030SOL     OW17551   2.302   2.765   9.156  0.2789  0.1145  0.2470
 2030SOL    HW117552   2.346   2.829   9.100 -0.0606 -0.5803 -0.8151
 2030SOL    HW217553   2.209   2.787   9.154  0.1251 -0.5162  0.4364
 2031SOL     OW17554   2.447   3.772   5.447  0.0944 -0.0041 -0.6306
 2031SOL    HW117555   2.362   3.811   5.428  0.1879 -0.0596 -1.1751
 2031SOL    HW217556   2.435   3.737   5.535  1.7242  1.4125  0.1572
 2032SOL     OW17557   0.583   4.415   3.349 -0.2114 -0.3258 -0.0416
 2032SOL    HW117558   0.672   4.420   3.313  0.2923  0.6902  1.3689
 2032SOL    HW217559   0.556   4.330   3.315  0.3198 -0.5560  0.1099
 2033SOL     OW17560   2.498   2.017   0.476 -0.3792  0.4086 -0.4852
 2033SOL    HW117561   2.456   1.956   0.537  1.1369 -0.6477 -0.5030
 2033SOL    HW217562   2.586   1.980   0.485 -0.8540 -0.9250 -1.2336
 2034SOL     OW17563   2.986   0.041   5.962  0.2556 -0.7680 -0.5555
 2034SOL    HW117564   2.894   0.061   5.945  0.7563  1.3475 -0.7491
 2034SOL    HW217565   3.004   0.083   6.046  0.2485 -2.4337  0.2755
 2035SOL     OW17566   4.048   3.850   8.483 -0.1956  0.0062 -0.0895
 2035SOL    HW117567   4.037   3.914   8.412 -1.1285  0.4981  0.4963
 2035SOL    HW217568   4.023   3.897   8.562  0.9637 -1.6469  1.2352
 2036SOL     OW17569   1.581   3.676   3.806 -0.4634  1.1696 -0.3212
 2036SOL    HW117570   1.552   3.585   3.795  0.5600  0.5539  2.1076
 2036SOL    HW217571   1.635   3.691   3.728  0.8425 -1.0101  0.1423
 2037SOL     OW17572   0.119   1.794  16.283 -0.7768  0.1136  0.0105
 2037SOL    HW117573   0.186   1.863  16.290 -1.9154  1.3036 -0.7605
 2037SOL    HW217574   0.075   1.829  16.206 -0.9788  0.3302  0.2260
 2038SOL     OW17575   0.558   0.809   0.329  0.1339 -0.7818 -0.3032
 2038SOL    HW117576   0.519   0.818   0.416 -0.2399 -2.0917 -0.3279
 2038SOL    HW217577   0.572   0.715   0.315 -2.6478 -1.4900  1.7907
 2039SOL     OW17578   0.346   1.443   2.448 -0.3190 -0.2022  0.1795
 2039SOL    HW117579   0.254   1.443   2.421  0.4611  0.3499 -2.4900
 2039SOL    HW217580   0.352   1.348   2.437 -0.0032 -0.0561 -0.8909
 2040SOL     OW17581   3.594   1.572  12.183  0.2078 -0.3658 -0.5613
 2040SOL    HW117582   3.548   1.636  12.129 -0.3182  0.4701  0.8784
 2040SOL    HW217583   3.554   1.584  12.269 -1.8803 -4.8463 -0.8919
 2041SOL     OW17584   0.209   4.328   0.433 -0.7429 -0.7543 -0.4081
 2041SOL    HW117585   0.153   4.377   0.493  3.0140 -0.1290  2.5217
 2041SOL    HW217586   0.152   4.315   0.356 -1.5827 -0.8728  0.2274
 2042SOL     OW17587   2.826   0.098   2.064 -0.4113  0.5272 -0.4508
 2042SOL    HW117588   2.871   0.042   2.127 -3.3259  1.1104  2.1317
 2042SOL    HW217589   2.790   0.168   2.118  0.9862 -0.0251  1.2030
 2043SOL     OW17590   4.112   2.250   5.913 -0.1013  0.1484  0.3154
 2043SOL    HW117591   4.115   2.167   5.961  1.8234 -0.8895 -1.6271
 2043SOL    HW217592   4.018   2.260   5.899  0.3054  0.6995 -2.0093
 2044SOL     OW17593   0.374   0.672   8.450 -0.2239 -0.4733 -0.1326
 2044SOL    HW117594   0.372   0.578   8.468  1.9150 -0.7455 -1.3114
 2044SOL    HW217595   0.281   0.695   8.453  0.5507  2.2890  2.3638
 2045SOL     OW17596   3.359   3.065   1.957  0.0472  0.3085  0.0622
 2045SOL    HW117597   3.291   3.059   1.890 -0.0310  1.0225  0.0827
 2045SOL    HW217598   3.327   3.142   2.003  1.1641  0.1289  1.1360
 2046SOL     OW17599   0.203   1.014   0.557  0.0775 -0.1957  0.3615
 2046SOL    HW117600   0.243   0.928   0.569  0.0135 -0.2675  0.0526
 2046SOL    HW217601   0.156   0.994   0.476  0.2785 -0.5807  0.3424
 2047SOL     OW17602   0.384   3.391  14.941 -0.6221  0.2226  0.0419
 2047SOL    HW117603   0.435   3.332  14.996  0.6500 -0.6276 -2.0765
 2047SOL    HW217604   0.302   3.341  14.942 -0.1228 -0.5875  0.5858
 2048SOL     OW17605   0.540   3.733   4.695 -0.6221 -0.3009 -0.3399
 2048SOL    HW117606   0.471   3.691   4.644  1.0647 -1.3185 -1.8009
 2048SOL    HW217607   0.559   3.799   4.628 -0.3433 -0.4322 -0.3913
 2049SOL     OW17608   2.385   3.419   0.186 -0.0935  0.8607 -0.1816
 2049SOL    HW117609   2.459   3.468   0.222  1.2348 -1.7045  0.5824
 2049SOL    HW217610   2.398   3.329   0.218  0.2067  0.5428 -1.1876
 2050SOL     OW17611   2.726   1.909   7.181  0.0068 -0.1790  0.4241
 2050SOL    HW117612   2.744   1.818   7.156 -0.9260 -0.0093 -0.8822
 2050SOL    HW217613   2.801   1.924   7.238 -0.4751 -0.1415  1.0580
 2051SOL     OW17614   2.792   4.651   8.361 -0.0656 -0.4733  0.3218
 2051SOL    HW117615   2.842   4.633   8.441 -0.4915  1.6822  1.0969
 2051SOL    HW217616   2.768   0.014   8.389  1.1283  0.4033 -1.4167
 2052SOL     OW17617   1.628   2.982   7.026 -0.0858 -0.0783  0.4543
 2052SOL    HW117618   1.647   3.059   6.972  1.0157 -0.1736  0.7077
 2052SOL    HW217619   1.612   3.033   7.105  0.7139 -2.1526  1.9552
 2053SOL     OW17620   0.045   0.594   0.450 -0.0360 -0.6459  0.0449
 2053SOL    HW117621   0.093   0.527   0.498 -1.4002 -1.7222 -0.0772
 2053SOL    HW217622   0.120   0.639   0.412 -0.9615 -0.0214 -1.0503
 2054SOL     OW17623   4.533   1.328  11.225 -0.0583 -0.2002  0.0226
 2054SOL    HW117624   4.459   1.269  11.208 -0.9611  0.9796 -0.0844
 2054SOL    HW217625   4.539   1.359  11.135 -1.9227 -1.2084 -0.4514
 2055SOL     OW17626   3.827   1.268   3.278 -0.3441  0.1999  0.5791
 2055SOL    HW117627   3.843   1.183   3.319 -2.3502  0.5694  2.1322
 2055SOL    HW217628   3.914   1.293   3.248  0.1670 -1.1058  1.0098
 2056SOL     OW17629   2.192   0.097   1.055 -0.1734 -0.0759  0.2930
 2056SOL    HW117630   2.234   0.036   0.994  1.1501 -0.3524  1.4769
 2056SOL    HW217631   2.099   0.077   1.046 -0.2244  0.6391 -0.8064
 2057SOL     OW17632   1.561   2.566   4.962  0.2811  0.3269 -0.0029
 2057SOL    HW117633   1.577   2.486   4.912 -0.5080  0.8482 -1.1031
 2057SOL    HW217634   1.472   2.581   4.931  0.0013  3.6599  2.4292
 2058SOL     OW17635   3.923   3.904   7.480 -0.4942  0.8513  0.4535
 2058SOL    HW117636   3.851   3.847   7.454  0.5168 -0.7070  1.0754
 2058SOL    HW217637   3.949   3.953   7.402 -1.3006  0.0870 -0.2924
 2059SOL     OW17638   2.519   1.621  12.973 -0.3426 -0.2984 -0.4459
 2059SOL    HW117639   2.465   1.692  12.937  2.3753  3.1372  2.2197
 2059SOL    HW217640   2.598   1.675  12.980 -0.1727 -0.5842 -0.2104
 2060SOL     OW17641   1.817   3.883   2.932 -0.4391  0.3582  0.5707
 2060SOL    HW117642   1.728   3.918   2.934 -0.3303  0.7529 -1.4290
 2060SOL    HW217643   1.848   3.890   2.841  1.4686 -0.2732  1.1707
 2061SOL     OW17644   0.062   1.246   1.548  0.1022  0.7748 -0.0333
 2061SOL    HW117645   0.079   1.305   1.621 -1.7767  0.3038  0.8009
 2061SOL    HW217646   0.140   1.262   1.495  0.1726 -0.5991 -0.3395
 2062SOL     OW17647   4.485   1.692  10.854 -0.3504 -0.0497  0.2520
 2062SOL    HW117648   4.486   1.694  10.758  1.9509 -2.2641  0.2476
 2062SOL    HW217649   4.405   1.744  10.864  0.5893  1.6959 -1.1751
 2063SOL     OW17650   0.612   4.667   8.336 -0.2560 -0.6852  0.5279
 2063SOL    HW117651   0.666   4.655   8.413 -0.5282 -1.3459  0.6182
 2063SOL    HW217652   0.671   4.659   8.261  2.4866  0.0120  2.6132
 2064SOL     OW17653   4.613   0.340   4.007 -0.0471 -0.1549 -0.1706
 2064SOL    HW117654   4.663   0.260   4.025 -0.4336 -0.1756  0.8092
 2064SOL    HW217655   4.668   0.409   4.041  0.7247 -0.9184  0.1224
 2065SOL     OW17656   1.689   2.598   9.487  0.0734 -0.1923  0.0984
 2065SOL    HW117657   1.758   2.584   9.551 -0.0601  1.9610  0.7358
 2065SOL    HW217658   1.664   2.509   9.461  0.2593 -0.4870  0.9364
 2066SOL     OW17659   2.095   0.702   3.419 -0.7986  0.5799 -0.8808
 2066SOL    HW117660   2.028   0.660   3.472 -0.2417 -0.9844 -1.4320
 2066SOL    HW217661   2.158   0.710   3.490 -0.6169  1.7527 -1.1732
 2067SOL     OW17662   1.665   2.818   4.737 -0.9229  0.5548 -0.0290
 2067SOL    HW117663   1.593   2.755   4.738 -0.1762 -0.2960  0.8104
 2067SOL    HW217664   1.738   2.770   4.697 -1.1530 -0.4622  0.7611
 2068SOL     OW17665   0.086   0.147   0.753  0.5189 -0.3646  0.2678
 2068SOL    HW117666   0.161   0.090   0.734  0.2956 -0.3431 -0.6694
 2068SOL    HW217667   0.034   0.147   0.673  0.5446 -2.6404  0.2599
 2069SOL     OW17668   1.311   1.440   2.263  0.2713 -0.1282  0.3001
 2069SOL    HW117669   1.217   1.439   2.244  0.2229 -2.2468  0.5814
 2069SOL    HW217670   1.299   1.521   2.313 -0.9572 -1.1550  1.6760
 2070SOL     OW17671   4.522   0.550   9.067 -0.1286  0.6112  0.0650
 2070SOL    HW117672   4.452   0.499   9.108 -0.2738  0.9984  0.2900
 2070SOL    HW217673   4.563   0.589   9.144 -0.9570 -0.8008  1.2358
 2071SOL     OW17674   4.655   3.894  15.726 -0.4118 -0.0539  0.2340
 2071SOL    HW117675   4.633   3.985  15.749 -0.1583 -0.1351  0.8032
 2071SOL    HW217676   4.637   3.843  15.805 -1.0089 -2.7392 -1.6270
 2072SOL     OW17677   2.921   2.108   9.625 -0.4926  0.0202 -0.1520
 2072SOL    HW117678   2.969   2.053   9.687 -1.9053 -0.6971  0.2875
 2072SOL    HW217679   2.995   2.141   9.573 -0.1707  0.1178  0.3709
 2073SOL     OW17680   1.359   2.750   2.341  0.0952 -0.6824 -0.3556
 2073SOL    HW117681   1.296   2.686   2.375  1.2012 -1.6127 -0.0570
 2073SOL    HW217682   1.418   2.692   2.294  0.3045  0.0070 -0.9444
 2074SOL     OW17683   0.567   1.141  10.166  0.0835 -0.0895 -0.5141
 2074SOL    HW117684   0.492   1.197  10.188  1.4971  1.5375  0.0923
 2074SOL    HW217685   0.551   1.069  10.227  0.4028  1.9635  1.9851
 2075SOL     OW17686   3.907   4.114   1.430  0.3472 -0.3838 -0.5487
 2075SOL    HW117687   3.959   4.153   1.500 -0.5968 -0.8625  0.4336
 2075SOL    HW217688   3.951   4.037   1.395  0.4877  0.2934 -1.8401
 2076SOL     OW17689   0.651   2.757   2.134 -0.2681 -0.2124  0.0135
 2076SOL    HW117690   0.732   2.707   2.137 -0.8867 -1.1734  0.4961
 2076SOL    HW217691   0.652   2.743   2.039  0.7536 -0.2265  0.0299
 2077SOL     OW17692   4.196   1.922   2.199  0.4543  0.9566 -0.2525
 2077SOL    HW117693   4.217   1.939   2.107  1.3948  2.2252  0.1998
 2077SOL    HW217694   4.196   1.826   2.194 -1.6936  0.8376  2.2041
 2078SOL     OW17695   4.167   3.405   7.094 -0.2196  0.0922 -0.2327
 2078SOL    HW117696   4.233   3.428   7.029  0.7289 -3.1620 -0.4324
 2078SOL    HW217697   4.105   3.352   7.044 -0.4483 -2.1100  2.3615
 2079SOL     OW17698   2.245   2.018   6.297  0.2869  0.6681 -0.4329
 2079SOL    HW117699   2.244   1.954   6.226  1.7596 -0.5222  0.6151
 2079SOL    HW217700   2.196   1.968   6.363 -0.5229  1.9700 -0.0606
 2080SOL     OW17701   0.434   1.336  17.472  0.0506 -0.3421 -0.0354
 2080SOL    HW117702   0.372   1.358  17.402 -0.8159  1.5358  1.3260
 2080SOL    HW217703   0.425   1.413  17.529 -3.1989 -1.1087  0.4856
 2081SOL     OW17704   2.620   0.372   4.243  0.5062 -0.0626  0.4207
 2081SOL    HW117705   2.609   0.278   4.259  2.6643 -0.5530 -1.1099
 2081SOL    HW217706   2.695   0.371   4.185 -0.1662  0.3069 -0.4613
 2082SOL     OW17707   1.376   2.882  16.579  0.5441 -0.1784  0.2214
 2082SOL    HW117708   1.449   2.930  16.619  1.3141 -0.5101 -0.7643
 2082SOL    HW217709   1.381   2.807  16.638 -1.0908 -0.6137 -0.1996
 2083SOL     OW17710   3.867   3.300   1.654  0.4002 -0.7333  0.4535
 2083SOL    HW117711   3.872   3.311   1.749 -0.4097 -0.0861  0.4248
 2083SOL    HW217712   3.940   3.239   1.662  0.0214 -1.5704 -2.6324
 2084SOL     OW17713   1.649   1.989   6.259 -0.6379  0.1706 -0.0912
 2084SOL    HW117714   1.686   1.927   6.321 -2.3269  0.8951  1.6164
 2084SOL    HW217715   1.559   1.957   6.255 -0.8755  0.7592  0.4574
 2085SOL     OW17716   2.763   4.396   8.199 -0.1162 -0.1204 -0.4402
 2085SOL    HW117717   2.813   4.324   8.239 -0.9441 -0.7703 -0.5934
 2085SOL    HW217718   2.763   4.460   8.270  1.5797 -1.1745  0.5311
 2086SOL     OW17719   0.941   4.358   3.691  0.5761  0.5308  0.2786
 2086SOL    HW117720   0.916   4.450   3.685 -1.4699 -0.0750 -0.4169
 2086SOL    HW217721   0.863   4.318   3.654  0.5777  1.4781 -0.7442
 2087SOL     OW17722   0.411   1.867   1.829 -0.7830 -0.4163 -0.4947
 2087SOL    HW117723   0.347   1.913   1.883 -1.5233  0.7196 -2.3542
 2087SOL    HW217724   0.424   1.933   1.762  1.1720 -0.3504 -0.0526
 2088SOL     OW17725   1.772   1.963   5.273  0.1255  0.3056  0.0437
 2088SOL    HW117726   1.809   2.004   5.351 -0.6854  0.1559  0.5062
 2088SOL    HW217727   1.798   2.025   5.204 -0.5835 -1.5903 -1.9349
 2089SOL     OW17728   1.959   2.861   5.109  0.7675 -0.8480  0.2380
 2089SOL    HW117729   1.914   2.785   5.146 -4.0205  0.8886 -2.0237
 2089SOL    HW217730   1.978   2.832   5.020  0.0635 -0.4604 -0.0398
 2090SOL     OW17731   2.086   2.818  14.610 -0.0902 -0.0017 -0.4500
 2090SOL    HW117732   2.045   2.767  14.680 -2.7863 -0.1937 -2.1651
 2090SOL    HW217733   2.013   2.808  14.549  0.8383 -1.6360 -1.2951
 2091SOL     OW17734   0.561   4.560   0.402 -0.1042  0.2351  0.0886
 2091SOL    HW117735   0.552   4.489   0.338  1.9380  0.2542 -0.2176
 2091SOL    HW217736   0.500   4.534   0.472 -1.5960 -0.9801 -1.6458
 2092SOL     OW17737   1.610   3.695   8.031  0.0533  0.0627  0.0097
 2092SOL    HW117738   1.695   3.724   8.063  0.5100 -0.1572 -0.9785
 2092SOL    HW217739   1.629   3.672   7.940  1.5563  0.8996  0.1129
 2093SOL     OW17740   2.775   1.782   0.242  0.1259 -0.5030  0.1460
 2093SOL    HW117741   2.839   1.849   0.266  0.7808 -0.1533 -2.5240
 2093SOL    HW217742   2.718   1.776   0.318  1.2711 -1.3436  0.9335
 2094SOL     OW17743   4.575   3.490   8.318 -0.2465 -0.0077 -0.4766
 2094SOL    HW117744   4.640   3.516   8.384 -0.4050  0.2801 -0.4347
 2094SOL    HW217745   4.517   3.447   8.381  0.2932 -0.9099 -0.5883
 2095SOL     OW17746   0.078   2.291   6.043 -0.0257  0.0970  0.1094
 2095SOL    HW117747   0.143   2.223   6.028  2.0163  2.2514 -0.7866
 2095SOL    HW217748   0.011   2.248   6.096  0.0417 -1.8396 -1.4032
 2096SOL     OW17749   1.387   2.121  15.087  0.2277  0.7776 -0.3129
 2096SOL    HW117750   1.304   2.165  15.071 -0.0636  0.4793  0.3482
 2096SOL    HW217751   1.366   2.079  15.170 -0.3798  0.5012 -0.6116
 2097SOL     OW17752   0.143   3.354   3.681 -0.5053  0.1259  0.2002
 2097SOL    HW117753   0.118   3.271   3.639  0.9327 -0.3830  0.3730
 2097SOL    HW217754   0.139   3.408   3.602 -0.4902  0.8189  0.6691
 2098SOL     OW17755   4.071   1.563   7.023  0.0783  0.2303 -0.6589
 2098SOL    HW117756   4.151   1.613   7.038  1.2153 -2.3828  2.1136
 2098SOL    HW217757   4.050   1.536   7.113  0.9410 -0.4584 -0.6677
 2099SOL     OW17758   1.477   0.682  17.122 -0.3984 -0.4221 -0.4069
 2099SOL    HW117759   1.448   0.716  17.206 -0.9250 -1.7309 -0.0482
 2099SOL    HW217760   1.411   0.613  17.114  1.1752 -2.0634  0.7653
 2100SOL     OW17761   3.340   0.628  13.284 -0.0536 -0.1754 -0.3432
 2100SOL    HW117762   3.333   0.607  13.191  0.7458  0.6027 -0.5801
 2100SOL    HW217763   3.385   0.712  13.298 -1.2671  0.4849 -0.4163
 2101SOL     OW17764   2.731   0.556   0.326 -0.2942 -0.6179 -0.1506
 2101SOL    HW117765   2.681   0.595   0.255 -0.6847 -2.3983 -0.8545
 2101SOL    HW217766   2.769   0.482   0.279 -1.0584 -1.5434  0.6682
 2102SOL     OW17767   3.839   3.809  10.035  0.3249  0.4445 -0.5775
 2102SOL    HW117768   3.934   3.819  10.027  0.5879 -0.5892  1.2771
 2102SOL    HW217769   3.834   3.791  10.128  1.1821 -2.6465 -1.1254
 2103SOL     OW17770   4.368   2.777   6.588 -0.0076  0.4159 -0.3193
 2103SOL    HW117771   4.363   2.784   6.493  0.3705 -1.1858 -0.4590
 2103SOL    HW217772   4.382   2.683   6.596 -2.4214  0.2487  1.8090
 2104SOL     OW17773   3.998   1.815  11.895  0.3159  0.4303  0.5185
 2104SOL    HW117774   3.927   1.805  11.832  0.4876  0.6763  0.2874
 2104SOL    HW217775   4.075   1.776  11.854 -1.0547 -0.3007 -1.3866
 2105SOL     OW17776   1.571   3.657  17.390  0.0282  0.3897 -0.1752
 2105SOL    HW117777   1.636   3.619  17.449  0.1916  0.9184 -0.0188
 2105SOL    HW217778   1.510   3.583  17.391  1.1714 -0.5525 -0.5905
 2106SOL     OW17779   2.320   3.785   3.970 -0.1964 -0.1468  0.1469
 2106SOL    HW117780   2.355   3.804   3.883  0.0424 -0.9655  0.0560
 2106SOL    HW217781   2.402   3.766   4.016  0.9178 -0.2351 -1.8830
 2107SOL     OW17782   4.584   1.355   9.638  0.4988 -0.4349  0.5158
 2107SOL    HW117783   4.570   1.378   9.730  0.0127 -1.2203  0.6395
 2107SOL    HW217784   4.679   1.342   9.633  0.6707  0.6184  1.1264
 2108SOL     OW17785   1.135   3.347  15.304 -0.1852  0.7936  0.1056
 2108SOL    HW117786   1.102   3.431  15.273 -1.1843  0.3228 -0.1057
 2108SOL    HW217787   1.054   3.305  15.331  1.3930 -1.5217  1.2121
 2109SOL     OW17788   0.292   0.622   1.771 -0.1447  0.0344  0.0665
 2109SOL    HW117789   0.377   0.644   1.810 -0.0938  0.1107 -0.0839
 2109SOL    HW217790   0.238   0.590   1.843  1.6448  0.3148  1.5144
 2110SOL     OW17791   0.213   1.458  12.167  0.2200 -0.1366  0.6911
 2110SOL    HW117792   0.272   1.383  12.164 -0.8245 -0.8884 -1.3310
 2110SOL    HW217793   0.147   1.445  12.098 -0.9229  1.0838  1.5323
 2111SOL     OW17794   3.342   0.355   3.039 -0.0095 -0.1766 -0.1668
 2111SOL    HW117795   3.289   0.370   2.961  1.0753 -0.5834 -0.9831
 2111SOL    HW217796   3.390   0.438   3.046  2.4857 -1.7945  1.8200
 2112SOL     OW17797   2.134   0.527   1.861 -0.2172  0.1184 -0.5342
 2112SOL    HW117798   2.062   0.565   1.811 -0.5085  1.4304  0.8684
 2112SOL    HW217799   2.165   0.461   1.799  1.2784 -0.5614  0.9335
 2113SOL     OW17800   4.424   3.016   2.490 -0.3328  0.1453 -0.1475
 2113SOL    HW117801   4.373   2.967   2.425 -0.2943  0.7635 -0.6456
 2113SOL    HW217802   4.353   3.069   2.527 -0.7399  0.3970 -1.2962
 2114SOL     OW17803   0.848   2.075   7.153  0.0299  0.0235  0.0465
 2114SOL    HW117804   0.920   2.067   7.090  0.8363  0.9815  0.8375
 2114SOL    HW217805   0.873   2.025   7.231  0.4480 -0.5199 -0.4352
 2115SOL     OW17806   0.949   2.219   5.790 -0.1434 -0.4372 -0.5539
 2115SOL    HW117807   0.883   2.194   5.726  0.2704  0.1536 -1.2062
 2115SOL    HW217808   0.986   2.133   5.808  0.7089  0.3421  1.4397
 2116SOL     OW17809   1.906   2.858   6.731 -0.0096 -0.0494 -0.5523
 2116SOL    HW117810   1.926   2.791   6.665  0.5297 -1.0811  0.6434
 2116SOL    HW217811   1.833   2.899   6.687 -1.9078 -2.2853  0.5006
 2117SOL     OW17812   4.348   3.338  15.647 -0.7108  0.2774 -1.0538
 2117SOL    HW117813   4.421   3.362  15.589  0.1951 -0.3955 -0.1846
 2117SOL    HW217814   4.276   3.319  15.587 -0.9096 -0.9674 -0.4042
 2118SOL     OW17815   2.749   0.330   7.597  0.0827  0.6170  0.7799
 2118SOL    HW117816   2.818   0.326   7.531  0.2445 -0.3807  1.0011
 2118SOL    HW217817   2.725   0.237   7.591  3.1115 -0.2005  1.3141
 2119SOL     OW17818   0.657   0.881   7.425 -0.5611 -0.2895  0.5295
 2119SOL    HW117819   0.721   0.818   7.457 -0.5205 -0.5509 -0.0575
 2119SOL    HW217820   0.581   0.860   7.478  0.5161 -2.8195  1.0687
 2120SOL     OW17821   1.138   1.498  11.786 -0.2611  0.5468  0.6884
 2120SOL    HW117822   1.109   1.539  11.868  1.9085 -1.6431  2.5434
 2120SOL    HW217823   1.173   1.415  11.819 -1.6278 -0.0498  0.6593
 2121SOL     OW17824   4.083   3.659  13.269 -0.1140 -0.5654 -0.0773
 2121SOL    HW117825   4.019   3.600  13.228  1.6221 -1.0156 -2.1472
 2121SOL    HW217826   4.162   3.645  13.217  0.2006  0.0633  0.2328
 2122SOL     OW17827   2.519   3.075   6.959 -0.2081  0.0081 -0.0499
 2122SOL    HW117828   2.478   3.101   6.876 -3.4890  1.4960  2.0633
 2122SOL    HW217829   2.537   2.983   6.935 -0.1276  0.1394 -0.4991
 2123SOL     OW17830   2.223   2.415   6.641  0.6612  0.4211  0.1656
 2123SOL    HW117831   2.142   2.364   6.638  0.1771  1.0789  1.8889
 2123SOL    HW217832   2.191   2.486   6.698  2.2166 -0.6156  2.2901
 2124SOL     OW17833   2.463   1.060  14.410  0.1126 -0.0996  0.4174
 2124SOL    HW117834   2.507   0.975  14.416 -1.1086 -0.6407  1.8266
 2124SOL    HW217835   2.519   1.107  14.471 -2.8585  0.5530  2.6620
 2125SOL     OW17836   4.657   4.209  15.677  0.2877 -0.3881  0.2086
 2125SOL    HW117837   4.564   4.234  15.673  0.7323  1.1441 -0.6622
 2125SOL    HW217838   4.677   4.240  15.766 -0.7349 -0.0903  0.3404
 2126SOL     OW17839   0.302   2.104  15.637  0.0886 -0.2104  0.2774
 2126SOL    HW117840   0.393   2.114  15.609  0.5462  4.1453  3.3637
 2126SOL    HW217841   0.256   2.137  15.560 -2.7659 -0.9041  1.6827
 2127SOL     OW17842   0.881   1.171   2.717  0.1010 -0.3660  0.1833
 2127SOL    HW117843   0.851   1.143   2.804 -0.0689 -2.8597 -0.6728
 2127SOL    HW217844   0.888   1.266   2.729 -1.7385 -0.0843 -1.0336
 2128SOL     OW17845   3.515   0.126   3.079 -0.1927 -0.1497  0.3621
 2128SOL    HW117846   3.466   0.208   3.086 -1.6003 -0.9577 -0.1878
 2128SOL    HW217847   3.545   0.149   2.991 -1.7738  0.4992 -0.0098
 2129SOL     OW17848   1.853   1.655   5.971  0.5949 -0.4626  0.2030
 2129SOL    HW117849   1.761   1.656   5.945  0.5435  0.8609  0.4083
 2129SOL    HW217850   1.867   1.750   5.980  0.3193 -0.2580 -1.6497
 2130SOL     OW17851   4.541   2.404   5.625 -0.5458  0.0260  0.4655
 2130SOL    HW117852   4.487   2.366   5.695  0.9112 -1.3653  0.8418
 2130SOL    HW217853   4.493   2.393   5.543  1.6715 -0.3932 -0.7739
 2131SOL     OW17854   3.595   3.048   4.795 -0.1140 -0.0931  0.4256
 2131SOL    HW117855   3.535   3.066   4.722  0.2467 -1.5107 -0.2162
 2131SOL    HW217856   3.654   3.121   4.779 -0.0416 -0.2853 -0.1916
 2132SOL     OW17857   2.490   0.197   6.192  0.0030  0.0080 -0.2337
 2132SOL    HW117858   2.511   0.111   6.229 -1.2439  0.3971  1.3482
 2132SOL    HW217859   2.409   0.220   6.238 -0.7158 -1.5559 -0.6866
 2133SOL     OW17860   0.271   3.483   8.724 -0.4482  0.0893  0.4856
 2133SOL    HW117861   0.330   3.558   8.721 -1.1231  0.6105  0.1977
 2133SOL    HW217862   0.324   3.412   8.688 -0.2217  0.2241  0.5547
 2134SOL     OW17863   2.810   1.441   7.041 -0.7339  0.2294  0.2459
 2134SOL    HW117864   2.893   1.477   7.008 -0.2294 -2.7151 -1.6760
 2134SOL    HW217865   2.838   1.361   7.084  0.6499 -0.0252 -1.1294
 2135SOL     OW17866   2.928   1.069   1.166  0.2936  0.3328 -0.3962
 2135SOL    HW117867   2.913   1.138   1.100  0.2547  0.7391  0.0379
 2135SOL    HW217868   3.010   1.098   1.206  0.5243  0.6850 -1.1132
 2136SOL     OW17869   0.028   0.921   3.417  0.1563 -0.1694  0.5602
 2136SOL    HW117870   4.717   0.835   3.437  2.3915 -1.0144  0.8918
 2136SOL    HW217871   4.683   0.974   3.455  0.9437 -0.1087  1.9371
 2137SOL     OW17872   1.897   3.716   5.635 -0.2319  0.3035 -0.2571
 2137SOL    HW117873   1.827   3.652   5.630 -0.0392  0.0489  0.2742
 2137SOL    HW217874   1.904   3.726   5.730  0.7825 -2.7600 -0.0299
 2138SOL     OW17875   4.090   2.649   4.426  0.3592 -0.2548 -0.0539
 2138SOL    HW117876   4.037   2.700   4.487  0.1741 -1.6817  0.9832
 2138SOL    HW217877   4.179   2.667   4.456 -0.1999  2.5336 -0.1414
 2139SOL     OW17878   3.532   3.272  13.295  0.2255  0.0016 -0.6889
 2139SOL    HW117879   3.546   3.212  13.369  2.4607 -1.1116 -2.0154
 2139SOL    HW217880   3.527   3.355  13.344 -0.2064  0.2389 -1.1364
 2140SOL     OW17881   4.689   0.012   1.919  0.4213  0.2345  0.0221
 2140SOL    HW117882   4.639   0.091   1.939  1.5884  0.2596  2.9134
 2140SOL    HW217883   4.644   4.670   1.970  2.9529 -1.1140  0.4987
 2141SOL     OW17884   0.885   2.492  10.555 -0.4077 -0.1861 -0.0687
 2141SOL    HW117885   0.884   2.584  10.582  0.1200 -0.2777  0.2512
 2141SOL    HW217886   0.840   2.451  10.629 -0.5109 -1.5742 -0.9123
 2142SOL     OW17887   2.553   2.050   6.313  0.5262 -0.5351 -0.2001
 2142SOL    HW117888   2.468   2.081   6.280  1.2098  0.9765 -0.5053
 2142SOL    HW217889   2.517   1.974   6.360 -1.3257  1.0851  1.0331
 2143SOL     OW17890   2.729   4.186   3.864  0.5398  0.6111 -0.3618
 2143SOL    HW117891   2.682   4.144   3.792  1.0650 -1.1877  0.3471
 2143SOL    HW217892   2.816   4.194   3.824  0.6390 -0.3058 -0.3354
 2144SOL     OW17893   3.733   2.148   2.043 -0.1602 -0.3282 -0.6915
 2144SOL    HW117894   3.760   2.158   1.952  1.3666 -0.7975 -0.2986
 2144SOL    HW217895   3.812   2.175   2.091 -1.4942  1.2320  0.6244
 2145SOL     OW17896   2.495   3.241  11.514  0.3896  0.0341 -0.0150
 2145SOL    HW117897   2.476   3.324  11.556  2.2636  0.3606  0.1984
 2145SOL    HW217898   2.531   3.273  11.431  1.8734  0.7649  0.9200
 2146SOL     OW17899   4.289   0.796   7.080  0.2930  0.0513  0.3586
 2146SOL    HW117900   4.340   0.731   7.128  2.4380 -0.3783 -2.4716
 2146SOL    HW217901   4.288   0.864   7.147  0.6696  2.5171 -2.1499
 2147SOL     OW17902   4.485   1.345   7.477 -0.0106 -0.0578 -0.1579
 2147SOL    HW117903   4.542   1.408   7.521  0.1718 -1.3146  1.3847
 2147SOL    HW217904   4.513   1.272   7.532 -0.6054 -0.8764 -0.9348
 2148SOL     OW17905   1.135   1.445   5.640  0.5434  0.3848  0.2552
 2148SOL    HW117906   1.218   1.428   5.685  0.0501 -1.7476  0.3436
 2148SOL    HW217907   1.096   1.505   5.704 -1.6205 -0.5686 -0.1427
 2149SOL     OW17908   4.062   1.010  15.316 -0.1105 -0.3185 -0.1275
 2149SOL    HW117909   4.065   1.098  15.353  0.8168 -0.8038  0.9271
 2149SOL    HW217910   4.144   0.976  15.352 -0.2366  0.3465  0.7768
 2150SOL     OW17911   0.137   3.356   2.921  0.1522 -0.5056  0.0350
 2150SOL    HW117912   0.059   3.410   2.932 -1.1442 -2.0878 -1.4571
 2150SOL    HW217913   0.110   3.286   2.980  1.8248 -1.0308  0.1847
 2151SOL     OW17914   2.733   1.815  12.979 -0.1254 -0.3560  0.3923
 2151SOL    HW117915   2.761   1.861  13.058  0.1748 -2.1073  1.2987
 2151SOL    HW217916   2.706   1.884  12.918  2.3212  0.1347 -0.1098
 2152SOL     OW17917   4.674   4.411   8.288  0.2151 -0.1185 -0.2787
 2152SOL    HW117918   4.694   4.503   8.270 -0.6298 -0.4479 -2.8967
 2152SOL    HW217919   4.697   4.407   8.381  0.6573  0.3766 -0.3672
 2153SOL     OW17920   0.859   3.222   8.930 -0.3710  0.5782  0.2071
 2153SOL    HW117921   0.860   3.315   8.907  1.8217  1.0817  2.4181
 2153SOL    HW217922   0.820   3.214   9.017  1.5727  0.6334  1.0725
 2154SOL     OW17923   3.912   1.941   4.286  1.0464  0.9486 -0.2701
 2154SOL    HW117924   3.907   1.875   4.355  0.7767  1.4912  0.2380
 2154SOL    HW217925   3.967   2.009   4.326  1.5341  0.4695 -0.1272
 2155SOL     OW17926   4.660   1.001   2.910  0.4207  0.2170  0.3532
 2155SOL    HW117927   4.676   1.025   3.001  2.2771  2.9152 -0.7185
 2155SOL    HW217928   4.602   0.924   2.917  0.0598  0.2238 -2.5818
 2156SOL     OW17929   4.201   1.794  10.865 -0.5519 -0.0510  0.7839
 2156SOL    HW117930   4.143   1.782  10.790  3.5546 -2.1992 -2.0730
 2156SOL    HW217931   4.165   1.878  10.895  1.5281  0.8091  0.8984
 2157SOL     OW17932   0.585   0.993   9.933 -0.3590  0.4217 -0.1775
 2157SOL    HW117933   0.498   0.952   9.939  0.0640 -0.5045 -0.3715
 2157SOL    HW217934   0.584   1.042  10.015  1.1610 -1.4120  0.9348
 2158SOL     OW17935   0.967   1.291   9.535 -0.4584 -0.6338 -0.2537
 2158SOL    HW117936   0.993   1.222   9.596 -0.1120  0.3314  0.7007
 2158SOL    HW217937   0.873   1.278   9.528 -0.1942 -0.8281 -3.5842
 2159SOL     OW17938   3.911   2.536  16.296  0.5006  0.4927  0.0943
 2159SOL    HW117939   3.858   2.585  16.233 -1.0514  0.2100  1.1831
 2159SOL    HW217940   3.848   2.504  16.360  2.1999  1.0731  2.0669
 2160SOL     OW17941   1.014   2.265   0.367 -0.2386  0.0864  0.1630
 2160SOL    HW117942   0.947   2.285   0.302 -0.0852  0.3732  0.0960
 2160SOL    HW217943   1.076   2.218   0.311 -1.7553 -1.1383 -0.5015
 2161SOL     OW17944   4.341   4.532   5.480 -0.0194 -0.1576 -0.1044
 2161SOL    HW117945   4.245   4.541   5.480  0.1051  1.1612 -0.6696
 2161SOL    HW217946   4.370   4.599   5.418  0.9698  0.8725  1.4650
 2162SOL     OW17947   3.054   1.966   3.091  0.3988 -0.2457 -0.0082
 2162SOL    HW117948   2.983   1.905   3.074  0.2279  0.1675 -0.7822
 2162SOL    HW217949   3.134   1.920   3.065  1.6533  1.4304  0.8311
 2163SOL     OW17950   1.757   0.138   8.143  0.3312  0.2846 -0.1055
 2163SOL    HW117951   1.717   0.112   8.226  1.5500  0.3324  0.5035
 2163SOL    HW217952   1.851   0.130   8.160  0.2684  2.9095  1.3906
 2164SOL     OW17953   2.448   1.271   5.336 -0.3763 -0.6578 -0.3943
 2164SOL    HW117954   2.366   1.279   5.385 -0.3512 -2.6409 -0.0405
 2164SOL    HW217955   2.466   1.184   5.372 -0.7415 -1.4817 -2.2488
 2165SOL     OW17956   2.757   2.505   6.018  0.3858  0.1180  0.5145
 2165SOL    HW117957   2.797   2.461   5.942 -0.7577 -0.0803  0.0316
 2165SOL    HW217958   2.664   2.483   6.015  0.5033 -0.4730  1.1700
 2166SOL     OW17959   4.353   3.890   3.716  0.8938  0.3480 -0.0899
 2166SOL    HW117960   4.439   3.894   3.676  1.1340 -0.6544  0.3198
 2166SOL    HW217961   4.310   3.932   3.641  1.6540 -0.0772 -0.7622
 2167SOL     OW17962   0.179   1.622   9.187  0.6366  0.2139  0.4378
 2167SOL    HW117963   0.149   1.646   9.100  2.5751  0.1710 -0.2575
 2167SOL    HW217964   0.221   1.704   9.211  0.4969  0.3077  0.3552
 2168SOL     OW17965   3.673   3.712   9.535  0.2683  0.2658  0.1380
 2168SOL    HW117966   3.706   3.693   9.447 -2.0198 -0.0330 -0.6459
 2168SOL    HW217967   3.715   3.797   9.550 -0.0097  0.4252  0.0027
 2169SOL     OW17968   3.681   3.919   8.169 -0.0861 -0.1419 -0.6261
 2169SOL    HW117969   3.629   3.917   8.249 -1.8763 -0.2019 -1.7939
 2169SOL    HW217970   3.619   3.941   8.099 -1.7439  0.9755  1.2096
 2170SOL     OW17971   3.721   1.970  13.111 -0.0466 -0.2929 -0.4802
 2170SOL    HW117972   3.633   1.932  13.116 -0.3763  0.5033 -0.2843
 2170SOL    HW217973   3.773   1.908  13.164  1.5981  0.0103 -1.7544
 2171SOL     OW17974   0.651   3.965   6.778  0.6808  0.1530 -0.2474
 2171SOL    HW117975   0.576   3.933   6.829 -0.6729  2.3956 -0.8050
 2171SOL    HW217976   0.633   3.925   6.693 -1.9253  0.9895 -0.0876
 2172SOL     OW17977   1.645   1.717   8.898 -0.4878 -0.6668 -0.1386
 2172SOL    HW117978   1.704   1.658   8.944  0.9226  2.4553  2.0058
 2172SOL    HW217979   1.608   1.649   8.841 -1.7931  0.2231 -0.3424
 2173SOL     OW17980   2.403   1.867  12.988 -0.1844 -0.3045 -0.1235
 2173SOL    HW117981   2.396   1.960  13.007 -0.3009 -0.6979  1.7121
 2173SOL    HW217982   2.348   1.826  13.055  0.1953 -2.7787 -1.3229
 2174SOL     OW17983   4.394   2.344  15.778 -0.0489 -0.6044 -0.7803
 2174SOL    HW117984   4.333   2.392  15.834 -1.3927 -1.6773 -1.3411
 2174SOL    HW217985   4.348   2.325  15.697  0.4692 -1.6294 -0.8318
 2175SOL     OW17986   0.716   0.372   1.339  0.0387  0.1312 -0.0295
 2175SOL    HW117987   0.648   0.376   1.406  3.5768  1.0943  3.4529
 2175SOL    HW217988   0.707   0.457   1.296  2.3517 -0.8371 -2.4489
 2176SOL     OW17989   2.077   0.062   5.384 -0.2570 -0.1158 -0.0518
 2176SOL    HW117990   2.115   0.136   5.431 -0.9769 -0.4177  1.0095
 2176SOL    HW217991   2.067   0.109   5.301  1.3426  0.3074 -0.0048
 2177SOL     OW17992   3.653   2.706   4.157 -0.0107 -0.2583 -0.8691
 2177SOL    HW117993   3.608   2.629   4.122 -1.6551  0.3590 -0.0935
 2177SOL    HW217994   3.597   2.723   4.233  2.3304 -0.8921  1.0086
 2178SOL     OW17995   4.475   3.461   4.542 -0.0009 -0.8170 -0.3442
 2178SOL    HW117996   4.501   3.550   4.515  0.6418 -1.7341 -2.7809
 2178SOL    HW217997   4.555   3.410   4.556  0.6344  0.1077 -0.5226
 2179SOL     OW17998   0.039   4.437   3.925 -0.5075 -0.2907  0.4738
 2179SOL    HW117999   0.001   4.431   3.838 -1.2239 -1.6300  0.8788
 2179SOL    HW218000   0.058   4.346   3.950  0.3555 -0.4080 -0.5914
 2180SOL     OW18001   2.585   0.373  12.283 -0.3105  0.5102 -0.4598
 2180SOL    HW118002   2.640   0.447  12.308  0.1616  0.0206 -0.0377
 2180SOL    HW218003   2.626   0.353  12.199 -1.0198 -1.1812 -0.4093
 2181SOL     OW18004   3.505   4.126   2.554  0.1195 -0.4377  0.5226
 2181SOL    HW118005   3.412   4.139   2.535  0.1990  1.8741  1.6840
 2181SOL    HW218006   3.513   4.035   2.525  0.4234  0.2314 -1.4577
 2182SOL     OW18007   3.129   4.249   5.852 -0.0571  0.0263 -0.1511
 2182SOL    HW118008   3.214   4.254   5.896 -1.1384 -0.8787  2.0417
 2182SOL    HW218009   3.104   4.342   5.856  0.8363  0.4358 -4.5667
 2183SOL     OW18010   0.647   2.488   6.437  0.0002  0.2338  0.0885
 2183SOL    HW118011   0.634   2.553   6.368 -1.0759 -0.2144 -0.1279
 2183SOL    HW218012   0.560   2.492   6.475 -0.7877  1.6440 -1.9131
 2184SOL     OW18013   0.645   1.413  11.107  0.6578  0.1375  0.9450
 2184SOL    HW118014   0.633   1.319  11.093  2.4402  0.1310 -0.4833
 2184SOL    HW218015   0.711   1.407  11.176  0.0312  1.6164  1.6674
 2185SOL     OW18016   3.575   1.507   8.007 -0.6878 -0.4923  0.7450
 2185SOL    HW118017   3.583   1.502   7.912  0.5641  0.3445  0.8122
 2185SOL    HW218018   3.498   1.452   8.023 -2.4444  2.1379  1.5254
 2186SOL     OW18019   0.916   1.568   7.645 -0.6560 -0.2253  0.1693
 2186SOL    HW118020   0.969   1.491   7.661  0.6497  0.9242  1.3883
 2186SOL    HW218021   0.875   1.587   7.730 -1.1538  1.8814 -0.5248
 2187SOL     OW18022   4.064   0.652   3.708 -0.2611  0.1975  0.2791
 2187SOL    HW118023   4.068   0.674   3.802  0.2565 -2.4686  0.8650
 2187SOL    HW218024   4.077   0.558   3.711  0.6745  0.4205  3.2567
 2188SOL     OW18025   2.103   2.813  17.342 -0.0795  0.2737  0.0806
 2188SOL    HW118026   2.144   2.887  17.297 -0.3871 -0.6000 -1.6624
 2188SOL    HW218027   2.051   2.848  17.414 -0.9666 -1.8554  0.4905
 2189SOL     OW18028   3.775   1.891   9.199 -0.2564 -0.1854  0.0476
 2189SOL    HW118029   3.794   1.970   9.147 -1.6819 -0.0378 -0.2507
 2189SOL    HW218030   3.854   1.880   9.251 -0.1026 -0.5884 -0.2725
 2190SOL     OW18031   4.244   3.387   8.062 -0.0373  0.2423 -0.4588
 2190SOL    HW118032   4.200   3.464   8.098 -0.6665 -0.6434  0.6641
 2190SOL    HW218033   4.248   3.333   8.141 -0.3190 -1.5817 -1.6668
 2191SOL     OW18034   1.016   3.395   4.562  0.1998 -0.1758  0.0417
 2191SOL    HW118035   1.101   3.430   4.536 -0.4828  1.2833 -0.2618
 2191SOL    HW218036   0.971   3.417   4.480  1.3457  0.5467 -0.3929
 2192SOL     OW18037   4.119   1.400   3.928 -1.2782  0.0670 -0.0974
 2192SOL    HW118038   4.068   1.436   3.856  0.5612 -0.5872 -1.7166
 2192SOL    HW218039   4.065   1.424   4.003  0.5285 -2.0772  1.9218
 2193SOL     OW18040   2.727   0.876  13.514 -0.8545 -0.0577  0.0125
 2193SOL    HW118041   2.676   0.849  13.590 -1.0669  2.4091  0.7429
 2193SOL    HW218042   2.691   0.815  13.450  1.4825 -0.6314 -0.7600
 2194SOL     OW18043   4.331   3.672   6.762 -0.3263 -0.0035 -0.0368
 2194SOL    HW118044   4.346   3.640   6.673  1.4817  3.2823 -0.9250
 2194SOL    HW218045   4.237   3.658   6.774 -0.6847 -0.1231 -2.8474
 2195SOL     OW18046   0.981   2.010  13.278  0.1443 -0.3968 -0.1329
 2195SOL    HW118047   1.071   2.010  13.246 -0.0439  1.4138 -0.6927
 2195SOL    HW218048   0.992   2.053  13.363  0.2599  1.2290 -0.9658
 2196SOL     OW18049   0.795   4.677   5.168 -0.1337  0.1641  0.2759
 2196SOL    HW118050   0.871   4.693   5.224 -0.2879 -0.2109  0.5968
 2196SOL    HW218051   0.823   4.695   5.079  2.0998  0.7162  1.0947
 2197SOL     OW18052   0.442   0.272   3.136 -0.7210  0.0139 -0.0622
 2197SOL    HW118053   0.385   0.198   3.155 -1.1473 -0.0230 -1.5176
 2197SOL    HW218054   0.470   0.237   3.052  1.5752 -1.0644  1.1291
 2198SOL     OW18055   2.960   0.741   1.917 -0.0626 -0.1442  0.0458
 2198SOL    HW118056   3.003   0.656   1.919  0.5869  0.2588  2.8970
 2198SOL    HW218057   2.955   0.757   1.823 -0.9322  2.5744  0.5495
 2199SOL     OW18058   0.586   0.601   4.682  0.0207  0.6315  0.0401
 2199SOL    HW118059   0.540   0.661   4.622 -0.6654 -2.9626 -2.9987
 2199SOL    HW218060   0.558   0.520   4.641 -1.6852  1.7019 -0.9270
 2200SOL     OW18061   4.022   1.019   5.766 -0.3246  0.5057 -0.1309
 2200SOL    HW118062   4.012   1.059   5.852 -1.1308  1.0247 -0.4665
 2200SOL    HW218063   3.993   1.089   5.707 -1.2542 -1.3193 -1.8034
 2201SOL     OW18064   3.022   2.737   0.048  0.7465  0.0795  0.5280
 2201SOL    HW118065   3.020   2.645   0.073  2.0686 -1.0299 -3.4941
 2201SOL    HW218066   2.938   2.747   0.004  1.5002 -0.7256 -1.0917
 2202SOL     OW18067   2.421   4.433   1.610  0.1292  0.5958  0.3368
 2202SOL    HW118068   2.358   4.432   1.537 -1.6711 -1.0732  1.9065
 2202SOL    HW218069   2.392   4.365   1.670 -1.1254  0.4479 -0.4245
 2203SOL     OW18070   0.928   3.811  12.905 -0.0441  0.4470 -0.0948
 2203SOL    HW118071   0.948   3.848  12.991  2.2693 -1.8619  0.3575
 2203SOL    HW218072   0.850   3.858  12.878  0.0967  1.5273  1.3510
 2204SOL     OW18073   1.060   0.639  10.070  0.3320  0.2883 -0.5072
 2204SOL    HW118074   1.147   0.679  10.064 -0.3320  1.9029  0.5015
 2204SOL    HW218075   1.020   0.656   9.985  0.4090  3.7701  0.1557
 2205SOL     OW18076   1.527   1.799  16.761 -0.4547 -0.2483 -0.1511
 2205SOL    HW118077   1.505   1.744  16.837 -1.1880 -0.7371 -0.7237
 2205SOL    HW218078   1.540   1.884  16.804 -1.6560 -1.0390  1.8283
 2206SOL     OW18079   0.415   1.024   7.059  0.6525  0.3003  0.1279
 2206SOL    HW118080   0.369   1.103   7.029  1.2764  0.0594 -1.4547
 2206SOL    HW218081   0.486   1.026   6.996  0.3501 -1.2669 -0.2504
 2207SOL     OW18082   2.127   3.745  13.682 -0.0880 -0.1957  0.0636
 2207SOL    HW118083   2.092   3.660  13.708 -0.1159  0.1459  1.1516
 2207SOL    HW218084   2.201   3.709  13.633  1.8279  1.3830  1.7907
 2208SOL     OW18085   3.388   4.546  10.595  0.1176 -0.1309  0.1329
 2208SOL    HW118086   3.439   4.626  10.580 -0.7353  0.5903  1.0767
 2208SOL    HW218087   3.305   4.591  10.608 -0.3256 -0.7594 -0.5272
 2209SOL     OW18088   1.328   2.515   9.634  0.0978  0.4708 -0.3132
 2209SOL    HW118089   1.385   2.441   9.655 -0.8576  0.7344  3.1544
 2209SOL    HW218090   1.316   2.569   9.712 -0.4386  1.4839 -1.0845
 2210SOL     OW18091   0.676   1.533   0.670  0.0738  0.1674  0.0121
 2210SOL    HW118092   0.643   1.608   0.621 -2.0504  0.5936  2.0836
 2210SOL    HW218093   0.594   1.495   0.702  0.3862 -0.3159  0.2321
 2211SOL     OW18094   4.327   0.824   4.556 -0.2375 -0.0591 -0.8480
 2211SOL    HW118095   4.403   0.768   4.536  0.5336  1.6011 -2.5566
 2211SOL    HW218096   4.354   0.909   4.591 -1.7037 -0.1046  0.3653
 2212SOL     OW18097   3.782   1.190   4.933 -0.1290  0.4438 -0.2794
 2212SOL    HW118098   3.760   1.235   4.851 -0.5905 -0.4981 -0.6796
 2212SOL    HW218099   3.694   1.158   4.952 -1.5406  3.6035 -1.5648
 2213SOL     OW18100   0.209   0.388  17.459 -0.3420 -0.4222  0.0963
 2213SOL    HW118101   0.290   0.429  17.427 -0.8603 -0.5897 -1.4399
 2213SOL    HW218102   0.138   0.428  17.408 -0.7838  1.9470  2.5789
 2214SOL     OW18103   2.946   0.788   9.027 -0.2434  0.0168 -0.3090
 2214SOL    HW118104   2.858   0.781   9.064 -0.3674 -0.8226 -0.7762
 2214SOL    HW218105   2.931   0.865   8.972  1.0711  0.3585 -0.1985
 2215SOL     OW18106   2.467   0.106   6.726  0.1921  0.4454  0.0759
 2215SOL    HW118107   2.543   0.098   6.784 -0.6985  1.5127  1.3979
 2215SOL    HW218108   2.394   0.125   6.785 -0.2794  1.4192 -0.8267
 2216SOL     OW18109   3.736   0.707   8.213 -0.0915 -0.5137 -0.1735
 2216SOL    HW118110   3.743   0.730   8.120 -1.3940  1.1149  0.1445
 2216SOL    HW218111   3.643   0.696   8.235 -0.6051  0.4207 -1.8344
 2217SOL     OW18112   3.420   0.744   4.897  0.2592  0.0861  0.0591
 2217SOL    HW118113   3.488   0.788   4.846  0.0516  0.1765 -0.1376
 2217SOL    HW218114   3.447   0.773   4.984 -1.2241  0.6734  0.3086
 2218SOL     OW18115   1.629   0.325   4.411  0.0726 -0.0606 -0.0890
 2218SOL    HW118116   1.666   0.358   4.330  1.0389  1.5635  1.0136
 2218SOL    HW218117   1.536   0.347   4.410  0.1820  0.4198  0.5966
 2219SOL     OW18118   0.789   0.534   6.355  0.0477 -0.5515 -0.2498
 2219SOL    HW118119   0.875   0.523   6.315  0.3855  0.4769  0.1949
 2219SOL    HW218120   0.785   0.626   6.327 -0.9543 -0.6073 -0.2952
 2220SOL     OW18121   2.047   4.217   7.962 -0.4489 -0.0565  0.2109
 2220SOL    HW118122   2.008   4.175   8.038  0.8040 -1.3283  0.1703
 2220SOL    HW218123   2.070   4.299   8.004 -0.2096  0.2416 -0.5022
 2221SOL     OW18124   0.748   1.656   1.666  0.2573  0.1712 -0.3819
 2221SOL    HW118125   0.750   1.748   1.640 -1.7197  0.5200  0.7421
 2221SOL    HW218126   0.665   1.648   1.713  0.0068  1.1565 -0.6654
 2222SOL     OW18127   1.937   0.888   2.498  0.1822 -0.2877  0.5267
 2222SOL    HW118128   1.904   0.879   2.587  2.3698 -2.0231  1.1589
 2222SOL    HW218129   1.920   0.980   2.478  0.0468 -0.5272 -0.4876
 2223SOL     OW18130   4.559   1.928   9.366  0.0468  0.0790  0.1035
 2223SOL    HW118131   4.627   1.898   9.427  1.7602 -2.7687 -3.1629
 2223SOL    HW218132   4.623   1.967   9.306 -1.2122  0.1020 -1.2168
 2224SOL     OW18133   1.110   2.112   3.509  0.7367 -0.5448  0.9247
 2224SOL    HW118134   1.095   2.207   3.512  0.4744 -0.5861  0.9880
 2224SOL    HW218135   1.076   2.094   3.422 -3.4058 -1.4324  2.7022
 2225SOL     OW18136   0.426   1.033  15.090  0.3438 -0.4749  0.0298
 2225SOL    HW118137   0.446   1.080  15.009  0.3413  0.4048  0.5315
 2225SOL    HW218138   0.514   1.025  15.129  1.0170  0.4770 -1.3009
 2226SOL     OW18139   3.560   3.802   8.924 -0.0886 -0.0074  0.1678
 2226SOL    HW118140   3.608   3.855   8.988 -1.3188  0.1676  0.9320
 2226SOL    HW218141   3.501   3.861   8.877  0.6198 -1.0445 -2.0350
 2227SOL     OW18142   4.574   1.135   8.934 -0.3944 -0.2863  0.2058
 2227SOL    HW118143   4.573   1.132   9.029 -1.4961 -0.6511  0.1918
 2227SOL    HW218144   4.618   1.054   8.909 -0.2114 -0.3873  0.8668
 2228SOL     OW18145   1.404   4.612   4.940  0.6030  0.1571  0.3308
 2228SOL    HW118146   1.326   4.609   4.996  0.7243  0.5199  0.5147
 2228SOL    HW218147   1.373   4.563   4.864 -1.1296 -1.1756  1.8785
 2229SOL     OW18148   1.138   0.935  10.513 -0.7895 -0.4985  0.3657
 2229SOL    HW118149   1.212   0.884  10.480  1.3357  1.2397  2.4641
 2229SOL    HW218150   1.068   0.912  10.452 -0.9050  0.9524 -0.0451
 2230SOL     OW18151   1.138   3.601  15.024  0.4398 -0.6986 -0.0370
 2230SOL    HW118152   1.106   3.691  15.017  2.4390  0.2416  2.6906
 2230SOL    HW218153   1.098   3.577  15.108  1.5068  0.1380  0.7134
 2231SOL     OW18154   1.877   4.322   7.042 -0.2906 -0.3104 -0.2025
 2231SOL    HW118155   1.955   4.366   7.006  0.1991 -0.6931  0.4083
 2231SOL    HW218156   1.910   4.281   7.121 -1.8509  0.4660  0.8461
 2232SOL     OW18157   2.112   0.810   8.170  0.2483 -0.4122  0.0902
 2232SOL    HW118158   2.057   0.765   8.233  0.1332 -0.3468  0.0367
 2232SOL    HW218159   2.130   0.734   8.114  2.4539  1.2334 -1.4373
 2233SOL     OW18160   0.242   1.776   7.835  0.6188  0.1367  0.2487
 2233SOL    HW118161   0.222   1.829   7.912 -1.0595  0.9711 -0.7626
 2233SOL    HW218162   0.173   1.710   7.842 -0.8131  1.4404 -1.4688
 2234SOL     OW18163   0.131   4.676   9.279 -0.1108  0.2765  0.1133
 2234SOL    HW118164   0.063   0.018   9.275 -0.2413  0.2290  1.4837
 2234SOL    HW218165   0.090   4.593   9.253 -2.7323  1.3591  0.8139
 2235SOL     OW18166   0.546   2.383  12.685  0.4311 -0.1129 -0.4337
 2235SOL    HW118167   0.513   2.465  12.722  1.0201 -0.0255 -0.1111
 2235SOL    HW218168   0.463   2.334  12.679 -1.5763  3.5944 -2.8440
 2236SOL     OW18169   2.999   2.461   8.155 -0.0858  0.0319  0.3838
 2236SOL    HW118170   3.059   2.388   8.139 -0.7153 -0.1193 -1.3615
 2236SOL    HW218171   2.914   2.423   8.132 -0.5149  1.8120 -0.9115
 2237SOL     OW18172   4.415   0.436   7.444  0.3671 -0.0059 -0.0913
 2237SOL    HW118173   4.413   0.376   7.370  1.7855  1.9243 -1.7002
 2237SOL    HW218174   4.341   0.496   7.431  0.1696 -0.2131  0.0623
 2238SOL     OW18175   0.938   3.141  17.180 -0.3415  0.4224  0.5907
 2238SOL    HW118176   0.971   3.187  17.257  0.3885 -1.6473  1.4979
 2238SOL    HW218177   1.008   3.151  17.116 -0.5092 -0.4163  0.2731
 2239SOL     OW18178   4.254   2.323   8.516  0.3959  0.4434 -0.2089
 2239SOL    HW118179   4.283   2.392   8.576  2.3151  0.2953 -0.9620
 2239SOL    HW218180   4.292   2.252   8.567  0.1075 -1.5577 -2.8028
 2240SOL     OW18181   4.427   2.573   8.177 -0.0012  0.2762 -0.2819
 2240SOL    HW118182   4.400   2.488   8.210  1.2321 -0.6885 -1.7654
 2240SOL    HW218183   4.351   2.629   8.194 -0.0581  0.4947 -1.2821
 2241SOL     OW18184   2.590   1.074   9.517 -0.5455  0.4721 -0.0279
 2241SOL    HW118185   2.551   1.126   9.447 -0.8164  1.0078  0.5187
 2241SOL    HW218186   2.543   0.992   9.511  0.9315 -0.4018  0.3878
 2242SOL     OW18187   0.368   4.505   0.584  0.1340 -0.1580  0.6206
 2242SOL    HW118188   0.370   4.424   0.533  3.1168 -0.4696  1.1971
 2242SOL    HW218189   0.351   4.472   0.672  0.7512 -0.7050  0.5344
 2243SOL     OW18190   3.656   3.013   6.777  0.3680 -0.1806 -0.0408
 2243SOL    HW118191   3.658   2.933   6.724  1.8124 -0.9934  1.2672
 2243SOL    HW218192   3.620   2.984   6.860  0.2618 -0.1043 -0.0598
 2244SOL     OW18193   3.088   3.736  11.858 -0.5569 -0.5882 -0.0853
 2244SOL    HW118194   3.081   3.649  11.896 -1.2923  0.2136  1.6095
 2244SOL    HW218195   3.093   3.787  11.939  2.0944 -1.1360  0.0933
 2245SOL     OW18196   1.291   3.714  10.363 -0.0532  0.7360  0.4584
 2245SOL    HW118197   1.299   3.637  10.306 -0.8685  2.3251 -1.7866
 2245SOL    HW218198   1.347   3.684  10.435  0.4754 -1.2134 -0.7811
 2246SOL     OW18199   3.738   2.107  10.463  0.1779  0.3321 -0.4307
 2246SOL    HW118200   3.699   2.035  10.413  3.2661 -0.8739 -1.0910
 2246SOL    HW218201   3.803   2.070  10.523  1.7154  0.4978 -2.0243
 2247SOL     OW18202   1.409   3.255   2.230 -0.5454 -0.9971 -0.3150
 2247SOL    HW118203   1.339   3.297   2.281  1.3617  1.4738  0.2338
 2247SOL    HW218204   1.360   3.254   2.148  0.2102 -1.3123 -0.7563
 2248SOL     OW18205   3.184   1.199  12.389  0.1509 -0.0581 -0.0721
 2248SOL    HW118206   3.233   1.118  12.372 -2.4159 -1.7303  0.5390
 2248SOL    HW218207   3.248   1.245  12.442  2.8172 -0.7438 -2.6648
 2249SOL     OW18208   2.536   0.061   3.082 -0.3206 -0.1339  0.0019
 2249SOL    HW118209   2.468   0.105   3.032 -1.9637 -2.5288  0.1232
 2249SOL    HW218210   2.494   4.700   3.081 -0.9850  0.1493  2.2648
 2250SOL     OW18211   2.304   4.325   1.019  0.6181  0.0233  0.4703
 2250SOL    HW118212   2.374   4.297   1.077 -0.0749  0.6234  1.6039
 2250SOL    HW218213   2.226   4.284   1.057  0.2001  0.0840 -0.3073
 2251SOL     OW18214   3.863   0.786   2.627  0.5792 -0.1669  0.2334
 2251SOL    HW118215   3.826   0.778   2.715 -0.8998  0.3242 -0.3596
 2251SOL    HW218216   3.786   0.813   2.578  1.0684 -1.1129 -1.0412
 2252SOL     OW18217   2.926   2.191  16.821 -0.4134  0.3347 -0.4417
 2252SOL    HW118218   2.860   2.126  16.796 -0.3634  0.2521 -0.3572
 2252SOL    HW218219   2.994   2.166  16.759 -0.3926 -0.7600  0.0280
 2253SOL     OW18220   0.654   0.596  15.492  0.0472  0.0091  0.1481
 2253SOL    HW118221   0.718   0.546  15.441 -1.1783 -1.6545  0.2561
 2253SOL    HW218222   0.591   0.527  15.512  0.5562 -0.9278 -1.4437
 2254SOL     OW18223   0.516   0.218   9.700 -0.4362 -0.4349  0.3379
 2254SOL    HW118224   0.576   0.233   9.626  0.6570 -2.2228  0.8546
 2254SOL    HW218225   0.489   0.309   9.709  0.8376 -0.2096  1.8873
 2255SOL     OW18226   1.233   0.407   4.592  0.5645  0.0057  0.4317
 2255SOL    HW118227   1.204   0.321   4.561 -0.7516  0.3262  0.7805
 2255SOL    HW218228   1.287   0.437   4.519 -2.2409 -0.7713 -1.9524
 2256SOL     OW18229   0.889   1.220  13.038  0.2948 -0.8444 -0.6665
 2256SOL    HW118230   0.876   1.288  13.104  1.0880  0.1292 -1.5132
 2256SOL    HW218231   0.834   1.150  13.074  0.2748  0.0684  1.0646
 2257SOL     OW18232   1.468   3.877  15.719  1.0233 -0.1558 -0.1925
 2257SOL    HW118233   1.549   3.878  15.669  0.1340 -0.5851 -1.6400
 2257SOL    HW218234   1.469   3.785  15.745  1.5823 -0.2496 -0.5638
 2258SOL     OW18235   0.221   2.570   0.417  0.6797 -0.6660 -0.1060
 2258SOL    HW118236   0.193   2.493   0.466  2.8352  1.0387  3.7958
 2258SOL    HW218237   0.228   2.625   0.496 -0.6026 -0.3266 -0.2260
 2259SOL     OW18238   2.023   1.858   8.045  0.3389  0.3722  0.2311
 2259SOL    HW118239   2.063   1.900   7.969  1.9922 -1.2091  0.2369
 2259SOL    HW218240   1.950   1.920   8.044 -1.3716 -1.6673 -1.3316
 2260SOL     OW18241   3.755   1.909   7.282 -0.1162 -0.9974  0.2559
 2260SOL    HW118242   3.844   1.878   7.269 -0.1871 -1.1144  0.0533
 2260SOL    HW218243   3.718   1.831   7.322 -2.7347  0.2003  0.2031
 2261SOL     OW18244   1.533   0.785   0.807 -0.1615  0.4058 -0.5158
 2261SOL    HW118245   1.496   0.774   0.719  0.6241  0.3282 -0.8334
 2261SOL    HW218246   1.559   0.875   0.789 -0.1005  0.5559  0.3285
 2262SOL     OW18247   3.984   1.526   8.379  0.6067  0.2094  0.1105
 2262SOL    HW118248   3.901   1.545   8.336  0.7961  0.6261 -0.0758
 2262SOL    HW218249   4.050   1.568   8.323  1.8341 -1.4342  0.3561
 2263SOL     OW18250   4.019   2.852   5.162 -0.3361  0.0243 -0.1494
 2263SOL    HW118251   3.998   2.908   5.088 -0.9407 -0.7482 -0.5603
 2263SOL    HW218252   4.076   2.907   5.216 -0.6958 -0.8474  1.1295
 2264SOL     OW18253   0.123   1.011   4.146  0.5887 -0.0435  0.1490
 2264SOL    HW118254   0.091   0.938   4.199  2.5266 -0.7438  0.3555
 2264SOL    HW218255   0.042   1.041   4.105  1.2713  1.4440 -0.1257
 2265SOL     OW18256   1.588   2.097   2.611  0.1877  0.4521 -0.0654
 2265SOL    HW118257   1.552   2.105   2.523 -2.0665  0.3571  0.8584
 2265SOL    HW218258   1.522   2.038   2.646  0.2192  1.6384  1.9930
 2266SOL     OW18259   0.786   4.214   7.685 -0.1181 -0.0998  0.3180
 2266SOL    HW118260   0.790   4.193   7.779  0.3309 -0.3149  0.2488
 2266SOL    HW218261   0.736   4.141   7.648 -0.8398 -0.2344  1.5483
 2267SOL     OW18262   4.478   0.138   9.564 -0.0579 -0.6933  0.3186
 2267SOL    HW118263   4.431   0.098   9.637 -1.1900  0.6833  0.3409
 2267SOL    HW218264   4.462   0.232   9.571 -2.1626 -0.9587 -0.8495
 2268SOL     OW18265   2.286   3.222   4.734  0.0332  0.2293 -0.0144
 2268SOL    HW118266   2.264   3.169   4.811  1.2323 -0.8516 -0.4164
 2268SOL    HW218267   2.196   3.237   4.707 -0.0867  1.8506  1.2638
 2269SOL     OW18268   3.295   1.174   5.091  0.9477  0.4986  0.2033
 2269SOL    HW118269   3.273   1.136   5.177  0.9015  2.5655  1.0991
 2269SOL    HW218270   3.205   1.181   5.058  1.0182 -0.9777 -0.3125
 2270SOL     OW18271   2.764   0.747   5.671 -0.0114  0.5060 -0.6188
 2270SOL    HW118272   2.805   0.821   5.627  0.9664  0.0453 -0.4720
 2270SOL    HW218273   2.728   0.786   5.751  0.3385 -0.6874  0.1250
 2271SOL     OW18274   1.921   4.083   3.179 -0.6234  0.2993 -0.0066
 2271SOL    HW118275   2.010   4.103   3.210  0.2787  0.3839 -2.6473
 2271SOL    HW218276   1.931   4.087   3.084  0.9805 -1.4308  0.0893
 2272SOL     OW18277   2.440   2.440  13.067  0.3516 -0.1200 -0.1009
 2272SOL    HW118278   2.476   2.511  13.120  0.2463  0.1179 -0.3496
 2272SOL    HW218279   2.347   2.461  13.072  0.5485  0.5205  0.9114
 2273SOL     OW18280   2.909   1.036   4.735 -0.1558 -0.2594  0.1973
 2273SOL    HW118281   2.823   1.075   4.750 -0.2958  0.4713 -2.6021
 2273SOL    HW218282   2.910   1.043   4.640  0.9475  0.2562  0.2446
 2274SOL     OW18283   2.193   3.422  10.979 -0.5838  0.2208  0.4999
 2274SOL    HW118284   2.157   3.500  10.937  0.0760 -0.5242 -1.4758
 2274SOL    HW218285   2.107   3.390  11.007 -0.9892 -0.2732 -1.2989
 2275SOL     OW18286   2.092   2.597   5.478 -0.4147 -0.2885  0.1089
 2275SOL    HW118287   2.027   2.565   5.416  1.0545  2.4598 -2.8421
 2275SOL    HW218288   2.058   2.561   5.560 -0.8725  1.8898  0.8611
 2276SOL     OW18289   3.031   4.624   6.918  0.5427  0.3558  0.6118
 2276SOL    HW118290   3.029   4.594   7.009 -0.4550 -2.1152 -0.2131
 2276SOL    HW218291   2.994   4.711   6.931  0.6330  0.4965 -0.0686
 2277SOL     OW18292   3.596   0.694  10.021 -0.6457  0.6170  0.3668
 2277SOL    HW118293   3.534   0.767  10.022  0.8660  1.9355 -0.8279
 2277SOL    HW218294   3.642   0.704  10.104 -2.2698 -3.1688  1.7169
 2278SOL     OW18295   4.281   2.226  14.220  0.3677 -0.9439 -0.7690
 2278SOL    HW118296   4.266   2.172  14.297 -0.1414  2.2610  1.3808
 2278SOL    HW218297   4.361   2.181  14.192 -0.2644 -1.3857 -1.8423
 2279SOL     OW18298   0.813   3.154   2.360  0.6646  0.4984 -0.0345
 2279SOL    HW118299   0.884   3.096   2.331 -0.8710 -1.4281  0.0566
 2279SOL    HW218300   0.853   3.224   2.412  0.2244  0.7810 -0.0783
 2280SOL     OW18301   2.979   4.552   1.868  0.2384  0.3667 -0.3143
 2280SOL    HW118302   2.884   4.566   1.870  0.5562  2.5828 -0.5860
 2280SOL    HW218303   2.993   4.493   1.795 -0.0835 -1.6741  1.2656
 2281SOL     OW18304   4.638   2.415   2.092 -0.0684  0.2819  0.5095
 2281SOL    HW118305   4.578   2.473   2.139  0.0920 -0.9866  2.2696
 2281SOL    HW218306   4.698   2.396   2.164 -0.6292  0.5203  1.0392
 2282SOL     OW18307   4.319   4.494   2.589 -0.4494  0.9265 -0.0302
 2282SOL    HW118308   4.410   4.481   2.563 -0.3068 -0.0488  0.9659
 2282SOL    HW218309   4.305   4.412   2.636 -2.6855 -0.1333 -2.5814
 2283SOL     OW18310   0.396   4.519   5.350  0.0767 -0.3452 -0.0801
 2283SOL    HW118311   0.411   4.426   5.332  0.3853 -0.3765  0.3481
 2283SOL    HW218312   0.362   4.555   5.268  1.2451  0.3202 -0.2714
 2284SOL     OW18313   2.154   4.196   1.235  0.4270 -0.0102  0.0939
 2284SOL    HW118314   2.073   4.145   1.244 -0.1359  0.4995 -2.1492
 2284SOL    HW218315   2.185   4.185   1.325  0.8903  0.9080  0.0507
 2285SOL     OW18316   1.291   3.661   4.669  0.3797 -1.0978 -0.4137
 2285SOL    HW118317   1.375   3.669   4.623  0.0083  1.4056 -0.6369
 2285SOL    HW218318   1.329   3.608   4.740 -1.0935 -0.0650  1.1399
 2286SOL     OW18319   4.026   0.884   4.947  1.0653 -0.0254 -0.0436
 2286SOL    HW118320   4.023   0.836   4.865 -0.6736  0.1695 -0.0775
 2286SOL    HW218321   4.098   0.945   4.930  1.1093  0.3021  1.3199
 2287SOL     OW18322   2.619   3.212   5.219 -0.7903 -0.3168 -0.6251
 2287SOL    HW118323   2.578   3.286   5.175 -1.4471 -0.9197 -1.0162
 2287SOL    HW218324   2.543   3.156   5.232  0.6748 -2.2662 -0.3235
 2288SOL     OW18325   0.840   2.272   1.000 -0.0384 -0.0460 -0.3497
 2288SOL    HW118326   0.804   2.302   0.916  0.9773 -1.6991 -1.3848
 2288SOL    HW218327   0.856   2.359   1.036 -1.6231 -0.2745  0.8657
 2289SOL     OW18328   3.714   4.682   3.918 -0.1547 -0.0845  0.2498
 2289SOL    HW118329   3.764   0.021   3.969  1.1040 -0.6944 -0.2137
 2289SOL    HW218330   3.769   4.664   3.842  0.3234 -2.6822  1.1995
 2290SOL     OW18331   3.197   0.096   7.090  0.3378 -0.0391 -0.0977
 2290SOL    HW118332   3.236   0.014   7.121 -0.4214 -1.0751 -1.8542
 2290SOL    HW218333   3.205   0.080   6.996 -2.7384 -1.7910 -0.0437
 2291SOL     OW18334   0.726   3.311   7.588  0.1165  0.3277  0.3710
 2291SOL    HW118335   0.794   3.276   7.645  0.6430  0.2174 -0.3257
 2291SOL    HW218336   0.742   3.263   7.507 -1.0865  1.2224 -0.4110
 2292SOL     OW18337   2.598   3.145  15.934 -0.2685 -0.1121 -0.2208
 2292SOL    HW118338   2.628   3.234  15.918  0.4271 -0.4081 -0.5817
 2292SOL    HW218339   2.521   3.152  15.878  0.3529 -0.3938 -1.1146
 2293SOL     OW18340   3.183   3.793   7.499  0.1352  0.0427  0.1533
 2293SOL    HW118341   3.094   3.829   7.494  0.4210  0.8391  0.8513
 2293SOL    HW218342   3.224   3.870   7.540  1.7559 -1.2822  0.9964
 2294SOL     OW18343   3.478   1.444   2.908  0.4766 -0.3008  0.9108
 2294SOL    HW118344   3.522   1.453   2.823  0.7476 -0.0791  1.0724
 2294SOL    HW218345   3.554   1.452   2.966  0.4513  1.5839  0.6893
 2295SOL     OW18346   2.130   4.347  10.143  0.1001 -0.1922  0.5132
 2295SOL    HW118347   2.123   4.260  10.182 -1.4298 -0.9684 -1.4945
 2295SOL    HW218348   2.115   4.336  10.049 -3.2010  1.6255  0.8363
 2296SOL     OW18349   4.693   0.186  17.618 -0.0459 -0.0936 -0.1249
 2296SOL    HW118350   4.622   0.204  17.557 -0.2635 -1.1149 -0.1844
 2296SOL    HW218351   4.704   0.272  17.657 -1.2836 -0.2252  0.5120
 2297SOL     OW18352   3.815   1.668  11.698  0.4081  0.2185 -0.1551
 2297SOL    HW118353   3.727   1.701  11.716  1.1665  1.9276  0.4717
 2297SOL    HW218354   3.823   1.592  11.756  1.5839  0.1089 -0.4578
 2298SOL     OW18355   2.317   0.911   4.483  0.0491  0.5430 -0.9187
 2298SOL    HW118356   2.329   0.816   4.481  1.5636  0.6517  2.1634
 2298SOL    HW218357   2.340   0.928   4.574 -1.8648  0.1525 -0.3522
 2299SOL     OW18358   1.700   2.711   6.140  0.2370  0.2759  0.2487
 2299SOL    HW118359   1.739   2.637   6.187  0.0826  0.8628  1.3023
 2299SOL    HW218360   1.629   2.725   6.203  0.9659 -0.8069  1.3091
 2300SOL     OW18361   2.893   3.005   7.904  0.1876  0.0572  0.6734
 2300SOL    HW118362   2.860   3.095   7.907  0.7147  0.2545  0.5548
 2300SOL    HW218363   2.856   2.974   7.987 -0.9100  2.2575  0.9867
 2301SOL     OW18364   4.659   1.811   9.756 -0.6717 -0.1077 -0.0145
 2301SOL    HW118365   4.723   1.805   9.685  0.8572 -2.3775  1.5507
 2301SOL    HW218366   4.602   1.735   9.744 -1.4407  0.3015  1.1453
 2302SOL     OW18367   4.198   0.480   2.593 -0.2937  0.0261  0.3681
 2302SOL    HW118368   4.108   0.491   2.560 -0.7407 -0.0366  1.5693
 2302SOL    HW218369   4.185   0.387   2.613  1.8913 -0.2623  0.3525
 2303SOL     OW18370   1.588   4.103   3.273 -0.2427 -0.5676  0.0510
 2303SOL    HW118371   1.599   4.060   3.188  0.6973  0.8789 -0.5483
 2303SOL    HW218372   1.674   4.100   3.315  0.7791  2.1135 -1.8800
 2304SOL     OW18373   1.790   1.538   5.024 -0.1231  0.5689 -0.3713
 2304SOL    HW118374   1.881   1.513   5.014 -1.3361 -2.8203 -3.1222
 2304SOL    HW218375   1.804   1.632   5.017  0.9662  0.6340  2.9052
 2305SOL     OW18376   1.876   0.397   7.175  0.3523  0.4232  0.2861
 2305SOL    HW118377   1.834   0.382   7.090 -0.2792 -0.5121  0.7578
 2305SOL    HW218378   1.814   0.458   7.215  0.9338 -0.4993  2.6133
 2306SOL     OW18379   4.392   4.107   4.289  0.5369  0.2858 -0.1067
 2306SOL    HW118380   4.480   4.122   4.253  0.9857 -0.7369  0.5520
 2306SOL    HW218381   4.339   4.077   4.215 -0.6077 -1.0214  1.2591
 2307SOL     OW18382   2.648   1.528  13.933 -0.1697  0.3778 -0.0369
 2307SOL    HW118383   2.700   1.592  13.982 -0.9795  2.0915 -1.3863
 2307SOL    HW218384   2.673   1.552  13.844 -2.0860  2.3692 -0.0406
 2308SOL     OW18385   3.854   0.428   8.445 -0.0503 -0.1900 -0.0723
 2308SOL    HW118386   3.823   0.378   8.370  1.3570  1.4209 -1.7186
 2308SOL    HW218387   3.782   0.410   8.506 -0.3469 -2.2138 -1.0126
 2309SOL     OW18388   2.607   2.721   7.760 -0.0459 -0.3377  0.2503
 2309SOL    HW118389   2.531   2.779   7.763  0.7209  0.6712  0.4937
 2309SOL    HW218390   2.577   2.652   7.819  0.4369 -0.1477  0.7218
 2310SOL     OW18391   3.479   0.603  12.654  0.1358  0.6268  0.2264
 2310SOL    HW118392   3.509   0.657  12.727  0.7753  0.6802 -0.0774
 2310SOL    HW218393   3.411   0.545  12.688  0.6938  0.5240  1.1786
 2311SOL     OW18394   0.821   0.543   2.071 -0.6741 -0.4530 -0.1095
 2311SOL    HW118395   0.760   0.477   2.102 -0.3426 -0.3832  0.6771
 2311SOL    HW218396   0.908   0.509   2.088 -0.2521  0.8340  0.3526
 2312SOL     OW18397   2.546   4.707  14.970 -0.5871  0.3936 -0.2454
 2312SOL    HW118398   2.588   4.671  14.891  0.8760  1.1506  0.1953
 2312SOL    HW218399   2.477   0.033  14.927  2.3726  4.0409 -0.5747
 2313SOL     OW18400   3.552   0.767   7.902 -0.0761 -0.4694  0.0915
 2313SOL    HW118401   3.612   0.840   7.916  1.1693 -1.3911 -0.4435
 2313SOL    HW218402   3.472   0.816   7.882  1.4545  1.8358 -0.4086
 2314SOL     OW18403   3.982   3.427  14.036  0.2881 -0.1540  0.0316
 2314SOL    HW118404   4.042   3.492  14.073  1.4723 -1.3740  0.2775
 2314SOL    HW218405   3.924   3.484  13.986  1.8365 -0.5858 -2.2420
 2315SOL     OW18406   0.156   2.297   7.444 -0.2006 -0.0721  0.4511
 2315SOL    HW118407   0.203   2.381   7.437  0.1151 -0.2310  0.6455
 2315SOL    HW218408   0.229   2.236   7.451 -2.5919 -3.1528 -1.5284
 2316SOL     OW18409   0.758   3.268  13.648 -0.3263  0.0872 -0.2548
 2316SOL    HW118410   0.685   3.234  13.698  1.0199 -0.6931  1.1569
 2316SOL    HW218411   0.749   3.363  13.635 -2.6696 -0.2196 -0.9717
 2317SOL     OW18412   3.307   4.307   2.150  0.1803 -0.6129  0.5162
 2317SOL    HW118413   3.375   4.243   2.130  0.7423  0.7459 -1.8705
 2317SOL    HW218414   3.296   4.359   2.070  0.5633  0.0605  0.9041
 2318SOL     OW18415   0.197   0.241   1.856 -0.1270 -0.4204 -0.1496
 2318SOL    HW118416   0.225   0.275   1.941 -0.2282  0.5544 -0.5080
 2318SOL    HW218417   0.112   0.209   1.887 -0.3652  0.0534 -0.3081
 2319SOL     OW18418   1.989   2.463   9.697 -0.9357  0.3974 -0.1471
 2319SOL    HW118419   1.924   2.520   9.739  0.8963  2.6453 -0.3691
 2319SOL    HW218420   2.062   2.520   9.673  0.2847 -0.7534  0.8106
 2320SOL     OW18421   4.201   0.036   4.986  0.0432  0.0515  0.2205
 2320SOL    HW118422   4.136   0.060   4.921  1.6069  1.7543 -0.7279
 2320SOL    HW218423   4.266   0.107   4.980  1.2279 -0.9836  0.7862
 2321SOL     OW18424   3.278   3.623   1.823 -0.3128 -0.6693 -0.1081
 2321SOL    HW118425   3.289   3.610   1.918  2.2288  0.9116 -0.1710
 2321SOL    HW218426   3.334   3.701   1.818 -1.5074  0.0024 -2.5548
 2322SOL     OW18427   3.458   3.764   2.816  0.7118 -0.1517 -0.1558
 2322SOL    HW118428   3.399   3.813   2.758 -1.5468 -0.9419  1.4800
 2322SOL    HW218429   3.503   3.720   2.744  0.3578  0.8399 -0.9845
 2323SOL     OW18430   1.220   0.257   4.829 -0.5629 -0.2910  0.0738
 2323SOL    HW118431   1.259   0.318   4.767 -2.1204  0.7663  0.1388
 2323SOL    HW218432   1.245   0.295   4.913 -2.8555 -1.3132  1.2132
 2324SOL     OW18433   4.595   3.669  11.591  0.2132 -0.9177 -0.3077
 2324SOL    HW118434   4.648   3.631  11.521 -2.2130 -2.9235 -1.0629
 2324SOL    HW218435   4.570   3.743  11.536 -1.8777  0.3348  2.3196
 2325SOL     OW18436   4.319   0.456   3.806  0.2501 -0.5715 -0.3138
 2325SOL    HW118437   4.309   0.450   3.901  2.7123  1.1224  0.0710
 2325SOL    HW218438   4.415   0.460   3.806  0.1162  3.2092 -1.8680
 2326SOL     OW18439   0.098   0.062  16.077  0.5268  0.0817 -0.0879
 2326SOL    HW118440   0.125   4.698  16.056 -0.9144 -0.9570  2.4668
 2326SOL    HW218441   0.062   0.089  15.992 -1.8201 -0.0531  0.8632
 2327SOL     OW18442   2.963   0.302  11.983 -0.0811  0.4811  0.4401
 2327SOL    HW118443   3.028   0.279  12.050 -1.2007 -1.2160  0.9481
 2327SOL    HW218444   2.986   0.235  11.918  1.1426  0.8609  0.4763
 2328SOL     OW18445   4.527   0.412   9.594  0.0112  0.0404  0.3967
 2328SOL    HW118446   4.499   0.405   9.686  0.8723 -0.3265  0.6316
 2328SOL    HW218447   4.606   0.465   9.607  0.5334 -0.4796 -0.7147
 2329SOL     OW18448   1.419   0.102  12.449 -0.3178 -0.2092 -0.6064
 2329SOL    HW118449   1.355   0.122  12.517 -0.9933  1.4950 -1.7415
 2329SOL    HW218450   1.493   0.081  12.505 -0.2786  0.6029 -0.3515
 2330SOL     OW18451   0.881   1.849   5.661  0.3149 -0.0168 -0.7145
 2330SOL    HW118452   0.954   1.880   5.607  1.0510 -0.5329 -0.0261
 2330SOL    HW218453   0.853   1.938   5.681  0.9224  0.3157 -1.3346
 2331SOL     OW18454   3.824   2.436   7.971  0.0784 -0.7545  0.4184
 2331SOL    HW118455   3.896   2.380   7.998  2.3364  1.5022 -0.9976
 2331SOL    HW218456   3.822   2.412   7.878  0.1710 -1.5794  0.6251
 2332SOL     OW18457   2.555   2.075   5.561  0.1380  0.0980 -0.4096
 2332SOL    HW118458   2.618   2.014   5.522  1.8503  0.8711  1.1217
 2332SOL    HW218459   2.527   2.023   5.638 -0.3607  1.3798  0.2727
 2333SOL     OW18460   2.884   0.351   1.661  0.0924  0.1903  0.1004
 2333SOL    HW118461   2.927   0.300   1.592 -1.3060 -1.4237  0.4214
 2333SOL    HW218462   2.809   0.295   1.682  0.3832 -0.0093  0.6176
 2334SOL     OW18463   1.366   2.405  13.002  0.7233 -0.0300 -0.3192
 2334SOL    HW118464   1.322   2.362  13.076 -0.1683 -0.2000 -0.9584
 2334SOL    HW218465   1.446   2.437  13.044  0.5812 -0.6281  0.4240
 2335SOL     OW18466   1.294   0.994   3.382 -0.3880  0.0567  0.4668
 2335SOL    HW118467   1.355   1.009   3.455  0.1532  0.3800 -0.0561
 2335SOL    HW218468   1.253   0.919   3.426 -0.3919 -1.2831 -1.8119
 2336SOL     OW18469   0.347   1.148   4.122 -0.1542 -0.3236 -0.1963
 2336SOL    HW118470   0.373   1.138   4.214 -2.0789 -1.4687  0.2202
 2336SOL    HW218471   0.269   1.093   4.121  1.4523 -2.6501 -0.1801
 2337SOL     OW18472   2.482   4.590   7.160 -0.1375 -0.1987 -0.2899
 2337SOL    HW118473   2.459   4.564   7.249 -1.5467  1.3498 -0.2040
 2337SOL    HW218474   2.494   4.502   7.124  1.4702 -0.1396  0.0713
 2338SOL     OW18475   2.266   1.907   4.806 -0.7088 -0.2028  0.3960
 2338SOL    HW118476   2.312   1.990   4.789 -2.8040  0.5643 -1.5621
 2338SOL    HW218477   2.338   1.854   4.840 -1.7739 -0.0800  2.8856
 2339SOL     OW18478   1.922   2.089  17.599  0.7455  0.3221 -0.6824
 2339SOL    HW118479   1.939   2.182  17.614  0.8587 -0.0778  1.7718
 2339SOL    HW218480   2.007   2.065  17.637 -0.7939 -0.9644  1.9616
 2340SOL     OW18481   0.539   0.401  14.693  0.5064  0.1516  0.2324
 2340SOL    HW118482   0.483   0.477  14.675  0.4657 -0.0771 -0.5776
 2340SOL    HW218483   0.580   0.389  14.608 -0.7497  0.2134 -0.3837
 2341SOL     OW18484   1.708   1.358   5.946  0.0981  0.2294 -0.1701
 2341SOL    HW118485   1.700   1.337   6.039 -0.6393  0.2661 -0.2276
 2341SOL    HW218486   1.719   1.453   5.941 -0.9021  0.4134  1.2836
 2342SOL     OW18487   3.631   2.577   5.334  0.1100  0.7463 -0.0868
 2342SOL    HW118488   3.657   2.486   5.344 -2.4511  0.1016  0.7095
 2342SOL    HW218489   3.720   2.612   5.339 -0.0961  1.2760 -0.0485
 2343SOL     OW18490   2.384   1.641   7.081 -0.0099 -0.5768 -0.4235
 2343SOL    HW118491   2.348   1.713   7.029 -2.1469 -1.2291  0.1538
 2343SOL    HW218492   2.425   1.675   7.161 -1.8306  0.6942 -0.0232
 2344SOL     OW18493   2.437   2.830   3.747 -0.3564 -1.0662 -0.2889
 2344SOL    HW118494   2.502   2.839   3.678  1.8088 -1.4350  1.7209
 2344SOL    HW218495   2.391   2.748   3.727 -2.3133 -0.3424  1.2317
 2345SOL     OW18496   1.031   0.852   3.783 -0.3968  0.0557 -0.5951
 2345SOL    HW118497   0.973   0.787   3.744  0.4021 -0.3057 -1.1837
 2345SOL    HW218498   0.968   0.915   3.817  0.1616 -0.5034  1.4658
 2346SOL     OW18499   2.425   2.659   3.372  0.5100 -0.6095 -0.0277
 2346SOL    HW118500   2.344   2.708   3.365 -0.0068 -1.0561  2.6685
 2346SOL    HW218501   2.402   2.568   3.388  2.4895 -1.0168  0.5630
 2347SOL     OW18502   0.939   4.013   3.530 -0.2720  0.8610  0.0024
 2347SOL    HW118503   0.936   4.109   3.537 -2.1804  0.7349  0.8998
 2347SOL    HW218504   1.022   4.008   3.482  1.2043  0.2201  2.6371
 2348SOL     OW18505   0.012   0.120   4.623  0.1368  0.1808  0.3837
 2348SOL    HW118506   0.022   0.044   4.564 -0.7294 -0.2535  0.7964
 2348SOL    HW218507   0.022   0.085   4.711  0.8591  0.1822  0.2987
 2349SOL     OW18508   1.552   1.227   5.756 -0.5926  0.8266  0.3368
 2349SOL    HW118509   1.501   1.162   5.802 -0.0820  1.5230  1.8864
 2349SOL    HW218510   1.612   1.263   5.822 -0.7543  1.1923  0.2841
 2350SOL     OW18511   2.624   0.100   4.325 -0.1990 -0.1183 -0.0932
 2350SOL    HW118512   2.578   0.089   4.408  1.0943 -0.0053  0.6448
 2350SOL    HW218513   2.603   0.020   4.277 -0.3758 -0.3697  0.4084
 2351SOL     OW18514   3.614   3.150   8.137  0.1870  0.1554  0.6198
 2351SOL    HW118515   3.608   3.077   8.076  0.0632  1.6027 -1.1155
 2351SOL    HW218516   3.656   3.214   8.079 -2.9804 -1.1761 -3.0781
 2352SOL     OW18517   0.036   0.013  10.038 -0.8334 -0.1530  0.3033
 2352SOL    HW118518   0.110   0.047   9.987  0.8080 -2.6861  0.9745
 2352SOL    HW218519   4.715   4.689   9.971  0.1078 -1.9794  0.9999
 2353SOL     OW18520   3.482   2.051  12.697 -0.4608  0.6288 -0.2671
 2353SOL    HW118521   3.515   1.975  12.745 -1.4246 -0.1320 -0.8080
 2353SOL    HW218522   3.520   2.132  12.733 -2.6158  1.2527  0.5818
 2354SOL     OW18523   4.434   4.317   2.348 -0.2523  0.1586  0.1573
 2354SOL    HW118524   4.513   4.348   2.392 -0.2383 -0.0736  0.2919
 2354SOL    HW218525   4.481   4.280   2.273 -2.1964 -3.3571  0.6771
 2355SOL     OW18526   1.197   0.512   1.869 -0.0518 -0.0831 -0.1529
 2355SOL    HW118527   1.196   0.531   1.776  0.0123 -0.8183 -0.3088
 2355SOL    HW218528   1.240   0.426   1.863  0.9898  0.6234 -2.4834
 2356SOL     OW18529   3.290   0.411   5.774  0.2524 -0.0483  0.2377
 2356SOL    HW118530   3.262   0.455   5.694  1.1148  0.4963  0.2398
 2356SOL    HW218531   3.220   0.410   5.840 -0.1205  2.0624 -0.1227
 2357SOL     OW18532   3.973   4.170   3.241  0.2476  0.1805  0.5230
 2357SOL    HW118533   3.890   4.167   3.288  1.1310 -4.2233  1.8143
 2357SOL    HW218534   3.941   4.227   3.171 -0.5938  0.0926  0.8493
 2358SOL     OW18535   4.397   2.013   8.598 -0.8534 -0.3254  0.0912
 2358SOL    HW118536   4.372   1.940   8.655  1.3068 -1.2315 -0.1116
 2358SOL    HW218537   4.321   2.015   8.540 -0.1463 -0.1406 -0.8451
 2359SOL     OW18538   0.993   4.232  15.164 -0.0694  0.6030 -0.1106
 2359SOL    HW118539   0.932   4.182  15.110  2.3258 -2.1145 -0.2843
 2359SOL    HW218540   1.035   4.287  15.099 -0.9479  1.2179 -0.1594
 2360SOL     OW18541   1.976   4.516   9.647 -0.5748 -0.1046  0.5603
 2360SOL    HW118542   2.049   4.539   9.703 -0.0096 -2.6178  0.8859
 2360SOL    HW218543   1.901   4.528   9.706 -0.2433  1.1147  0.7216
 2361SOL     OW18544   1.434   2.617   8.437  0.0065  0.0559  0.1534
 2361SOL    HW118545   1.404   2.703   8.467 -3.1696 -1.3043  0.8121
 2361SOL    HW218546   1.484   2.582   8.511  2.7234  1.1801 -1.1511
 2362SOL     OW18547   4.344   2.455   1.750 -0.4013 -0.0667  0.0371
 2362SOL    HW118548   4.412   2.389   1.734  1.0283  1.3742  0.2016
 2362SOL    HW218549   4.301   2.431   1.832  1.9240 -3.3823  0.2849
 2363SOL     OW18550   4.127   4.526   6.868 -0.1839 -0.0741  0.4163
 2363SOL    HW118551   4.156   4.537   6.959  0.6872  0.1179  0.1132
 2363SOL    HW218552   4.215   4.503   6.837 -1.0220 -2.0668 -0.4306
 2364SOL     OW18553   4.494   1.856   3.008  0.2071 -0.0796 -0.4157
 2364SOL    HW118554   4.502   1.839   3.102 -0.5869 -3.0651 -0.9025
 2364SOL    HW218555   4.405   1.890   3.010  0.0507 -0.3860 -1.9379
 2365SOL     OW18556   4.429   0.035   6.952 -0.0576 -0.4616 -0.4407
 2365SOL    HW118557   4.400   4.670   6.941  0.8941 -0.7668 -0.4824
 2365SOL    HW218558   4.342   0.075   6.947  0.0538 -0.1989 -0.2748
 2366SOL     OW18559   0.047   4.079  14.939  0.1547  0.3294  0.0528
 2366SOL    HW118560   0.097   4.001  14.965 -0.3858  0.2660  0.8966
 2366SOL    HW218561   4.705   4.079  15.007 -0.6341 -3.0479 -0.6977
 2367SOL     OW18562   0.699   0.099   3.603  0.2149  0.3892 -0.3527
 2367SOL    HW118563   0.645   0.054   3.539 -2.2035  1.3521  1.0068
 2367SOL    HW218564   0.786   0.101   3.564  0.1140  1.1126 -0.5490
 2368SOL     OW18565   3.456   0.607   4.175  0.5218 -0.1943  0.6070
 2368SOL    HW118566   3.508   0.632   4.251  0.0490  3.0725 -0.1386
 2368SOL    HW218567   3.372   0.580   4.211 -0.0542  0.7449 -0.0430
 2369SOL     OW18568   3.572   4.386   5.833 -0.5474  0.0111  0.0972
 2369SOL    HW118569   3.666   4.365   5.838 -0.7523 -0.5694  1.6558
 2369SOL    HW218570   3.567   4.476   5.866  0.3942  0.7249 -1.7209
 2370SOL     OW18571   3.359   1.030  12.740  0.6457 -0.2356 -0.8286
 2370SOL    HW118572   3.283   1.013  12.685 -0.6632  3.0317 -0.0231
 2370SOL    HW218573   3.311   1.018  12.822 -1.8943  1.7111 -2.0426
 2371SOL     OW18574   4.590   1.952  12.995 -0.0478 -0.0291  0.2392
 2371SOL    HW118575   4.570   1.904  13.076  1.9792  2.0565  1.9697
 2371SOL    HW218576   4.549   1.887  12.939  0.6000 -1.6385  1.6283
 2372SOL     OW18577   0.126   1.034   8.197  0.4220 -0.7372  0.0355
 2372SOL    HW118578   0.120   0.999   8.286 -0.3371  2.6924  1.3343
 2372SOL    HW218579   0.169   1.119   8.205 -0.7666 -0.1114 -0.1815
 2373SOL     OW18580   0.193   2.700   0.670  0.6220 -0.2725 -0.3888
 2373SOL    HW118581   0.130   2.766   0.700  1.6392  0.1247  0.8925
 2373SOL    HW218582   0.274   2.744   0.695  1.7926 -3.1391  0.8878
 2374SOL     OW18583   3.130   4.400   8.906 -0.6509 -0.0602  0.7282
 2374SOL    HW118584   3.214   4.364   8.934 -1.9340 -0.9116  3.5415
 2374SOL    HW218585   3.131   4.486   8.950  1.3823 -0.7994  2.1556
 2375SOL     OW18586   4.097   3.509   2.118 -0.4113 -0.3154 -0.0523
 2375SOL    HW118587   4.096   3.556   2.201 -1.5589 -0.3415 -0.0490
 2375SOL    HW218588   4.162   3.442   2.136 -0.9776 -0.3482  1.8272
 2376SOL     OW18589   3.581   2.106   4.971  0.1511  0.1941 -0.6853
 2376SOL    HW118590   3.652   2.055   4.932 -1.4179 -2.6322  0.1216
 2376SOL    HW218591   3.501   2.075   4.927 -1.9999  2.8132  1.3573
 2377SOL     OW18592   2.730   0.109   1.387 -0.5451  0.0212 -0.0999
 2377SOL    HW118593   2.819   0.126   1.419 -0.4870 -0.6245  0.0779
 2377SOL    HW218594   2.676   0.157   1.450 -1.0145 -3.2595  1.9614
 2378SOL     OW18595   0.472   2.576   4.594  0.4282  0.4034  0.1870
 2378SOL    HW118596   0.423   2.517   4.652  0.5877  1.0112  0.9393
 2378SOL    HW218597   0.552   2.599   4.642  0.7864 -1.5852  0.5721
 2379SOL     OW18598   0.052   0.453   6.455 -1.3320 -0.5639  0.5231
 2379SOL    HW118599   0.111   0.493   6.519 -0.2169 -1.5202  0.0924
 2379SOL    HW218600   0.060   0.520   6.387  1.5483  0.2235  1.6312
 2380SOL     OW18601   0.366   4.525   7.350 -0.1336 -0.1536 -0.2309
 2380SOL    HW118602   0.317   4.550   7.429  0.7986 -0.0222  0.2998
 2380SOL    HW218603   0.320   4.582   7.288 -2.5433 -2.3678 -0.4877
 2381SOL     OW18604   3.969   0.830  16.488  0.0982  0.2376 -0.2679
 2381SOL    HW118605   3.992   0.881  16.411  1.1857  1.2021  0.6953
 2381SOL    HW218606   4.052   0.812  16.532  1.0798  1.4038 -1.6909
 2382SOL     OW18607   3.256   0.029   1.812  0.5058  0.2146 -0.5326
 2382SOL    HW118608   3.316   0.047   1.740  1.4283 -2.2376 -0.3937
 2382SOL    HW218609   3.208   4.684   1.768  2.3041 -0.3376 -1.5988
 2383SOL     OW18610   1.048   4.409  11.622 -0.2291  0.1716 -0.3512
 2383SOL    HW118611   1.026   4.453  11.704 -0.1108  0.2591 -0.3665
 2383SOL    HW218612   1.032   4.480  11.560  1.9296  1.3673  0.4576
 2384SOL     OW18613   2.689   3.607   5.956  0.2467  0.7577  0.1491
 2384SOL    HW118614   2.673   3.545   5.885 -1.3894  1.1384  0.1784
 2384SOL    HW218615   2.784   3.619   5.948  0.7781 -4.0987 -0.5105
 2385SOL     OW18616   1.835   3.849   9.879  0.4396 -0.3185  0.2135
 2385SOL    HW118617   1.871   3.780   9.823 -2.7030 -0.6874 -1.3633
 2385SOL    HW218618   1.743   3.826   9.884  0.2949 -0.0089 -0.8760
 2386SOL     OW18619   1.207   3.247  12.074  0.4966  0.0077 -0.0417
 2386SOL    HW118620   1.160   3.330  12.060  2.5313  1.0211 -0.8353
 2386SOL    HW218621   1.292   3.284  12.052 -0.3844  1.6510 -0.7356
 2387SOL     OW18622   1.920   3.290  11.651 -0.0745  0.3890  0.1534
 2387SOL    HW118623   2.007   3.316  11.619  1.4374 -0.8442  3.2928
 2387SOL    HW218624   1.882   3.252  11.572  1.0027 -1.2044  0.4171
 2388SOL     OW18625   3.694   3.954   4.351  0.7067  0.4253 -0.1517
 2388SOL    HW118626   3.769   4.007   4.324  1.1770 -1.1337 -1.8755
 2388SOL    HW218627   3.663   4.003   4.427  2.1170 -1.3602  1.5972
 2389SOL     OW18628   1.506   1.712  15.644  0.3980  0.2021  0.4632
 2389SOL    HW118629   1.597   1.684  15.654  0.7054  1.3021  0.7751
 2389SOL    HW218630   1.501   1.759  15.560  0.1086 -0.2080  0.2520
 2390SOL     OW18631   3.179   3.248   5.097  0.1643 -0.2908 -0.0609
 2390SOL    HW118632   3.106   3.256   5.159 -0.0614 -0.3666 -0.3146
 2390SOL    HW218633   3.229   3.178   5.138 -0.0366  0.7449  1.9395
 2391SOL     OW18634   4.308   1.267   3.676  0.4397  0.3720  0.3482
 2391SOL    HW118635   4.225   1.266   3.723 -1.5966  0.0764 -3.1947
 2391SOL    HW218636   4.282   1.204   3.608 -0.2724  2.5315 -1.3670
 2392SOL     OW18637   2.448   1.529   4.220  0.5897  0.2430  0.5129
 2392SOL    HW118638   2.393   1.451   4.226  0.5331  0.2297 -0.2523
 2392SOL    HW218639   2.417   1.579   4.296  0.2407  0.6359  0.1134
 2393SOL     OW18640   1.295   0.512   7.452  0.1917 -0.2372  0.4468
 2393SOL    HW118641   1.344   0.459   7.388  1.0668  0.8060  0.2448
 2393SOL    HW218642   1.361   0.580   7.466 -0.0275  0.0876 -0.1347
 2394SOL     OW18643   0.255   1.417   8.151 -0.5260 -0.7177 -0.4989
 2394SOL    HW118644   0.250   1.465   8.234  0.5329 -1.8458  0.2187
 2394SOL    HW218645   0.161   1.417   8.133 -0.4226 -0.2942 -1.0309
 2395SOL     OW18646   2.738   3.342   6.291 -0.5064 -0.0307 -0.2551
 2395SOL    HW118647   2.723   3.269   6.351  1.0009 -0.9337 -0.9495
 2395SOL    HW218648   2.692   3.323   6.209 -1.0462  0.9944 -0.1879
 2396SOL     OW18649   3.996   1.353   6.846  0.7986  0.4730 -0.4026
 2396SOL    HW118650   4.059   1.388   6.909  0.6184  2.0929 -1.1134
 2396SOL    HW218651   4.053   1.298   6.792  2.5159  0.8768  0.9774
 2397SOL     OW18652   3.651   2.254   6.540  0.0119  0.0921  0.1288
 2397SOL    HW118653   3.594   2.306   6.597 -0.3316  0.3537 -0.4584
 2397SOL    HW218654   3.737   2.289   6.566 -1.2696  3.2879  0.0873
 2398SOL     OW18655   2.658   3.548  10.775  0.0124 -0.2895  0.7027
 2398SOL    HW118656   2.647   3.571  10.867  2.5222 -0.4794  1.0409
 2398SOL    HW218657   2.751   3.559  10.756 -0.2211 -3.0673 -2.1435
 2399SOL     OW18658   2.588   3.805  16.900 -0.4160 -0.1049  0.2989
 2399SOL    HW118659   2.580   3.737  16.967 -1.8302  0.0576  0.3021
 2399SOL    HW218660   2.664   3.772  16.852 -1.8741 -0.6666 -1.6214
 2400SOL     OW18661   0.540   2.280  17.138 -0.3266 -0.0851 -0.6782
 2400SOL    HW118662   0.599   2.244  17.072 -1.6425 -2.8894 -0.3489
 2400SOL    HW218663   0.496   2.351  17.091  0.1212 -0.2120 -1.2792
 2401SOL     OW18664   3.631   0.061   9.290 -0.6156  0.5047  0.0425
 2401SOL    HW118665   3.644   0.086   9.381  2.2477  1.5593 -0.6499
 2401SOL    HW218666   3.707   0.101   9.248  0.7780 -0.7817  1.3612
 2402SOL     OW18667   0.840   4.449   5.791  0.5028  0.0871  0.5775
 2402SOL    HW118668   0.835   4.515   5.722  0.6866 -0.5465 -0.0359
 2402SOL    HW218669   0.901   4.503   5.841  0.7072  1.2956 -0.9968
 2403SOL     OW18670   0.031   1.056   2.677 -0.3080  0.0504  0.0297
 2403SOL    HW118671   4.722   1.025   2.761  1.3060 -0.8814  0.3469
 2403SOL    HW218672   4.706   1.004   2.613 -2.3469  1.9715  0.0878
 2404SOL     OW18673   1.026   3.863  12.483 -0.1067  0.4298 -0.2465
 2404SOL    HW118674   1.002   3.923  12.553 -1.5719 -0.7851  0.2878
 2404SOL    HW218675   1.069   3.794  12.533 -2.7354 -0.3944  0.8777
 2405SOL     OW18676   2.837   0.322   4.094 -0.4698  0.1018  0.3505
 2405SOL    HW118677   2.909   0.264   4.118 -1.7371 -1.5007  0.2599
 2405SOL    HW218678   2.845   0.329   3.999  0.8675  3.6463  0.7284
 2406SOL     OW18679   2.325   3.314   5.251  1.1346  0.0410 -0.0422
 2406SOL    HW118680   2.302   3.404   5.274 -0.6633 -1.1483  2.7810
 2406SOL    HW218681   2.272   3.302   5.172 -0.7135  1.4727  0.9926
 2407SOL     OW18682   3.641   0.929   4.506  0.2200  0.0521 -0.1150
 2407SOL    HW118683   3.609   0.939   4.416  0.1083 -1.1536 -0.2037
 2407SOL    HW218684   3.735   0.921   4.493  0.2651 -2.5850  1.8676
 2408SOL     OW18685   1.131   1.666   7.145 -0.0592 -0.2059  0.0966
 2408SOL    HW118686   1.094   1.578   7.159  0.8795 -0.8991 -1.8724
 2408SOL    HW218687   1.070   1.708   7.084 -0.3410  0.5335  0.8894
 2409SOL     OW18688   4.682   2.733   1.933  0.2200 -0.1959  0.1107
 2409SOL    HW118689   4.643   2.807   1.979 -1.1091 -0.7304 -0.1625
 2409SOL    HW218690   4.655   2.748   1.843  1.3333 -1.0120 -0.3629
 2410SOL     OW18691   3.805   2.136   1.768 -0.0656 -0.2145 -0.6686
 2410SOL    HW118692   3.884   2.170   1.726 -0.7364  1.2313 -0.7495
 2410SOL    HW218693   3.823   2.042   1.769 -2.3293 -0.6325  0.6912
 2411SOL     OW18694   4.442   0.151  11.841  0.1238 -0.0766 -0.3839
 2411SOL    HW118695   4.383   0.166  11.766 -1.9541 -1.2526  1.0231
 2411SOL    HW218696   4.507   0.105  11.789 -0.8067 -2.7827  0.8698
 2412SOL     OW18697   3.883   2.692   5.862  0.1458 -0.0677 -0.4494
 2412SOL    HW118698   3.808   2.700   5.921  1.4823 -0.5615  1.3305
 2412SOL    HW218699   3.880   2.604   5.825 -0.6101  0.4092 -1.5064
 2413SOL     OW18700   4.134   2.623   9.071 -0.2174  0.2054  0.0861
 2413SOL    HW118701   4.055   2.581   9.036 -0.7073  0.2601  1.1113
 2413SOL    HW218702   4.157   2.684   9.001  0.4436 -0.8703 -0.6361
 2414SOL     OW18703   1.038   0.797   8.472 -0.0915  0.4619  0.1017
 2414SOL    HW118704   1.056   0.868   8.410 -0.9699  0.1568 -0.4992
 2414SOL    HW218705   1.106   0.733   8.453 -1.1620 -0.9210  0.9604
 2415SOL     OW18706   2.415   2.171   2.843  0.0205  0.0208  0.2676
 2415SOL    HW118707   2.402   2.141   2.933  3.3125 -2.1510  0.0206
 2415SOL    HW218708   2.354   2.244   2.835 -0.6394 -0.5314  0.2148
 2416SOL     OW18709   0.009   4.324   9.741 -0.5318  0.5526 -0.8142
 2416SOL    HW118710   0.054   4.398   9.782  2.0359 -0.9205 -0.9682
 2416SOL    HW218711   4.670   4.310   9.810 -1.0673  1.4171 -1.1401
 2417SOL     OW18712   2.062   2.206   3.639  0.1578 -0.0052 -0.3410
 2417SOL    HW118713   2.025   2.168   3.560 -0.0920 -0.2694 -0.0949
 2417SOL    HW218714   2.060   2.302   3.631  1.5077  0.1117  0.6247
 2418SOL     OW18715   1.521   4.539  14.306 -0.2096  0.2001  0.0355
 2418SOL    HW118716   1.496   4.527  14.398 -0.7619 -0.4294 -0.1989
 2418SOL    HW218717   1.605   4.585  14.310 -0.0543 -0.1123  0.4261
 2419SOL     OW18718   2.105   3.734   1.201  0.5516  0.1414  0.7473
 2419SOL    HW118719   2.108   3.787   1.122  1.3805  0.5118  1.0252
 2419SOL    HW218720   2.081   3.801   1.265  0.1991 -0.5168  1.3062
 2420SOL     OW18721   0.098   1.754  10.970  0.3706 -0.5037  0.5725
 2420SOL    HW118722   0.024   1.742  11.031 -0.7899 -0.2360 -0.7723
 2420SOL    HW218723   0.159   1.808  11.020 -1.0485  2.6524 -1.1257
 2421SOL     OW18724   2.287   0.012  16.573 -0.0147 -0.4065 -0.0595
 2421SOL    HW118725   2.209   4.691  16.605 -0.2496 -1.3125 -1.9455
 2421SOL    HW218726   2.300   4.692  16.490  1.8089  0.0980 -0.0429
 2422SOL     OW18727   4.358   4.192  10.974 -0.0710 -0.1257  0.5821
 2422SOL    HW118728   4.395   4.270  10.933 -5.4772  1.2040 -1.6728
 2422SOL    HW218729   4.371   4.132  10.900 -0.1043  0.8070 -0.1729
 2423SOL     OW18730   0.740   0.672   3.287 -0.4413 -0.6092  0.1048
 2423SOL    HW118731   0.646   0.662   3.298 -0.3910  0.4360  1.5284
 2423SOL    HW218732   0.755   0.766   3.294  1.4897 -1.0089  1.4334
 2424SOL     OW18733   3.725   3.909  16.301  0.2453 -0.4482  0.2507
 2424SOL    HW118734   3.632   3.894  16.315 -0.0114  1.4371  0.6457
 2424SOL    HW218735   3.730   4.004  16.288  0.9571 -0.2766  1.6992
 2425SOL     OW18736   0.727   4.354  10.036  0.1125 -0.7893 -0.0811
 2425SOL    HW118737   0.710   4.373  10.128 -0.3003  0.1439 -0.3579
 2425SOL    HW218738   0.819   4.378  10.031 -0.3593  0.4702 -2.5288
 2426SOL     OW18739   3.032   2.758  11.176 -0.1618 -0.1401 -0.1076
 2426SOL    HW118740   3.109   2.702  11.187  0.5694  0.9748  0.5080
 2426SOL    HW218741   3.007   2.760  11.268 -0.4688 -1.8420 -0.1648
 2427SOL     OW18742   2.805   2.337  13.272  0.0161 -0.1198 -0.3394
 2427SOL    HW118743   2.739   2.356  13.339  0.8322  0.9340  0.1645
 2427SOL    HW218744   2.857   2.272  13.319 -0.7015 -1.0905 -0.8889
 2428SOL     OW18745   0.680   4.429  10.305 -0.1396  0.0790 -0.8594
 2428SOL    HW118746   0.619   4.496  10.334 -0.9773 -1.5490  1.1220
 2428SOL    HW218747   0.748   4.450  10.369 -0.1846 -0.0004 -0.7854
 2429SOL     OW18748   3.002   4.260  11.501 -0.4554  0.0752 -0.4238
 2429SOL    HW118749   3.052   4.341  11.491 -1.3010  0.7034  0.3580
 2429SOL    HW218750   2.920   4.305  11.520 -1.7176 -1.7449 -1.5959
 2430SOL     OW18751   3.430   3.660   6.563  0.3306 -0.0099 -0.4725
 2430SOL    HW118752   3.395   3.746   6.590  0.6902  0.1574 -0.5343
 2430SOL    HW218753   3.520   3.688   6.545  0.7603 -1.4929 -0.5535
 2431SOL     OW18754   1.604   1.862   0.670 -0.3602 -0.5075 -0.4406
 2431SOL    HW118755   1.665   1.802   0.714  0.6334  0.6667 -0.2358
 2431SOL    HW218756   1.564   1.802   0.606  1.5963 -1.0753 -1.1326
 2432SOL     OW18757   2.760   2.672   6.245  0.0255 -0.7168  0.3999
 2432SOL    HW118758   2.759   2.620   6.165  3.0848  0.8814 -0.6836
 2432SOL    HW218759   2.701   2.742   6.215 -0.9863 -1.5972  0.3527
 2433SOL     OW18760   1.105   1.435   9.017 -0.3605  0.2981 -0.2710
 2433SOL    HW118761   1.073   1.346   9.034  2.0025 -0.7743 -1.4619
 2433SOL    HW218762   1.059   1.491   9.080 -0.0373  0.6121 -0.3119
 2434SOL     OW18763   4.368   4.006   5.137  0.5519 -0.4847 -0.1776
 2434SOL    HW118764   4.291   4.062   5.130  0.9490 -0.1067 -1.5436
 2434SOL    HW218765   4.423   4.048   5.203  0.3263  0.2396 -0.4477
 2435SOL     OW18766   1.882   0.368  13.364  0.1223 -0.0166 -0.1653
 2435SOL    HW118767   1.978   0.368  13.361  0.1017  1.4034 -1.1193
 2435SOL    HW218768   1.859   0.438  13.425 -0.7443 -0.0863 -0.4219
 2436SOL     OW18769   2.125   1.377  12.711 -0.0976  0.5958  0.4524
 2436SOL    HW118770   2.173   1.459  12.713 -0.5068  0.7931  2.0318
 2436SOL    HW218771   2.183   1.330  12.771 -0.8253 -0.2105  0.5289
 2437SOL     OW18772   1.239   4.032  14.785  0.5819  0.2153 -0.1563
 2437SOL    HW118773   1.156   4.054  14.743 -2.6132 -1.1407  5.4622
 2437SOL    HW218774   1.282   4.117  14.796  0.7561  0.1484 -0.3019
 2438SOL     OW18775   1.027   1.734   8.426  0.1500 -0.3717  0.1887
 2438SOL    HW118776   1.054   1.677   8.354 -2.0461 -0.4118 -0.6023
 2438SOL    HW218777   1.069   1.691   8.501  2.1896  1.2659 -0.0198
 2439SOL     OW18778   1.249   3.482   3.043 -0.4959 -0.8476 -0.1235
 2439SOL    HW118779   1.330   3.486   3.094  1.4980 -2.0016 -3.1749
 2439SOL    HW218780   1.262   3.405   2.987 -0.1897  0.0783 -1.3474
 2440SOL     OW18781   2.094   2.469   4.468 -0.3674 -0.2855 -0.4323
 2440SOL    HW118782   2.176   2.468   4.420 -0.3115  2.8172 -0.3596
 2440SOL    HW218783   2.030   2.440   4.403  0.1805 -2.0494 -0.1977
 2441SOL     OW18784   3.194   3.794   5.478 -0.4217 -0.6553 -0.1710
 2441SOL    HW118785   3.112   3.772   5.522 -0.4027  1.2210  0.7876
 2441SOL    HW218786   3.246   3.805   5.557  2.3765 -1.5372 -1.8796
 2442SOL     OW18787   3.199   0.540   4.341 -0.2048 -0.0982  0.1447
 2442SOL    HW118788   3.188   0.483   4.265 -1.0194 -0.5709  0.6117
 2442SOL    HW218789   3.107   0.533   4.367  0.3773 -0.6274  2.1131
 2443SOL     OW18790   1.806   1.407   7.447  0.1961 -0.3497 -0.2992
 2443SOL    HW118791   1.845   1.334   7.401  0.5378 -0.5309  0.2845
 2443SOL    HW218792   1.887   1.458   7.448  1.1794 -1.9154 -0.5112
 2444SOL     OW18793   3.759   1.029   6.285  0.5638 -0.1067  0.2559
 2444SOL    HW118794   3.816   0.981   6.343 -1.2161 -0.3956  1.7702
 2444SOL    HW218795   3.786   0.987   6.203 -0.5993 -0.0323 -0.1671
 2445SOL     OW18796   4.343   0.630   4.318  1.0978 -0.0046  0.0559
 2445SOL    HW118797   4.414   0.566   4.315  0.5846 -0.4695 -2.9124
 2445SOL    HW218798   4.271   0.604   4.375  2.2607 -1.4369  0.8622
 2446SOL     OW18799   2.774   4.541   4.528 -0.1420 -0.4710  0.6140
 2446SOL    HW118800   2.785   4.475   4.596 -1.0686  0.6064  1.7893
 2446SOL    HW218801   2.751   4.612   4.588  1.8774  1.0420 -0.3888
 2447SOL     OW18802   0.839   3.538   7.437  0.6981 -0.2343 -0.0993
 2447SOL    HW118803   0.770   3.484   7.475 -0.3627  0.3235 -1.2248
 2447SOL    HW218804   0.829   3.619   7.486  0.6421 -0.7510  0.7460
 2448SOL     OW18805   2.185   3.097   6.509  0.6440 -0.0144 -0.5205
 2448SOL    HW118806   2.194   3.003   6.495  2.5976  0.0349  0.3985
 2448SOL    HW218807   2.108   3.115   6.455 -2.0301 -0.5717  3.1143
 2449SOL     OW18808   0.401   0.742   3.712 -0.4485  0.7450  0.2034
 2449SOL    HW118809   0.447   0.826   3.712 -0.7421  0.9205 -1.5877
 2449SOL    HW218810   0.380   0.724   3.803 -1.0267  0.7581  0.0740
 2450SOL     OW18811   3.409   0.919  13.335  0.0090 -0.5015 -0.0455
 2450SOL    HW118812   3.407   0.919  13.431 -0.4257  0.9589 -0.0544
 2450SOL    HW218813   3.425   1.013  13.322  2.3117 -0.8438  0.4645
 2451SOL     OW18814   2.780   0.460   2.458 -0.0785 -0.7490  0.5757
 2451SOL    HW118815   2.746   0.486   2.544 -0.2091 -0.3546  0.4088
 2451SOL    HW218816   2.808   0.543   2.419 -1.5307 -1.5624 -2.1594
 2452SOL     OW18817   0.687   4.658   4.517 -0.1278  0.1059 -0.2546
 2452SOL    HW118818   0.684   4.694   4.429 -2.0505 -2.1527 -1.1236
 2452SOL    HW218819   0.700   4.564   4.502 -1.1065  0.2459 -2.0007
 2453SOL     OW18820   4.663   2.724   8.885 -0.2715 -0.0573 -0.6824
 2453SOL    HW118821   4.605   2.717   8.961 -1.1059 -2.0234 -1.4933
 2453SOL    HW218822   4.682   2.631   8.869  0.7588 -0.1220  0.9429
 2454SOL     OW18823   0.009   1.348   8.079 -0.4246 -0.4166 -0.1625
 2454SOL    HW118824   4.654   1.398   8.074  1.0002  1.6336 -2.7758
 2454SOL    HW218825   4.709   1.287   8.148  0.3028  0.1414  0.5904
 2455SOL     OW18826   1.946   0.220   4.238  0.7709  0.0855 -0.1725
 2455SOL    HW118827   1.909   0.223   4.327  1.0952 -0.5396 -0.0222
 2455SOL    HW218828   1.888   0.288   4.204  0.1219 -0.2645  0.2342
 2456SOL     OW18829   0.247   3.517   6.724 -0.1483 -0.0016 -0.4115
 2456SOL    HW118830   0.215   3.459   6.793 -0.9595  0.3857 -0.4590
 2456SOL    HW218831   0.209   3.601   6.749  0.8881  0.0582  0.9567
 2457SOL     OW18832   4.627   4.089  15.972 -0.2691 -0.1844 -0.0694
 2457SOL    HW118833   4.652   4.144  16.046 -0.5310 -2.7817  1.9648
 2457SOL    HW218834   4.659   4.001  15.994 -0.0728  0.3802  1.8709
 2458SOL     OW18835   3.872   1.187   2.632  0.1027 -0.6999  0.0860
 2458SOL    HW118836   3.797   1.191   2.572 -0.2862  1.3012  0.7169
 2458SOL    HW218837   3.825   1.150   2.707 -0.6080  0.2075  0.0763
 2459SOL     OW18838   3.704   0.991   3.748  0.2889 -0.2408 -0.4730
 2459SOL    HW118839   3.678   1.077   3.715  1.9055  0.1701 -0.6778
 2459SOL    HW218840   3.627   0.972   3.801 -0.0337  1.6100 -0.2640
 2460SOL     OW18841   4.599   4.721  10.473 -0.4302  0.1724 -0.6927
 2460SOL    HW118842   4.551   4.716  10.390  1.4331 -1.3323 -1.6667
 2460SOL    HW218843   4.671   0.055  10.455  0.5889 -1.5587 -2.2581
 2461SOL     OW18844   0.843   1.297   6.293 -0.1175  0.3892  0.4380
 2461SOL    HW118845   0.881   1.226   6.344 -0.6783 -1.6152 -1.9632
 2461SOL    HW218846   0.841   1.372   6.353 -0.3171 -0.2354  1.2114
 2462SOL     OW18847   3.040   2.666   6.689  0.2308 -0.5282  0.2738
 2462SOL    HW118848   3.026   2.572   6.701 -3.5997 -0.4680 -3.5543
 2462SOL    HW218849   2.960   2.706   6.723  0.0916 -0.1960 -0.4304
 2463SOL     OW18850   2.781   2.260   3.017  0.0395  0.1822 -0.1274
 2463SOL    HW118851   2.862   2.299   3.049 -0.0284 -0.1440  0.4469
 2463SOL    HW218852   2.708   2.311   3.053  0.6516  1.8075 -1.1603
 2464SOL     OW18853   0.451   1.125   4.400 -0.2771  0.2075 -0.0521
 2464SOL    HW118854   0.544   1.140   4.416 -0.5520  2.1157 -0.2173
 2464SOL    HW218855   0.415   1.156   4.483 -0.0882  0.0733  0.0791
 2465SOL     OW18856   3.111   2.672   1.712  0.2655  0.6297 -0.2461
 2465SOL    HW118857   3.061   2.712   1.641  0.9136  2.3664  0.2583
 2465SOL    HW218858   3.182   2.735   1.728  1.8924 -1.7631  1.9832
 2466SOL     OW18859   2.982   4.467  12.935 -0.3471 -0.4533  0.0006
 2466SOL    HW118860   3.025   4.485  13.019 -1.2620 -0.8212  0.5456
 2466SOL    HW218861   2.892   4.443  12.957 -0.5474 -1.5676 -2.1114
 2467SOL     OW18862   0.125   0.950  13.968  0.5410  0.2618 -0.1118
 2467SOL    HW118863   0.132   1.044  13.985 -2.3860 -0.0203  2.6457
 2467SOL    HW218864   0.211   0.920  13.995  0.3577  0.9075  1.1888
 2468SOL     OW18865   3.228   0.265   6.828  0.0227 -0.1779  0.2532
 2468SOL    HW118866   3.255   0.332   6.764  2.1275  0.6039  1.9661
 2468SOL    HW218867   3.263   0.304   6.908  1.0269  0.4026 -0.4695
 2469SOL     OW18868   2.291   2.475   1.560 -0.5085  0.1468 -0.5932
 2469SOL    HW118869   2.351   2.541   1.595 -2.9837  1.5963  0.9476
 2469SOL    HW218870   2.331   2.393   1.588 -1.1861  0.1300  0.3326
 2470SOL     OW18871   3.469   0.730   8.262  0.3463  0.0308 -0.0635
 2470SOL    HW118872   3.413   0.679   8.204  0.1309 -0.4872  0.5985
 2470SOL    HW218873   3.405   0.736   8.332  3.5297 -3.6668  3.2023
 2471SOL     OW18874   1.929   0.559   3.611 -0.0148 -0.0268 -0.5766
 2471SOL    HW118875   1.934   0.464   3.600 -1.0625 -0.1263 -0.1526
 2471SOL    HW218876   1.839   0.568   3.582  0.4564  0.4977 -1.8551
 2472SOL     OW18877   2.623   0.183   8.464 -0.0944 -0.6225 -0.2871
 2472SOL    HW118878   2.553   0.130   8.500  0.8561 -0.8328  1.2530
 2472SOL    HW218879   2.604   0.273   8.491 -0.5718 -0.8281  0.0425
 2473SOL     OW18880   1.095   4.460   6.046 -0.9531 -0.0324  0.1197
 2473SOL    HW118881   1.182   4.429   6.069  0.0777  3.7201  1.3797
 2473SOL    HW218882   1.106   4.551   6.018 -1.6496  0.1584  0.4690
 2474SOL     OW18883   2.434   3.262   8.361  0.1871  0.3534  0.0887
 2474SOL    HW118884   2.353   3.272   8.310 -0.4556 -0.9172  0.8610
 2474SOL    HW218885   2.461   3.171   8.351 -3.1253 -0.5379 -0.9961
 2475SOL     OW18886   1.879   1.119  17.556  0.2453  0.1368  0.4390
 2475SOL    HW118887   1.827   1.186  17.512 -1.4881  0.4010  2.8729
 2475SOL    HW218888   1.898   1.069  17.477 -2.0199 -0.5930  0.3465
 2476SOL     OW18889   2.931   1.042   7.785  0.3397  0.3484  0.3512
 2476SOL    HW118890   2.906   0.955   7.816  1.7312  0.8503  2.8897
 2476SOL    HW218891   2.841   1.076   7.783  0.5439  0.8486 -0.3631
 2477SOL     OW18892   1.420   0.765   4.016  0.1466 -0.4457  0.1734
 2477SOL    HW118893   1.486   0.741   4.081 -0.1283 -0.9127  0.2729
 2477SOL    HW218894   1.479   0.782   3.942 -2.1656 -0.2963 -1.6521
 2478SOL     OW18895   1.098   1.758   7.738  0.8649 -0.3782  0.0668
 2478SOL    HW118896   1.152   1.745   7.660  1.2449  0.9809  0.1132
 2478SOL    HW218897   1.034   1.690   7.713  2.1126 -1.7525  0.6350
 2479SOL     OW18898   2.397   3.019  16.988  0.3638  0.5134 -0.8662
 2479SOL    HW118899   2.480   2.972  16.976 -0.4807 -1.1888 -0.1229
 2479SOL    HW218900   2.380   2.991  17.078 -3.5101  0.2399 -1.6695
 2480SOL     OW18901   3.977   3.533  12.011  0.1297 -0.0115 -0.3101
 2480SOL    HW118902   3.935   3.602  11.961  1.0863 -0.1899 -1.3606
 2480SOL    HW218903   4.057   3.574  12.044 -0.5200  1.2702 -0.3345
 2481SOL     OW18904   2.698   0.132   5.991 -0.0730  0.2392  0.1719
 2481SOL    HW118905   2.624   0.161   6.043  0.1617  3.2072 -1.1697
 2481SOL    HW218906   2.645   0.145   5.912  0.5627  0.2582 -0.2574
 2482SOL     OW18907   0.310   2.743   6.980 -0.2402 -0.2861 -0.1511
 2482SOL    HW118908   0.363   2.673   7.018  1.0417 -0.5418 -2.4112
 2482SOL    HW218909   0.230   2.691   6.975 -1.7333  1.8067  1.9897
 2483SOL     OW18910   0.349   2.665   4.880 -0.9520 -0.2528 -0.0587
 2483SOL    HW118911   0.290   2.722   4.929  0.0898  0.6159  0.1970
 2483SOL    HW218912   0.363   2.595   4.944  0.3178 -1.6284 -1.8346
 2484SOL     OW18913   3.777   2.843   4.459 -0.1692 -0.3031  0.2477
 2484SOL    HW118914   3.827   2.900   4.517  1.7479 -1.3020 -0.4447
 2484SOL    HW218915   3.688   2.877   4.471 -0.1675  0.3964 -1.6513
 2485SOL     OW18916   0.229   3.217   7.360  0.7703  0.5893  0.0555
 2485SOL    HW118917   0.219   3.271   7.439  0.5521 -2.3538  2.0226
 2485SOL    HW218918   0.161   3.257   7.304  0.5188 -0.8006 -0.6286
 2486SOL     OW18919   1.347   3.147   7.344 -0.5242 -0.3315  0.1234
 2486SOL    HW118920   1.264   3.116   7.380  0.6267 -0.6248  2.5529
 2486SOL    HW218921   1.381   3.191   7.422  1.2211 -2.5787  0.6629
 2487SOL     OW18922   1.316   2.895   9.439  0.0726 -0.0922 -0.3982
 2487SOL    HW118923   1.328   2.980   9.396 -0.5368 -0.5626 -1.4822
 2487SOL    HW218924   1.223   2.898   9.460  0.2127 -0.1100  0.2333
 2488SOL     OW18925   0.315   3.176  16.218  0.4243 -0.3641  0.1581
 2488SOL    HW118926   0.229   3.134  16.225 -0.9753  2.0073 -3.1241
 2488SOL    HW218927   0.363   3.129  16.287  1.3040 -1.0168 -0.8855
 2489SOL     OW18928   4.295   2.059   7.656  0.0394 -0.0833 -0.6506
 2489SOL    HW118929   4.388   2.061   7.678  0.2762 -1.1652 -1.5427
 2489SOL    HW218930   4.266   2.143   7.692  3.0820  0.1952  1.1354
 2490SOL     OW18931   0.488   1.019   1.059  0.2586 -0.2473 -0.5393
 2490SOL    HW118932   0.416   1.019   0.996 -0.2163 -0.6395 -0.0010
 2490SOL    HW218933   0.550   1.079   1.019  1.0110 -0.0590  0.9357
 2491SOL     OW18934   4.501   2.664   2.914 -0.1120  0.4063  0.1672
 2491SOL    HW118935   4.527   2.599   2.978  1.8412  0.7431 -0.2853
 2491SOL    HW218936   4.576   2.723   2.916 -0.5671  1.0088 -0.6053
 2492SOL     OW18937   0.709   3.199  17.025 -0.2671  0.4547  0.5266
 2492SOL    HW118938   0.787   3.188  17.078  0.0115  1.8682  0.4077
 2492SOL    HW218939   0.664   3.118  17.050  0.1256 -0.1318 -0.6675
 2493SOL     OW18940   0.218   2.045   1.905  0.3215  0.0430  0.0234
 2493SOL    HW118941   0.172   2.106   1.848  1.9845  0.7161 -0.5994
 2493SOL    HW218942   0.278   2.101   1.956  1.0768 -0.4594 -0.3230
 2494SOL     OW18943   1.521   3.111   4.121 -0.1368 -0.6519 -0.2760
 2494SOL    HW118944   1.596   3.131   4.177 -1.1369 -0.5026  0.9999
 2494SOL    HW218945   1.497   3.023   4.150 -3.0056 -0.2124 -1.3498
 2495SOL     OW18946   0.638   0.317   0.504  0.1011  0.3676  0.0623
 2495SOL    HW118947   0.598   0.251   0.448  1.5727 -2.5002  2.4156
 2495SOL    HW218948   0.577   0.333   0.576 -0.3744 -0.6368 -0.1152
 2496SOL     OW18949   0.744   0.692   6.734 -0.6834  0.0768 -0.0346
 2496SOL    HW118950   0.766   0.720   6.822  0.7677 -3.0101  0.5786
 2496SOL    HW218951   0.673   0.629   6.747  0.2307 -0.4465  2.3212
 2497SOL     OW18952   2.332   3.907   7.928  0.2138 -1.0912  0.4018
 2497SOL    HW118953   2.296   3.922   7.841  1.7011  2.0046  0.2997
 2497SOL    HW218954   2.426   3.920   7.913 -0.1917  0.5103 -0.7645
 2498SOL     OW18955   2.207   0.851  10.082  0.2211  0.7529 -0.6304
 2498SOL    HW118956   2.127   0.798  10.080  1.6091 -1.3353 -0.5340
 2498SOL    HW218957   2.276   0.786  10.094 -0.1291  0.5055  0.0315
 2499SOL     OW18958   2.986   1.819   9.861 -0.6862  0.0818  0.1575
 2499SOL    HW118959   3.054   1.760   9.891 -0.2725  1.7179  2.4436
 2499SOL    HW218960   2.907   1.767   9.851 -0.7294  0.5248 -1.8364
 2500SOL     OW18961   3.022   1.564  12.527 -0.3085  0.0871 -0.4496
 2500SOL    HW118962   2.945   1.531  12.573  1.2391 -2.9341 -0.0097
 2500SOL    HW218963   3.085   1.567  12.598 -0.8995  0.6282  0.0521
 2501SOL     OW18964   0.330   1.831   4.276  0.9344 -0.3574  0.3527
 2501SOL    HW118965   0.356   1.744   4.307 -0.0063 -0.4058  1.0312
 2501SOL    HW218966   0.302   1.811   4.187  1.4685  0.8689 -0.0844
 2502SOL     OW18967   2.972   2.692   6.373  0.5898 -0.4450 -0.2075
 2502SOL    HW118968   2.893   2.683   6.321  0.1788 -1.1075  0.5253
 2502SOL    HW218969   2.974   2.782   6.407 -0.3475  0.1966 -1.8590
 2503SOL     OW18970   4.026   0.529  10.409 -0.3106 -0.2606  0.0566
 2503SOL    HW118971   3.956   0.584  10.445 -0.2875  0.3736 -0.8658
 2503SOL    HW218972   3.975   0.476  10.348  0.3056  0.7219 -1.3318
 2504SOL     OW18973   3.972   1.425   7.981 -0.1831  0.2347  0.0380
 2504SOL    HW118974   3.995   1.356   7.918 -0.5946  2.2373 -2.3078
 2504SOL    HW218975   3.992   1.501   7.926  2.1835 -0.3852  0.0470
 2505SOL     OW18976   0.916   1.604   0.103 -0.7952  0.2325 -0.0520
 2505SOL    HW118977   0.864   1.626   0.181 -0.7335 -0.9097  0.3034
 2505SOL    HW218978   0.849   1.572   0.043  1.5376 -1.5318 -1.6877
 2506SOL     OW18979   4.631   2.950   4.452  0.1940 -0.0557 -0.2276
 2506SOL    HW118980   4.594   2.921   4.369  1.7008 -0.3603 -0.8051
 2506SOL    HW218981   0.001   2.942   4.448  0.2127 -0.3957  1.0462
 2507SOL     OW18982   2.311   3.236   2.825 -0.1624  0.0685 -0.2398
 2507SOL    HW118983   2.313   3.324   2.861 -2.5183  1.2577 -3.0380
 2507SOL    HW218984   2.222   3.234   2.790 -0.6326  0.2050  0.9552
 2508SOL     OW18985   0.026   4.088   3.383  0.1753 -0.1877 -0.0947
 2508SOL    HW118986   0.115   4.069   3.353  0.9690  0.7083  1.6914
 2508SOL    HW218987   4.715   4.121   3.301 -0.0738  0.6365  0.3474
 2509SOL     OW18988   4.723   4.651  13.848 -0.4087  0.1998  0.9127
 2509SOL    HW118989   0.081   4.658  13.894 -0.6842  0.1499  1.4223
 2509SOL    HW218990   4.660   4.645  13.920 -0.8165  0.6869  0.5978
 2510SOL     OW18991   2.199   4.464   1.315  0.4774  0.4194 -0.3612
 2510SOL    HW118992   2.212   4.385   1.262 -2.3009 -0.0455 -0.3854
 2510SOL    HW218993   2.108   4.450   1.341 -0.0764  2.4835 -1.1778
 2511SOL     OW18994   0.147   3.027   2.200  0.3021 -0.1515  0.1887
 2511SOL    HW118995   0.059   3.033   2.237 -0.4283  1.7157 -1.8343
 2511SOL    HW218996   0.146   3.100   2.138 -2.5536 -1.4750 -1.3511
 2512SOL     OW18997   0.733   3.537  13.575  0.0818 -0.1579 -0.2873
 2512SOL    HW118998   0.701   3.565  13.490 -0.2262 -1.2835 -0.5447
 2512SOL    HW218999   0.714   3.608  13.637 -1.9029 -0.8954 -0.0523
 2513SOL     OW19000   2.233   0.204   4.103  0.0043 -0.2309 -0.0616
 2513SOL    HW119001   2.164   0.237   4.161 -0.7113 -1.1973 -0.3646
 2513SOL    HW219002   2.301   0.201   4.171 -1.4938  0.8795  1.4986
 2514SOL     OW19003   2.697   2.810   1.369 -0.7387 -0.3137  0.3072
 2514SOL    HW119004   2.771   2.863   1.339 -2.0053  0.4789 -1.4392
 2514SOL    HW219005   2.675   2.773   1.283  0.0530 -1.8539  0.7667
 2515SOL     OW19006   0.209   1.236   6.721  0.2832 -0.1480 -0.2509
 2515SOL    HW119007   0.212   1.148   6.758  0.4602 -0.6301 -1.4079
 2515SOL    HW219008   0.297   1.241   6.684  0.0292  0.5033 -0.7591
 2516SOL     OW19009   0.360   1.323  11.026 -0.1204 -0.3984 -0.1405
 2516SOL    HW119010   0.418   1.397  11.007 -0.4324 -0.2737 -0.6251
 2516SOL    HW219011   0.420   1.249  11.031  0.3361 -0.0812 -0.7895
 2517SOL     OW19012   4.065   4.101   7.268 -0.5307  1.0106 -0.2997
 2517SOL    HW119013   4.049   4.182   7.220 -2.4167  0.9697  0.2445
 2517SOL    HW219014   4.114   4.047   7.206  0.9695 -0.2703  1.9788
 2518SOL     OW19015   1.334   4.307  15.036  0.1661 -0.5923  0.3986
 2518SOL    HW119016   1.365   4.293  14.947  0.2951 -0.3655  0.4080
 2518SOL    HW219017   1.242   4.325  15.015 -1.1065 -2.8724  3.9139
 2519SOL     OW19018   2.633   2.073   7.627 -0.1373 -0.4882  0.4998
 2519SOL    HW119019   2.662   1.997   7.678  0.8988 -1.4627 -1.5589
 2519SOL    HW219020   2.713   2.102   7.583 -0.8192  1.8388  0.8128
 2520SOL     OW19021   2.391   0.884   6.841 -0.2237 -0.4326 -0.2765
 2520SOL    HW119022   2.444   0.884   6.921 -0.4098 -0.0882 -0.1486
 2520SOL    HW219023   2.456   0.886   6.772  0.1093 -0.3592  0.0392
 2521SOL     OW19024   1.659   1.028   4.915  0.0585 -0.3849 -0.2945
 2521SOL    HW119025   1.753   1.010   4.922 -0.0628  0.0117  2.3624
 2521SOL    HW219026   1.662   1.098   4.850  1.0894  1.5099  1.7643
 2522SOL     OW19027   4.482   3.208  16.565  0.1028 -0.2172 -0.1746
 2522SOL    HW119028   4.528   3.270  16.622  0.5339 -0.4429 -0.2775
 2522SOL    HW219029   4.441   3.264  16.500  1.5562 -0.3183 -1.1661
 2523SOL     OW19030   3.522   1.900  15.441  0.1333  0.0836 -0.4649
 2523SOL    HW119031   3.618   1.898  15.436  0.2614  2.8675  0.5189
 2523SOL    HW219032   3.502   1.858  15.525  2.1936 -0.6250 -0.3155
 2524SOL     OW19033   1.578   2.097   6.686  0.1864  0.3664 -0.0787
 2524SOL    HW119034   1.492   2.081   6.647 -0.0563 -0.4069  0.7716
 2524SOL    HW219035   1.554   2.164   6.750 -1.4430 -1.3943  1.1335
 2525SOL     OW19036   4.145   2.170   5.461  0.5420 -0.0410 -0.0742
 2525SOL    HW119037   4.079   2.124   5.409  2.0592 -0.5382 -1.5737
 2525SOL    HW219038   4.144   2.258   5.425  1.1911 -0.4493 -1.0961
 2526SOL     OW19039   2.882   0.702  10.656  0.0216  0.2405  0.0530
 2526SOL    HW119040   2.803   0.729  10.609 -0.0429 -0.4959 -0.2705
 2526SOL    HW219041   2.891   0.766  10.726 -1.7811 -0.9985  1.4409
 2527SOL     OW19042   0.212   4.529   4.142  0.3671 -0.4609 -0.0579
 2527SOL    HW119043   0.231   4.440   4.171 -0.4970 -0.7729 -0.4581
 2527SOL    HW219044   0.174   4.512   4.056  2.2836 -2.3211 -0.5569
 2528SOL     OW19045   0.306   0.011   3.587  0.2521  0.1352  0.1778
 2528SOL    HW119046   0.317   0.066   3.510  1.8594  0.0196  0.3305
 2528SOL    HW219047   0.361   4.660   3.569 -1.2721 -1.1707  1.0196
 2529SOL     OW19048   2.138   3.449  17.502  0.1861 -0.3949  0.3861
 2529SOL    HW119049   2.122   3.354  17.503  0.0225 -0.3790 -0.7400
 2529SOL    HW219050   2.064   3.483  17.553  0.1102  0.9267 -0.6192
 2530SOL     OW19051   1.963   0.200   6.198  0.7088  0.5798  0.5908
 2530SOL    HW119052   1.886   0.219   6.145  1.1581 -1.1656 -0.6702
 2530SOL    HW219053   1.941   0.242   6.282 -0.0712  0.9617  0.2018
 2531SOL     OW19054   1.204   3.768   5.147 -0.0004 -0.1405 -0.3657
 2531SOL    HW119055   1.247   3.683   5.134  0.1615 -0.3250  1.4004
 2531SOL    HW219056   1.150   3.770   5.068  1.3788  0.0086 -1.3058
 2532SOL     OW19057   0.154   1.585   4.181  0.1150 -0.0230 -0.4800
 2532SOL    HW119058   0.093   1.570   4.109  0.1523 -0.1053 -0.4939
 2532SOL    HW219059   0.112   1.527   4.244  0.1757 -0.4585 -0.8401
 2533SOL     OW19060   3.012   0.114  14.560 -0.3620 -0.1891 -0.3091
 2533SOL    HW119061   2.950   0.186  14.554 -1.0930 -0.7605  0.3698
 2533SOL    HW219062   2.964   0.031  14.556 -2.0518  0.7631  0.2540
 2534SOL     OW19063   2.879   3.649   4.309 -0.2163 -0.0102 -0.1641
 2534SOL    HW119064   2.918   3.568   4.343  0.6636  0.5313  0.0924
 2534SOL    HW219065   2.891   3.636   4.215 -0.5535  1.5371 -0.4146
 2535SOL     OW19066   0.974   2.467   2.951  0.0257  0.6177  0.3335
 2535SOL    HW119067   1.067   2.461   2.976 -0.1317 -0.9008  0.5465
 2535SOL    HW219068   0.959   2.555   2.985 -0.3985  1.0757 -1.0381
 2536SOL     OW19069   0.225   4.698   7.192 -0.8302  0.2174  0.1377
 2536SOL    HW119070   0.141   4.670   7.155 -1.3882  0.6732  1.0574
 2536SOL    HW219071   0.213   0.063   7.221 -0.2743  0.5560 -0.6579
 2537SOL     OW19072   0.549   3.968  13.265  0.5332  0.2919  0.4819
 2537SOL    HW119073   0.552   4.064  13.268 -2.2375  0.3789  0.4590
 2537SOL    HW219074   0.456   3.943  13.265  0.5131  0.3826  1.6777
 2538SOL     OW19075   2.533   4.446   8.616  0.2809 -0.5513  0.3882
 2538SOL    HW119076   2.555   4.377   8.554 -0.7187 -0.1214 -0.4411
 2538SOL    HW219077   2.615   4.453   8.666  0.4391  1.3154 -0.1188
 2539SOL     OW19078   2.836   1.807   4.471 -0.5004  0.6540 -0.1860
 2539SOL    HW119079   2.831   1.720   4.433  1.9110  0.6249 -0.4578
 2539SOL    HW219080   2.859   1.788   4.562 -3.0393 -2.5187 -0.2136
 2540SOL     OW19081   2.170   3.496   8.372 -0.4866  0.0305 -0.0827
 2540SOL    HW119082   2.231   3.565   8.347  2.5488 -1.5552  2.9725
 2540SOL    HW219083   2.137   3.541   8.450  1.9958 -0.7856  1.4529
 2541SOL     OW19084   2.210   4.029   8.151  0.2251 -0.1745 -0.5937
 2541SOL    HW119085   2.115   4.028   8.150  0.2005  0.4648  0.5797
 2541SOL    HW219086   2.234   3.976   8.075 -1.9194 -0.5636 -0.9996
 2542SOL     OW19087   0.218   4.267   6.316  0.2390 -0.2949  0.6377
 2542SOL    HW119088   0.199   4.229   6.231 -1.5092 -1.5353  1.5782
 2542SOL    HW219089   0.289   4.211   6.350  0.0708 -0.7665  0.2090
 2543SOL     OW19090   0.093   3.930   8.803  0.0145 -0.1008  0.3106
 2543SOL    HW119091   0.003   3.953   8.780 -0.7425 -1.9259  1.4050
 2543SOL    HW219092   0.126   3.942   8.714  1.6379  0.2321  0.9588
 2544SOL     OW19093   1.325   2.123   3.676 -0.2022  0.0674 -0.4947
 2544SOL    HW119094   1.258   2.121   3.608 -0.6017 -1.6304 -0.0604
 2544SOL    HW219095   1.404   2.153   3.631  0.8211 -2.2160 -0.2385
 2545SOL     OW19096   4.018   3.377   4.942 -0.1780 -0.2218  0.2012
 2545SOL    HW119097   3.999   3.452   4.998 -2.0446  0.5137 -1.4186
 2545SOL    HW219098   4.084   3.411   4.882 -0.1753 -0.8472 -0.1534
 2546SOL     OW19099   2.515   2.534  13.344 -0.7528  0.0835  0.1829
 2546SOL    HW119100   2.535   2.619  13.384  0.7061  0.9404 -2.3680
 2546SOL    HW219101   2.549   2.477  13.413 -0.9645 -1.2706 -0.8269
 2547SOL     OW19102   1.708   1.423   9.544 -0.0372  0.4318  0.0620
 2547SOL    HW119103   1.739   1.470   9.622  0.9384  0.7411 -0.5148
 2547SOL    HW219104   1.635   1.483   9.525 -1.1227 -0.7599  0.4325
 2548SOL     OW19105   1.513   2.261  11.125  0.0358 -0.4605  0.2002
 2548SOL    HW119106   1.595   2.288  11.167 -1.3705  0.1454  2.5175
 2548SOL    HW219107   1.507   2.317  11.047 -0.4714  1.2951  1.5068
 2549SOL     OW19108   4.386   1.382   4.608  0.1721  0.0360 -0.9030
 2549SOL    HW119109   4.321   1.439   4.566  0.9075  0.7208 -1.0935
 2549SOL    HW219110   4.370   1.399   4.701 -1.8354  0.1257 -1.2628
 2550SOL     OW19111   1.146   1.121   2.890  0.3155 -0.1353  0.3531
 2550SOL    HW119112   1.058   1.146   2.862  0.5039 -1.5655 -1.4873
 2550SOL    HW219113   1.139   1.026   2.898  0.8135 -0.2743 -0.7451
 2551SOL     OW19114   2.935   2.855   3.009 -0.3333 -0.4469  0.0953
 2551SOL    HW119115   2.965   2.894   3.091 -1.9833 -0.8855  0.9089
 2551SOL    HW219116   3.017   2.857   2.959 -1.6123  0.8846 -1.9687
 2552SOL     OW19117   2.230   0.722   4.911 -0.0974 -0.1842 -0.9485
 2552SOL    HW119118   2.158   0.783   4.929 -0.6373 -1.2660  0.5229
 2552SOL    HW219119   2.277   0.725   4.995 -0.9131  2.7699 -0.5876
 2553SOL     OW19120   2.299   3.486   2.913  0.4752 -0.5595  0.2752
 2553SOL    HW119121   2.300   3.581   2.898  2.0403 -0.9136 -1.9072
 2553SOL    HW219122   2.336   3.486   3.001  1.4928  2.9357 -0.1344
 2554SOL     OW19123   0.867   2.977  14.260 -0.2070  0.2218 -0.4679
 2554SOL    HW119124   0.831   2.888  14.258  1.1318 -0.2974 -1.4906
 2554SOL    HW219125   0.789   3.030  14.242 -1.2442 -0.5893  1.6571
 2555SOL     OW19126   1.865   2.707   8.972  0.4881 -0.1858  0.3137
 2555SOL    HW119127   1.770   2.710   8.987  0.7415  0.1714  1.8258
 2555SOL    HW219128   1.866   2.757   8.890 -1.4194 -0.5686  0.0455
 2556SOL     OW19129   3.605   2.951   2.832  0.0716  0.2451  0.8993
 2556SOL    HW119130   3.520   2.975   2.796 -0.1976 -2.3777 -0.2196
 2556SOL    HW219131   3.585   2.863   2.864 -0.2485 -0.6468 -1.7168
 2557SOL     OW19132   2.413   3.358   6.282  0.3019 -0.0564  0.0205
 2557SOL    HW119133   2.463   3.436   6.259  0.8686 -0.4859 -0.2021
 2557SOL    HW219134   2.452   3.284   6.236 -2.1658 -0.2305 -1.8354
 2558SOL     OW19135   2.586   2.958   5.491 -0.0584 -0.2707 -0.2799
 2558SOL    HW119136   2.520   3.010   5.445  0.6076  1.9629  1.2569
 2558SOL    HW219137   2.634   3.023   5.543 -0.5252 -0.8014  0.8097
 2559SOL     OW19138   0.826   1.954   6.055 -0.2634 -0.0938 -0.2456
 2559SOL    HW119139   0.763   1.931   5.986 -0.3967 -1.5107  0.3508
 2559SOL    HW219140   0.908   1.974   6.009 -0.7309  0.1194 -0.9863
 2560SOL     OW19141   2.726   4.086   5.290  0.0815  0.3818 -0.0765
 2560SOL    HW119142   2.817   4.075   5.316  0.1670 -0.5262 -0.7428
 2560SOL    HW219143   2.721   4.171   5.333  0.2682 -0.5255  1.7827
 2561SOL     OW19144   2.987   3.076   9.424 -0.1573  0.0242  0.4815
 2561SOL    HW119145   3.055   3.033   9.372  0.1300  1.3137 -0.2120
 2561SOL    HW219146   2.922   3.006   9.424 -0.7947  0.6081 -0.1967
 2562SOL     OW19147   1.359   4.366   7.013  0.3806  0.4806 -0.0431
 2562SOL    HW119148   1.294   4.298   7.030  0.5248  0.8369  1.8994
 2562SOL    HW219149   1.310   4.447   7.018 -0.0279  0.0859  2.0556
 2563SOL     OW19150   3.456   4.296   5.116 -0.9732 -0.4253  0.1135
 2563SOL    HW119151   3.418   4.300   5.028  1.9954 -0.4488 -1.1532
 2563SOL    HW219152   3.382   4.341   5.158  0.8508  1.2178  1.5817
 2564SOL     OW19153   0.379   2.069   2.946 -0.4152  0.1235  0.1936
 2564SOL    HW119154   0.384   1.979   2.977  1.6766  1.1316  2.8349
 2564SOL    HW219155   0.437   2.116   3.006 -0.1047 -0.9289  0.7097
 2565SOL     OW19156   0.645   4.543   7.116 -0.1071 -0.5970  0.0056
 2565SOL    HW119157   0.669   4.577   7.202  0.8953  2.0372 -1.2809
 2565SOL    HW219158   0.668   4.451   7.124  3.0078  0.2863  1.2203
 2566SOL     OW19159   4.439   1.064   4.894  0.3469 -0.2439  0.1862
 2566SOL    HW119160   4.518   1.113   4.918 -1.8816  4.4350 -1.9543
 2566SOL    HW219161   4.477   0.977   4.886  0.4822 -0.3016  1.4829
 2567SOL     OW19162   3.532   0.325  15.200 -0.2830  0.0576  0.3966
 2567SOL    HW119163   3.484   0.254  15.158  1.1744  0.2411 -1.5590
 2567SOL    HW219164   3.623   0.303  15.181 -0.8946 -0.6608 -1.7587
 2568SOL     OW19165   4.401   1.850   6.418  0.3605 -0.4450 -0.3820
 2568SOL    HW119166   4.437   1.768   6.453  0.3974  0.5530  1.9185
 2568SOL    HW219167   4.473   1.875   6.360  1.4465 -0.7257  0.8422
 2569SOL     OW19168   3.922   2.381   1.726 -0.5919 -1.0146 -0.2590
 2569SOL    HW119169   3.854   2.411   1.666  0.9523  1.0725 -0.9658
 2569SOL    HW219170   3.889   2.412   1.810  2.4690  1.8948 -0.1098
 2570SOL     OW19171   3.980   1.518   4.107 -0.1681 -0.7014  0.1951
 2570SOL    HW119172   3.930   1.449   4.150  0.2544  0.2349  2.1729
 2570SOL    HW219173   3.912   1.569   4.064  0.1775  1.1191  1.8267
 2571SOL     OW19174   0.397   2.347   1.579 -0.6757 -0.0540 -0.4766
 2571SOL    HW119175   0.412   2.352   1.485 -1.8931  0.8376 -0.6371
 2571SOL    HW219176   0.312   2.392   1.576 -0.1317  0.9696 -0.4661
 2572SOL     OW19177   3.060   0.409   2.566 -0.3855 -0.1483 -0.9286
 2572SOL    HW119178   3.151   0.385   2.550 -0.0224  1.2152 -0.8659
 2572SOL    HW219179   3.021   0.328   2.532  0.4013 -0.0448 -2.0670
 2573SOL     OW19180   2.550   3.546  16.978  0.1475  0.7154 -0.5924
 2573SOL    HW119181   2.592   3.464  16.949 -0.3530  0.4722 -0.6242
 2573SOL    HW219182   2.605   3.561  17.054  0.7548 -1.5265 -0.5928
 2574SOL     OW19183   1.269   1.639   6.751 -0.0843  0.0123  0.2830
 2574SOL    HW119184   1.317   1.695   6.690 -1.9614  1.1951 -0.0876
 2574SOL    HW219185   1.189   1.691   6.752 -0.3442 -0.3854 -0.0697
 2575SOL     OW19186   2.788   4.274   1.571 -0.2348  0.4421  0.4814
 2575SOL    HW119187   2.870   4.247   1.611 -1.5686 -0.7640  2.3810
 2575SOL    HW219188   2.782   4.353   1.625  0.5654  1.2172 -0.5630
 2576SOL     OW19189   1.920   2.397   4.264 -0.3094  0.0791  0.2224
 2576SOL    HW119190   1.864   2.320   4.252 -1.1914  0.7359  0.1128
 2576SOL    HW219191   1.992   2.370   4.207  0.9926  1.2387  1.3411
 2577SOL     OW19192   2.238   1.569   9.158  0.5561 -1.0060  0.0458
 2577SOL    HW119193   2.302   1.634   9.129 -0.6785  0.9511  1.6719
 2577SOL    HW219194   2.235   1.598   9.249 -0.0664  1.2108 -0.6659
 2578SOL     OW19195   4.555   2.126   7.711  0.1701 -0.6198 -0.2256
 2578SOL    HW119196   4.571   2.204   7.658  0.6961 -1.0692 -0.7281
 2578SOL    HW219197   4.618   2.135   7.783  0.1378 -1.7814 -0.0433
 2579SOL     OW19198   3.868   3.476   3.594  0.2144  0.2972 -0.4667
 2579SOL    HW119199   3.878   3.521   3.510 -1.0797 -1.0690 -1.3569
 2579SOL    HW219200   3.953   3.491   3.636 -1.0378  1.7185  1.5447
 2580SOL     OW19201   2.909   4.033   9.140 -0.3049  0.8498 -0.2445
 2580SOL    HW119202   2.911   4.044   9.045 -2.4555  0.1121 -0.3693
 2580SOL    HW219203   3.004   4.042   9.153  0.1630 -0.9698 -2.3612
 2581SOL     OW19204   3.407   3.416   8.766  0.1629 -0.1768 -0.3591
 2581SOL    HW119205   3.472   3.445   8.829  3.3553 -1.6457 -2.9480
 2581SOL    HW219206   3.356   3.366   8.829  1.7277  1.0635  1.8706
 2582SOL     OW19207   1.145   3.678  11.560  0.3387 -0.0588  0.2354
 2582SOL    HW119208   1.110   3.601  11.604 -0.3709 -0.0018 -0.2310
 2582SOL    HW219209   1.214   3.710  11.618 -1.7353  1.9027  1.6129
 2583SOL     OW19210   2.209   0.836  10.457  0.1177 -1.1671  0.6154
 2583SOL    HW119211   2.292   0.789  10.448  1.8264  2.2305 -1.1998
 2583SOL    HW219212   2.160   0.768  10.410  1.3341 -0.9183 -0.9852
 2584SOL     OW19213   1.206   1.398  10.458 -0.0301 -0.2538  0.1889
 2584SOL    HW119214   1.242   1.384  10.546  1.4630  0.9540 -0.2191
 2584SOL    HW219215   1.281   1.448  10.424 -1.4066  1.3457 -0.4733
 2585SOL     OW19216   1.358   3.505  17.393 -0.5051  0.0163  0.1386
 2585SOL    HW119217   1.325   3.498  17.483 -1.4433 -0.6541 -0.2669
 2585SOL    HW219218   1.278   3.488  17.345  0.0660 -2.1321 -0.0620
 2586SOL     OW19219   3.768   3.254   1.400  0.6262  0.7146  0.0232
 2586SOL    HW119220   3.732   3.343   1.399 -0.3918  0.2937 -0.9800
 2586SOL    HW219221   3.792   3.255   1.492  1.4221  0.6821 -0.1862
 2587SOL     OW19222   1.151   0.736  11.288 -0.5126  0.2341 -0.6730
 2587SOL    HW119223   1.117   0.825  11.279  0.4695  0.5909 -0.7968
 2587SOL    HW219224   1.234   0.753  11.331 -1.0667  0.0707  0.4608
 2588SOL     OW19225   3.105   1.649   5.810  0.3248  0.2803 -0.2025
 2588SOL    HW119226   3.056   1.567   5.798 -0.0994  0.3873  0.8416
 2588SOL    HW219227   3.065   1.683   5.890  1.1367 -0.0573  0.3489
 2589SOL     OW19228   1.871   4.125  12.357 -0.1835 -0.1353 -0.1223
 2589SOL    HW119229   1.934   4.180  12.403 -0.6837  0.3360 -0.0065
 2589SOL    HW219230   1.918   4.046  12.330  0.4780  0.1790  0.1105
 2590SOL     OW19231   0.095   1.169  17.434  0.0629 -0.0935  0.3110
 2590SOL    HW119232   0.085   1.224  17.511 -0.7339  2.6673 -1.7970
 2590SOL    HW219233   0.184   1.135  17.443  0.8006  2.0022  0.9092
 2591SOL     OW19234   2.004   2.477   3.574  0.4307 -0.0063  0.8112
 2591SOL    HW119235   1.922   2.521   3.551  1.4214  0.6764 -1.3613
 2591SOL    HW219236   2.052   2.548   3.616 -2.0218  1.3863  1.2684
 2592SOL     OW19237   4.335   0.270   4.976 -0.6459 -0.4362  0.1254
 2592SOL    HW119238   4.360   0.317   4.897  0.1655 -0.6757  0.2456
 2592SOL    HW219239   4.404   0.306   5.032 -0.5455 -0.4310 -0.0031
 2593SOL     OW19240   3.422   2.368   2.501 -0.3115 -0.4810 -0.1443
 2593SOL    HW119241   3.328   2.361   2.523 -0.4993  1.2111 -0.4352
 2593SOL    HW219242   3.461   2.313   2.569 -2.1540 -0.4274  0.9903
 2594SOL     OW19243   1.253   1.435  13.732 -0.3169  0.7393 -0.2765
 2594SOL    HW119244   1.234   1.428  13.639 -0.7717 -0.5933 -0.0903
 2594SOL    HW219245   1.310   1.511  13.725  0.8870 -0.2458 -1.1121
 2595SOL     OW19246   1.045   1.668   6.094 -0.5900 -0.5190  0.0669
 2595SOL    HW119247   1.017   1.644   6.005  0.3800 -0.0911 -0.3503
 2595SOL    HW219248   1.112   1.730   6.065 -1.2398 -0.0905 -0.5479
 2596SOL     OW19249   2.254   3.918   0.239  0.3707  0.1152 -0.3211
 2596SOL    HW119250   2.298   3.913   0.154  1.3022  1.5963  0.0793
 2596SOL    HW219251   2.173   3.871   0.218  1.3705 -1.4187 -0.7273
 2597SOL     OW19252   2.642   1.115   0.970  0.5068  0.6890  0.1959
 2597SOL    HW119253   2.732   1.145   0.978  0.4325  0.5376  1.5938
 2597SOL    HW219254   2.610   1.180   0.908 -2.4922  0.0616  1.0780
 2598SOL     OW19255   3.043   4.556   5.614  0.0738 -0.8451  0.0652
 2598SOL    HW119256   3.044   4.556   5.710 -0.9010  0.4061  0.0682
 2598SOL    HW219257   3.041   4.650   5.600  1.8351 -1.0519 -1.4629
 2599SOL     OW19258   1.568   0.741   4.450  0.3876 -0.6633  0.3151
 2599SOL    HW119259   1.544   0.696   4.531 -0.5221  0.3433  0.6102
 2599SOL    HW219260   1.582   0.832   4.477 -1.5698 -0.5456  0.9356
 2600SOL     OW19261   0.978   4.643   3.808 -0.0840 -0.4668  0.0168
 2600SOL    HW119262   1.056   4.639   3.752 -0.1358 -2.1656  0.0716
 2600SOL    HW219263   1.023   4.681   3.884 -2.0128 -2.7470  2.2678
 2601SOL     OW19264   3.706   1.813   3.395 -0.4216 -0.0561  0.3364
 2601SOL    HW119265   3.789   1.822   3.349 -1.3214  0.3209 -1.2314
 2601SOL    HW219266   3.642   1.784   3.330 -0.6185  0.0819  0.4677
 2602SOL     OW19267   0.685   1.686  14.098 -0.5873  0.2991  0.2820
 2602SOL    HW119268   0.753   1.750  14.120  0.6672 -0.3608 -1.7028
 2602SOL    HW219269   0.693   1.641  14.182  1.0528  0.7018  0.3255
 2603SOL     OW19270   3.411   3.506   5.373  0.6352  0.5861 -0.1018
 2603SOL    HW119271   3.440   3.594   5.351  1.7629  0.0280 -0.9026
 2603SOL    HW219272   3.317   3.517   5.363  0.4245 -1.1633 -0.1229
 2604SOL     OW19273   0.284   4.136   2.942  0.1259  0.1292 -0.1566
 2604SOL    HW119274   0.308   4.085   2.865 -0.4761 -1.4859  0.7146
 2604SOL    HW219275   0.218   4.081   2.985 -0.6344  0.1347 -1.3079
 2605SOL     OW19276   3.071   3.940   3.510 -0.2985  0.1526  0.1725
 2605SOL    HW119277   3.105   4.027   3.531  0.6865 -0.5891  1.6589
 2605SOL    HW219278   2.976   3.946   3.506 -0.2392  1.4870  0.5189
 2606SOL     OW19279   4.463   1.853  12.064 -0.6235  0.5454  0.5022
 2606SOL    HW119280   4.548   1.889  12.041  0.4658 -2.8116 -0.7919
 2606SOL    HW219281   4.453   1.894  12.150 -2.7048  0.3125  0.3783
 2607SOL     OW19282   0.962   2.879  16.578 -0.2376  0.3706  0.5978
 2607SOL    HW119283   0.907   2.825  16.635  0.0268 -0.9169 -0.3631
 2607SOL    HW219284   1.030   2.903  16.640  1.3872  0.0423 -1.0453
 2608SOL     OW19285   3.976   4.081   8.323 -1.0461  0.3835 -0.3220
 2608SOL    HW119286   3.972   4.029   8.242 -1.8654  0.7156 -0.4987
 2608SOL    HW219287   4.028   4.145   8.276 -1.5894 -1.4319 -3.4271
 2609SOL     OW19288   0.199   3.519   5.928  0.4319 -0.0969 -0.3640
 2609SOL    HW119289   0.294   3.532   5.931  0.2771  0.4401  2.3842
 2609SOL    HW219290   0.169   3.573   6.001  1.2774 -0.4010  0.2204
 2610SOL     OW19291   3.884   1.314   4.256  0.0198 -0.0835 -0.1391
 2610SOL    HW119292   3.950   1.252   4.228  0.5535  1.0683 -1.4134
 2610SOL    HW219293   3.914   1.321   4.347 -0.8351  1.5527  0.0315
 2611SOL     OW19294   1.762   1.279   5.554  0.5879 -0.2751 -0.1798
 2611SOL    HW119295   1.813   1.346   5.599 -0.9498  0.1352  0.9083
 2611SOL    HW219296   1.703   1.245   5.621 -0.3090  1.7147  0.0043
 2612SOL     OW19297   3.181   0.349   6.390 -0.2904 -0.2026  0.2787
 2612SOL    HW119298   3.124   0.419   6.358  0.5867  0.0358 -0.7749
 2612SOL    HW219299   3.129   0.315   6.463  2.7322 -1.0211  2.0704
 2613SOL     OW19300   2.249   2.076  10.871 -0.4110 -1.2094 -0.5765
 2613SOL    HW119301   2.267   1.983  10.862 -1.4433 -1.5301  0.7413
 2613SOL    HW219302   2.272   2.081  10.964 -0.1416 -0.6592 -0.6713
 2614SOL     OW19303   4.667   1.093   9.829  0.3144 -0.7163 -0.0423
 2614SOL    HW119304   4.621   1.160   9.879 -0.4287 -0.0501 -1.6325
 2614SOL    HW219305   0.027   1.135   9.817  1.3486 -2.2371  1.9263
 2615SOL     OW19306   1.797   4.091   5.447  0.0515 -0.4510  0.0916
 2615SOL    HW119307   1.744   4.128   5.518 -1.9323 -3.6977  0.3315
 2615SOL    HW219308   1.781   3.998   5.464  0.4160 -0.3406  1.0307
 2616SOL     OW19309   1.358   0.647   1.009 -0.5269 -0.4758  0.2792
 2616SOL    HW119310   1.322   0.708   1.073  0.1425  0.2259 -0.0139
 2616SOL    HW219311   1.396   0.708   0.946 -0.8717  0.2737  0.7960
 2617SOL     OW19312   0.711   2.027   8.230  0.3002 -0.2518  0.1222
 2617SOL    HW119313   0.771   1.993   8.297  0.3447  0.4970  0.4659
 2617SOL    HW219314   0.646   2.069   8.286  1.3702  0.2145  1.0356
 2618SOL     OW19315   1.969   3.318  11.061  0.2857  0.3254 -0.1322
 2618SOL    HW119316   1.912   3.368  11.121  0.9743  0.7885  0.1311
 2618SOL    HW219317   1.900   3.286  11.003  0.5169 -2.0114  0.8886
 2619SOL     OW19318   1.691   0.802   9.283 -0.3272  0.2151  0.2071
 2619SOL    HW119319   1.772   0.841   9.313 -0.1613  3.2036 -4.1674
 2619SOL    HW219320   1.689   0.714   9.320 -1.1434  0.3230  0.4146
 2620SOL     OW19321   2.814   2.235   8.053  0.2191 -0.2265 -0.0629
 2620SOL    HW119322   2.868   2.250   7.976  1.8140  1.0768  1.3251
 2620SOL    HW219323   2.753   2.168   8.020  2.9469 -2.2639 -0.9948
 2621SOL     OW19324   2.440   0.516   2.928  0.0374 -0.1639  0.1220
 2621SOL    HW119325   2.429   0.440   2.871 -0.2399  0.8251 -1.1481
 2621SOL    HW219326   2.354   0.529   2.968 -1.0491  1.0190 -2.6365
 2622SOL     OW19327   1.649   0.745   4.188  0.0339 -0.6795 -0.3736
 2622SOL    HW119328   1.718   0.810   4.174  0.5736 -0.8653  1.4165
 2622SOL    HW219329   1.651   0.740   4.284 -1.7021  2.3454 -0.1620
 2623SOL     OW19330   3.402   0.119   1.319 -0.2135 -0.0337 -0.1240
 2623SOL    HW119331   3.484   0.165   1.333  0.5237 -1.4233  0.1467
 2623SOL    HW219332   3.374   0.140   1.230 -1.7824 -1.5846 -0.0147
 2624SOL     OW19333   0.544   2.104  16.193 -0.3125  0.5744 -0.4291
 2624SOL    HW119334   0.532   2.012  16.216 -3.0589  0.6934 -1.4937
 2624SOL    HW219335   0.638   2.118  16.206 -0.0736 -0.1762 -1.3326
 2625SOL     OW19336   0.167   1.323   1.168 -0.0445 -0.3105 -0.3413
 2625SOL    HW119337   0.189   1.356   1.255 -2.7142 -0.8016  0.5231
 2625SOL    HW219338   0.223   1.247   1.153  2.1920  1.3797 -0.5875
 2626SOL     OW19339   1.481   1.304   9.901 -0.2280  0.3507 -0.3592
 2626SOL    HW119340   1.495   1.226   9.847  1.6426  0.4790 -0.0695
 2626SOL    HW219341   1.395   1.296   9.942 -0.6690 -0.0479 -1.3628
 2627SOL     OW19342   2.171   4.031   7.582  0.0954  0.1981 -0.6276
 2627SOL    HW119343   2.107   4.016   7.651 -1.0940  1.1962 -1.5025
 2627SOL    HW219344   2.226   3.953   7.583  0.7228  0.6687  1.8035
 2628SOL     OW19345   3.663   0.991   9.463  0.5744  0.5940  0.6154
 2628SOL    HW119346   3.684   0.984   9.370 -2.9410  1.2763 -0.2294
 2628SOL    HW219347   3.592   1.055   9.458 -0.1908 -0.3034 -0.0588
 2629SOL     OW19348   3.212   2.397  14.605 -0.3614  0.1099 -0.6462
 2629SOL    HW119349   3.162   2.426  14.681  0.5805 -0.5497  0.2223
 2629SOL    HW219350   3.291   2.448  14.621 -1.0155  0.6714  0.7562
 2630SOL     OW19351   3.256   0.442   5.503 -0.5658  0.1536  0.4464
 2630SOL    HW119352   3.304   0.361   5.519  0.7373  1.1729  1.6718
 2630SOL    HW219353   3.169   0.408   5.481 -0.7964  1.1595 -0.1826
 2631SOL     OW19354   0.575   2.538   2.719  0.1578  0.2088 -0.5141
 2631SOL    HW119355   0.593   2.610   2.779 -3.2501  1.0750 -0.5223
 2631SOL    HW219356   0.597   2.464   2.774  1.7842  2.3608  1.7134
 2632SOL     OW19357   4.407   4.234   7.190  0.2403  0.1888 -0.6236
 2632SOL    HW119358   4.410   4.242   7.285  0.8610 -1.2112 -0.5201
 2632SOL    HW219359   4.496   4.255   7.163  1.3736 -2.3128  1.1178
 2633SOL     OW19360   1.320   3.800   2.148 -0.1156  0.1594  0.5504
 2633SOL    HW119361   1.265   3.794   2.069 -1.0525  0.7467  1.1532
 2633SOL    HW219362   1.362   3.883   2.128 -0.7768  0.7549  1.6178
 2634SOL     OW19363   1.394   2.174   5.927  0.0285 -0.1605  0.6059
 2634SOL    HW119364   1.477   2.216   5.950  0.3539 -1.3780  1.6273
 2634SOL    HW219365   1.326   2.215   5.980 -0.3316 -0.3950  0.3306
 2635SOL     OW19366   2.248   0.728   7.391 -0.3450  0.0691 -0.1073
 2635SOL    HW119367   2.187   0.743   7.319 -0.6840 -1.4863 -0.1503
 2635SOL    HW219368   2.296   0.811   7.391 -1.2111  0.5553 -3.7292
 2636SOL     OW19369   3.912   2.677   0.805 -0.2593  0.3085 -0.2861
 2636SOL    HW119370   3.968   2.682   0.728 -1.8282  0.5660 -1.4131
 2636SOL    HW219371   3.962   2.636   0.875  0.2379 -0.9009 -1.3544
 2637SOL     OW19372   2.804   4.593   1.281 -0.3660 -0.0749  0.3953
 2637SOL    HW119373   2.724   4.562   1.237 -0.3647 -0.0441  0.3711
 2637SOL    HW219374   2.776   4.677   1.317 -0.0081  0.1254  0.1973
 2638SOL     OW19375   1.313   0.083   8.075 -0.0774 -0.2043  0.0052
 2638SOL    HW119376   1.351   0.142   8.139  0.0223 -0.4254  0.1493
 2638SOL    HW219377   1.367   0.101   7.998 -1.1258  0.2549 -0.6362
 2639SOL     OW19378   3.535   2.081   2.249 -0.8949  0.1596 -0.0594
 2639SOL    HW119379   3.578   2.029   2.317 -1.1003 -0.4866 -0.4287
 2639SOL    HW219380   3.606   2.110   2.191 -0.4627 -0.6818  0.0558
 2640SOL     OW19381   1.113   0.819   6.411  0.0772 -0.0443  0.2964
 2640SOL    HW119382   1.078   0.757   6.348 -0.6513  0.4310  0.2382
 2640SOL    HW219383   1.204   0.797   6.389  1.0034  2.7291  1.4583
 2641SOL     OW19384   1.483   0.717   7.445 -0.0945 -0.1706  0.5628
 2641SOL    HW119385   1.497   0.763   7.362 -0.7818 -0.4823  0.2766
 2641SOL    HW219386   1.564   0.665   7.455 -0.2986 -0.4088  0.9808
 2642SOL     OW19387   2.655   0.577   7.652 -0.4290  0.1758  0.3752
 2642SOL    HW119388   2.697   0.505   7.605 -1.2904  1.0077 -1.6894
 2642SOL    HW219389   2.671   0.553   7.743 -0.9443 -1.6156  0.0030
 2643SOL     OW19390   2.563   0.045   4.626  0.7540 -0.0991  0.1004
 2643SOL    HW119391   2.583   0.135   4.650 -1.1989  0.4524 -0.3212
 2643SOL    HW219392   2.469   0.039   4.646  0.8751  0.6313  0.8788
 2644SOL     OW19393   1.876   1.803   3.486  0.0065 -0.1715 -0.1421
 2644SOL    HW119394   1.820   1.796   3.563  1.4331  0.2756  0.9342
 2644SOL    HW219395   1.845   1.742   3.419 -0.0840  0.4273 -0.6479
 2645SOL     OW19396   1.198   3.987   2.767  0.3913  0.1655 -0.9042
 2645SOL    HW119397   1.196   4.030   2.853 -0.4344 -0.1059 -0.7873
 2645SOL    HW219398   1.255   3.911   2.779 -1.4799 -1.1829 -0.6044
 2646SOL     OW19399   0.291   3.407   3.356 -0.2026  0.6228  0.6057
 2646SOL    HW119400   0.260   3.479   3.410 -0.0028  0.8684  0.3916
 2646SOL    HW219401   0.291   3.455   3.273 -3.4588 -0.0562  0.2438
 2647SOL     OW19402   1.596   1.539   8.324 -0.0932 -0.1768 -0.0006
 2647SOL    HW119403   1.561   1.614   8.276 -1.0385 -0.3514  0.4102
 2647SOL    HW219404   1.590   1.565   8.416 -1.2021  0.7655 -0.3466
 2648SOL     OW19405   0.951   4.030   6.818  0.4197 -0.1009  0.0003
 2648SOL    HW119406   0.966   3.952   6.871  2.4835 -1.4014 -2.5369
 2648SOL    HW219407   0.856   4.034   6.815  0.5871  2.8245 -1.6111
 2649SOL     OW19408   0.196   4.563   2.020  0.3388  0.3642 -0.0748
 2649SOL    HW119409   0.234   4.530   1.938  0.4555  1.0381 -0.2913
 2649SOL    HW219410   0.114   4.594   1.982 -0.5767 -0.6966  1.0531
 2650SOL     OW19411   2.675   0.725  17.288  0.0378 -0.5545  0.3141
 2650SOL    HW119412   2.677   0.662  17.360 -1.0524 -1.0731 -0.1097
 2650SOL    HW219413   2.632   0.677  17.217  1.9286 -1.7589 -0.0119
 2651SOL     OW19414   2.510   1.305   0.815  0.5235 -0.3414 -0.2359
 2651SOL    HW119415   2.425   1.295   0.772  0.1994  0.6830  0.1606
 2651SOL    HW219416   2.495   1.392   0.851  0.7402 -0.1720 -0.5622
 2652SOL     OW19417   4.382   3.073   4.489  0.0254  0.1974  0.0245
 2652SOL    HW119418   4.397   3.046   4.398  0.0139 -0.4053  0.1991
 2652SOL    HW219419   4.444   3.006   4.518 -1.6833 -0.5580  1.8943
 2653SOL     OW19420   2.662   4.081   6.710  0.3885 -0.1442  0.0125
 2653SOL    HW119421   2.725   4.073   6.781  2.7097  0.2947 -2.0090
 2653SOL    HW219422   2.659   3.990   6.678 -0.7284 -0.6379  1.5310
 2654SOL     OW19423   4.051   4.160   4.872  0.0938 -0.7348 -0.4814
 2654SOL    HW119424   3.975   4.218   4.881 -0.0797 -0.9905 -0.2913
 2654SOL    HW219425   4.065   4.141   4.964  1.7320  1.2526 -0.3083
 2655SOL     OW19426   2.988   3.910  14.733  0.5826  0.6041  0.0371
 2655SOL    HW119427   3.013   3.941  14.646 -1.4092 -0.9808 -1.0640
 2655SOL    HW219428   2.996   3.816  14.718  0.9096  0.4313  1.2525
 2656SOL     OW19429   3.374   4.341  13.863 -0.0549 -0.1625 -0.2272
 2656SOL    HW119430   3.334   4.353  13.776  1.1156  2.7957 -0.3436
 2656SOL    HW219431   3.344   4.417  13.912  2.7297  0.3650  0.6300
 2657SOL     OW19432   3.722   1.951   8.571 -1.1082 -0.6242 -0.3178
 2657SOL    HW119433   3.635   1.979   8.601 -1.3365 -0.3538 -1.2311
 2657SOL    HW219434   3.765   2.036   8.568  0.5404 -1.4549 -0.3792
 2658SOL     OW19435   1.069   0.825   7.298  0.2123 -0.3180  0.6127
 2658SOL    HW119436   1.127   0.838   7.374  0.9760  2.2950 -0.4070
 2658SOL    HW219437   1.132   0.811   7.227  1.2656  0.2381  1.4369
 2659SOL     OW19438   1.978   0.241  10.183  0.1894 -0.1527 -0.4502
 2659SOL    HW119439   1.970   0.286  10.268  2.2693 -1.1421  0.2703
 2659SOL    HW219440   2.022   0.159  10.204  0.2428  0.6490  2.7025
 2660SOL     OW19441   1.124   0.499  11.870  0.3094  0.3184  0.0017
 2660SOL    HW119442   1.062   0.567  11.895  1.5617  2.1178 -1.8501
 2660SOL    HW219443   1.143   0.467  11.958  2.1783  2.7048  0.4737
 2661SOL     OW19444   1.906   1.019   8.122 -0.4785 -0.1470 -0.0856
 2661SOL    HW119445   1.926   1.081   8.192 -2.5286  2.3464 -1.7204
 2661SOL    HW219446   1.977   0.954   8.119 -0.9476 -0.6980  0.6105
 2662SOL     OW19447   2.752   1.885   8.241 -0.4283  0.3048 -0.2324
 2662SOL    HW119448   2.768   1.791   8.235 -0.8244  0.2051  0.2034
 2662SOL    HW219449   2.661   1.893   8.212  0.4331  0.9938 -2.6860
 2663SOL     OW19450   3.426   3.207   9.845 -0.2325  0.8970  0.6256
 2663SOL    HW119451   3.407   3.292   9.887 -2.2146  1.5708 -1.6502
 2663SOL    HW219452   3.453   3.228   9.756 -1.7146 -2.2414 -0.5215
 2664SOL     OW19453   2.961   3.642   2.565 -0.3934 -0.3564  0.0319
 2664SOL    HW119454   2.923   3.591   2.493  1.9954 -2.5610  0.3392
 2664SOL    HW219455   3.033   3.681   2.516 -1.9337  2.4896  0.0214
 2665SOL     OW19456   4.395   3.752   3.052  0.3824  0.4472  0.1303
 2665SOL    HW119457   4.317   3.702   3.029  0.3327  0.7544 -0.3703
 2665SOL    HW219458   4.387   3.822   2.988  1.7995 -0.4361 -1.0136
 2666SOL     OW19459   3.254   2.194   3.153  0.4835 -0.4049  0.4323
 2666SOL    HW119460   3.335   2.218   3.198  0.4249  0.7038 -0.0612
 2666SOL    HW219461   3.235   2.110   3.194  1.1470 -1.6297 -1.7957
 2667SOL     OW19462   3.167   2.024  14.099 -0.2868 -0.2374  0.3768
 2667SOL    HW119463   3.258   2.054  14.099 -0.4731  0.3960 -2.7524
 2667SOL    HW219464   3.147   2.033  14.192 -1.3565 -3.5398  0.4817
 2668SOL     OW19465   0.100   1.374  17.654 -0.0630  0.0006 -0.2390
 2668SOL    HW119466   0.175   1.432  17.646  0.3256 -0.4026  0.4548
 2668SOL    HW219467   0.093   1.353   0.045  1.0176  1.3198  0.1390
 2669SOL     OW19468   1.116   1.325  12.691 -0.5117  0.2027  0.1747
 2669SOL    HW119469   1.024   1.322  12.663 -0.2054  0.0066 -0.7963
 2669SOL    HW219470   1.152   1.344  12.605  0.3736  1.6275  0.8665
 2670SOL     OW19471   1.863   0.559  11.699  0.0123 -0.0833 -0.9709
 2670SOL    HW119472   1.809   0.526  11.628 -1.8785  0.1491  0.3603
 2670SOL    HW219473   1.846   0.652  11.685 -0.0108  0.0593  0.0144
 2671SOL     OW19474   3.776   1.824  14.638 -0.0119  0.0922  0.2007
 2671SOL    HW119475   3.742   1.904  14.679 -2.9553 -1.9188  1.6774
 2671SOL    HW219476   3.768   1.771  14.717  0.1966 -0.3278 -0.0657
 2672SOL     OW19477   1.676   0.845   2.946 -0.1813 -0.2366 -0.0593
 2672SOL    HW119478   1.609   0.837   2.879 -0.2593 -0.4301  0.0413
 2672SOL    HW219479   1.631   0.891   3.016  0.0293 -0.4910  0.2494
 2673SOL     OW19480   3.852   3.651   5.328  0.6736 -0.4933 -0.1541
 2673SOL    HW119481   3.811   3.572   5.364  0.1633 -0.5018 -0.7517
 2673SOL    HW219482   3.794   3.718   5.363 -1.9529 -2.8041 -0.1151
 2674SOL     OW19483   0.769   4.613   6.091  0.3848  0.2326  0.3907
 2674SOL    HW119484   0.694   4.672   6.089 -0.2666 -0.4869  3.2986
 2674SOL    HW219485   0.734   4.525   6.078 -0.8930  0.7315  0.4316
 2675SOL     OW19486   3.136   0.371   7.804  0.2185  0.1412  0.0453
 2675SOL    HW119487   3.144   0.283   7.769 -0.2292 -1.1560  3.2343
 2675SOL    HW219488   3.079   0.357   7.880  0.5442  0.0765  0.2768
 2676SOL     OW19489   3.667   2.185   0.278  0.5196  0.3912 -0.2832
 2676SOL    HW119490   3.587   2.203   0.327 -0.0009 -0.4179 -0.8250
 2676SOL    HW219491   3.728   2.237   0.330  0.6664 -1.5043  1.4330
 2677SOL     OW19492   1.239   3.853   9.003 -0.6302 -0.0299 -0.5162
 2677SOL    HW119493   1.319   3.803   8.988 -1.1396 -1.2914  1.0173
 2677SOL    HW219494   1.175   3.783   9.011 -1.1370  0.2244 -2.3885
 2678SOL     OW19495   0.854   2.863  14.578  0.1092  0.6375  0.0760
 2678SOL    HW119496   0.778   2.886  14.524 -0.8568 -5.4174 -1.1467
 2678SOL    HW219497   0.816   2.809  14.647  0.6041 -1.6152 -1.4033
 2679SOL     OW19498   0.138   3.085   5.460  0.4016 -0.2081 -0.0807
 2679SOL    HW119499   0.123   2.998   5.497 -1.4816 -0.8184 -2.3078
 2679SOL    HW219500   0.140   3.061   5.368  0.0535  0.3005 -0.2197
 2680SOL     OW19501   1.060   2.278  11.612  0.0454 -0.0728 -0.7369
 2680SOL    HW119502   1.042   2.184  11.603  1.8987 -0.2832 -2.1392
 2680SOL    HW219503   1.049   2.303  11.521  2.6085 -0.8812 -1.2464
 2681SOL     OW19504   1.345   4.680   2.622 -0.4832  0.3507 -0.2628
 2681SOL    HW119505   1.303   0.030   2.580  0.1109  0.7327 -0.1726
 2681SOL    HW219506   1.349   4.702   2.715 -1.2515 -0.1588 -0.1085
 2682SOL     OW19507   0.935   4.259   8.420 -0.0119  0.2898  0.4109
 2682SOL    HW119508   1.013   4.315   8.422  0.7508 -0.8106  1.7687
 2682SOL    HW219509   0.952   4.204   8.497 -3.1836  1.8136  2.1738
 2683SOL     OW19510   0.153   1.450   1.714 -0.1503 -0.5998  0.2795
 2683SOL    HW119511   0.092   1.484   1.780  0.4291  1.1342 -0.0663
 2683SOL    HW219512   0.236   1.457   1.762  0.4777 -0.9812 -0.7676
 2684SOL     OW19513   0.168   4.374  10.684  0.6518  0.4484  0.0791
 2684SOL    HW119514   0.160   4.436  10.756  0.8712 -0.1842  0.6467
 2684SOL    HW219515   0.140   4.295  10.729 -0.3439  0.0200 -1.3092
 2685SOL     OW19516   3.379   1.268   8.444  0.7409 -0.0564  1.0204
 2685SOL    HW119517   3.381   1.362   8.429  2.4368 -0.6610 -2.5094
 2685SOL    HW219518   3.396   1.273   8.538  0.5005 -0.3739  1.0823
 2686SOL     OW19519   1.634   1.555   3.649 -0.4031 -0.0534 -0.0327
 2686SOL    HW119520   1.550   1.527   3.686 -0.4205 -2.2100 -1.7223
 2686SOL    HW219521   1.678   1.589   3.727 -0.4402  1.2518 -0.5725
 2687SOL     OW19522   0.603   2.679   6.252  0.0088 -0.2457 -0.4184
 2687SOL    HW119523   0.694   2.692   6.225  0.4560 -0.2142  1.0998
 2687SOL    HW219524   0.563   2.709   6.170 -1.1608  2.7925  1.2618
 2688SOL     OW19525   3.983   0.725   8.039  0.3597  0.0473 -0.3679
 2688SOL    HW119526   4.054   0.687   7.986 -0.5316 -3.0395  0.6045
 2688SOL    HW219527   3.924   0.650   8.052  0.2618  0.5526  2.1446
 2689SOL     OW19528   1.839   3.543   7.617  0.5326 -0.3855 -0.0916
 2689SOL    HW119529   1.746   3.541   7.638  0.7212 -1.7302  0.6019
 2689SOL    HW219530   1.837   3.606   7.544  0.8226  0.2199  0.4262
 2690SOL     OW19531   2.011   2.959  17.626  0.0873  0.0865  0.3516
 2690SOL    HW119532   1.920   2.930  17.623 -0.5103  1.9359  0.4349
 2690SOL    HW219533   2.034   2.935   0.014  0.4357 -0.7504  0.0369
 2691SOL     OW19534   0.903   3.822   3.307 -0.0713 -0.1319 -0.1139
 2691SOL    HW119535   0.841   3.751   3.287  0.8275 -1.2747  1.1416
 2691SOL    HW219536   0.838   3.891   3.320 -0.0350 -0.4763  2.0171
 2692SOL     OW19537   0.738   3.911   2.979  0.0209  0.0783 -0.0739
 2692SOL    HW119538   0.752   4.005   2.981 -3.2072  0.5678  0.6871
 2692SOL    HW219539   0.830   3.886   2.984 -0.4511 -1.3756  1.8291
 2693SOL     OW19540   3.669   4.636   2.028  0.5938  0.3058  0.0179
 2693SOL    HW119541   3.668   4.580   1.949  0.8472 -1.3491  1.1870
 2693SOL    HW219542   3.711   4.576   2.089 -0.8019  0.2664  0.9327
 2694SOL     OW19543   3.799   3.022  12.641 -0.1207  0.5398  0.1053
 2694SOL    HW119544   3.731   2.981  12.694 -1.1520 -1.3488 -2.6905
 2694SOL    HW219545   3.769   3.113  12.638 -0.4761  0.4851  2.1351
 2695SOL     OW19546   0.450   2.312   3.676 -0.0832  0.1917  0.0695
 2695SOL    HW119547   0.402   2.334   3.755  0.9640 -1.0234  1.0463
 2695SOL    HW219548   0.473   2.404   3.661  1.5429 -0.1522  0.4114
 2696SOL     OW19549   0.997   3.754   2.910  0.1228 -0.0696 -0.3528
 2696SOL    HW119550   1.074   3.715   2.871  0.2605  2.2926 -2.4283
 2696SOL    HW219551   0.987   3.708   2.994 -0.4585  2.2819  0.8685
 2697SOL     OW19552   2.718   2.239   2.004 -0.0384  0.3712 -0.0255
 2697SOL    HW119553   2.767   2.163   1.973 -3.5032 -1.3020 -1.4389
 2697SOL    HW219554   2.758   2.257   2.089 -0.6791 -2.4048  0.8262
 2698SOL     OW19555   4.429   1.641   7.902 -0.3483  0.4280 -0.4987
 2698SOL    HW119556   4.428   1.591   7.820  2.3694 -2.3775  1.1761
 2698SOL    HW219557   4.357   1.701   7.883 -1.2057 -0.4827 -0.0347
 2699SOL     OW19558   0.222   0.589  16.075  0.1265  0.0142  0.0839
 2699SOL    HW119559   0.130   0.610  16.095 -0.6189 -2.8775 -0.2474
 2699SOL    HW219560   0.228   0.515  16.136  1.4623  0.4297  0.4485
 2700SOL     OW19561   3.526   4.275  17.517 -0.5185  0.5728  0.3821
 2700SOL    HW119562   3.538   4.186  17.485 -1.3172  0.3972  0.5797
 2700SOL    HW219563   3.529   4.316  17.430  0.0505 -2.2608 -0.9102
 2701SOL     OW19564   2.423   1.977   2.223  0.0193 -0.2417 -0.5162
 2701SOL    HW119565   2.517   1.960   2.230  0.3284  1.8582  0.6549
 2701SOL    HW219566   2.433   2.059   2.174 -0.0176 -0.4537 -0.8732
 2702SOL     OW19567   1.532   1.019   3.539  0.0951 -0.5942 -0.0627
 2702SOL    HW119568   1.551   1.099   3.490 -0.7777 -0.3184  0.0385
 2702SOL    HW219569   1.605   0.960   3.523  0.6299  0.4968 -1.6760
 2703SOL     OW19570   1.800   3.448   2.555 -0.3684 -0.0856  0.1982
 2703SOL    HW119571   1.883   3.425   2.513  0.5048  0.5244  1.5783
 2703SOL    HW219572   1.732   3.389   2.523  1.3188 -1.1700 -1.3713
 2704SOL     OW19573   3.982   3.360   7.419  0.2993  0.0393  0.3357
 2704SOL    HW119574   3.947   3.303   7.350 -3.0686  1.7355  0.6488
 2704SOL    HW219575   3.955   3.311   7.496  2.3012  2.2060  2.4001
 2705SOL     OW19576   0.614   2.363   8.069 -0.4818 -0.6193 -0.2922
 2705SOL    HW119577   0.589   2.455   8.074 -0.4664 -0.7686  3.0121
 2705SOL    HW219578   0.630   2.349   8.163  1.3133 -1.8768 -0.7759
 2706SOL     OW19579   0.074   2.391   3.796 -0.1709  0.2166  0.5356
 2706SOL    HW119580   0.072   2.409   3.702 -0.6966 -1.4184  0.2307
 2706SOL    HW219581   0.155   2.429   3.830  0.0697 -1.1490  1.5021
 2707SOL     OW19582   4.088   0.046  15.948  0.3451  0.0759  0.1437
 2707SOL    HW119583   4.010   0.068  15.897  0.6134 -0.8552 -0.6637
 2707SOL    HW219584   4.151   0.116  15.931  1.3796 -0.5656  1.2827
 2708SOL     OW19585   0.593   3.106   5.936 -0.2748 -0.2874 -0.3419
 2708SOL    HW119586   0.661   3.173   5.935 -2.1948  1.6784 -0.5072
 2708SOL    HW219587   0.644   3.029   5.912 -0.2278  0.0538 -1.3369
 2709SOL     OW19588   2.260   4.375   0.747 -0.0020  0.1691 -0.2284
 2709SOL    HW119589   2.297   4.384   0.835 -1.6762 -0.8040  0.5818
 2709SOL    HW219590   2.169   4.380   0.777 -0.1810 -0.0824 -0.7291
 2710SOL     OW19591   0.094   2.033  12.405 -0.3014 -0.0344 -0.4340
 2710SOL    HW119592   0.081   2.100  12.473 -1.0153  0.6979 -1.2988
 2710SOL    HW219593   0.024   2.054  12.343  0.2572  0.6194 -0.8334
 2711SOL     OW19594   0.360   2.897   8.749 -0.0725 -0.1398 -0.4784
 2711SOL    HW119595   0.294   2.959   8.779  0.5931  0.8666 -1.0843
 2711SOL    HW219596   0.350   2.831   8.817 -1.9179 -1.0642 -1.6265
 2712SOL     OW19597   2.074   3.686   7.453  0.4172 -1.0566  0.2201
 2712SOL    HW119598   1.981   3.679   7.429 -0.0992 -0.9169  2.2077
 2712SOL    HW219599   2.089   3.592   7.466  1.7340 -0.8930 -0.1977
 2713SOL     OW19600   4.471   3.621   2.176  0.0731  0.0174  0.4597
 2713SOL    HW119601   4.440   3.669   2.099  0.7900 -0.8385 -0.3476
 2713SOL    HW219602   4.553   3.669   2.182  0.1802  0.0327 -1.0586
 2714SOL     OW19603   0.081   1.009  15.597  0.4195 -0.6377  0.2956
 2714SOL    HW119604   0.109   0.975  15.682  1.9441  1.1050  0.5108
 2714SOL    HW219605   0.166   1.004  15.553 -0.1858 -1.8478 -0.7081
 2715SOL     OW19606   2.874   1.763   5.454  0.0147 -0.3374  0.3092
 2715SOL    HW119607   2.948   1.725   5.408 -0.1943 -1.0885  0.5897
 2715SOL    HW219608   2.901   1.854   5.440 -0.1767 -0.2381  0.5909
 2716SOL     OW19609   4.231   3.138   9.102  0.7098 -0.4269 -0.0003
 2716SOL    HW119610   4.148   3.173   9.134  0.8527 -1.6356  1.6539
 2716SOL    HW219611   4.240   3.065   9.163 -0.1337  0.2282  0.9104
 2717SOL     OW19612   0.749   1.307   2.465 -0.1339  0.4542  0.7261
 2717SOL    HW119613   0.676   1.269   2.417  0.5601 -0.0177  0.0613
 2717SOL    HW219614   0.799   1.228   2.486 -2.3130 -0.8024  1.2322
 2718SOL     OW19615   2.395   3.744  12.359  0.6880 -0.3485  0.0784
 2718SOL    HW119616   2.413   3.826  12.405  0.1591  0.2575 -0.7928
 2718SOL    HW219617   2.330   3.762  12.291  0.7294 -2.8293 -0.6397
 2719SOL     OW19618   4.368   0.215   2.091 -0.3823 -0.2206 -0.0257
 2719SOL    HW119619   4.359   0.120   2.095 -2.1870 -0.0506  0.1996
 2719SOL    HW219620   4.340   0.240   2.179  1.0291  1.4784 -0.0483
 2720SOL     OW19621   4.012   2.041   7.922 -0.0867 -1.0874  0.4412
 2720SOL    HW119622   4.026   1.948   7.904  0.6016 -0.9101  0.0610
 2720SOL    HW219623   3.959   2.045   8.002 -4.6184 -0.0865 -2.5906
 2721SOL     OW19624   1.493   2.375   5.613 -0.2282  0.2523  0.4351
 2721SOL    HW119625   1.432   2.444   5.635 -1.1018 -1.1409  2.3247
 2721SOL    HW219626   1.543   2.423   5.546 -1.2989  1.2363  0.3527
 2722SOL     OW19627   1.335   1.998  17.637  0.4263  0.1378  0.0042
 2722SOL    HW119628   1.384   1.950   0.001 -0.3665  0.0550  0.5273
 2722SOL    HW219629   1.378   1.975  17.555 -2.6899 -1.5830 -1.1422
 2723SOL     OW19630   1.084   2.037   4.054  0.5291  0.2908  0.2443
 2723SOL    HW119631   1.141   2.093   4.001  0.9786 -1.7791 -1.4320
 2723SOL    HW219632   1.144   2.008   4.122  0.1756 -0.2015  0.3480
 2724SOL     OW19633   3.209   3.538   7.469  0.0141 -0.4357  0.2575
 2724SOL    HW119634   3.235   3.546   7.377 -0.5971  1.7976  0.2829
 2724SOL    HW219635   3.193   3.631   7.486  0.2776 -0.0894 -1.3376
 2725SOL     OW19636   2.008   2.495   5.722 -0.2676  0.3497 -0.4269
 2725SOL    HW119637   1.921   2.477   5.756 -0.5840  1.1697 -0.7914
 2725SOL    HW219638   2.031   2.568   5.779 -2.5604 -1.5521  2.9278
 2726SOL     OW19639   1.978   3.399   6.756  0.3188 -0.0832 -0.2110
 2726SOL    HW119640   2.061   3.365   6.722  1.4431  1.0513  1.3801
 2726SOL    HW219641   1.997   3.447   6.837  2.4213  2.5234 -2.2552
 2727SOL     OW19642   0.128   4.294   4.842 -0.4785 -0.2172  0.8872
 2727SOL    HW119643   0.068   4.336   4.904 -2.1602  1.6853 -2.0416
 2727SOL    HW219644   0.073   4.297   4.764 -1.4845 -1.3903  1.5611
 2728SOL     OW19645   4.227   2.923   9.884  0.2692 -0.3804  0.1969
 2728SOL    HW119646   4.307   2.874   9.907 -0.9202 -2.0744  0.7000
 2728SOL    HW219647   4.215   2.970   9.967 -3.7687 -2.6036  0.8480
 2729SOL     OW19648   4.192   4.721   3.965  0.3438 -0.3239 -0.4640
 2729SOL    HW119649   4.285   4.718   3.945  1.1958 -0.3343  3.5564
 2729SOL    HW219650   4.148   4.683   3.889 -0.1441  1.1569 -0.9247
 2730SOL     OW19651   0.954   2.208   7.672 -0.3006 -0.0570  0.0608
 2730SOL    HW119652   0.908   2.126   7.690  0.1957 -0.6357 -1.2878
 2730SOL    HW219653   0.955   2.195   7.577  2.4117  0.3056  0.0557
 2731SOL     OW19654   2.542   3.406   7.320  0.3471  0.1568 -0.0538
 2731SOL    HW119655   2.464   3.388   7.373 -1.0161  0.8331 -1.8350
 2731SOL    HW219656   2.614   3.432   7.378  1.2020 -1.0072 -0.6071
 2732SOL     OW19657   1.205   1.388  12.972 -0.5417  0.4737 -0.4894
 2732SOL    HW119658   1.189   1.363  12.881 -1.4715 -0.2655 -0.1225
 2732SOL    HW219659   1.136   1.454  12.982 -1.6441 -0.7108 -0.3774
 2733SOL     OW19660   0.229   1.746   2.460  0.5338  0.3786 -0.3059
 2733SOL    HW119661   0.137   1.735   2.434  0.4965 -0.6777  0.2878
 2733SOL    HW219662   0.249   1.655   2.478 -2.2410 -0.2573 -0.3874
 2734SOL     OW19663   2.854   4.244   7.782  0.0797 -0.3118 -0.6112
 2734SOL    HW119664   2.926   4.262   7.842 -1.8487  2.0424  0.9937
 2734SOL    HW219665   2.902   4.200   7.711  0.0797  0.0693 -0.8476
 2735SOL     OW19666   2.911   1.471  15.208  0.1242  0.7513 -0.3954
 2735SOL    HW119667   2.918   1.413  15.284 -1.2936 -0.8182 -1.4655
 2735SOL    HW219668   2.873   1.545  15.256  0.0252 -0.5483  1.5430
 2736SOL     OW19669   2.085   1.570   5.799  0.1350 -0.2224 -0.1874
 2736SOL    HW119670   2.068   1.580   5.705  3.4299 -2.7897 -1.0838
 2736SOL    HW219671   1.999   1.589   5.835 -0.2012 -0.1049 -1.0655
 2737SOL     OW19672   4.308   4.683   2.400 -0.2069  0.3440 -0.9159
 2737SOL    HW119673   4.296   4.636   2.483 -0.4073 -0.0587 -1.1758
 2737SOL    HW219674   4.387   4.644   2.361  0.4669  1.0816 -0.2881
 2738SOL     OW19675   4.443   0.749  11.191 -0.0714 -0.3484  0.2560
 2738SOL    HW119676   4.391   0.782  11.118  0.5815  1.6756  0.6851
 2738SOL    HW219677   4.369   0.718  11.243 -1.1711  1.6941 -0.0797
 2739SOL     OW19678   0.555   1.028  13.169  0.2808 -0.2481  0.2156
 2739SOL    HW119679   0.645   1.026  13.136  0.8767 -0.6831  1.8732
 2739SOL    HW219680   0.504   1.046  13.090  1.7213  2.6231 -0.0496
 2740SOL     OW19681   2.576   2.081   0.812 -0.1980  0.1884  0.2689
 2740SOL    HW119682   2.481   2.078   0.813 -0.2852  3.2125  1.5097
 2740SOL    HW219683   2.599   1.988   0.807 -1.3681 -0.0353 -0.8500
 2741SOL     OW19684   0.332   4.373  15.141 -0.0549  0.4100 -0.4220
 2741SOL    HW119685   0.332   4.315  15.065  0.8004 -0.6822  0.4135
 2741SOL    HW219686   0.257   4.342  15.193 -0.6433 -0.1388 -1.6101
 2742SOL     OW19687   3.755   1.686   2.694  0.2014 -0.5719  0.2491
 2742SOL    HW119688   3.748   1.702   2.788 -2.0311 -1.3981  0.2087
 2742SOL    HW219689   3.674   1.721   2.658  0.5415  1.2813  1.3215
 2743SOL     OW19690   2.485   3.972  15.089 -0.2440 -0.1823 -0.2790
 2743SOL    HW119691   2.436   3.918  15.027  0.1416 -1.4674  0.5445
 2743SOL    HW219692   2.573   3.933  15.082  0.5761  1.5857  0.1855
 2744SOL     OW19693   3.621   2.939   7.027 -0.2924  0.1445  0.2071
 2744SOL    HW119694   3.642   2.871   7.091  0.0418 -1.4870 -1.6309
 2744SOL    HW219695   3.574   3.010   7.071 -1.4641 -1.4562  1.5387
 2745SOL     OW19696   1.471   1.151   3.790 -0.4525  0.3867 -0.1563
 2745SOL    HW119697   1.475   1.246   3.780  0.1006  0.3915  0.1154
 2745SOL    HW219698   1.492   1.121   3.701  0.3252 -1.7997  0.7749
 2746SOL     OW19699   2.282   1.883   9.426 -0.8824 -0.2028  0.7297
 2746SOL    HW119700   2.235   1.965   9.437 -1.1323  0.0605 -2.3538
 2746SOL    HW219701   2.289   1.875   9.331  2.2232  0.3628  0.9110
 2747SOL     OW19702   4.360   4.163   6.060  0.1238 -0.8051  0.6717
 2747SOL    HW119703   4.323   4.246   6.091  0.4455 -0.0070 -1.1055
 2747SOL    HW219704   4.287   4.102   6.069  0.4417 -1.1343  1.0775
 2748SOL     OW19705   0.071   1.307   3.904  0.3123 -0.6910  0.6464
 2748SOL    HW119706   0.064   1.228   3.851 -1.0064  0.8049 -1.3710
 2748SOL    HW219707   0.162   1.337   3.908  0.7717 -1.5666 -2.8195
 2749SOL     OW19708   0.252   2.594  17.489 -0.3647 -0.0791  0.3502
 2749SOL    HW119709   0.179   2.620  17.544  1.3530 -1.0278  3.0892
 2749SOL    HW219710   0.315   2.666  17.496 -1.8028  1.2385 -0.4442
 2750SOL     OW19711   2.900   2.783  11.410 -0.7554  0.2078  0.6784
 2750SOL    HW119712   2.942   2.808  11.493  2.5903 -0.4453 -0.8302
 2750SOL    HW219713   2.869   2.697  11.437  0.4172 -0.7872 -1.2269
 2751SOL     OW19714   1.816   1.673   0.707 -0.8022 -0.2046  0.8037
 2751SOL    HW119715   1.826   1.651   0.614  0.9861 -0.1901  0.9980
 2751SOL    HW219716   1.786   1.586   0.734 -1.3768  0.2977  1.8026
 2752SOL     OW19717   3.159   0.010  11.913 -0.1265  0.2805 -0.4290
 2752SOL    HW119718   3.204   0.061  11.846  0.7550  0.6611  0.4588
 2752SOL    HW219719   3.110   4.677  11.855  1.1857  0.0435 -1.2984
 2753SOL     OW19720   3.042   4.126  11.731 -0.1666  0.2621  0.2236
 2753SOL    HW119721   3.028   4.177  11.652 -2.5369  1.8637  1.6760
 2753SOL    HW219722   3.055   4.043  11.684 -0.4576 -0.0871  0.7610
 2754SOL     OW19723   1.093   4.211   7.301 -0.0027 -0.4765  0.3349
 2754SOL    HW119724   1.177   4.214   7.256 -1.1275  4.4190 -1.4651
 2754SOL    HW219725   1.039   4.253   7.234  0.0133 -1.7231 -0.4629
 2755SOL     OW19726   2.428   4.632   4.107  0.0551 -0.1867 -1.2167
 2755SOL    HW119727   2.419   4.597   4.196  2.1331 -0.0721 -0.9562
 2755SOL    HW219728   2.475   4.561   4.063 -0.4670 -0.7381 -0.8886
 2756SOL     OW19729   3.143   3.773   8.075  0.0229 -0.9580  0.0296
 2756SOL    HW119730   3.110   3.774   8.164 -1.3053  0.6014 -0.4768
 2756SOL    HW219731   3.093   3.702   8.035 -0.4979 -0.4913 -0.1377
 2757SOL     OW19732   1.742   1.904   4.191 -0.0457  0.0580  0.0517
 2757SOL    HW119733   1.821   1.876   4.145  0.8407  0.9747  1.0076
 2757SOL    HW219734   1.676   1.856   4.141 -1.0109  1.3936  0.0328
 2758SOL     OW19735   1.548   3.902   0.044  0.2616 -0.0581  0.9045
 2758SOL    HW119736   1.485   3.971   0.066 -0.6282 -0.2859 -0.9226
 2758SOL    HW219737   1.504   3.872  17.667  2.6501  3.0699 -1.5589
 2759SOL     OW19738   4.231   4.693  12.061 -0.4382  0.7622  0.0723
 2759SOL    HW119739   4.192   4.709  11.975  2.6404  0.1697 -1.4110
 2759SOL    HW219740   4.320   4.723  12.046 -0.0396  0.3689  1.6548
 2760SOL     OW19741   3.535   3.128   3.464  0.4337 -0.4558  0.0041
 2760SOL    HW119742   3.592   3.182   3.518 -0.7089  0.9451 -0.1846
 2760SOL    HW219743   3.558   3.046   3.507 -1.4425 -0.9839  0.0181
 2761SOL     OW19744   4.724   2.665  10.343  0.0446 -0.2069  0.3967
 2761SOL    HW119745   0.067   2.690  10.406  0.4669 -1.3048  0.3782
 2761SOL    HW219746   0.014   2.712  10.261 -0.2559 -0.2699  0.3060
 2762SOL     OW19747   4.166   4.490   4.528 -0.5378 -0.0547 -0.1138
 2762SOL    HW119748   4.202   4.418   4.580 -1.4928  0.3073  1.0443
 2762SOL    HW219749   4.194   4.454   4.444 -3.0071  0.0850 -0.9869
 2763SOL     OW19750   2.387   1.511  12.022 -0.0411  0.0928 -0.2264
 2763SOL    HW119751   2.463   1.491  12.078 -0.4509 -2.3153 -0.5486
 2763SOL    HW219752   2.338   1.581  12.066  0.8491  1.2075 -0.9958
 2764SOL     OW19753   0.212   2.307   5.752  0.3125 -0.1115 -0.1501
 2764SOL    HW119754   0.170   2.293   5.837 -0.4078  1.5321 -0.2485
 2764SOL    HW219755   0.294   2.353   5.770  1.0200 -1.9214  1.3089
 2765SOL     OW19756   3.424   0.712   5.826  0.0076 -0.5769  0.6047
 2765SOL    HW119757   3.440   0.620   5.806 -0.1826 -0.4773 -0.0125
 2765SOL    HW219758   3.364   0.706   5.901  0.3004 -0.2701  0.8665
 2766SOL     OW19759   1.267   0.097   5.440  0.2396  0.0824  0.3915
 2766SOL    HW119760   1.260   0.119   5.533  0.3000  1.2655  0.1152
 2766SOL    HW219761   1.355   0.062   5.433  0.2322  0.1701 -0.1200
 2767SOL     OW19762   3.150   4.013  14.925 -0.0540  0.2325 -0.5649
 2767SOL    HW119763   3.105   3.954  14.864  2.6000 -1.2682 -1.0206
 2767SOL    HW219764   3.238   4.004  14.889 -0.3995  1.6726 -1.7910
 2768SOL     OW19765   4.192   2.474   4.989  0.3138  0.1531 -0.3359
 2768SOL    HW119766   4.221   2.563   4.968  0.9187 -0.2855 -1.3683
 2768SOL    HW219767   4.274   2.432   5.014  0.9662  1.5949 -0.0868
 2769SOL     OW19768   3.448   1.166   9.447 -0.3007 -0.0893  0.3576
 2769SOL    HW119769   3.371   1.117   9.475  0.9255 -1.5595  1.1642
 2769SOL    HW219770   3.400   1.239   9.408  1.7682  1.2053  0.2417
 2770SOL     OW19771   0.850   4.639  14.269  0.5946 -0.4005  0.3682
 2770SOL    HW119772   0.925   4.624  14.211  1.5991  0.6226  1.3947
 2770SOL    HW219773   0.792   4.573  14.231  0.8064 -0.5124  0.2372
 2771SOL     OW19774   1.484   1.911   1.958  0.8458  0.6903 -0.3781
 2771SOL    HW119775   1.537   1.911   1.878 -0.6786 -3.4430 -1.4227
 2771SOL    HW219776   1.513   1.833   2.005  0.9862  1.0336  0.1030
 2772SOL     OW19777   4.457   4.526  14.503  0.2392  0.3415  0.1318
 2772SOL    HW119778   4.445   4.586  14.576  0.7223  1.0779 -0.3978
 2772SOL    HW219779   4.398   4.553  14.432 -2.0224 -1.8705  1.1650
 2773SOL     OW19780   1.552   0.630   8.865  0.3925 -0.2648 -0.3234
 2773SOL    HW119781   1.615   0.684   8.817 -1.5355  1.8888 -0.4273
 2773SOL    HW219782   1.494   0.612   8.791  2.4754  1.1925 -2.3178
 2774SOL     OW19783   2.338   1.135   1.042 -0.0425 -0.3058 -0.1787
 2774SOL    HW119784   2.265   1.112   0.984 -1.4593 -1.2882  1.9822
 2774SOL    HW219785   2.406   1.146   0.976 -1.3322 -1.6632 -1.7209
 2775SOL     OW19786   1.351   1.040  15.874 -0.4947 -0.1695  0.1347
 2775SOL    HW119787   1.348   1.128  15.911  1.4407  0.5177 -1.3374
 2775SOL    HW219788   1.324   0.986  15.948 -2.9292  2.5876  1.2536
 2776SOL     OW19789   1.367   4.287  14.764  0.4484  0.3440 -0.6268
 2776SOL    HW119790   1.351   4.359  14.703 -2.4072 -0.1642 -0.4357
 2776SOL    HW219791   1.457   4.262  14.743 -0.2766 -0.7036 -2.4947
 2777SOL     OW19792   4.094   0.708   3.973  0.4083 -0.1238  0.1949
 2777SOL    HW119793   4.159   0.762   3.927  0.3693  0.7833  1.2030
 2777SOL    HW219794   4.096   0.744   4.062  1.5076 -0.6111  0.3728
 2778SOL     OW19795   4.310   3.679  10.523  0.1999 -0.4114  0.0233
 2778SOL    HW119796   4.249   3.746  10.554 -0.2390 -1.5979  1.7686
 2778SOL    HW219797   4.364   3.736  10.469 -0.8534  0.3196 -0.2599
 2779SOL     OW19798   2.233   1.917   5.737  0.3037  0.0129 -0.6949
 2779SOL    HW119799   2.321   1.955   5.739  0.8655 -1.3209 -0.0301
 2779SOL    HW219800   2.184   1.999   5.732 -0.4291 -0.3728  0.1955
 2780SOL     OW19801   1.615   1.614   7.515 -0.3123 -0.2317  0.4243
 2780SOL    HW119802   1.675   1.655   7.578  0.1193  0.1990 -0.2727
 2780SOL    HW219803   1.678   1.555   7.472  0.5419  0.9245  0.0877
 2781SOL     OW19804   1.175   4.690   4.315  0.4685 -0.0372  0.1605
 2781SOL    HW119805   1.237   0.038   4.307 -0.4826  1.0049  2.2812
 2781SOL    HW219806   1.228   4.614   4.293  1.6733  1.3016 -1.5942
 2782SOL     OW19807   2.379   2.671   1.251  0.0902  0.1241  0.3772
 2782SOL    HW119808   2.444   2.638   1.189  1.2640  1.4057  0.9346
 2782SOL    HW219809   2.312   2.711   1.196  0.6231  1.8912  1.0297
 2783SOL     OW19810   4.702   1.988  10.529  0.1740  0.1148  0.3073
 2783SOL    HW119811   4.641   2.061  10.518 -0.9626 -0.8291  0.3017
 2783SOL    HW219812   4.712   1.966  10.436  0.6230  0.2728  0.3162
 2784SOL     OW19813   2.402   0.111  13.444 -0.4061 -0.4068  0.5054
 2784SOL    HW119814   2.492   0.134  13.423 -1.6769  3.3247 -0.9554
 2784SOL    HW219815   2.374   0.066  13.364  3.5382 -0.3944 -0.8425
 2785SOL     OW19816   2.340   0.103   0.558  0.1932  0.6150  0.2273
 2785SOL    HW119817   2.342   0.199   0.560  1.1114  0.6422 -2.3587
 2785SOL    HW219818   2.412   0.075   0.615 -0.8666 -1.8762  0.3528
 2786SOL     OW19819   2.505   0.565  15.198  0.1446 -0.0444  0.1226
 2786SOL    HW119820   2.508   0.472  15.178  0.1049  0.4054 -2.0134
 2786SOL    HW219821   2.409   0.570  15.198  0.0747 -1.3865 -2.3824
 2787SOL     OW19822   1.304   0.486   4.337 -0.3878  0.3747  0.0743
 2787SOL    HW119823   1.330   0.447   4.254  0.0312  2.1703 -0.6485
 2787SOL    HW219824   1.296   0.576   4.304  0.2442  0.0305 -0.9953
 2788SOL     OW19825   2.229   3.593   0.356  0.9039 -0.3902  0.1975
 2788SOL    HW119826   2.287   3.541   0.300 -1.8711 -0.7346 -2.3362
 2788SOL    HW219827   2.161   3.623   0.296  0.0081  0.2124  1.5060
 2789SOL     OW19828   1.049   2.218  13.036  0.0318  0.0134  0.0501
 2789SOL    HW119829   0.970   2.164  13.039 -2.3143  3.4749  0.1777
 2789SOL    HW219830   1.102   2.192  12.961  0.6157  0.4190  0.3216
 2790SOL     OW19831   1.968   2.097   5.074  0.2682  0.0821 -0.1793
 2790SOL    HW119832   2.055   2.086   5.112  0.7126  1.4215 -0.7840
 2790SOL    HW219833   1.945   2.190   5.078 -1.2059 -0.1157 -3.5005
 2791SOL     OW19834   3.877   3.331   7.866 -0.7719  0.4565  0.0287
 2791SOL    HW119835   3.942   3.382   7.913 -0.2762 -0.4211  0.3020
 2791SOL    HW219836   3.921   3.274   7.803 -2.1174  0.2937 -0.7552
 2792SOL     OW19837   2.943   3.281   1.350  0.3610  0.6259  0.3679
 2792SOL    HW119838   2.904   3.366   1.369 -0.2862  0.8619 -1.9776
 2792SOL    HW219839   3.004   3.310   1.282  0.9281 -0.4993  0.4044
 2793SOL     OW19840   1.973   1.207   4.661  0.0558 -0.0254 -0.2301
 2793SOL    HW119841   1.951   1.235   4.573 -1.4582 -0.9388 -0.1567
 2793SOL    HW219842   2.055   1.253   4.677  0.8705 -0.7687 -2.3081
 2794SOL     OW19843   4.065   4.584   5.427  0.3476 -0.0457  0.4363
 2794SOL    HW119844   4.079   4.678   5.444  1.4668 -0.3267  1.0479
 2794SOL    HW219845   4.052   4.593   5.333 -0.1173  2.1912  0.6949
 2795SOL     OW19846   1.187   1.781   9.257  0.0554  0.4208 -0.6377
 2795SOL    HW119847   1.238   1.701   9.247  0.9123  0.5231  2.8939
 2795SOL    HW219848   1.259   1.843   9.268  2.4446 -2.4157 -0.0920
 2796SOL     OW19849   2.988   3.329   6.665  0.0429 -0.0639 -0.1500
 2796SOL    HW119850   3.070   3.375   6.681 -1.0551  2.4181 -1.6336
 2796SOL    HW219851   2.923   3.398   6.649 -2.0097 -1.6790  1.1049
 2797SOL     OW19852   0.378   4.628  16.740  0.4296 -0.1005 -0.2952
 2797SOL    HW119853   0.415   4.649  16.825  1.0347 -0.9542 -0.3476
 2797SOL    HW219854   0.283   4.616  16.747  0.3835  1.3119  1.3361
 2798SOL     OW19855   4.641   4.433   4.932  0.1557  0.1506  0.7516
 2798SOL    HW119856   4.579   4.408   4.864 -0.0163 -0.3408  1.0902
 2798SOL    HW219857   4.583   4.424   5.008 -0.3250 -0.8448  0.2559
 2799SOL     OW19858   2.544   0.713   0.176 -0.6364  0.1387  0.3561
 2799SOL    HW119859   2.572   0.753   0.094 -1.4411 -0.3777 -0.1809
 2799SOL    HW219860   2.553   0.781   0.243  2.4153 -0.5458  0.6592
 2800SOL     OW19861   4.693   2.770   7.160 -0.0321 -0.2024  0.4303
 2800SOL    HW119862   4.679   2.702   7.226 -2.6472  2.0942  2.2563
 2800SOL    HW219863   0.031   2.829   7.200  2.0754 -2.5824  0.6413
 2801SOL     OW19864   1.643   0.173   3.022 -0.0888  0.2197  0.6462
 2801SOL    HW119865   1.647   0.184   2.927 -0.4854  0.2955  0.6386
 2801SOL    HW219866   1.641   0.261   3.058 -2.5249  1.5293 -2.7205
 2802SOL     OW19867   3.641   2.577   0.735  0.2762 -0.2468 -0.4039
 2802SOL    HW119868   3.680   2.507   0.787 -1.0869 -1.1483 -0.5731
 2802SOL    HW219869   3.690   2.573   0.653  1.4640  0.6319  0.2729
 2803SOL     OW19870   1.706   1.845   2.563  0.4712 -0.4707  1.1293
 2803SOL    HW119871   1.740   1.800   2.485 -3.6416  0.2431 -1.1165
 2803SOL    HW219872   1.778   1.904   2.584  1.0343 -0.9823  0.6427
 2804SOL     OW19873   4.507   1.688   4.529 -0.1330  0.2209 -0.6520
 2804SOL    HW119874   4.472   1.604   4.559  2.3393 -0.1488  1.2675
 2804SOL    HW219875   4.452   1.755   4.569  0.6222  0.3418  0.1865
 2805SOL     OW19876   0.985   1.527   1.663 -0.5598 -0.1724  0.4388
 2805SOL    HW119877   1.039   1.605   1.652 -0.3737  0.1228  3.3834
 2805SOL    HW219878   0.898   1.566   1.651 -0.1285  1.5763  2.9677
 2806SOL     OW19879   0.522   3.923  16.240  0.5595 -0.4407  0.0450
 2806SOL    HW119880   0.610   3.915  16.203  0.9316  2.0410  0.3708
 2806SOL    HW219881   0.508   4.016  16.223 -0.3799 -0.6087 -0.1188
 2807SOL     OW19882   3.488   0.778  16.343 -0.5470 -0.5720 -0.7015
 2807SOL    HW119883   3.511   0.856  16.395  0.2675 -0.5704 -1.0515
 2807SOL    HW219884   3.484   0.814  16.254  1.0703 -0.6047 -0.7935
 2808SOL     OW19885   3.801   3.219   7.258 -0.0923 -0.3469 -0.1596
 2808SOL    HW119886   3.858   3.151   7.222 -0.0132 -0.7369  0.6984
 2808SOL    HW219887   3.763   3.165   7.328 -1.7142 -0.9697 -1.5027
 2809SOL     OW19888   2.449   1.547   6.413 -0.5427  0.0201 -0.2484
 2809SOL    HW119889   2.427   1.455   6.406 -0.9903 -0.0948  2.7706
 2809SOL    HW219890   2.516   1.545   6.481  0.6250 -0.5164 -1.4286
 2810SOL     OW19891   0.844   0.723   3.594  0.2030  0.0108  0.3278
 2810SOL    HW119892   0.900   0.713   3.517 -0.4927  0.0319 -0.1918
 2810SOL    HW219893   0.754   0.712   3.561 -1.2948  2.1785  3.7938
 2811SOL     OW19894   2.887   0.940   1.385 -0.8440 -0.2539 -0.3142
 2811SOL    HW119895   2.900   0.997   1.310 -0.6644  0.0961 -0.0141
 2811SOL    HW219896   2.926   0.866   1.338 -0.5626 -0.3883  0.1290
 2812SOL     OW19897   0.424   2.020   3.792 -0.0007  0.2337 -0.6225
 2812SOL    HW119898   0.426   2.083   3.720  0.3737  0.6076 -0.2832
 2812SOL    HW219899   0.460   2.074   3.862 -0.4184 -1.0183  0.5592
 2813SOL     OW19900   2.489   4.235   1.197  0.2795  0.3988 -0.2773
 2813SOL    HW119901   2.505   4.143   1.220  1.0798  0.9947  1.5665
 2813SOL    HW219902   2.551   4.276   1.257  0.1669  1.0946 -0.6409
 2814SOL     OW19903   2.281   1.319  17.256 -0.2169 -0.0338 -0.0135
 2814SOL    HW119904   2.223   1.381  17.298  0.3391  0.3339  0.2136
 2814SOL    HW219905   2.212   1.267  17.215  0.6130 -1.1782  0.0116
 2815SOL     OW19906   2.087   1.824   6.792  0.7866  0.4916  0.1775
 2815SOL    HW119907   2.001   1.866   6.793  1.3227  1.6063 -0.2727
 2815SOL    HW219908   2.090   1.792   6.702 -2.0313 -1.0301  0.6239
 2816SOL     OW19909   4.265   3.222   2.584 -0.3403  0.3127  0.5615
 2816SOL    HW119910   4.187   3.253   2.629 -0.1162 -0.8828  1.7750
 2816SOL    HW219911   4.303   3.303   2.551  1.5968  0.0837  2.3053
 2817SOL     OW19912   4.577   1.434   0.570 -0.2759 -0.3061  0.0906
 2817SOL    HW119913   4.597   1.505   0.510 -0.7282  0.9426  1.4111
 2817SOL    HW219914   4.618   1.365   0.518 -0.1660  0.0831 -0.3352
 2818SOL     OW19915   0.534   3.311   3.382 -0.5087 -0.6311 -0.0100
 2818SOL    HW119916   0.442   3.340   3.378 -0.4350 -0.7162 -2.2702
 2818SOL    HW219917   0.555   3.340   3.471 -0.1911 -0.8355 -0.0195
 2819SOL     OW19918   2.973   1.182  14.929  0.4226 -0.5252  0.3159
 2819SOL    HW119919   2.904   1.159  14.992  1.2599  2.4880  2.3271
 2819SOL    HW219920   2.955   1.276  14.921 -0.6995 -0.8154 -0.5463
 2820SOL     OW19921   4.532   0.939   6.948  0.0201 -0.1455 -0.3275
 2820SOL    HW119922   4.485   0.890   6.880  1.4247  0.8067 -1.9479
 2820SOL    HW219923   4.494   0.905   7.030  0.4663  1.9229  0.7210
 2821SOL     OW19924   2.077   2.957  16.140 -0.0751  0.1690 -0.3057
 2821SOL    HW119925   2.171   2.970  16.147 -0.0122 -0.7636  0.4842
 2821SOL    HW219926   2.049   2.948  16.231  2.5489  0.0304  0.4736
 2822SOL     OW19927   3.980   0.422   4.390  0.5410 -0.0680 -0.6176
 2822SOL    HW119928   3.923   0.355   4.427 -1.3019  1.0745 -1.3929
 2822SOL    HW219929   4.034   0.437   4.468 -2.0351 -0.9356  1.3353
 2823SOL     OW19930   1.115   4.172   7.670  0.2777 -0.1633 -0.5608
 2823SOL    HW119931   1.078   4.162   7.757  0.3680  3.0739 -0.1652
 2823SOL    HW219932   1.040   4.152   7.614 -1.6375  0.9358  1.6088
 2824SOL     OW19933   4.396   3.701   3.356  0.0741 -0.1492 -0.2628
 2824SOL    HW119934   4.330   3.710   3.287  0.2924 -0.6634 -0.5403
 2824SOL    HW219935   4.413   3.609   3.378 -1.3210 -0.4633 -0.5039
 2825SOL     OW19936   4.006   0.336   7.947 -0.0462 -0.2703 -0.6702
 2825SOL    HW119937   4.088   0.338   7.897 -1.0181 -1.0648 -2.3075
 2825SOL    HW219938   3.946   0.383   7.888  1.7203  1.2349 -1.2547
 2826SOL     OW19939   3.169   3.851   6.219 -0.5712 -0.0301 -0.7065
 2826SOL    HW119940   3.171   3.849   6.123 -2.2269 -0.4453 -0.7334
 2826SOL    HW219941   3.212   3.769   6.243  2.4235  2.3973  2.1899
 2827SOL     OW19942   3.544   1.802  16.345 -0.4829 -0.5477  0.2877
 2827SOL    HW119943   3.478   1.746  16.386  0.7075 -2.6611 -0.6258
 2827SOL    HW219944   3.487   1.841  16.279 -0.7746 -1.0798  0.2272
 2828SOL     OW19945   1.578   2.240   7.585  0.5698 -0.0991 -0.0897
 2828SOL    HW119946   1.524   2.162   7.594  0.4943  0.2224  2.3226
 2828SOL    HW219947   1.661   2.196   7.603  1.0791  0.7603 -0.3461
 2829SOL     OW19948   3.206   2.833   1.312 -0.4592  0.0445  0.4267
 2829SOL    HW119949   3.194   2.906   1.251  0.5692  0.0533  0.2309
 2829SOL    HW219950   3.132   2.848   1.371  0.6737 -1.4953  2.2301
 2830SOL     OW19951   3.406   1.044   1.310  0.2805 -0.4869  0.1736
 2830SOL    HW119952   3.441   1.020   1.224 -2.7097  0.4247 -1.3192
 2830SOL    HW219953   3.471   1.112   1.321 -0.0802 -0.5307  2.4062
 2831SOL     OW19954   2.046   1.528   4.900 -0.2334  0.0851  0.0888
 2831SOL    HW119955   2.124   1.571   4.936 -0.5580  1.9037 -1.3747
 2831SOL    HW219956   2.088   1.445   4.877  0.5830  0.8146 -1.0829
 2832SOL     OW19957   2.164   4.155   6.975 -0.0285  0.4539  0.1854
 2832SOL    HW119958   2.247   4.184   6.938 -0.0380 -1.7183 -1.5541
 2832SOL    HW219959   2.097   4.212   6.937  2.4696  3.0802 -0.2825
 2833SOL     OW19960   1.038   1.062  14.593 -0.4304  0.1943 -0.2472
 2833SOL    HW119961   1.076   1.148  14.578  1.4909 -0.6685 -0.3028
 2833SOL    HW219962   1.055   1.061  14.687  2.7743  0.3050 -0.8445
 2834SOL     OW19963   0.206   4.009   6.825  0.1742 -0.0129  0.0478
 2834SOL    HW119964   0.270   4.070   6.862 -1.8938  2.6051 -0.6522
 2834SOL    HW219965   0.260   3.989   6.749  0.7450 -1.5275  0.8717
 2835SOL     OW19966   3.860   3.426   7.075  0.3623  0.8044  0.0517
 2835SOL    HW119967   3.856   3.357   7.142  1.8743 -0.8008 -1.5307
 2835SOL    HW219968   3.778   3.469   7.099  1.5034  2.0778  1.6814
 2836SOL     OW19969   0.542   4.435   3.745 -0.1757 -0.6673 -0.0436
 2836SOL    HW119970   0.600   4.491   3.797  0.3033  0.6760 -2.0208
 2836SOL    HW219971   0.456   4.476   3.739  0.8154  1.3339 -0.3873
 2837SOL     OW19972   2.997   3.112   6.481 -0.1071 -0.0985  0.4264
 2837SOL    HW119973   3.084   3.076   6.495 -0.7067 -1.0268  1.7116
 2837SOL    HW219974   3.003   3.197   6.525 -1.8285 -0.4527  1.3415
 2838SOL     OW19975   2.374   1.297  15.467 -0.0424 -0.1145 -0.3672
 2838SOL    HW119976   2.346   1.384  15.493  0.2281 -0.6436  1.6652
 2838SOL    HW219977   2.347   1.242  15.541 -1.1320 -0.3652 -0.9485
 2839SOL     OW19978   1.827   0.589  11.358  0.0969 -0.6295  0.2694
 2839SOL    HW119979   1.808   0.503  11.396 -0.6279  0.1942  1.7656
 2839SOL    HW219980   1.739   0.619  11.336  0.1925  0.7715  1.7970
 2840SOL     OW19981   4.635   1.381  12.240  1.0269  0.4510  0.0318
 2840SOL    HW119982   4.632   1.474  12.261  1.7763  0.8497 -1.6392
 2840SOL    HW219983   4.660   1.398  12.149 -1.2903  0.5531 -0.5628
 2841SOL     OW19984   0.666   3.788   7.297  0.1175  0.6871 -0.3379
 2841SOL    HW119985   0.598   3.739   7.343  1.1935 -1.2927 -0.8517
 2841SOL    HW219986   0.736   3.786   7.362 -1.6454  0.1566  1.5366
 2842SOL     OW19987   0.160   3.333  11.815  0.1168  0.3057 -0.4080
 2842SOL    HW119988   0.171   3.355  11.907  2.0236  0.1829 -0.6100
 2842SOL    HW219989   0.252   3.330  11.791  0.0003  0.8268 -0.9055
 2843SOL     OW19990   4.124   1.541  11.412 -0.6051 -0.0109  0.8565
 2843SOL    HW119991   4.132   1.562  11.319 -1.2328 -2.3990  0.2777
 2843SOL    HW219992   4.102   1.624  11.455 -0.0115 -0.0928  1.3259
 2844SOL     OW19993   1.829   3.817  14.102  0.5245 -0.4263 -0.1142
 2844SOL    HW119994   1.880   3.757  14.156  0.6014  0.7980  1.1837
 2844SOL    HW219995   1.791   3.872  14.171 -1.0254 -0.9093 -0.6007
 2845SOL     OW19996   3.331   1.907   3.228 -0.1519 -0.4398 -0.1908
 2845SOL    HW119997   3.402   1.971   3.229 -2.0598  1.7371 -2.3970
 2845SOL    HW219998   3.376   1.825   3.247 -1.9955 -1.2689  0.4943
 2846SOL     OW19999   0.063   0.391   7.795  0.0127  0.6410 -0.2931
 2846SOL    HW120000   0.055   0.443   7.875 -0.4511  1.4521 -0.8704
 2846SOL    HW220001   4.700   0.387   7.760 -0.2044 -1.2593  0.4809
 2847SOL     OW20002   0.486   0.975   6.699 -0.4976 -0.2607  0.0630
 2847SOL    HW120003   0.523   0.920   6.629 -1.4337  0.8912 -1.3336
 2847SOL    HW220004   0.550   0.976   6.770  1.1900  2.8628 -1.5150
 2848SOL     OW20005   1.259   1.964   5.170  0.2201  0.0372 -0.5836
 2848SOL    HW120006   1.256   1.926   5.258 -2.3839  2.0475  0.2178
 2848SOL    HW220007   1.227   1.891   5.118  0.9688  0.4456 -1.6029
 2849SOL     OW20008   3.491   1.202  14.065 -0.0184 -0.1618  0.3098
 2849SOL    HW120009   3.583   1.195  14.038 -0.3819  0.3380 -1.0543
 2849SOL    HW220010   3.472   1.294  14.045 -2.3698 -0.8214 -0.4021
 2850SOL     OW20011   1.854   0.257   4.637 -0.0830  0.0184  0.2567
 2850SOL    HW120012   1.901   0.339   4.618 -1.6167  0.3257 -2.1611
 2850SOL    HW220013   1.762   0.278   4.628  0.6159  2.9730  0.0880
 2851SOL     OW20014   3.795   4.518   5.424 -0.0749  0.2548  0.2564
 2851SOL    HW120015   3.886   4.547   5.439 -0.5449  1.8044  0.1456
 2851SOL    HW220016   3.758   4.594   5.469  0.1221  1.5238 -1.7558
 2852SOL     OW20017   2.904   4.088   2.726 -0.1151 -0.4393 -0.2135
 2852SOL    HW120018   2.861   4.096   2.811 -0.4013  1.6002 -0.5351
 2852SOL    HW220019   2.836   4.049   2.672 -0.2224 -0.4722 -0.0541
 2853SOL     OW20020   2.022   4.180   9.286 -0.2494  0.1842 -0.3898
 2853SOL    HW120021   2.107   4.167   9.328 -0.3926 -2.5258 -0.9338
 2853SOL    HW220022   2.025   4.275   9.280  1.9487  0.1912  0.9251
 2854SOL     OW20023   4.383   0.208   5.684 -0.4951 -0.1318 -0.3440
 2854SOL    HW120024   4.338   0.242   5.607  1.1339 -0.0674 -1.2706
 2854SOL    HW220025   4.314   0.203   5.750 -1.6016 -0.1961 -1.5185
 2855SOL     OW20026   2.846   2.292   2.545 -0.4837  0.6538 -0.6487
 2855SOL    HW120027   2.777   2.310   2.609  0.4697 -2.0666  1.1486
 2855SOL    HW220028   2.922   2.322   2.595 -0.2627 -0.7080 -0.1628
 2856SOL     OW20029   1.401   1.464   5.772  0.0258  0.3032 -0.1953
 2856SOL    HW120030   1.374   1.448   5.863  0.6461  0.3471 -0.0032
 2856SOL    HW220031   1.458   1.392   5.745  0.1862  0.4816 -0.3223
 2857SOL     OW20032   2.791   4.429  11.132 -0.0359 -0.5719 -0.5385
 2857SOL    HW120033   2.851   4.355  11.127 -1.5573 -1.9375  1.5698
 2857SOL    HW220034   2.854   4.500  11.121  1.7662 -2.2805 -1.2618
 2858SOL     OW20035   0.051   1.773   6.401 -0.4484 -0.5838 -0.3204
 2858SOL    HW120036   0.136   1.765   6.445  0.0151 -3.1036 -1.6509
 2858SOL    HW220037   4.722   1.730   6.467  1.4670  0.6787  2.0757
 2859SOL     OW20038   3.089   1.513   8.591 -0.1736  0.2532  0.6755
 2859SOL    HW120039   3.182   1.528   8.606  0.0311 -0.4931  0.1943
 2859SOL    HW220040   3.086   1.480   8.501 -0.3470  1.0055  0.4082
 2860SOL     OW20041   0.770   2.355   3.509  0.0993 -1.0190  0.1309
 2860SOL    HW120042   0.739   2.330   3.422  1.5014 -0.7542 -0.4543
 2860SOL    HW220043   0.864   2.369   3.495 -0.2879  0.2196 -1.2124
 2861SOL     OW20044   3.771   2.610   0.246 -0.2448 -0.2190  0.1784
 2861SOL    HW120045   3.837   2.673   0.219  0.8062 -2.1492 -1.7300
 2861SOL    HW220046   3.690   2.662   0.238  0.2962  0.3282 -1.7921
 2862SOL     OW20047   0.893   0.617   0.353 -0.6147 -0.5256  0.0939
 2862SOL    HW120048   0.874   0.633   0.260 -1.2752  0.5462  0.4210
 2862SOL    HW220049   0.810   0.633   0.397 -0.3264 -0.0938  0.4805
 2863SOL     OW20050   2.666   2.035   9.494  0.0029 -0.1737 -0.6611
 2863SOL    HW120051   2.711   2.024   9.411 -0.3403 -1.3830 -0.6954
 2863SOL    HW220052   2.737   2.076   9.543  0.3112  0.7150 -1.8691
 2864SOL     OW20053   0.039   0.900  17.182 -0.4912 -0.2495 -0.1253
 2864SOL    HW120054   0.131   0.926  17.175 -0.5963  0.3776  0.7933
 2864SOL    HW220055   0.007   0.975  17.133  0.5719  1.4992  1.8221
 2865SOL     OW20056   2.501   2.288   8.729 -0.0130  0.9834 -0.3697
 2865SOL    HW120057   2.591   2.289   8.695  0.3062  0.6192  0.4739
 2865SOL    HW220058   2.509   2.373   8.771 -1.5667  0.0367  1.8566
 2866SOL     OW20059   0.423   0.832   1.403 -0.1482  0.7751  0.3626
 2866SOL    HW120060   0.368   0.908   1.422  0.9383  2.0075 -1.4529
 2866SOL    HW220061   0.465   0.819   1.489  3.4139 -0.6284 -1.6062
 2867SOL     OW20062   3.067   1.869   2.085  0.1831 -0.1768  0.2006
 2867SOL    HW120063   3.090   1.811   2.013 -0.4760 -0.2251  0.0297
 2867SOL    HW220064   3.048   1.804   2.152 -0.3472  0.8375  1.0446
 2868SOL     OW20065   0.641   4.259  15.773  0.1395 -0.0124  0.1590
 2868SOL    HW120066   0.600   4.340  15.802  0.2501 -0.2983  1.1171
 2868SOL    HW220067   0.725   4.260  15.819  0.8488 -0.9773 -1.0893
 2869SOL     OW20068   1.699   3.416   2.806 -0.0804 -0.0109  0.1722
 2869SOL    HW120069   1.720   3.446   2.717  0.1021 -1.9857 -0.4515
 2869SOL    HW220070   1.786   3.410   2.847  0.4204  1.5441 -0.6447
 2870SOL     OW20071   4.100   2.004   6.041 -0.0932  0.2048 -0.1941
 2870SOL    HW120072   4.195   2.000   6.051 -0.2928 -1.2173  1.0963
 2870SOL    HW220073   4.090   1.933   5.977  1.5544 -1.2958  1.2307
 2871SOL     OW20074   0.182   0.587   9.217  0.5178  0.6403 -0.0396
 2871SOL    HW120075   0.228   0.671   9.220  0.6222  0.6013 -0.5753
 2871SOL    HW220076   0.173   0.584   9.122 -1.7571  0.5357  0.1793
 2872SOL     OW20077   4.343   0.926  11.447 -1.1561 -0.5472  0.6013
 2872SOL    HW120078   4.336   0.834  11.424 -1.4991 -0.0716 -1.2230
 2872SOL    HW220079   4.280   0.932  11.519 -1.7366  2.2283 -0.1188
 2873SOL     OW20080   0.701   2.713   2.895  0.0494  0.4921 -0.6156
 2873SOL    HW120081   0.725   2.742   2.807  2.1214 -2.9359 -1.1754
 2873SOL    HW220082   0.786   2.717   2.940  0.1416  2.1354 -0.9362
 2874SOL     OW20083   2.136   4.557   4.929  0.5050  0.5940  0.0372
 2874SOL    HW120084   2.045   4.552   4.898  0.2076  1.1199  0.8555
 2874SOL    HW220085   2.165   4.468   4.906 -0.5049  0.3718 -0.3799
 2875SOL     OW20086   3.866   0.268   7.159 -0.4207  0.1639 -0.7611
 2875SOL    HW120087   3.930   0.218   7.109 -1.6743 -0.8747 -1.3172
 2875SOL    HW220088   3.856   0.337   7.093 -2.2356 -2.3891 -3.1772
 2876SOL     OW20089   2.253   0.100   8.051 -0.5380  0.1564 -0.2126
 2876SOL    HW120090   2.276   0.126   8.140 -1.7912  0.1948  0.1031
 2876SOL    HW220091   2.274   0.007   8.062 -1.4929 -0.1595 -1.0922
 2877SOL     OW20092   0.572   2.986   2.515 -0.1368 -0.0993 -0.4052
 2877SOL    HW120093   0.555   2.895   2.491  0.4844  0.6853 -3.7902
 2877SOL    HW220094   0.531   2.993   2.601  1.1285 -0.1831  0.2082
 2878SOL     OW20095   1.301   1.327   7.076 -0.6022 -0.5082 -0.9320
 2878SOL    HW120096   1.355   1.396   7.037  0.0710 -0.5521 -0.0790
 2878SOL    HW220097   1.337   1.244   7.043  2.5541  0.6000 -0.2492
 2879SOL     OW20098   0.090   1.284   2.480 -0.1291  0.3235 -0.2855
 2879SOL    HW120099   0.053   1.198   2.499  1.6337 -0.0013  1.7148
 2879SOL    HW220100   0.051   1.281   2.393 -0.2784  0.7764 -0.2357
 2880SOL     OW20101   2.156   2.895   4.133  0.1975 -0.1824  0.4768
 2880SOL    HW120102   2.148   2.990   4.132 -0.6855 -0.2796 -1.4741
 2880SOL    HW220103   2.247   2.873   4.153  0.6020  0.8937 -0.2052
 2881SOL     OW20104   1.962   3.821   0.473 -0.6387 -0.4821 -0.3039
 2881SOL    HW120105   1.869   3.835   0.491 -0.6447 -2.1445  1.0333
 2881SOL    HW220106   1.963   3.755   0.404 -1.2862  1.8598 -2.5515
 2882SOL     OW20107   0.777   4.459  14.809 -0.0067  0.1207  0.2382
 2882SOL    HW120108   0.792   4.367  14.833  0.7293  0.2615  0.3293
 2882SOL    HW220109   0.684   4.463  14.828  0.1357 -2.9673  1.5623
 2883SOL     OW20110   1.882   4.009  14.735  0.3443  0.5411 -0.1328
 2883SOL    HW120111   1.920   4.048  14.814 -0.3055 -0.7194  0.8260
 2883SOL    HW220112   1.931   4.046  14.662  1.0031  0.2933  0.1769
 2884SOL     OW20113   0.649   0.745   2.878  0.4056  0.2762  0.0087
 2884SOL    HW120114   0.680   0.771   2.965 -0.6974  0.9884  0.1813
 2884SOL    HW220115   0.674   0.815   2.818 -0.7582  1.9994  1.5500
 2885SOL     OW20116   2.233   2.930   7.365 -0.3013 -0.1958  0.0933
 2885SOL    HW120117   2.187   2.891   7.291  0.2284 -1.7075  0.5439
 2885SOL    HW220118   2.316   2.956   7.325  0.3755 -1.3168  0.7523
 2886SOL     OW20119   2.988   0.653  12.518  0.1010 -0.1055  0.4934
 2886SOL    HW120120   3.075   0.629  12.552 -0.2440 -0.0833  1.3932
 2886SOL    HW220121   2.951   0.718  12.578 -2.6186 -0.5787 -0.6776
 2887SOL     OW20122   3.795   1.131  13.293  0.6817 -0.0954  0.0437
 2887SOL    HW120123   3.761   1.161  13.378  0.2810 -0.7264  0.1045
 2887SOL    HW220124   3.833   1.216  13.270  1.6668 -0.7159 -0.5565
 2888SOL     OW20125   2.806   2.152   7.412  0.3613  0.5837  0.3457
 2888SOL    HW120126   2.858   2.085   7.368 -0.3216  1.0233 -1.1570
 2888SOL    HW220127   2.742   2.173   7.343  0.1407 -1.1096  0.0500
 2889SOL     OW20128   1.157   0.157   7.153 -0.1788 -0.2440  0.3658
 2889SOL    HW120129   1.150   0.072   7.110 -0.0307 -0.4811  0.8027
 2889SOL    HW220130   1.199   0.197   7.077  0.4662 -0.2991  0.6881
 2890SOL     OW20131   0.045   2.370  10.149 -0.3134  0.0650 -0.6104
 2890SOL    HW120132   0.013   2.455  10.117  0.1457  0.8981  1.1472
 2890SOL    HW220133   4.714   2.371  10.227  1.4109  0.8491  0.6326
 2891SOL     OW20134   4.135   2.257   8.905  0.5509  0.3302 -0.5312
 2891SOL    HW120135   4.228   2.248   8.886  0.5643 -4.4158  1.7541
 2891SOL    HW220136   4.133   2.276   8.998  2.7720 -2.5456  0.1205
 2892SOL     OW20137   0.313   1.443   7.701 -0.3336  0.8442 -0.0823
 2892SOL    HW120138   0.401   1.444   7.738  0.3847  1.6658 -1.8298
 2892SOL    HW220139   0.313   1.367   7.643  1.6427 -1.9739  3.5502
 2893SOL     OW20140   2.811   0.808  16.234 -0.0306  0.0990  0.1903
 2893SOL    HW120141   2.847   0.851  16.156 -1.3840  1.2219  0.1866
 2893SOL    HW220142   2.885   0.803  16.294  2.0458 -1.3837 -2.4846
 2894SOL     OW20143   2.298   3.639  13.502  0.7393  0.7619 -0.4420
 2894SOL    HW120144   2.243   3.618  13.426  1.1112 -0.1921 -0.4420
 2894SOL    HW220145   2.375   3.682  13.466  1.3803  0.0353  0.0500
 2895SOL     OW20146   3.375   4.725   2.066  0.1386 -0.8073 -0.0224
 2895SOL    HW120147   3.471   0.001   2.072  0.2067  0.2379 -1.4020
 2895SOL    HW220148   3.354   0.028   1.977  1.6816  0.6820  0.0820
 2896SOL     OW20149   3.364   4.482   3.285 -0.2601 -0.5026 -0.2598
 2896SOL    HW120150   3.424   4.419   3.246  3.2322  2.6588  0.0747
 2896SOL    HW220151   3.282   4.433   3.278 -1.0087  0.7390 -0.1840
 2897SOL     OW20152   2.224   2.620  13.067 -0.2798  0.1925 -0.7931
 2897SOL    HW120153   2.170   2.653  13.139  0.7356  0.5312 -0.1876
 2897SOL    HW220154   2.296   2.683  13.069 -0.8393  0.8225 -0.5028
 2898SOL     OW20155   1.628   0.692  15.820  0.3460  0.4500  0.7420
 2898SOL    HW120156   1.684   0.624  15.783 -3.3602 -0.7107 -2.8278
 2898SOL    HW220157   1.597   0.661  15.905 -0.7934 -0.7812 -0.1200
 2899SOL     OW20158   2.648   4.000   8.622 -0.3001  0.4308 -0.5971
 2899SOL    HW120159   2.713   3.929   8.624 -1.8769 -1.1062 -3.0461
 2899SOL    HW220160   2.567   3.948   8.621 -0.3581  0.5322 -0.9331
 2900SOL     OW20161   3.537   4.556   0.401 -0.1371 -0.0777 -0.5000
 2900SOL    HW120162   3.571   4.608   0.474  1.1281 -0.6868 -0.6612
 2900SOL    HW220163   3.567   4.605   0.324  0.7280  2.3846  1.4103
 2901SOL     OW20164   0.005   2.791   5.953  0.7653 -0.0122  0.2634
 2901SOL    HW120165   0.010   2.695   5.956 -1.4540 -0.2342 -2.3221
 2901SOL    HW220166   4.685   2.801   5.869  0.3454 -0.8938  0.3802
 2902SOL     OW20167   4.520   4.473   5.186  0.0488 -0.0374  0.4848
 2902SOL    HW120168   4.502   4.564   5.208 -0.4843  0.4333 -1.9026
 2902SOL    HW220169   4.571   4.437   5.259 -0.8043 -2.3223 -0.0312
 2903SOL     OW20170   2.898   4.088   6.540 -0.3081  0.1427  0.8230
 2903SOL    HW120171   2.931   4.147   6.608 -0.8824  0.7625  0.5670
 2903SOL    HW220172   2.809   4.086   6.573 -0.2997  0.0320  0.8360
 2904SOL     OW20173   1.542   2.973   4.968  0.0935 -0.3073 -0.1449
 2904SOL    HW120174   1.469   2.919   4.996 -0.2699  0.0576 -0.3881
 2904SOL    HW220175   1.595   2.913   4.915  0.8015  1.1217 -1.0589
 2905SOL     OW20176   2.378   3.333  16.648  0.1264 -0.1995 -0.5472
 2905SOL    HW120177   2.463   3.367  16.677 -0.1498 -0.4974  0.6146
 2905SOL    HW220178   2.402   3.316  16.557  0.2264 -1.4688 -0.2879
 2906SOL     OW20179   1.082   1.214   3.867  0.5062 -0.4471  0.5900
 2906SOL    HW120180   1.028   1.195   3.943  1.2863 -5.5150 -0.1016
 2906SOL    HW220181   1.163   1.215   3.917  2.4606  1.8518 -2.6432
 2907SOL     OW20182   2.171   1.018   6.334  0.5098  0.0036  0.9045
 2907SOL    HW120183   2.247   0.966   6.360 -0.4842 -1.3056  1.2505
 2907SOL    HW220184   2.097   0.972   6.374 -1.6951  2.4929 -0.3654
 2908SOL     OW20185   4.569   0.961   5.324  0.3448 -0.1316  0.5702
 2908SOL    HW120186   4.647   0.906   5.317  0.7221  0.4700 -0.0068
 2908SOL    HW220187   4.531   0.929   5.406  0.3178 -2.7947 -0.4763
 2909SOL     OW20188   1.370   4.170   7.605 -0.1892  0.4382  0.2457
 2909SOL    HW120189   1.276   4.152   7.599  0.3852 -2.7361  0.7460
 2909SOL    HW220190   1.401   4.080   7.595  0.2432  0.6109 -0.0152
 2910SOL     OW20191   0.079   2.872  17.461  0.1768 -0.2559 -0.1587
 2910SOL    HW120192   0.118   2.935  17.401 -1.8537 -0.5411 -1.7856
 2910SOL    HW220193   0.006   2.842  17.407 -0.5470  0.5015  0.3949
 2911SOL     OW20194   0.080   0.973   9.052 -0.4793 -0.0917 -0.1780
 2911SOL    HW120195   0.036   1.038   9.106 -1.2063 -0.5732 -0.1853
 2911SOL    HW220196   0.015   0.904   9.034  0.3251 -0.8054 -0.3741
 2912SOL     OW20197   1.176   0.147   6.558  0.6377  1.0340 -0.0454
 2912SOL    HW120198   1.176   0.233   6.600 -1.8931  0.2628  1.5143
 2912SOL    HW220199   1.192   0.166   6.465  0.1859 -1.6170 -0.6767
 2913SOL     OW20200   1.742   1.823   4.652  0.7025 -0.4890 -0.0243
 2913SOL    HW120201   1.686   1.848   4.578  1.7096  0.9719 -0.2778
 2913SOL    HW220202   1.814   1.886   4.647  1.2717 -1.1133  0.3137
 2914SOL     OW20203   0.794   3.216   8.212  0.5888 -0.0571 -0.3702
 2914SOL    HW120204   0.861   3.176   8.267 -0.9946 -4.3421 -1.5742
 2914SOL    HW220205   0.709   3.186   8.243  1.1585 -0.3983  0.8467
 2915SOL     OW20206   1.319   2.630   7.856  0.1233  0.6826  0.0492
 2915SOL    HW120207   1.270   2.566   7.804 -0.5343  0.0432  1.4450
 2915SOL    HW220208   1.337   2.679   7.776  2.0762 -0.5149 -0.2482
 2916SOL     OW20209   3.961   1.792   8.549  0.1108  0.0600 -0.1424
 2916SOL    HW120210   4.011   1.873   8.541 -0.6516  0.4819 -0.6185
 2916SOL    HW220211   3.874   1.829   8.538  0.6328  0.5048 -2.9580
 2917SOL     OW20212   0.092   1.088   4.612  0.0097  0.2053  0.2195
 2917SOL    HW120213   0.141   1.131   4.542  0.9373 -2.5252 -0.8294
 2917SOL    HW220214   0.084   1.160   4.674  1.4548  1.4947 -1.0864
 2918SOL     OW20215   4.634   2.470  10.630  0.2040  0.1535  0.4027
 2918SOL    HW120216   4.586   2.515  10.699  0.9617  0.7974  0.5009
 2918SOL    HW220217   4.667   2.546  10.582 -1.1058 -0.0661 -0.8538
 2919SOL     OW20218   4.186   0.661   5.188  0.2679 -0.0849  0.0955
 2919SOL    HW120219   4.237   0.660   5.269 -0.8465 -3.1996  0.7857
 2919SOL    HW220220   4.215   0.745   5.153 -0.9701  0.4353  0.3296
 2920SOL     OW20221   1.168   2.251   1.860 -0.6426  0.0625  0.4384
 2920SOL    HW120222   1.160   2.307   1.783  0.9966 -0.6007 -0.2153
 2920SOL    HW220223   1.191   2.325   1.917  0.7862  0.5048 -0.7294
 2921SOL     OW20224   0.167   0.754   7.377 -0.4184  0.1391 -0.4532
 2921SOL    HW120225   0.098   0.814   7.350 -0.6838 -0.0613 -0.2281
 2921SOL    HW220226   0.121   0.674   7.403  0.0630 -0.0106 -0.0580
 2922SOL     OW20227   2.334   4.118   8.635 -0.3568 -0.6462 -0.0777
 2922SOL    HW120228   2.345   4.124   8.540 -0.9092  0.4545 -0.0691
 2922SOL    HW220229   2.363   4.027   8.643 -0.9698 -0.8225  0.1496
 2923SOL     OW20230   0.809   1.317   8.905 -0.5194  0.0156  0.2562
 2923SOL    HW120231   0.828   1.403   8.868 -2.1330  0.3546  0.2312
 2923SOL    HW220232   0.740   1.294   8.843 -1.5750  2.7900  0.3913
 2924SOL     OW20233   4.416   2.098   7.993  0.2650  0.3720  0.0661
 2924SOL    HW120234   4.437   2.131   7.906  3.6960 -1.4761  0.2087
 2924SOL    HW220235   4.485   2.032   7.999 -1.0121 -0.9011  0.6284
 2925SOL     OW20236   1.255   1.907  16.158 -1.1572  0.4634  0.5333
 2925SOL    HW120237   1.322   1.973  16.177 -1.7364  0.5549  2.3069
 2925SOL    HW220238   1.206   1.959  16.094 -1.5124 -0.3283  0.1720
 2926SOL     OW20239   0.508   2.779   8.293  0.5600 -0.9034  0.1620
 2926SOL    HW120240   0.413   2.775   8.279  0.4056  0.3501  0.8008
 2926SOL    HW220241   0.513   2.841   8.366  2.8153 -0.2369 -0.5761
 2927SOL     OW20242   0.605   2.268   5.217 -0.1019  0.2860 -0.7909
 2927SOL    HW120243   0.525   2.250   5.267 -0.4968  1.1950 -1.0983
 2927SOL    HW220244   0.671   2.213   5.260  1.0002 -0.9949 -4.1630
 2928SOL     OW20245   4.397   2.567  16.973 -0.0874 -0.4199  0.0657
 2928SOL    HW120246   4.442   2.532  17.049  0.5010 -0.4838 -0.3169
 2928SOL    HW220247   4.453   2.637  16.940  1.9358 -1.1221  2.1203
 2929SOL     OW20248   4.248   2.346  16.106 -0.0577 -0.0029 -0.6677
 2929SOL    HW120249   4.178   2.373  16.165  0.0257 -1.5840  0.1547
 2929SOL    HW220250   4.239   2.417  16.042 -0.9252  0.8295  0.3696
 2930SOL     OW20251   4.032   0.685   4.356  0.1560 -0.4285  0.1129
 2930SOL    HW120252   3.961   0.725   4.406 -1.0171 -1.4026 -0.7599
 2930SOL    HW220253   4.014   0.591   4.360 -1.9735 -0.0074  0.2750
 2931SOL     OW20254   3.256   2.077  10.956 -0.2391  0.4603  0.3996
 2931SOL    HW120255   3.285   2.134  11.027  0.4179 -3.6480  3.4070
 2931SOL    HW220256   3.242   2.138  10.883  2.2286 -0.6649 -1.0461
 2932SOL     OW20257   3.795   1.243  13.548 -0.1405  0.7267  0.3182
 2932SOL    HW120258   3.826   1.323  13.591 -0.2802  2.0996 -2.1655
 2932SOL    HW220259   3.857   1.180  13.584 -0.5044  0.2285  0.0695
 2933SOL     OW20260   1.185   0.279   0.940  0.8359  0.1252  0.6892
 2933SOL    HW120261   1.111   0.230   0.906  1.0946  0.4951 -0.3886
 2933SOL    HW220262   1.176   0.359   0.888 -1.1513 -1.7093 -1.7719
 2934SOL     OW20263   3.646   2.489   6.155  0.8819 -0.0643  0.1518
 2934SOL    HW120264   3.644   2.573   6.202 -0.6351  0.7276 -1.3254
 2934SOL    HW220265   3.639   2.425   6.226 -0.5099 -0.3887 -0.2786
 2935SOL     OW20266   1.170   4.003   1.178 -0.0867 -0.3475 -0.2790
 2935SOL    HW120267   1.114   3.930   1.155  0.7413 -1.0424 -0.0948
 2935SOL    HW220268   1.255   3.960   1.167 -0.0902 -0.0471 -1.4706
 2936SOL     OW20269   0.213   2.117   8.464  0.5742 -0.8662 -0.4468
 2936SOL    HW120270   0.137   2.133   8.519 -0.2759 -0.3325 -1.8009
 2936SOL    HW220271   0.229   2.024   8.481  0.5158 -1.3807 -3.2587
 2937SOL     OW20272   1.844   1.361  12.240 -0.0409  0.0468 -0.1084
 2937SOL    HW120273   1.797   1.397  12.164  2.3002 -0.1733 -1.6730
 2937SOL    HW220274   1.776   1.366  12.307  0.6041  0.2538  0.5181
 2938SOL     OW20275   4.482   1.486   9.402 -0.0984 -0.6141 -0.1745
 2938SOL    HW120276   4.496   1.432   9.480  0.2307 -0.1231  0.1073
 2938SOL    HW220277   4.558   1.544   9.398 -0.6453  0.0264 -1.2209
 2939SOL     OW20278   2.524   3.498   6.553  0.0267  0.0386 -0.0592
 2939SOL    HW120279   2.552   3.411   6.525  0.4212  1.2432 -3.4034
 2939SOL    HW220280   2.445   3.511   6.500 -0.6712  0.5615  1.1016
 2940SOL     OW20281   3.364   3.721   6.876  0.0305  0.4691  0.1912
 2940SOL    HW120282   3.413   3.648   6.839 -1.1833  0.0666 -0.6311
 2940SOL    HW220283   3.428   3.746   6.942  1.1354  1.0275 -1.0787
 2941SOL     OW20284   2.330   3.406   9.069  0.8900  0.5928  0.2639
 2941SOL    HW120285   2.271   3.345   9.024  1.5134 -1.8036  2.7136
 2941SOL    HW220286   2.296   3.486   9.029  0.8809  0.7250  0.5374
 2942SOL     OW20287   0.524   1.527   2.237  0.4490 -0.2499 -0.2824
 2942SOL    HW120288   0.482   1.514   2.322  0.3380  1.9399 -0.0042
 2942SOL    HW220289   0.494   1.615   2.215  0.5089  0.4893  2.5737
 2943SOL     OW20290   1.118   0.348  17.290  0.2558  0.6737 -0.3706
 2943SOL    HW120291   1.025   0.338  17.271  0.3697 -2.2557  0.5735
 2943SOL    HW220292   1.156   0.267  17.255 -1.2622  0.0612 -0.5848
 2944SOL     OW20293   0.994   0.541   4.349 -0.3589 -0.0110 -0.3553
 2944SOL    HW120294   1.023   0.550   4.258 -1.1271 -1.4379 -0.7305
 2944SOL    HW220295   1.080   0.535   4.390 -1.7740 -2.0496  2.3215
 2945SOL     OW20296   3.155   4.613   2.463 -0.1461  0.0984  0.2166
 2945SOL    HW120297   3.100   4.552   2.413 -0.6898  1.6858 -1.1188
 2945SOL    HW220298   3.233   4.560   2.482  0.1317 -0.2147 -1.8654
 2946SOL     OW20299   3.136   2.559   1.217 -0.1197 -0.2599 -0.1034
 2946SOL    HW120300   3.057   2.612   1.229 -1.5950 -2.5333  0.1938
 2946SOL    HW220301   3.195   2.632   1.237  0.3545 -0.8600  0.6791
 2947SOL     OW20302   2.281   3.865   0.509 -0.0074 -0.1735 -0.5072
 2947SOL    HW120303   2.240   3.780   0.493 -1.5176  0.8508 -2.0629
 2947SOL    HW220304   2.285   3.895   0.418 -0.5616 -1.0025 -0.8084
 2948SOL     OW20305   4.468   3.011   7.483 -0.4995 -0.4886 -0.2734
 2948SOL    HW120306   4.461   3.106   7.473 -2.2340 -0.8561 -2.4259
 2948SOL    HW220307   4.563   2.998   7.475 -0.2016  1.5850 -0.2674
 2949SOL     OW20308   4.691   1.649   5.187 -0.0097  0.1167 -0.4927
 2949SOL    HW120309   4.627   1.578   5.196 -1.3397  1.5527  1.3603
 2949SOL    HW220310   0.013   1.630   5.106  0.1673  2.2461 -0.8928
 2950SOL     OW20311   2.078   1.301   7.810  0.2045  0.1905  0.6992
 2950SOL    HW120312   2.104   1.210   7.823 -1.0059  0.1091  2.6010
 2950SOL    HW220313   1.983   1.299   7.823 -0.1493  1.5312 -1.7503
 2951SOL     OW20314   0.994   2.313   6.488  0.1474  0.2221  0.3155
 2951SOL    HW120315   1.049   2.387   6.513  0.0447  0.5414 -0.4130
 2951SOL    HW220316   0.918   2.344   6.537  0.7836 -1.3347  2.3048
 2952SOL     OW20317   1.037   0.721  14.787  0.3893  0.3186  0.5010
 2952SOL    HW120318   0.947   0.711  14.818 -1.1924  1.2514 -3.8489
 2952SOL    HW220319   1.030   0.711  14.692 -0.6819 -0.4616  0.6624
 2953SOL     OW20320   1.220   1.871  14.085 -0.0001 -0.0568  0.1351
 2953SOL    HW120321   1.306   1.828  14.087 -0.2994 -0.5387  2.2070
 2953SOL    HW220322   1.228   1.946  14.144 -1.7789 -0.1658  0.5199
 2954SOL     OW20323   1.260   2.709   2.942  0.2899 -0.0080 -0.0340
 2954SOL    HW120324   1.249   2.618   2.916  1.5508 -0.5914  1.4911
 2954SOL    HW220325   1.322   2.696   3.013  0.1894  1.1959  0.2802
 2955SOL     OW20326   1.378   2.915   0.036 -0.2714 -0.2297 -0.2260
 2955SOL    HW120327   1.386   2.986  17.675 -1.3134  2.3158  2.4824
 2955SOL    HW220328   1.287   2.922   0.066 -0.5810  3.8146 -2.1527
 2956SOL     OW20329   3.924   0.388   4.124 -0.2773  0.3488 -0.3029
 2956SOL    HW120330   3.998   0.331   4.104 -1.5666 -0.3211 -3.1435
 2956SOL    HW220331   3.934   0.412   4.216 -0.8447  0.1259 -0.1813
 2957SOL     OW20332   2.097   2.855  11.500  0.0567 -0.2491 -0.0159
 2957SOL    HW120333   2.024   2.863  11.561 -1.0076  1.6827 -1.5301
 2957SOL    HW220334   2.106   2.947  11.475  0.1506 -0.1872  0.2440
 2958SOL     OW20335   1.478   0.894   5.595  0.0702 -0.1001 -0.2340
 2958SOL    HW120336   1.423   0.968   5.567 -2.1008 -1.5770  0.1258
 2958SOL    HW220337   1.416   0.821   5.584  0.2755 -0.1145 -1.2893
 2959SOL     OW20338   3.111   1.348   7.744  0.3538 -0.0389 -0.5914
 2959SOL    HW120339   3.031   1.371   7.791  2.1768  2.2490  1.3529
 2959SOL    HW220340   3.100   1.255   7.763  0.3256 -0.5227 -2.9436
 2960SOL     OW20341   0.373   0.421   6.287  0.4734  0.8850 -0.5464
 2960SOL    HW120342   0.297   0.445   6.235  0.8599 -0.9273 -1.9310
 2960SOL    HW220343   0.335   0.353   6.343  0.5536  0.0839 -1.4731
 2961SOL     OW20344   0.171   4.171   6.044  0.4232  0.5410 -0.1985
 2961SOL    HW120345   0.083   4.207   6.040  1.1581  2.5640  1.5841
 2961SOL    HW220346   0.207   4.204   5.962  2.4747 -1.2285 -0.0214
 2962SOL     OW20347   0.533   3.226  15.112 -0.1789  0.0191  0.1871
 2962SOL    HW120348   0.583   3.166  15.056  1.7889  0.5177  1.4507
 2962SOL    HW220349   0.562   3.208  15.201 -1.7586  1.9968  1.0925
 2963SOL     OW20350   0.924   2.929   8.951  0.4883  0.5643 -0.3322
 2963SOL    HW120351   0.893   3.019   8.955 -2.5228 -0.5352  1.4370
 2963SOL    HW220352   0.911   2.912   9.045  2.6644  1.3462  0.1068
 2964SOL     OW20353   2.963   2.991   5.440 -0.1109  0.0459  0.2367
 2964SOL    HW120354   3.043   3.005   5.390 -1.0711  1.3199 -0.9450
 2964SOL    HW220355   2.905   2.963   5.368  0.1733  1.0287 -0.3714
 2965SOL     OW20356   3.315   2.838   3.638  0.1536 -0.2723  0.0375
 2965SOL    HW120357   3.350   2.854   3.726 -2.6891 -0.4845  1.2133
 2965SOL    HW220358   3.371   2.764   3.616 -2.4727 -1.9758 -0.9579
 2966SOL     OW20359   2.337   0.444   8.942  0.1028  0.3333 -0.3511
 2966SOL    HW120360   2.332   0.355   8.905  1.4158  0.0973  0.0411
 2966SOL    HW220361   2.322   0.437   9.037 -0.3608  1.6498 -0.3352
 2967SOL     OW20362   0.620   3.464   4.717  0.3752 -0.5316 -0.1756
 2967SOL    HW120363   0.609   3.559   4.715 -0.6695 -0.5951  2.7551
 2967SOL    HW220364   0.575   3.455   4.801  3.1759 -1.4235  1.2312
 2968SOL     OW20365   1.785   4.503   8.463 -0.1901 -0.0375  0.8452
 2968SOL    HW120366   1.707   4.453   8.488 -0.0463 -0.7680 -0.1934
 2968SOL    HW220367   1.796   4.553   8.544 -1.9504  0.5556  0.7144
 2969SOL     OW20368   0.419   3.302  13.015  0.1122  0.4114  0.3578
 2969SOL    HW120369   0.353   3.267  13.074 -1.0739 -0.8543 -1.6890
 2969SOL    HW220370   0.494   3.272  13.066  1.3175  2.3459 -0.2658
 2970SOL     OW20371   4.624   2.080  12.209  0.0419  0.1547 -0.2848
 2970SOL    HW120372   4.537   2.069  12.249  0.5622 -0.1397  0.7630
 2970SOL    HW220373   4.599   2.108  12.121  0.3307  2.5328  0.4172
 2971SOL     OW20374   1.217   3.027   4.009  0.4236  0.3845 -0.0541
 2971SOL    HW120375   1.161   3.001   3.936  2.5855 -3.3058 -0.3797
 2971SOL    HW220376   1.249   2.939   4.028 -0.3025 -0.6522 -3.6845
 2972SOL     OW20377   2.160   0.859   4.155  0.1590  0.0863  0.3372
 2972SOL    HW120378   2.165   0.786   4.093 -0.8130 -1.1291  1.6981
 2972SOL    HW220379   2.149   0.929   4.091 -0.7277 -0.9967 -0.7084
 2973SOL     OW20380   1.664   1.074   7.144  0.2991  0.5660  0.6441
 2973SOL    HW120381   1.671   1.091   7.238  0.0319 -0.9897  0.9424
 2973SOL    HW220382   1.679   1.160   7.103  1.8983 -0.1570 -0.3188
 2974SOL     OW20383   1.192   0.612  13.888  0.1692 -0.0887  0.2117
 2974SOL    HW120384   1.132   0.581  13.956 -0.6960  0.7602 -0.1632
 2974SOL    HW220385   1.248   0.664  13.946 -0.5600  0.9671 -0.0394
 2975SOL     OW20386   3.862   2.151   8.373 -0.4326 -0.0910 -0.2922
 2975SOL    HW120387   3.798   2.187   8.311 -0.4521  0.9766  0.3505
 2975SOL    HW220388   3.828   2.167   8.461  0.3762  1.0083 -0.1799
 2976SOL     OW20389   4.451   1.886   4.112 -0.1305 -0.3923  0.0482
 2976SOL    HW120390   4.541   1.856   4.106 -0.4920 -1.5930  0.6551
 2976SOL    HW220391   4.453   1.921   4.200 -1.0592 -0.4810  0.1052
 2977SOL     OW20392   4.316   0.939   8.778 -0.0899  0.4557 -0.5337
 2977SOL    HW120393   4.320   0.924   8.873  1.3156 -0.8967 -0.8198
 2977SOL    HW220394   4.349   0.856   8.744  1.3943 -0.8106  4.0017
 2978SOL     OW20395   4.480   2.786  17.627 -0.2555 -1.0039 -0.0084
 2978SOL    HW120396   4.503   2.781  17.535 -1.7757  0.6551 -0.4775
 2978SOL    HW220397   4.385   2.774  17.619 -0.2688  0.1685 -1.5518
 2979SOL     OW20398   3.374   2.589   9.168  0.5871  0.0769  0.6846
 2979SOL    HW120399   3.391   2.584   9.074  1.8161  1.8368  0.8262
 2979SOL    HW220400   3.296   2.644   9.160 -0.5464 -1.7972 -1.2847
 2980SOL     OW20401   4.701   4.049   6.964  0.3430  0.1762  0.4564
 2980SOL    HW120402   0.011   3.997   7.036 -1.6327 -2.2898 -0.3692
 2980SOL    HW220403   0.048   4.030   6.904 -1.6309 -1.6944 -1.3232
 2981SOL     OW20404   1.270   2.592   9.890  0.0816 -0.2013 -0.2319
 2981SOL    HW120405   1.274   2.499   9.914 -0.1456 -0.3689 -0.8582
 2981SOL    HW220406   1.189   2.607   9.939  0.9319  2.7127  0.2652
 2982SOL     OW20407   3.465   3.221   8.354  0.1031  0.2364  0.0348
 2982SOL    HW120408   3.534   3.275   8.394 -0.3961 -0.2889  1.6048
 2982SOL    HW220409   3.506   3.212   8.268 -1.0478  1.4286 -0.6195
 2983SOL     OW20410   4.026   2.966   7.459 -0.4487 -0.8217 -0.3092
 2983SOL    HW120411   3.934   2.979   7.436 -0.8780 -0.8999  1.3673
 2983SOL    HW220412   4.066   3.006   7.382 -1.6251  0.0033 -0.4873
 2984SOL     OW20413   2.993   4.074   4.087  0.0235  0.3940 -0.5233
 2984SOL    HW120414   3.032   3.995   4.049 -0.0861  0.0183  0.1535
 2984SOL    HW220415   3.060   4.109   4.146  0.1682 -1.3327  0.3488
 2985SOL     OW20416   3.120   1.890   9.567  0.2979 -0.4488  0.6848
 2985SOL    HW120417   3.191   1.918   9.510 -1.3529 -1.2635 -1.7851
 2985SOL    HW220418   3.162   1.829   9.628  3.6921  0.6104 -0.5659
 2986SOL     OW20419   2.614   1.973  17.349 -0.9565 -0.2866  0.5669
 2986SOL    HW120420   2.647   1.915  17.418 -0.1567 -0.9130 -0.3360
 2986SOL    HW220421   2.541   2.017  17.393 -0.0869  1.1451  0.5715
 2987SOL     OW20422   3.211   0.767   9.057 -0.3880 -0.2185  0.1296
 2987SOL    HW120423   3.213   0.833   8.987 -0.2137  1.0735  1.3446
 2987SOL    HW220424   3.115   0.770   9.061 -0.3456 -0.4134  1.4679
 2988SOL     OW20425   3.671   1.059   3.384 -0.3364 -0.0038 -0.1110
 2988SOL    HW120426   3.633   1.002   3.449 -1.9562 -0.5399 -1.5263
 2988SOL    HW220427   3.602   1.113   3.346 -1.5857 -0.6101  1.3265
 2989SOL     OW20428   0.395   0.119   4.524  0.0759  0.1614 -0.0253
 2989SOL    HW120429   0.352   0.071   4.453  0.6779 -1.8703  1.0136
 2989SOL    HW220430   0.389   0.054   4.594 -1.1970  1.3759  0.9899
 2990SOL     OW20431   4.438   4.338   6.471 -0.1709  0.1974 -0.2996
 2990SOL    HW120432   4.491   4.280   6.417  1.6732  0.7688  0.8754
 2990SOL    HW220433   4.508   4.385   6.518 -0.6324  1.4339 -0.8522
 2991SOL     OW20434   3.442   4.554   6.616  0.0051 -0.3940 -0.3272
 2991SOL    HW120435   3.376   4.622   6.624 -0.3189 -0.7660  0.1450
 2991SOL    HW220436   3.472   4.565   6.525  1.8983  2.7127  0.6807
 2992SOL     OW20437   3.907   4.255   0.854 -0.4430 -0.0953 -0.1362
 2992SOL    HW120438   3.876   4.263   0.944  3.1168  1.6741  0.8954
 2992SOL    HW220439   3.986   4.308   0.860 -1.1734  1.0657 -0.7216
 2993SOL     OW20440   3.173   0.317   7.234 -0.2040  0.3458 -0.0124
 2993SOL    HW120441   3.238   0.341   7.168 -0.1867 -0.4482 -0.2820
 2993SOL    HW220442   3.141   0.230   7.209 -0.4006  0.2599  0.5303
 2994SOL     OW20443   2.532   0.159  16.058  0.4251 -0.1343 -0.4055
 2994SOL    HW120444   2.627   0.151  16.050  0.5515 -1.8784  2.7104
 2994SOL    HW220445   2.500   0.119  15.977 -0.8262  1.4679 -0.7219
 2995SOL     OW20446   3.187   0.012  12.442 -0.4265 -0.3106 -0.6824
 2995SOL    HW120447   3.267   4.686  12.429  0.4624  0.8018  0.4756
 2995SOL    HW220448   3.160   4.694  12.524  0.2273 -0.1580 -0.3917
 2996SOL     OW20449   1.755   3.682   4.862  0.1135  0.0677 -0.0629
 2996SOL    HW120450   1.702   3.640   4.929 -0.0281 -0.5487 -0.5659
 2996SOL    HW220451   1.805   3.749   4.908 -0.3688 -0.2308  0.8902
 2997SOL     OW20452   3.352   2.118   9.717  0.4663  0.3085  0.6549
 2997SOL    HW120453   3.374   2.057   9.647  2.0826  2.5407 -0.7970
 2997SOL    HW220454   3.277   2.159   9.673  0.4617  0.6368  0.9652
 2998SOL     OW20455   1.740   0.591   7.305  0.4162 -0.7748  1.4815
 2998SOL    HW120456   1.803   0.662   7.312  1.2171 -1.1619 -2.0620
 2998SOL    HW220457   1.725   0.574   7.398  2.3303 -0.7113  1.7962
 2999SOL     OW20458   0.886   4.289   6.132 -0.6175  0.4257 -0.4908
 2999SOL    HW120459   0.845   4.338   6.204 -0.3989  0.6691 -0.5289
 2999SOL    HW220460   0.955   4.354   6.115  0.3165 -0.7714 -1.2181
 3000SOL     OW20461   1.935   3.969   3.577 -0.1592 -0.7522 -0.2745
 3000SOL    HW120462   1.874   4.029   3.534  0.1368  0.1916  0.6154
 3000SOL    HW220463   1.953   3.900   3.513 -0.0256 -0.6602 -0.3344
 3001SOL     OW20464   1.958   2.402   7.365 -0.2564  0.0728  0.0334
 3001SOL    HW120465   1.911   2.482   7.342 -2.0219 -1.1500 -0.5994
 3001SOL    HW220466   2.044   2.444   7.363 -0.5353  0.6344 -0.0879
 3002SOL     OW20467   0.254   1.506   4.874 -0.0760 -0.1377  0.5559
 3002SOL    HW120468   0.289   1.469   4.956  2.3040 -1.5738 -1.1056
 3002SOL    HW220469   0.184   1.565   4.903 -0.2362  0.3457 -0.8581
 3003SOL     OW20470   1.758   2.547   3.455  0.0758 -0.5074 -0.4433
 3003SOL    HW120471   1.706   2.475   3.419 -0.5276 -0.1716 -0.2371
 3003SOL    HW220472   1.702   2.623   3.442 -2.0098 -1.3836  3.5456
 3004SOL     OW20473   1.768   3.815   6.047  0.9843 -0.0894  0.3213
 3004SOL    HW120474   1.691   3.787   6.096  1.3016 -0.7968  0.4205
 3004SOL    HW220475   1.740   3.902   6.019 -1.0102 -0.7374  0.3449
 3005SOL     OW20476   0.703   2.658   4.753  0.2374  0.4596  0.2133
 3005SOL    HW120477   0.783   2.701   4.782 -0.0933  0.1414  1.5696
 3005SOL    HW220478   0.717   2.565   4.771 -4.0022 -0.3622 -0.5774
 3006SOL     OW20479   3.140   2.100  16.642 -0.4670 -0.3579 -0.7182
 3006SOL    HW120480   3.097   2.080  16.558 -1.5242  0.7158 -0.4226
 3006SOL    HW220481   3.179   2.013  16.653 -0.7614 -0.2308  1.2229
 3007SOL     OW20482   1.747   1.502  13.295 -0.4476  0.3032 -0.3245
 3007SOL    HW120483   1.685   1.471  13.229 -1.6505  0.2576  0.8381
 3007SOL    HW220484   1.763   1.590  13.263 -1.5415  1.3320  1.9922
 3008SOL     OW20485   2.028   2.946   4.502 -0.2681  0.6503  0.0850
 3008SOL    HW120486   1.966   2.913   4.437 -1.4723  0.4069  1.3334
 3008SOL    HW220487   2.031   2.875   4.567 -0.0890 -0.9584 -1.6872
 3009SOL     OW20488   3.493   2.367  16.676  0.8317 -0.6471  0.1348
 3009SOL    HW120489   3.467   2.303  16.743  2.4061 -2.6144 -1.1185
 3009SOL    HW220490   3.455   2.329  16.597 -0.6331 -1.6336  1.3080
 3010SOL     OW20491   4.339   1.475   4.887 -0.0329  0.0178 -0.2984
 3010SOL    HW120492   4.311   1.392   4.926  1.0743  0.1235  0.7375
 3010SOL    HW220493   4.280   1.537   4.929  0.6382  0.4845 -0.0455
 3011SOL     OW20494   3.708   1.298  15.926 -0.0366  0.1142  0.2138
 3011SOL    HW120495   3.623   1.338  15.944 -0.4682 -0.6425 -0.1903
 3011SOL    HW220496   3.761   1.361  15.975  2.4338 -0.3865 -1.8040
 3012SOL     OW20497   4.513   0.622   5.515  0.5945 -0.0509 -0.1544
 3012SOL    HW120498   4.490   0.592   5.427  2.0301 -0.3743 -0.4125
 3012SOL    HW220499   4.438   0.682   5.521 -0.2362 -1.2776  1.6256
 3013SOL     OW20500   3.222   1.140  13.817  0.1113  0.3378  0.2279
 3013SOL    HW120501   3.139   1.107  13.785  0.2059 -0.1226  0.4572
 3013SOL    HW220502   3.210   1.235  13.818 -0.0678  0.2971  3.0761
 3014SOL     OW20503   0.110   0.201   5.785 -0.2516  0.0443  0.2149
 3014SOL    HW120504   0.087   0.265   5.852 -0.5228 -0.5868  0.7275
 3014SOL    HW220505   0.033   0.190   5.730  0.1884 -0.9020 -0.2013
 3015SOL     OW20506   3.886   1.094  11.177 -0.5165  0.0738  0.3559
 3015SOL    HW120507   3.957   1.064  11.119  0.5106  1.1558  1.0576
 3015SOL    HW220508   3.881   1.010  11.223 -2.0147  0.6894  1.2995
 3016SOL     OW20509   0.388   3.546   0.291 -0.7438  0.8285 -0.1593
 3016SOL    HW120510   0.351   3.552   0.379  0.8687 -1.3675  0.6634
 3016SOL    HW220511   0.481   3.560   0.306 -0.3254 -0.6852 -1.3354
 3017SOL     OW20512   3.311   0.027   6.109  0.2465 -0.3873  0.5605
 3017SOL    HW120513   3.347   4.698   6.039  2.7465  0.9010  0.8427
 3017SOL    HW220514   3.347   0.110   6.077  3.0372 -1.5355  0.7352
 3018SOL     OW20515   3.311   3.660   6.056 -0.4840  0.3747  0.3132
 3018SOL    HW120516   3.346   3.575   6.082  0.1647  0.8557  1.0309
 3018SOL    HW220517   3.391   3.712   6.062 -1.5209  2.0230 -0.2695
 3019SOL     OW20518   2.481   2.528   6.064 -0.2578 -0.2223 -0.1314
 3019SOL    HW120519   2.402   2.542   6.011 -1.5972  2.1581  2.5045
 3019SOL    HW220520   2.453   2.577   6.141 -1.0721 -1.5314  0.3981
 3020SOL     OW20521   0.293   3.347  12.083  0.3571  0.0346 -0.2513
 3020SOL    HW120522   0.281   3.382  12.171  0.5531 -2.3998  0.7515
 3020SOL    HW220523   0.388   3.344  12.072  0.4580  0.6661  0.5087
 3021SOL     OW20524   1.132   2.267  16.262 -0.3412  0.1957  0.1709
 3021SOL    HW120525   1.081   2.341  16.293  0.0399  0.6697 -0.3350
 3021SOL    HW220526   1.222   2.295  16.276 -1.2009  2.3305  1.3018
 3022SOL     OW20527   4.632   4.620   5.620 -0.3151  0.4994  0.1405
 3022SOL    HW120528   4.724   4.605   5.644 -0.9829  1.3926  3.2460
 3022SOL    HW220529   4.638   4.603   5.526 -2.1330  2.2673 -0.2963
 3023SOL     OW20530   4.720   3.714   7.639 -0.2198 -0.3890  0.3476
 3023SOL    HW120531   0.009   3.659   7.716  0.0894 -1.1398 -0.2518
 3023SOL    HW220532   4.656   3.779   7.666  0.2944  0.1230  0.3392
 3024SOL     OW20533   4.645   2.705   9.408  0.3682  0.1101  0.1789
 3024SOL    HW120534   4.553   2.720   9.429  0.4898  0.6778  0.3100
 3024SOL    HW220535   4.691   2.735   9.487  0.0084 -1.2377  0.9093
 3025SOL     OW20536   4.058   4.683  10.907 -0.3992 -0.4612  0.5554
 3025SOL    HW120537   4.100   4.707  10.824 -0.9126 -3.2225 -0.4844
 3025SOL    HW220538   4.012   4.602  10.886  0.4001 -0.7523 -0.0618
 3026SOL     OW20539   1.931   4.477   2.042 -0.1630 -0.0000 -0.1112
 3026SOL    HW120540   1.955   4.522   2.123  0.7251 -0.5244 -0.0859
 3026SOL    HW220541   2.015   4.448   2.008  0.0786 -0.1875  0.6424
 3027SOL     OW20542   1.269   2.929  17.360 -0.2321  0.1572  0.0367
 3027SOL    HW120543   1.227   2.981  17.428 -0.2557  0.2202 -0.0252
 3027SOL    HW220544   1.359   2.915  17.389  0.0879  2.6042  0.2473
 3028SOL     OW20545   0.362   1.466   6.377  0.2473  0.2736  0.3064
 3028SOL    HW120546   0.419   1.538   6.405  0.1601  0.6282 -0.4428
 3028SOL    HW220547   0.420   1.397   6.409  0.7331 -0.2884 -1.8241
 3029SOL     OW20548   3.672   2.119   5.678  0.0295  0.0365 -0.3251
 3029SOL    HW120549   3.640   2.098   5.765  0.1636 -0.8787 -0.5017
 3029SOL    HW220550   3.692   2.211   5.698  0.0401 -0.1860  0.6737
 3030SOL     OW20551   4.186   2.701   7.246 -0.3868 -0.0442 -0.3082
 3030SOL    HW120552   4.190   2.695   7.342 -0.2292 -0.1346 -0.3214
 3030SOL    HW220553   4.221   2.789   7.232  0.1919  0.0954  1.9303
 3031SOL     OW20554   4.721   4.357   3.465  0.7265 -0.3455 -0.1326
 3031SOL    HW120555   0.009   4.263   3.466 -0.0764 -0.4588 -0.4307
 3031SOL    HW220556   0.049   4.384   3.390 -1.6696  1.2768 -1.2595
 3032SOL     OW20557   0.610   2.042   6.297 -0.5275 -0.2986 -0.2306
 3032SOL    HW120558   0.651   2.104   6.237 -0.3484  0.7404  0.9469
 3032SOL    HW220559   0.599   1.968   6.238  1.9234  0.0916 -1.1698
 3033SOL     OW20560   4.548   3.388   5.766  0.3976 -0.4271  0.1564
 3033SOL    HW120561   4.592   3.434   5.695 -0.3076  1.0367  0.6554
 3033SOL    HW220562   4.593   3.416   5.846  1.2001 -1.4890  0.0812
 3034SOL     OW20563   0.792   0.358  15.273 -0.1239 -0.1000  0.1557
 3034SOL    HW120564   0.804   0.348  15.178  0.4075 -0.5184  0.2627
 3034SOL    HW220565   0.697   0.354  15.285  0.0861  0.4392  1.9012
 3035SOL     OW20566   2.467   3.808   5.061 -0.1596 -0.4460  0.4800
 3035SOL    HW120567   2.403   3.854   5.115 -0.2544 -1.8243  1.5467
 3035SOL    HW220568   2.541   3.814   5.121 -0.8651  0.6841  1.2305
 3036SOL     OW20569   1.103   4.438   8.143  0.0647  0.5348  0.0471
 3036SOL    HW120570   1.133   4.485   8.065 -2.0079  1.7166 -0.0378
 3036SOL    HW220571   1.192   4.426   8.174 -0.0168  0.5300  0.2778
 3037SOL     OW20572   2.302   0.045  13.837  0.0554  0.1116  0.2264
 3037SOL    HW120573   2.329   0.131  13.805 -0.9836  1.1837  2.1978
 3037SOL    HW220574   2.256   0.013  13.759 -0.1080  0.8619  0.0134
 3038SOL     OW20575   3.662   0.623  12.392  0.0126 -0.4160  0.3306
 3038SOL    HW120576   3.654   0.598  12.484 -2.2698  2.0358  0.7915
 3038SOL    HW220577   3.727   0.693  12.400  1.2284 -1.4173 -0.7535
 3039SOL     OW20578   0.247   2.847   5.625 -0.3727  0.1451 -0.5122
 3039SOL    HW120579   0.160   2.811   5.608 -0.3792 -0.1138  0.0832
 3039SOL    HW220580   0.281   2.829   5.537  2.0696 -0.5407  0.5592
 3040SOL     OW20581   3.690   0.577   6.039 -0.0152 -0.0856 -0.2716
 3040SOL    HW120582   3.749   0.624   5.980  0.0794  0.2495  0.0932
 3040SOL    HW220583   3.657   0.653   6.088 -1.6588 -0.8771 -0.1205
 3041SOL     OW20584   3.561   3.230  13.018 -0.7847  0.4170  0.2048
 3041SOL    HW120585   3.556   3.241  13.113  0.0498  1.7539  0.0875
 3041SOL    HW220586   3.596   3.141  13.021 -2.9898 -0.3959  1.7572
 3042SOL     OW20587   4.503   0.753  10.522  0.2718 -0.4360  0.2735
 3042SOL    HW120588   4.593   0.785  10.532  0.9144 -1.6686 -1.5855
 3042SOL    HW220589   4.505   0.660  10.501  1.7712 -0.4383  0.4250
 3043SOL     OW20590   2.424   0.303  11.977 -0.9746  0.6894 -0.0222
 3043SOL    HW120591   2.518   0.302  11.995 -0.7913 -0.2311 -1.0243
 3043SOL    HW220592   2.396   0.380  12.026  0.7053  0.7064  0.9320
 3044SOL     OW20593   4.527   4.126   5.328 -0.1355  0.3570  0.1711
 3044SOL    HW120594   4.608   4.177   5.320  0.9099 -1.4094 -0.3110
 3044SOL    HW220595   4.477   4.170   5.397 -1.2220 -2.7245  1.3272
 3045SOL     OW20596   1.154   0.193  11.670 -0.3765 -0.5061  0.5664
 3045SOL    HW120597   1.226   0.130  11.679  0.4846  0.1420 -2.0222
 3045SOL    HW220598   1.086   0.146  11.719  0.8302 -0.3244  2.4164
 3046SOL     OW20599   2.576   3.073   7.620 -0.5207 -0.2065 -0.0819
 3046SOL    HW120600   2.514   3.001   7.606  0.8489 -1.6265  1.0655
 3046SOL    HW220601   2.656   3.023   7.636 -0.5734 -0.5003 -0.7553
 3047SOL     OW20602   1.020   1.891   3.675  0.0876  0.1135  0.5376
 3047SOL    HW120603   1.083   1.828   3.641 -0.3300  0.1093 -0.2351
 3047SOL    HW220604   1.047   1.968   3.625  0.6059  0.6559  1.6541
 3048SOL     OW20605   3.864   0.059   9.713 -0.4202 -0.1444  0.1918
 3048SOL    HW120606   3.899   0.110   9.785  0.1300 -2.0211  1.2279
 3048SOL    HW220607   3.880   4.692   9.731 -1.1802 -0.5994 -1.4336
 3049SOL     OW20608   3.327   1.098   2.817 -0.3734  0.0021  0.7543
 3049SOL    HW120609   3.353   1.078   2.728 -1.8375 -1.0194  0.5431
 3049SOL    HW220610   3.249   1.045   2.836  0.0990  0.1325  3.1582
 3050SOL     OW20611   1.597   0.079   4.847 -0.7633 -0.0007  0.4097
 3050SOL    HW120612   1.577   0.063   4.755  1.7902 -1.3202  0.0637
 3050SOL    HW220613   1.559   4.722   4.880 -0.3718  0.2462  1.4726
 3051SOL     OW20614   4.485   2.529   6.626  0.3352  0.0597  0.0102
 3051SOL    HW120615   4.539   2.462   6.667  0.8046  0.7336  0.4922
 3051SOL    HW220616   4.415   2.472   6.593 -0.4182  0.9021  0.1474
 3052SOL     OW20617   4.237   2.039   3.559  0.0511  0.0154 -0.1067
 3052SOL    HW120618   4.173   2.103   3.527 -1.4107 -1.6509 -0.5265
 3052SOL    HW220619   4.309   2.077   3.508  0.6683 -1.1362 -0.0886
 3053SOL     OW20620   2.407   1.268   9.671 -0.0953  0.1930 -0.1501
 3053SOL    HW120621   2.338   1.211   9.703 -1.7172  3.1982  1.7097
 3053SOL    HW220622   2.479   1.208   9.653 -0.2648  0.6094 -2.2326
 3054SOL     OW20623   4.012   3.568   5.132 -0.4059  0.1744  0.4296
 3054SOL    HW120624   4.070   3.643   5.122 -1.4473  0.9094 -0.0340
 3054SOL    HW220625   3.962   3.582   5.213 -2.9272 -1.1384 -0.8990
 3055SOL     OW20626   0.743   0.015  10.420 -0.2255  0.4627 -0.3818
 3055SOL    HW120627   0.660   0.057  10.397 -0.7149  0.3627  1.2284
 3055SOL    HW220628   0.703   4.685  10.487  3.2358 -2.1856 -0.4798
 3056SOL     OW20629   2.366   0.255   2.000 -0.4054  0.3701 -0.0326
 3056SOL    HW120630   2.446   0.202   2.007  1.0202  2.3891 -0.7902
 3056SOL    HW220631   2.297   0.194   2.026  0.0571  0.3261  1.0833
 3057SOL     OW20632   1.331   1.542   9.191 -0.3170 -0.0200 -0.3780
 3057SOL    HW120633   1.306   1.458   9.229 -2.3067  0.1331 -1.3323
 3057SOL    HW220634   1.383   1.516   9.114 -1.1480 -1.7251 -0.3677
 3058SOL     OW20635   2.011   1.919   3.094 -0.1473  0.2428 -0.2994
 3058SOL    HW120636   1.995   2.013   3.096  2.5754  0.6994 -0.0021
 3058SOL    HW220637   1.927   1.882   3.121  1.3449 -2.4434  0.6500
 3059SOL     OW20638   4.318   4.566  12.321  0.9442  0.6099 -0.3249
 3059SOL    HW120639   4.302   4.560  12.226  0.5052 -0.9160 -0.1600
 3059SOL    HW220640   4.284   4.655  12.332 -0.9616  0.0003 -1.1914
 3060SOL     OW20641   3.591   3.003   2.104  0.2521 -0.1704  0.2615
 3060SOL    HW120642   3.564   3.018   2.013 -2.1808 -1.0247  0.8377
 3060SOL    HW220643   3.530   3.060   2.150 -0.5723 -0.7883 -0.0483
 3061SOL     OW20644   0.946   3.071   5.527  0.0531 -0.1994  0.1320
 3061SOL    HW120645   0.918   2.997   5.475  0.7410 -0.8673  0.7018
 3061SOL    HW220646   0.873   3.130   5.509 -0.7657 -0.9025  1.0956
 3062SOL     OW20647   2.847   3.905   5.051  0.7850  0.1013 -0.3056
 3062SOL    HW120648   2.793   3.845   5.000  1.2040 -0.5273 -0.0133
 3062SOL    HW220649   2.933   3.864   5.043  0.5897 -0.2597 -0.5619
 3063SOL     OW20650   3.412   3.836   4.172  0.4580  0.2506 -0.5589
 3063SOL    HW120651   3.326   3.824   4.212  0.6767 -1.8661 -0.7105
 3063SOL    HW220652   3.425   3.929   4.191  2.2427 -0.2784  0.7741
 3064SOL     OW20653   4.523   3.884  14.488 -0.2508  0.0929  0.8437
 3064SOL    HW120654   4.473   3.929  14.420  1.1623 -1.1627 -1.0218
 3064SOL    HW220655   4.540   3.959  14.545 -1.5190 -0.2560  1.6673
 3065SOL     OW20656   0.501   3.844  15.935 -0.1359 -0.2056 -0.1197
 3065SOL    HW120657   0.454   3.762  15.947  0.6572 -0.9897 -2.2506
 3065SOL    HW220658   0.538   3.838  15.846  0.8736  0.6776  0.2432
 3066SOL     OW20659   1.696   3.520  16.403  0.0722 -0.0835  0.3150
 3066SOL    HW120660   1.757   3.553  16.337  1.8462 -1.0594  1.4583
 3066SOL    HW220661   1.612   3.565  16.393 -0.0558 -0.6178 -1.0094
 3067SOL     OW20662   0.547   1.834   6.137 -0.9490  0.5208 -0.6040
 3067SOL    HW120663   0.462   1.872   6.161 -0.2561  1.9024 -0.3859
 3067SOL    HW220664   0.548   1.869   6.048  0.5946 -0.4911 -0.9786
 3068SOL     OW20665   1.422   2.139   1.418 -0.0851 -0.0889 -0.2800
 3068SOL    HW120666   1.432   2.188   1.499 -0.5904 -1.6644  0.7259
 3068SOL    HW220667   1.329   2.151   1.398 -0.5844 -1.3900  1.2840
 3069SOL     OW20668   1.722   2.805   8.341  0.4333  0.1978  0.3657
 3069SOL    HW120669   1.651   2.769   8.394  0.6294  0.1963  0.6243
 3069SOL    HW220670   1.787   2.735   8.340  1.1846  0.8978 -0.9090
 3070SOL     OW20671   3.764   4.512   2.598 -0.6363  0.0825  0.5507
 3070SOL    HW120672   3.699   4.570   2.558 -1.8308 -0.7007  1.3537
 3070SOL    HW220673   3.772   4.548   2.687  1.3572 -0.2615  0.5085
 3071SOL     OW20674   3.415   0.967   7.274 -0.6587  0.8994 -0.0085
 3071SOL    HW120675   3.505   0.989   7.299 -0.4142  0.2294 -0.3079
 3071SOL    HW220676   3.429   0.893   7.215 -0.2348  1.1201 -0.1811
 3072SOL     OW20677   4.180   1.674   5.009 -0.1581 -0.4190 -0.3819
 3072SOL    HW120678   4.140   1.710   5.089  1.2077  0.9498 -0.3104
 3072SOL    HW220679   4.095   1.672   4.964 -0.0635 -1.0127 -0.5287
 3073SOL     OW20680   4.689   0.942   8.416 -0.3979 -0.3317  0.1894
 3073SOL    HW120681   4.656   0.899   8.495  1.7862 -0.7856  0.8726
 3073SOL    HW220682   4.636   1.019   8.397 -1.7832 -0.7809  2.2748
 3074SOL     OW20683   4.185   4.300   2.802 -0.0829  0.4040  0.5424
 3074SOL    HW120684   4.090   4.308   2.815 -0.2239 -2.1198  1.0583
 3074SOL    HW220685   4.184   4.271   2.710  0.3684  1.2377  0.2731
 3075SOL     OW20686   1.577   4.224   5.567 -0.4048  0.0458  0.4357
 3075SOL    HW120687   1.596   4.306   5.614  2.6006 -1.6994  2.2494
 3075SOL    HW220688   1.482   4.217   5.577 -0.4721  0.7984  0.3220
 3076SOL     OW20689   2.331   1.282   4.279 -1.1730 -0.2994 -0.1563
 3076SOL    HW120690   2.253   1.226   4.272 -1.3232 -0.0619 -0.3703
 3076SOL    HW220691   2.363   1.259   4.366 -0.7763  0.5154 -0.0903
 3077SOL     OW20692   2.301   4.625   7.470  0.2479  0.5408 -0.2342
 3077SOL    HW120693   2.335   4.611   7.559  1.4135 -2.8848 -1.2374
 3077SOL    HW220694   2.250   4.545   7.462 -0.8949  1.0766  1.6976
 3078SOL     OW20695   0.625   1.880   1.402 -0.4793 -0.0632 -0.1787
 3078SOL    HW120696   0.561   1.815   1.432  0.7968  0.2438  3.2009
 3078SOL    HW220697   0.674   1.902   1.481 -0.8734 -1.3681  0.4298
 3079SOL     OW20698   0.996   3.704   3.558 -0.2839  0.0850 -0.7814
 3079SOL    HW120699   0.994   3.752   3.475  0.7335  0.6146 -0.5007
 3079SOL    HW220700   0.997   3.777   3.621  0.4855 -0.6524  0.0595
 3080SOL     OW20701   1.170   0.978  14.301 -0.3028  0.3875 -0.4956
 3080SOL    HW120702   1.150   1.067  14.273 -0.0679  0.5814 -0.0485
 3080SOL    HW220703   1.258   1.003  14.329 -0.0424 -2.0628  0.8298
 3081SOL     OW20704   3.471   2.844   5.257  0.1779 -0.0043  0.1003
 3081SOL    HW120705   3.495   2.757   5.226  0.6516  0.0764  0.2382
 3081SOL    HW220706   3.555   2.870   5.297  0.5897  0.6550 -1.1770
 3082SOL     OW20707   0.670   2.553   1.924 -0.3977 -0.2713 -0.3406
 3082SOL    HW120708   0.697   2.477   1.976  0.9971 -0.1516 -0.8944
 3082SOL    HW220709   0.677   2.515   1.836 -0.6284 -2.4448  0.5629
 3083SOL     OW20710   3.658   1.683   8.499  0.2221  0.4836 -0.0628
 3083SOL    HW120711   3.668   1.769   8.539  0.6034  0.7372 -0.7111
 3083SOL    HW220712   3.730   1.641   8.547  0.0947  0.3544  0.0162
 3084SOL     OW20713   4.549   2.756   9.164 -0.4745  0.8326 -0.4570
 3084SOL    HW120714   4.604   2.705   9.223 -1.6291 -1.1722 -1.1247
 3084SOL    HW220715   4.465   2.757   9.210 -0.2805 -1.5034 -0.0969
 3085SOL     OW20716   4.253   2.774   7.851 -0.3209 -0.0150 -0.0132
 3085SOL    HW120717   4.307   2.849   7.875 -0.1998 -0.4073  0.9313
 3085SOL    HW220718   4.278   2.762   7.760 -1.0996 -0.9847 -0.0939
 3086SOL     OW20719   2.113   3.336   3.695 -0.3728 -0.5472  0.3616
 3086SOL    HW120720   2.119   3.420   3.650  0.2878 -0.7258  0.1106
 3086SOL    HW220721   2.139   3.355   3.785  2.2689 -1.2692 -0.2597
 3087SOL     OW20722   3.920   2.134  14.629 -0.7075  0.0109  0.1120
 3087SOL    HW120723   3.845   2.158  14.684 -0.4120  1.6571 -0.2136
 3087SOL    HW220724   3.936   2.218  14.585  0.9279 -1.1331 -1.4553
 3088SOL     OW20725   3.560   1.994   6.186  0.3804  0.0995  0.6215
 3088SOL    HW120726   3.632   1.938   6.216 -0.2180 -2.5444 -2.8812
 3088SOL    HW220727   3.488   1.949   6.230 -0.0205 -0.5941 -0.7262
 3089SOL     OW20728   0.631   3.712  13.379 -0.5930 -0.0404  0.5093
 3089SOL    HW120729   0.612   3.781  13.315 -0.2299 -0.8832 -0.5099
 3089SOL    HW220730   0.593   3.634  13.340  2.2454  0.2313 -2.7944
 3090SOL     OW20731   2.519   3.414   8.581  0.2692 -0.3893  0.1014
 3090SOL    HW120732   2.477   3.358   8.515  1.0532  0.8921 -1.4824
 3090SOL    HW220733   2.518   3.347   8.649  1.4652 -1.4603 -0.9471
 3091SOL     OW20734   2.119   3.806   5.424 -0.2895 -0.4587 -0.1836
 3091SOL    HW120735   2.091   3.783   5.513 -0.4173  2.9089  0.6134
 3091SOL    HW220736   2.108   3.900   5.412 -0.7481 -0.2258  1.9942
 3092SOL     OW20737   2.473   3.585   4.159 -0.0489  0.2133  0.2746
 3092SOL    HW120738   2.462   3.506   4.212  2.5895 -0.1055  0.3383
 3092SOL    HW220739   2.505   3.654   4.217  3.1602 -0.0224 -1.2080
 3093SOL     OW20740   1.239   1.410   9.425  0.1484  0.4249 -0.1539
 3093SOL    HW120741   1.262   1.500   9.449  0.6563  0.3886 -0.4990
 3093SOL    HW220742   1.170   1.389   9.487  0.6276  2.2870  1.0361
 3094SOL     OW20743   2.283   0.030   5.013  0.2025 -0.2398  0.1820
 3094SOL    HW120744   2.231   0.110   5.013 -0.8849 -0.9394  0.7899
 3094SOL    HW220745   2.225   4.691   4.973  0.1314  0.0370 -0.1506
 3095SOL     OW20746   3.684   3.725   2.237 -0.1024  0.0974  0.0358
 3095SOL    HW120747   3.647   3.748   2.151 -1.8212  1.1891  1.0787
 3095SOL    HW220748   3.727   3.641   2.226 -0.8741 -0.3685  0.6399
 3096SOL     OW20749   4.464   1.683  14.223 -0.0029  0.2064 -0.0503
 3096SOL    HW120750   4.534   1.720  14.277 -0.1311 -2.1636  1.7388
 3096SOL    HW220751   4.468   1.590  14.245 -1.1697  0.1919  0.1005
 3097SOL     OW20752   1.766   4.191   3.476 -0.0456  0.2338  0.2734
 3097SOL    HW120753   1.844   4.244   3.460  2.0593 -3.4208 -1.4370
 3097SOL    HW220754   1.721   4.224   3.554  0.1067  2.1168 -0.4390
 3098SOL     OW20755   1.517   4.223  13.117 -0.1830  0.3429  0.0919
 3098SOL    HW120756   1.526   4.318  13.120  1.4134  0.1450  1.4403
 3098SOL    HW220757   1.434   4.217  13.164  0.6449  0.4458  1.5710
 3099SOL     OW20758   0.472   1.245   6.716  0.1826  0.1428  0.1860
 3099SOL    HW120759   0.493   1.154   6.737  1.5023  0.0552 -1.5060
 3099SOL    HW220760   0.487   1.294   6.797  1.4874  1.1788 -0.6941
 3100SOL     OW20761   1.831   2.168   7.373 -0.0062 -0.6129 -0.1190
 3100SOL    HW120762   1.744   2.185   7.337  0.9305 -0.0669 -2.1084
 3100SOL    HW220763   1.874   2.252   7.386 -1.7225  0.5086 -1.7465
 3101SOL     OW20764   3.258   1.759   6.085 -0.2178  0.7799  0.2414
 3101SOL    HW120765   3.164   1.765   6.073 -0.1902 -0.2285 -0.4701
 3101SOL    HW220766   3.265   1.838   6.139  1.3439  0.2645  0.8047
 3102SOL     OW20767   0.228   0.151   0.415 -0.0701 -0.2513 -0.0034
 3102SOL    HW120768   0.137   0.175   0.430 -0.0533 -0.6470  0.7469
 3102SOL    HW220769   0.210   0.122   0.326 -1.2036  0.4405  0.0033
 3103SOL     OW20770   1.013   0.924   3.147 -0.4010  0.3466 -0.2822
 3103SOL    HW120771   0.937   0.938   3.204  0.7479 -0.5368  1.4478
 3103SOL    HW220772   1.081   0.983   3.181 -1.0014 -0.9194  3.1451
 3104SOL     OW20773   3.465   0.700   7.095 -0.2630 -0.5942 -0.5245
 3104SOL    HW120774   3.370   0.686   7.089 -0.7706  2.6933  0.3175
 3104SOL    HW220775   3.485   0.739   7.010 -1.4922  0.3104 -0.4061
 3105SOL     OW20776   2.602   3.189   1.285  0.3814 -0.4533  0.0553
 3105SOL    HW120777   2.579   3.282   1.287  1.6281 -0.1226 -0.7426
 3105SOL    HW220778   2.665   3.189   1.213 -1.4021  2.0494 -1.5062
 3106SOL     OW20779   3.524   1.058  12.123 -0.0865 -0.0987  0.3784
 3106SOL    HW120780   3.601   1.002  12.125  1.2190  1.5902 -2.1348
 3106SOL    HW220781   3.489   1.023  12.205 -1.3361 -0.5627 -0.3455
 3107SOL     OW20782   1.080   1.752  17.502 -0.5885 -0.7032 -0.5372
 3107SOL    HW120783   1.029   1.821  17.460 -2.0233 -1.4710 -0.0440
 3107SOL    HW220784   1.097   1.693  17.428  1.2582 -0.3217 -0.4336
 3108SOL     OW20785   4.578   0.759   0.525 -0.4288  0.4576  0.2259
 3108SOL    HW120786   4.618   0.809   0.596 -0.9987  1.1327  0.0697
 3108SOL    HW220787   4.654   0.710   0.496 -1.7169 -0.4945 -1.5719
 3109SOL     OW20788   3.968   4.550  16.522 -0.7140  0.1073  0.5843
 3109SOL    HW120789   3.888   4.598  16.544 -0.7879  0.5307 -0.6290
 3109SOL    HW220790   3.938   4.495  16.450  0.0150  2.0273 -1.1772
 3110SOL     OW20791   0.806   1.002  11.170 -0.3263  0.0507  0.1940
 3110SOL    HW120792   0.900   0.985  11.180  0.2538  0.9208 -3.9216
 3110SOL    HW220793   0.786   0.993  11.263 -1.4096  2.7335  0.2255
 3111SOL     OW20794   0.856   4.436   4.567  0.3429  0.5567  0.5774
 3111SOL    HW120795   0.870   4.394   4.652 -2.8195  2.3760  1.9675
 3111SOL    HW220796   0.930   4.497   4.572 -0.5772  1.7422 -0.5086
 3112SOL     OW20797   4.400   0.562  13.668  0.8692 -0.2129 -0.0704
 3112SOL    HW120798   4.358   0.478  13.652 -0.4377 -0.0329  2.4729
 3112SOL    HW220799   4.378   0.572  13.761  0.4300  1.0340 -0.3038
 3113SOL     OW20800   2.801   2.285   3.922  0.1616  0.4602  0.0101
 3113SOL    HW120801   2.822   2.378   3.922  2.7106 -0.1149 -0.7412
 3113SOL    HW220802   2.820   2.267   3.830 -0.4104 -0.5802  0.0957
 3114SOL     OW20803   3.067   0.660   5.561  0.2151 -0.2685 -0.3124
 3114SOL    HW120804   3.113   0.726   5.614 -0.9483 -0.5716  1.0781
 3114SOL    HW220805   3.127   0.644   5.489  0.1681 -0.4844 -0.3039
 3115SOL     OW20806   4.180   0.653  17.671 -0.2717 -0.7343  0.2343
 3115SOL    HW120807   4.107   0.657  17.610  0.9039  1.9959 -1.0122
 3115SOL    HW220808   4.226   0.735  17.652  2.1368 -1.7786  1.6218
 3116SOL     OW20809   2.761   1.159   6.970  0.0860 -0.1918 -0.3508
 3116SOL    HW120810   2.852   1.161   6.999 -0.2252 -2.1521  0.7525
 3116SOL    HW220811   2.713   1.133   7.048 -1.9143  1.7929 -0.9035
 3117SOL     OW20812   1.415   4.496   3.165  0.2531  0.1945 -0.2103
 3117SOL    HW120813   1.506   4.480   3.193 -0.8899 -1.0316  2.7643
 3117SOL    HW220814   1.383   4.408   3.149 -0.1077  0.0543  1.2848
 3118SOL     OW20815   4.190   4.465   4.249  0.4128 -0.1944 -1.1304
 3118SOL    HW120816   4.095   4.456   4.253  0.3702  0.6738 -0.1493
 3118SOL    HW220817   4.206   4.413   4.170  0.4369 -1.6634 -0.1596
 3119SOL     OW20818   2.305   4.613  15.182  0.2019  0.0618  0.3166
 3119SOL    HW120819   2.229   4.578  15.228  2.0612 -0.9728  2.6304
 3119SOL    HW220820   2.269   4.641  15.098 -0.8562 -0.8801  0.4584
 3120SOL     OW20821   3.719   0.544   7.794  0.1491 -0.0455 -0.2552
 3120SOL    HW120822   3.665   0.620   7.814  1.1721  0.7098 -0.3931
 3120SOL    HW220823   3.667   0.468   7.823  0.2172 -0.4566 -1.2268
 3121SOL     OW20824   4.400   3.471   6.964  0.0493 -0.0456  0.3549
 3121SOL    HW120825   4.415   3.532   6.893  0.2046 -1.8633 -1.1827
 3121SOL    HW220826   4.417   3.390   6.916 -0.0734 -0.4699  1.0188
 3122SOL     OW20827   0.183   0.862   2.062  0.1162 -0.2153  0.3625
 3122SOL    HW120828   0.153   0.788   2.009  0.3556 -2.1111  2.8655
 3122SOL    HW220829   0.112   0.921   2.039 -1.3999 -1.9782  0.4864
 3123SOL     OW20830   3.871   0.852  15.412 -0.5607  0.4424  0.4163
 3123SOL    HW120831   3.818   0.911  15.467  0.9963 -0.0407  2.4324
 3123SOL    HW220832   3.931   0.917  15.375 -1.1573  0.4316 -0.5570
 3124SOL     OW20833   1.865   0.842   8.934 -0.0243  0.5213  0.5094
 3124SOL    HW120834   1.793   0.858   8.873 -0.9230  0.9090  1.6739
 3124SOL    HW220835   1.911   0.926   8.929 -1.4272  1.2269 -0.7682
 3125SOL     OW20836   3.897   0.825   2.226  0.0960  0.2224 -0.3030
 3125SOL    HW120837   3.803   0.815   2.234  0.0338  0.2665 -1.0154
 3125SOL    HW220838   3.918   0.765   2.154  1.0972 -0.7001  0.7536
 3126SOL     OW20839   1.011   2.782  13.504 -0.1078  0.2948 -0.0112
 3126SOL    HW120840   1.017   2.797  13.598 -2.2408  0.7500  0.0461
 3126SOL    HW220841   0.937   2.721  13.500 -1.6232  2.1377  0.0296
 3127SOL     OW20842   4.094   1.600   8.813  0.2404 -0.3994  0.2071
 3127SOL    HW120843   4.102   1.525   8.871  2.7576 -0.3822 -0.1205
 3127SOL    HW220844   4.059   1.672   8.865  1.4698  0.8581 -0.7077
 3128SOL     OW20845   4.344   3.137   0.880  0.1839 -0.6543  0.0214
 3128SOL    HW120846   4.325   3.231   0.876  1.4179 -0.2939  2.8373
 3128SOL    HW220847   4.266   3.099   0.840 -0.9712  1.4102  0.2957
 3129SOL     OW20848   3.362   3.541   7.698  0.0796  0.1451 -0.1502
 3129SOL    HW120849   3.440   3.534   7.643  0.7276 -1.0952  0.9190
 3129SOL    HW220850   3.288   3.535   7.638 -0.3036 -0.8826  0.4316
 3130SOL     OW20851   2.188   4.028   3.874 -0.0069 -0.4586  0.1689
 3130SOL    HW120852   2.166   4.122   3.877  1.0469 -0.2068 -0.1508
 3130SOL    HW220853   2.257   4.020   3.940 -1.0041 -0.6868  1.1990
 3131SOL     OW20854   1.636   2.360   6.055 -0.1214  0.7912 -0.0403
 3131SOL    HW120855   1.624   2.328   6.144  0.2259  0.5178 -0.0915
 3131SOL    HW220856   1.640   2.455   6.070  1.8638  0.5949  0.6667
 3132SOL     OW20857   3.685   0.745   7.495 -0.0153 -0.1438 -0.3681
 3132SOL    HW120858   3.635   0.686   7.439 -2.0437  1.8515 -0.6573
 3132SOL    HW220859   3.606   0.791   7.523  0.8488  0.4968  1.0190
 3133SOL     OW20860   4.304   2.393   2.512  0.2443  0.1143  0.1305
 3133SOL    HW120861   4.274   2.436   2.592  1.6596 -1.2376  1.3867
 3133SOL    HW220862   4.398   2.394   2.527  0.1405 -2.8845  1.1225
 3134SOL     OW20863   0.882   0.830   5.301 -0.1238 -0.1894  0.6230
 3134SOL    HW120864   0.804   0.803   5.349 -0.1511 -3.4550 -1.2473
 3134SOL    HW220865   0.859   0.923   5.302  0.5976  0.0110 -3.4295
 3135SOL     OW20866   0.581   2.154   3.964  0.5220 -0.1054  0.2319
 3135SOL    HW120867   0.613   2.212   3.894 -1.6656 -0.8910 -1.4289
 3135SOL    HW220868   0.659   2.114   4.003 -0.2649 -2.5042 -0.6641
 3136SOL     OW20869   2.796   1.992   8.686  0.5721 -0.1535 -0.4584
 3136SOL    HW120870   2.767   2.077   8.653 -0.9422 -2.1623 -4.3781
 3136SOL    HW220871   2.867   2.025   8.741 -0.7228  1.3412  0.3094
 3137SOL     OW20872   4.599   4.121  14.709  0.4093 -0.3787 -0.4105
 3137SOL    HW120873   4.675   4.118  14.767  1.1921 -0.1000 -1.4318
 3137SOL    HW220874   4.541   4.063  14.758 -0.4955 -0.6651 -1.8350
 3138SOL     OW20875   3.685   0.796   5.800 -0.3334 -0.5654  0.2226
 3138SOL    HW120876   3.597   0.768   5.825  0.3565 -1.4855  1.6535
 3138SOL    HW220877   3.672   0.889   5.779 -2.0051 -1.4591 -2.6642
 3139SOL     OW20878   1.294   3.111   3.450 -0.6085 -0.5032 -0.0722
 3139SOL    HW120879   1.227   3.120   3.382  1.1954 -3.9212 -2.2969
 3139SOL    HW220880   1.252   3.054   3.514 -2.2859 -0.8506 -1.4756
 3140SOL     OW20881   4.247   2.123   6.756 -0.2007 -0.0791  0.4858
 3140SOL    HW120882   4.181   2.080   6.701 -0.5530  2.1831 -0.8793
 3140SOL    HW220883   4.330   2.075   6.748  1.5170  2.6255  2.1155
 3141SOL     OW20884   2.587   0.315  10.993  0.2808  0.3448  0.4535
 3141SOL    HW120885   2.508   0.280  11.034 -0.2791  1.3637  0.2417
 3141SOL    HW220886   2.643   0.241  10.967 -0.0109 -0.1967  1.3839
 3142SOL     OW20887   2.832   2.398  11.076 -0.0150  0.6451  0.4076
 3142SOL    HW120888   2.883   2.390  11.156  1.7666 -2.2062 -0.9930
 3142SOL    HW220889   2.772   2.323  11.081 -0.4125  1.1788  3.5630
 3143SOL     OW20890   3.433   3.167   4.005 -0.2375 -0.0949  0.4377
 3143SOL    HW120891   3.464   3.079   4.027  0.7564  0.3951  1.0180
 3143SOL    HW220892   3.421   3.153   3.911 -2.2677  0.7009  0.5901
 3144SOL     OW20893   2.625   0.216  11.324 -0.2598  0.2151 -0.3817
 3144SOL    HW120894   2.583   0.170  11.397  0.3608 -0.8152 -0.6774
 3144SOL    HW220895   2.548   0.235  11.269 -1.5903 -0.3023  1.2840
 3145SOL     OW20896   3.522   4.683  15.326 -0.1342  0.0093 -0.4324
 3145SOL    HW120897   3.479   0.031  15.281 -0.3154 -0.3742 -0.8867
 3145SOL    HW220898   3.481   4.678  15.412 -1.8400 -0.7478 -1.2887
 3146SOL     OW20899   1.648   0.435   5.770  0.5026 -0.1756 -0.6460
 3146SOL    HW120900   1.600   0.412   5.690  0.5645  0.3526 -0.8350
 3146SOL    HW220901   1.682   0.521   5.747  1.7158 -0.0433  1.6910
 3147SOL     OW20902   2.253   2.618   5.923  0.0076 -0.6442 -0.1651
 3147SOL    HW120903   2.282   2.682   5.858 -1.9915  1.1619  0.7323
 3147SOL    HW220904   2.165   2.647   5.945  0.9635  2.1090  0.0559
 3148SOL     OW20905   3.726   3.727   3.172 -0.0272  0.2631  0.2798
 3148SOL    HW120906   3.664   3.683   3.114 -0.1361  2.0441 -0.9394
 3148SOL    HW220907   3.804   3.728   3.115 -0.0076 -1.4831  0.2707
 3149SOL     OW20908   2.668   2.482   1.897 -0.3677 -0.0477  0.0018
 3149SOL    HW120909   2.703   2.397   1.924  0.3692  0.7334  1.5256
 3149SOL    HW220910   2.663   2.515   1.987 -2.0286  1.6430 -0.7157
 3150SOL     OW20911   0.662   2.917   5.750 -0.3164  0.5271 -0.1274
 3150SOL    HW120912   0.628   2.998   5.714  0.2559 -0.7992 -3.6562
 3150SOL    HW220913   0.733   2.905   5.687 -0.1152  0.0822  0.1842
 3151SOL     OW20914   4.250   3.305   4.553 -0.2207  0.3558 -0.4170
 3151SOL    HW120915   4.334   3.349   4.549  0.7953 -1.4636  0.8669
 3151SOL    HW220916   4.283   3.218   4.532 -0.7333 -0.2484  1.2342
 3152SOL     OW20917   1.169   3.724   8.063 -0.8356  0.6258  0.3079
 3152SOL    HW120918   1.239   3.683   8.113 -1.6018 -0.5412  0.4224
 3152SOL    HW220919   1.221   3.778   8.003  2.0646 -1.3699  1.0445
 3153SOL     OW20920   3.507   0.851   2.193 -0.5382 -0.3266  0.6836
 3153SOL    HW120921   3.548   0.765   2.183  0.1954  0.0748  0.2737
 3153SOL    HW220922   3.470   0.869   2.107  0.2563  3.1361  1.0612
 3154SOL     OW20923   0.821   0.015   3.129 -0.6290 -0.1841 -0.1142
 3154SOL    HW120924   0.884   4.684   3.175  1.1078  2.3595  0.6245
 3154SOL    HW220925   0.736   4.706   3.154 -1.2387  0.8262 -0.8139
 3155SOL     OW20926   2.841   2.646   7.921  0.4249 -0.1848  0.0760
 3155SOL    HW120927   2.915   2.670   7.976 -0.0120  0.0022  0.5804
 3155SOL    HW220928   2.777   2.713   7.942  0.4436  0.3614 -1.6066
 3156SOL     OW20929   1.883   2.447  10.613 -0.1968  0.1077 -0.2647
 3156SOL    HW120930   1.816   2.514  10.624 -1.6690 -1.8692  2.5663
 3156SOL    HW220931   1.957   2.501  10.641  0.0362 -0.0054 -0.6545
 3157SOL     OW20932   0.917   4.245  10.425 -0.0400  0.6104 -0.0742
 3157SOL    HW120933   0.900   4.318  10.484  1.4013 -1.9227  3.5017
 3157SOL    HW220934   0.864   4.266  10.349  0.6173 -2.3227 -1.3729
 3158SOL     OW20935   2.080   1.407   8.715  0.0307  0.2084 -0.0434
 3158SOL    HW120936   2.101   1.485   8.664 -0.8717  1.5222  1.5729
 3158SOL    HW220937   2.005   1.378   8.663 -0.6843  1.5873  0.2128
 3159SOL     OW20938   2.138   0.314  13.510 -0.9793 -0.2190  0.7174
 3159SOL    HW120939   2.199   0.307  13.583  1.2569  3.0983 -0.8074
 3159SOL    HW220940   2.203   0.324  13.440 -0.6498 -1.5076  0.8315
 3160SOL     OW20941   3.772   0.981  16.571  0.3745 -0.3265  0.5714
 3160SOL    HW120942   3.824   0.915  16.525  0.0079  2.1085 -3.3515
 3160SOL    HW220943   3.827   1.023  16.638 -0.7279  0.9474  0.6807
 3161SOL     OW20944   0.284   3.031   1.798  0.4130 -0.1320 -0.5485
 3161SOL    HW120945   0.192   3.018   1.777  0.1449  1.5280 -0.3988
 3161SOL    HW220946   0.278   3.098   1.867  0.8276  1.4940 -2.0978
 3162SOL     OW20947   2.407   3.698   5.695 -0.1275  0.1051 -0.3327
 3162SOL    HW120948   2.396   3.615   5.743  0.4555  0.7465  0.9119
 3162SOL    HW220949   2.474   3.739   5.750  0.5825 -3.2023  1.3151
 3163SOL     OW20950   4.659   2.513   7.963  0.0371 -0.2521 -0.4806
 3163SOL    HW120951   4.661   2.429   8.009 -2.5607  0.0727  0.2142
 3163SOL    HW220952   4.574   2.539   7.998  0.3516 -2.0042  1.5724
 3164SOL     OW20953   4.116   3.045   6.003 -0.3423 -0.1788 -0.8774
 3164SOL    HW120954   4.021   3.051   6.017 -0.1966  1.0447 -0.4416
 3164SOL    HW220955   4.126   3.139   5.992  0.5581 -0.0943  0.7168
 3165SOL     OW20956   0.264   2.008  16.352 -0.7059 -0.0772  0.0031
 3165SOL    HW120957   0.267   2.039  16.442  1.9340  1.4518 -0.5913
 3165SOL    HW220958   0.252   2.089  16.303  0.9510 -1.0115 -1.9735
 3166SOL     OW20959   1.263   1.181   8.618  0.5194 -0.0678 -0.1012
 3166SOL    HW120960   1.264   1.275   8.603  1.1952 -0.3938 -2.1085
 3166SOL    HW220961   1.202   1.170   8.691  0.4269 -0.9297 -0.3094
 3167SOL     OW20962   1.462   3.427   3.828 -0.2863 -0.3294 -0.4094
 3167SOL    HW120963   1.459   3.356   3.763 -0.0823 -1.4747  0.8443
 3167SOL    HW220964   1.416   3.382   3.898 -0.4523  0.5842  0.0663
 3168SOL     OW20965   3.967   2.757  13.487  0.5197 -0.0272 -0.2781
 3168SOL    HW120966   3.986   2.663  13.494  0.1664 -0.0580  0.2625
 3168SOL    HW220967   3.969   2.797  13.574 -1.2420 -0.0450 -0.2288
 3169SOL     OW20968   2.174   3.233  11.232 -0.0968 -0.3216 -0.3234
 3169SOL    HW120969   2.156   3.140  11.218 -0.5703 -0.6430  2.2936
 3169SOL    HW220970   2.102   3.274  11.184 -1.3046  0.2615  1.9868
 3170SOL     OW20971   3.549   0.222   2.253  0.1878 -0.0540 -0.5523
 3170SOL    HW120972   3.575   0.295   2.197  1.4568 -0.4945 -0.5264
 3170SOL    HW220973   3.461   0.245   2.283  0.8376  0.1461  1.2015
 3171SOL     OW20974   2.315   0.665   3.604 -0.6565 -0.4315  0.4600
 3171SOL    HW120975   2.396   0.702   3.640 -0.1544  0.8574 -2.0337
 3171SOL    HW220976   2.277   0.631   3.685  0.0925  1.6020  1.6532
 3172SOL     OW20977   2.700   1.739  17.680  0.0525 -0.5655  0.0732
 3172SOL    HW120978   2.725   1.764   0.066 -0.2810 -3.1632  0.8844
 3172SOL    HW220979   2.680   1.646  17.688 -1.1758 -0.3397 -0.2721
 3173SOL     OW20980   4.640   3.101   6.050  1.2085  0.0387  0.1981
 3173SOL    HW120981   4.617   3.044   5.976 -0.4182  1.3371 -0.3042
 3173SOL    HW220982   4.699   3.166   6.013 -1.2344  0.6784 -2.5279
 3174SOL     OW20983   3.335   1.803   2.307  0.1845 -0.2887  0.2677
 3174SOL    HW120984   3.318   1.709   2.298  0.7367 -0.3969  0.3646
 3174SOL    HW220985   3.270   1.822   2.375  0.2336  0.4082  0.1195
 3175SOL     OW20986   2.510   3.552  10.992  0.0681 -0.0056 -0.2168
 3175SOL    HW120987   2.429   3.566  10.944 -0.5120 -0.7565  0.5506
 3175SOL    HW220988   2.474   3.503  11.065  0.4119 -1.1669 -0.8326
 3176SOL     OW20989   0.971   1.956   7.364 -0.6146 -0.2325 -0.1567
 3176SOL    HW120990   0.980   1.982   7.455  0.2567 -0.3249 -0.2156
 3176SOL    HW220991   0.925   1.873   7.359  1.0285 -1.1264 -0.6704
 3177SOL     OW20992   3.329   3.464  16.307 -0.0283  0.3730 -0.5602
 3177SOL    HW120993   3.258   3.404  16.282  1.0356 -0.3250 -1.9006
 3177SOL    HW220994   3.391   3.407  16.353  1.4423  2.0728 -0.4554
 3178SOL     OW20995   3.660   4.692   0.200  0.0209  0.1624  0.4329
 3178SOL    HW120996   3.726   4.649   0.145 -0.1658 -0.1820  0.4729
 3178SOL    HW220997   3.664   0.055   0.164 -0.9964 -0.2294 -0.6474
 3179SOL     OW20998   3.318   0.069   6.667  0.0616  0.4025  0.6625
 3179SOL    HW120999   3.274   0.135   6.614 -3.3855 -2.1751  0.2828
 3179SOL    HW221000   3.331   0.109   6.753  1.2712 -0.4697  0.8889
 3180SOL     OW21001   2.850   2.504   6.516 -0.0282 -0.0480 -0.0148
 3180SOL    HW121002   2.777   2.465   6.469 -0.7914  0.7687  0.4923
 3180SOL    HW221003   2.887   2.571   6.458  0.3630 -0.5012 -0.2883
 3181SOL     OW21004   4.320   2.479  10.937 -0.8221 -0.4440  0.1665
 3181SOL    HW121005   4.307   2.572  10.916  0.4607 -0.3237 -0.0627
 3181SOL    HW221006   4.411   2.470  10.909 -0.8342  0.4023 -0.1524
 3182SOL     OW21007   0.997   3.923  11.175  0.2963 -0.1265  0.7113
 3182SOL    HW121008   1.063   3.904  11.242  0.1308  0.2214  0.9727
 3182SOL    HW221009   1.034   3.998  11.128  2.8142 -0.6854  1.7886
 3183SOL     OW21010   1.054   2.103   4.473 -0.4876 -0.4937 -0.0676
 3183SOL    HW121011   1.040   2.056   4.555 -0.5274  0.0716  0.2445
 3183SOL    HW221012   0.975   2.085   4.421 -0.5620 -2.8899  0.8540
 3184SOL     OW21013   0.686   3.109   4.414 -0.3264  0.2586  0.3625
 3184SOL    HW121014   0.732   3.164   4.352 -1.0011  0.4238  0.0084
 3184SOL    HW221015   0.613   3.166   4.438  0.1166  0.5884  0.9080
 3185SOL     OW21016   3.575   4.215   9.522  0.6653 -0.1206 -0.2343
 3185SOL    HW121017   3.493   4.263   9.511 -0.9039 -2.4448  1.3066
 3185SOL    HW221018   3.551   4.133   9.566 -0.8643 -0.5391 -1.8852
 3186SOL     OW21019   3.017   2.477  17.490 -0.8922 -0.3010  0.0624
 3186SOL    HW121020   3.032   2.390  17.527  0.2879  0.1044  0.5435
 3186SOL    HW221021   2.936   2.503  17.534 -1.1202 -1.2442  0.2025
 3187SOL     OW21022   2.489   4.160   2.402 -0.3890 -0.1505  0.3950
 3187SOL    HW121023   2.561   4.117   2.355  0.9586  2.5561  0.0025
 3187SOL    HW221024   2.423   4.179   2.335 -0.0894 -2.7128 -0.6523
 3188SOL     OW21025   1.760   2.553   4.664 -0.4269  0.3302  0.8991
 3188SOL    HW121026   1.825   2.517   4.723 -1.2342 -0.9072  1.0339
 3188SOL    HW221027   1.689   2.489   4.672  0.1761 -0.1573  2.3789
 3189SOL     OW21028   4.227   0.049  11.545  0.1267  0.3759  0.1103
 3189SOL    HW121029   4.174   0.063  11.467 -1.2313 -2.2629  0.5394
 3189SOL    HW221030   4.315   0.037  11.508 -0.0244 -2.7179  0.7284
 3190SOL     OW21031   4.194   1.341   2.726  0.4434  0.0523  1.0345
 3190SOL    HW121032   4.121   1.338   2.788  1.3717 -0.9468  2.0689
 3190SOL    HW221033   4.184   1.429   2.689  0.0543 -0.2628  0.3750
 3191SOL     OW21034   3.979   3.983   7.731  0.3455  0.2757  0.1770
 3191SOL    HW121035   3.953   3.967   7.640  1.2144 -0.9843  0.1644
 3191SOL    HW221036   3.977   3.894   7.765  1.0036  0.5659  0.9657
 3192SOL     OW21037   0.694   1.566   3.079  0.1864 -0.4343  0.1812
 3192SOL    HW121038   0.772   1.618   3.056  0.5673 -1.1476 -0.1242
 3192SOL    HW221039   0.658   1.632   3.139 -1.3381 -1.2491  0.1582
 3193SOL     OW21040   0.152   3.364  15.407  0.1588 -0.6882 -0.2898
 3193SOL    HW121041   0.134   3.398  15.495  0.9412 -1.7794  0.2860
 3193SOL    HW221042   0.066   3.374  15.366 -0.2744 -0.7881  0.6019
 3194SOL     OW21043   1.949   3.793   5.165 -1.0977 -0.5604  0.2721
 3194SOL    HW121044   1.901   3.805   5.247 -0.6506  2.3367  0.1426
 3194SOL    HW221045   2.031   3.835   5.192 -1.1782  0.8131 -1.5874
 3195SOL     OW21046   1.269   2.627   5.994  0.3503  0.0428  0.0998
 3195SOL    HW121047   1.251   2.703   6.050  0.0757  2.1438 -2.8391
 3195SOL    HW221048   1.189   2.575   5.989 -0.3264  0.8078  2.7274
 3196SOL     OW21049   2.455   0.073  11.586  0.7359 -0.1608  0.5687
 3196SOL    HW121050   2.550   0.075  11.584  0.7966 -0.2616  3.1031
 3196SOL    HW221051   2.442   0.056  11.680  0.9088 -2.7826  0.1220
 3197SOL     OW21052   1.319   4.159   1.795 -0.1641  0.2036  0.9402
 3197SOL    HW121053   1.225   4.176   1.801 -0.5341 -1.1732 -1.2429
 3197SOL    HW221054   1.344   4.171   1.887  1.9410 -0.7185  0.4920
 3198SOL     OW21055   1.185   0.021   1.428 -0.4739 -0.0204  0.5150
 3198SOL    HW121056   1.096   0.004   1.459 -0.0488  0.1278  1.8278
 3198SOL    HW221057   1.190   0.115   1.411 -0.3244 -0.4619 -1.8584
 3199SOL     OW21058   3.827   0.892   6.518  0.3478  0.3213  0.7339
 3199SOL    HW121059   3.911   0.917   6.557  1.6146 -1.9438 -0.5604
 3199SOL    HW221060   3.770   0.900   6.595 -1.0840  0.3170 -0.3130
 3200SOL     OW21061   2.484   1.350   8.171 -0.1477 -0.0932  0.0296
 3200SOL    HW121062   2.518   1.406   8.241 -0.4360 -2.1066  1.7812
 3200SOL    HW221063   2.552   1.283   8.162  2.2915  2.5881 -1.4969
 3201SOL     OW21064   2.522   3.118   4.057  0.5126 -0.0764 -0.0731
 3201SOL    HW121065   2.600   3.062   4.048  1.6355  1.8205 -2.0955
 3201SOL    HW221066   2.485   3.082   3.977 -1.5700 -1.7607  1.6491
 3202SOL     OW21067   2.107   4.708   0.669  0.0431  0.0315 -0.5261
 3202SOL    HW121068   2.054   4.644   0.620 -0.9507  0.3306  0.1525
 3202SOL    HW221069   2.166   0.018   0.602 -0.4696  1.1929 -0.3743
 3203SOL     OW21070   3.837   0.152  12.634 -0.5630 -0.1390  0.7150
 3203SOL    HW121071   3.912   0.200  12.601 -3.3996  3.2523 -0.7905
 3203SOL    HW221072   3.763   0.209  12.612 -0.0815  0.4686  0.6678
 3204SOL     OW21073   1.401   3.557   2.288 -0.0683 -0.4189 -0.3627
 3204SOL    HW121074   1.488   3.544   2.252 -0.2825 -3.0463  0.0728
 3204SOL    HW221075   1.372   3.629   2.232  1.7865  1.0647  0.5834
 3205SOL     OW21076   4.464   4.679  17.463 -0.4345  0.0684 -0.1871
 3205SOL    HW121077   4.386   4.630  17.486  0.0911 -0.5236  0.3363
 3205SOL    HW221078   4.540   4.630  17.497 -0.4114  1.4401  1.7486
 3206SOL     OW21079   4.156   1.130   2.008 -0.3105  0.5700 -0.3073
 3206SOL    HW121080   4.142   1.224   1.997  0.8213  0.9233  1.2437
 3206SOL    HW221081   4.073   1.113   2.052 -0.3024 -0.0168 -0.5172
 3207SOL     OW21082   2.717   1.277   3.492  0.6100 -0.5765 -0.4104
 3207SOL    HW121083   2.800   1.322   3.510  1.1827 -1.2887 -1.2371
 3207SOL    HW221084   2.695   1.313   3.406  1.2909  0.8549  0.0049
 3208SOL     OW21085   0.895   0.219   0.695  0.6556 -0.3155 -0.1570
 3208SOL    HW121086   0.805   0.217   0.664  0.8944  0.8041 -0.8958
 3208SOL    HW221087   0.889   0.203   0.789  4.9806 -1.1256 -0.0155
 3209SOL     OW21088   1.410   4.704   8.434 -0.4880 -0.5429 -0.0572
 3209SOL    HW121089   1.410   4.676   8.526  0.7270  0.6464  0.2981
 3209SOL    HW221090   1.497   0.015   8.423 -0.2447 -1.4148 -0.9621
 3210SOL     OW21091   3.998   4.680   9.077 -0.7749  0.0935  0.1424
 3210SOL    HW121092   3.938   4.672   9.151 -1.5673 -1.1904 -0.6233
 3210SOL    HW221093   3.945   0.021   9.034 -0.3054  1.6223  1.9636
 3211SOL     OW21094   4.062   1.158   7.109  0.5720 -0.3362  0.3089
 3211SOL    HW121095   4.111   1.145   7.028  1.5301 -0.7193  0.9471
 3211SOL    HW221096   4.083   1.251   7.124  0.5578 -0.0643 -1.3794
 3212SOL     OW21097   3.318   1.321  17.104  0.3202  0.5312  0.4849
 3212SOL    HW121098   3.266   1.356  17.177  0.7287  2.6921 -0.2626
 3212SOL    HW221099   3.405   1.329  17.143  0.2282  1.0600  0.5941
 3213SOL     OW21100   2.977   1.491  12.016  0.1530 -0.0801  0.0551
 3213SOL    HW121101   2.892   1.452  11.994  0.3192  0.3294 -1.2858
 3213SOL    HW221102   2.985   1.492  12.112 -2.1404  0.4889  0.2341
 3214SOL     OW21103   4.242   4.186   2.541  0.1858 -0.1344  0.4877
 3214SOL    HW121104   4.231   4.091   2.537  1.4956 -0.2664  0.0037
 3214SOL    HW221105   4.304   4.210   2.471 -2.4676  0.2168 -1.7161
 3215SOL     OW21106   2.967   3.280   9.242  0.6074  0.5563  0.4621
 3215SOL    HW121107   2.872   3.274   9.255  0.6037 -0.6605 -0.1731
 3215SOL    HW221108   2.985   3.247   9.330 -2.3550  0.4709  1.0243
 3216SOL     OW21109   4.100   0.340  16.752 -0.3306  0.5493 -0.5073
 3216SOL    HW121110   4.082   0.246  16.752 -0.2666  0.5232  1.0322
 3216SOL    HW221111   4.136   0.350  16.840  3.1611 -0.8495 -1.7919
 3217SOL     OW21112   4.189   4.156  14.550 -0.2523 -0.7256  0.1259
 3217SOL    HW121113   4.183   4.124  14.641 -0.1491 -0.5268  0.2014
 3217SOL    HW221114   4.274   4.198  14.560 -1.5051  1.5070  1.3761
 3218SOL     OW21115   2.988   4.496   5.900  0.6806 -0.3741  0.1679
 3218SOL    HW121116   2.918   4.482   5.964  1.7447  0.5009  1.5264
 3218SOL    HW221117   3.002   4.586   5.928 -1.9721  0.1216 -0.0544
 3219SOL     OW21118   1.370   2.724   3.761  0.1109 -0.3844 -0.1625
 3219SOL    HW121119   1.393   2.631   3.758  1.9687  0.0101  1.5153
 3219SOL    HW221120   1.337   2.732   3.850 -0.9985 -0.9506 -0.5221
 3220SOL     OW21121   2.567   4.435   3.962 -0.0612 -0.8594  0.4964
 3220SOL    HW121122   2.620   4.356   3.969 -1.3471 -1.3583  4.5831
 3220SOL    HW221123   2.639   4.498   3.973  0.5901 -1.3876 -0.8377
 3221SOL     OW21124   3.350   3.905   5.128 -0.3467  0.2519  0.2046
 3221SOL    HW121125   3.309   3.955   5.199 -0.7495 -1.3924  1.1319
 3221SOL    HW221126   3.392   3.835   5.177 -1.8784 -0.8452 -0.0596
 3222SOL     OW21127   3.230   0.614   4.746 -0.4833 -0.2227 -0.4136
 3222SOL    HW121128   3.307   0.642   4.795 -0.2350 -1.1453 -0.2755
 3222SOL    HW221129   3.214   0.677   4.677 -1.8905  1.8242  1.7738
 3223SOL     OW21130   1.616   3.526  13.161 -0.2498 -0.0404 -0.4526
 3223SOL    HW121131   1.581   3.437  13.152 -1.0881  0.1861  0.5529
 3223SOL    HW221132   1.584   3.554  13.075 -0.4008  1.8196  0.2157
 3224SOL     OW21133   3.782   0.899   5.041 -0.5448  0.3961  0.7412
 3224SOL    HW121134   3.874   0.913   5.019 -0.5352 -0.4226  0.2600
 3224SOL    HW221135   3.738   0.957   4.978  0.9307 -0.1459 -0.7804
 3225SOL     OW21136   1.718   2.626   5.477  0.3329  0.5004 -0.3160
 3225SOL    HW121137   1.794   2.609   5.423  0.0991  0.0405 -0.4985
 3225SOL    HW221138   1.656   2.631   5.404 -0.4994 -1.0534  0.2953
 3226SOL     OW21139   4.349   0.922   3.531 -0.3776 -0.6349 -0.0331
 3226SOL    HW121140   4.349   0.839   3.482  0.6362 -0.1497 -0.8664
 3226SOL    HW221141   4.282   0.963   3.477  1.5334  1.6032 -0.7314
 3227SOL     OW21142   2.803   0.867   4.187 -0.2573 -0.4799  0.3816
 3227SOL    HW121143   2.717   0.886   4.225 -0.4412 -3.0522  1.2604
 3227SOL    HW221144   2.803   0.773   4.168 -2.6937 -0.2351 -0.8696
 3228SOL     OW21145   3.118   4.566   2.086 -0.2217  0.1328 -0.7077
 3228SOL    HW121146   3.193   4.620   2.062  2.1314 -2.9388 -0.3402
 3228SOL    HW221147   3.091   4.540   1.998  0.1147 -2.5736 -0.0011
 3229SOL     OW21148   0.331   1.212   9.052 -0.0419  0.3192 -0.1632
 3229SOL    HW121149   0.414   1.169   9.070 -1.6001 -2.3462  0.5509
 3229SOL    HW221150   0.301   1.245   9.137  0.3583 -1.3482  0.6169
 3230SOL     OW21151   4.202   4.433   2.251  0.2111  0.2056  0.3421
 3230SOL    HW121152   4.282   4.389   2.280 -0.2009 -1.7833 -1.5475
 3230SOL    HW221153   4.153   4.425   2.333 -1.9528  0.2335 -0.9709
 3231SOL     OW21154   1.286   1.783  17.179  0.1330 -0.5294 -0.3338
 3231SOL    HW121155   1.231   1.718  17.223 -0.1216  0.9894  1.5924
 3231SOL    HW221156   1.360   1.735  17.142 -1.5908 -1.9278 -1.9702
 3232SOL     OW21157   3.233   2.424   1.443  0.1454  0.4100 -0.2885
 3232SOL    HW121158   3.317   2.470   1.431  0.5629 -0.7352 -1.7846
 3232SOL    HW221159   3.189   2.451   1.362 -0.6230  0.5819  0.1865
 3233SOL     OW21160   3.380   1.004   2.490  0.1216 -0.6401  0.7408
 3233SOL    HW121161   3.426   1.036   2.413 -0.2025  1.4514  1.4147
 3233SOL    HW221162   3.292   0.995   2.455 -0.3984  1.0939  1.6323
 3234SOL     OW21163   3.985   0.175   3.759  0.0238  0.5473 -0.0063
 3234SOL    HW121164   4.062   0.200   3.707 -0.0695 -0.0818 -0.4465
 3234SOL    HW221165   4.007   0.226   3.837  1.6008 -0.7038  0.3668
 3235SOL     OW21166   3.524   4.434   7.657  0.6768  0.0481 -0.3814
 3235SOL    HW121167   3.510   4.515   7.705 -0.0580 -0.4228  0.2051
 3235SOL    HW221168   3.578   4.465   7.584 -0.0009 -1.3882 -1.4955
 3236SOL     OW21169   1.848   4.374  14.286  0.0839  0.3157  0.4267
 3236SOL    HW121170   1.802   4.458  14.294 -1.2583 -0.2689 -1.1016
 3236SOL    HW221171   1.786   4.327  14.342 -0.5804 -0.9529 -1.3629
 3237SOL     OW21172   0.444   0.945   4.829 -0.0559  0.2145 -0.4970
 3237SOL    HW121173   0.489   1.010   4.881 -0.1811 -0.3980  0.3765
 3237SOL    HW221174   0.430   0.890   4.906  1.4850  0.7372  0.1341
 3238SOL     OW21175   4.714   2.077   2.959  0.1154  0.4462 -0.4874
 3238SOL    HW121176   4.627   2.116   2.945  0.7773  1.4506 -1.8270
 3238SOL    HW221177   4.692   2.019   3.032 -2.8820 -0.4382 -2.0853
 3239SOL     OW21178   3.429   3.585   1.548  0.0561 -0.1823  0.2723
 3239SOL    HW121179   3.445   3.559   1.639 -1.5417 -2.0515  0.0236
 3239SOL    HW221180   3.413   3.679   1.553 -2.0034 -0.5845  1.1249
 3240SOL     OW21181   3.729   1.335   4.685 -0.0344 -0.5508  0.9873
 3240SOL    HW121182   3.820   1.316   4.663 -0.4925 -2.2877  0.5889
 3240SOL    HW221183   3.712   1.429   4.683 -0.6893 -0.7112 -1.2064
 3241SOL     OW21184   1.694   3.344   7.153 -0.0662 -0.3564  0.1318
 3241SOL    HW121185   1.751   3.287   7.101 -1.1558 -0.7424 -0.6378
 3241SOL    HW221186   1.731   3.431   7.140 -0.5302  0.1988  2.4679
 3242SOL     OW21187   0.296   0.547   4.202 -0.3437  0.6328  0.4904
 3242SOL    HW121188   0.362   0.477   4.203 -0.4692  0.5061  0.1604
 3242SOL    HW221189   0.352   0.624   4.195  1.2664 -0.2900  3.1582
 3243SOL     OW21190   2.986   3.061   9.068  0.7579 -0.1037  0.1309
 3243SOL    HW121191   2.982   3.134   9.131 -2.1340  0.0127 -0.1835
 3243SOL    HW221192   2.995   3.114   8.989  1.6657 -1.5717 -0.7362
 3244SOL     OW21193   4.063   1.458  11.897 -0.4938  0.5426  0.0248
 3244SOL    HW121194   4.088   1.547  11.920 -0.0736  0.4653 -0.1439
 3244SOL    HW221195   4.144   1.419  11.864 -0.7804  0.2507 -0.3421
 3245SOL     OW21196   4.408   3.658  14.635  0.2565  0.1040 -0.9414
 3245SOL    HW121197   4.383   3.745  14.603  0.8491  1.5317  2.4956
 3245SOL    HW221198   4.490   3.667  14.682 -0.1759  0.6305 -0.2854
 3246SOL     OW21199   2.228   0.457   4.865  0.0045 -0.6762 -0.3019
 3246SOL    HW121200   2.192   0.545   4.869 -0.6864 -0.9310 -0.9308
 3246SOL    HW221201   2.269   0.443   4.951 -0.7899 -0.4847  0.1059
 3247SOL     OW21202   2.085   1.430  12.357  0.0856 -0.2909 -0.7127
 3247SOL    HW121203   2.110   1.425  12.264  2.6532 -2.9643  0.1384
 3247SOL    HW221204   1.990   1.426  12.351  0.1155 -0.8285 -0.8385
 3248SOL     OW21205   1.167   1.369   4.577  0.9390  0.9579 -0.9823
 3248SOL    HW121206   1.207   1.317   4.508  3.0921 -0.6642  1.4834
 3248SOL    HW221207   1.120   1.433   4.523 -0.4757 -0.2986 -1.2270
 3249SOL     OW21208   1.425   3.916  10.193  0.2031  0.4847 -0.2013
 3249SOL    HW121209   1.382   3.853  10.251  0.2751  0.2479 -0.4058
 3249SOL    HW221210   1.375   3.996  10.207 -0.3640  0.0544  0.2467
 3250SOL     OW21211   1.221   1.947  13.187  0.5977 -0.0377  0.3618
 3250SOL    HW121212   1.295   1.887  13.197  0.3645 -0.4449 -0.3087
 3250SOL    HW221213   1.253   1.980  13.103  3.1371 -0.2392  1.2535
 3251SOL     OW21214   2.354   4.554  17.498 -0.0768 -0.4035 -0.0625
 3251SOL    HW121215   2.289   4.494  17.534  0.0824 -0.1832  0.5852
 3251SOL    HW221216   2.402   4.577  17.577 -1.2518 -1.0719  0.8343
 3252SOL     OW21217   2.998   4.473  15.944  0.2569  0.1942  0.0346
 3252SOL    HW121218   3.029   4.519  16.022 -0.5844  1.5211 -0.4121
 3252SOL    HW221219   2.904   4.493  15.941  0.1344 -0.4617 -0.4609
 3253SOL     OW21220   3.368   4.559   4.622  0.2005 -0.0914  0.1074
 3253SOL    HW121221   3.461   4.560   4.645 -0.2226 -2.1496  1.8394
 3253SOL    HW221222   3.338   4.644   4.654 -2.9136 -0.9207 -0.6443
 3254SOL     OW21223   3.825   2.740  16.057 -0.8273 -0.2393  0.2782
 3254SOL    HW121224   3.795   2.752  15.967 -0.0697  1.7093  0.2710
 3254SOL    HW221225   3.916   2.772  16.053 -0.5643 -0.9763  0.3656
 3255SOL     OW21226   4.092   3.018   0.806  0.2429  0.2800 -0.2173
 3255SOL    HW121227   4.103   2.938   0.858 -0.1165  0.3724 -0.0010
 3255SOL    HW221228   4.135   2.986   0.727 -0.8546  0.3886 -0.8674
 3256SOL     OW21229   1.012   0.087   4.010  0.3739 -0.3108 -0.1100
 3256SOL    HW121230   0.924   0.111   4.039  0.6844  0.9367 -0.2046
 3256SOL    HW221231   1.075   0.116   4.076 -0.5596  2.5014 -0.4759
 3257SOL     OW21232   0.817   0.732   4.745  0.3420  0.7824  0.4856
 3257SOL    HW121233   0.732   0.689   4.745  1.1452 -0.7716 -0.0327
 3257SOL    HW221234   0.833   0.743   4.652 -1.9990 -1.2343 -0.1349
 3258SOL     OW21235   2.700   0.034  10.318 -0.1565  0.1529 -0.3062
 3258SOL    HW121236   2.709   4.718  10.232  1.1176 -0.2522  0.0086
 3258SOL    HW221237   2.612   0.003  10.338  0.4852 -1.4804  0.0926
 3259SOL     OW21238   4.630   3.869   8.033 -0.0674 -0.3656  0.0494
 3259SOL    HW121239   4.618   3.908   7.947  3.5524 -0.7431 -0.6326
 3259SOL    HW221240   4.684   3.793   8.010  1.3507  0.3134  1.1292
 3260SOL     OW21241   1.183   1.117  11.490  0.1704  0.0300 -0.2989
 3260SOL    HW121242   1.240   1.040  11.495 -1.6287 -1.3954 -1.5890
 3260SOL    HW221243   1.130   1.115  11.570 -0.5671 -0.3440 -0.7907
 3261SOL     OW21244   0.166   2.620   4.277 -0.5714 -0.5201 -0.1938
 3261SOL    HW121245   0.253   2.583   4.267 -0.4237 -0.5135  1.1256
 3261SOL    HW221246   0.128   2.562   4.344 -0.1030  0.9337  1.3238
 3262SOL     OW21247   2.879   3.910   7.466 -0.5375 -1.0507  0.1648
 3262SOL    HW121248   2.828   3.931   7.389 -3.5267  0.7573  2.6468
 3262SOL    HW221249   2.834   3.830   7.495  0.4115 -1.5396  0.3217
 3263SOL     OW21250   3.568   1.696   2.464 -1.0079 -0.3299 -0.0931
 3263SOL    HW121251   3.487   1.709   2.414 -0.8823 -0.2976 -0.2858
 3263SOL    HW221252   3.627   1.652   2.403 -0.4716 -0.7209  0.7228
 3264SOL     OW21253   1.502   2.101   5.130 -0.0054 -0.1179 -0.2764
 3264SOL    HW121254   1.566   2.065   5.068 -0.0956 -1.1611  0.2417
 3264SOL    HW221255   1.438   2.036   5.159  0.4141 -0.3951  0.0438
 3265SOL     OW21256   2.243   0.680   6.976  0.0128  1.0015  0.2031
 3265SOL    HW121257   2.220   0.725   7.057 -1.1395 -0.3231  0.5986
 3265SOL    HW221258   2.277   0.752   6.922  1.3704  0.8661  0.8733
 3266SOL     OW21259   4.232   2.494   7.866 -0.3066  0.3381 -0.1775
 3266SOL    HW121260   4.225   2.589   7.877 -0.1177  0.4183 -0.7141
 3266SOL    HW221261   4.226   2.472   7.773 -1.3607 -2.0813  0.4795
 3267SOL     OW21262   0.115   1.313   9.576 -0.3075  0.0893 -0.3322
 3267SOL    HW121263   0.193   1.332   9.628  0.5377  0.7778 -1.8723
 3267SOL    HW221264   0.130   1.361   9.495 -3.2759 -2.3790 -2.3600
 3268SOL     OW21265   0.859   0.770   1.617  0.0611 -0.0612 -0.2318
 3268SOL    HW121266   0.877   0.862   1.596  0.6988 -1.0140 -3.8678
 3268SOL    HW221267   0.886   0.750   1.707  2.0970  0.3595 -0.7609
 3269SOL     OW21268   0.233   1.170  17.146 -0.5297 -0.0988 -0.5517
 3269SOL    HW121269   0.195   1.206  17.066 -0.9453 -1.3824 -0.9243
 3269SOL    HW221270   0.174   1.195  17.217 -0.3329  1.0759 -0.8007
 3270SOL     OW21271   2.545   4.648   5.024  0.4254  0.3313 -0.0544
 3270SOL    HW121272   2.476   4.713   5.013  0.5407  0.1467 -1.8769
 3270SOL    HW221273   2.507   4.571   4.982  0.5590 -0.1031  0.6156
 3271SOL     OW21274   2.462   2.241   2.129 -0.1936  0.0056  0.2383
 3271SOL    HW121275   2.544   2.237   2.078 -0.8057 -1.5787 -0.6526
 3271SOL    HW221276   2.410   2.271   2.055 -1.1257 -0.8016  0.5772
 3272SOL     OW21277   3.691   2.509   8.201  0.2211  0.4513 -0.5034
 3272SOL    HW121278   3.750   2.527   8.128  0.9505  1.1517  0.2644
 3272SOL    HW221279   3.717   2.419   8.224  0.1669  0.3759 -0.7345
 3273SOL     OW21280   4.117   2.617   5.411 -0.2889 -0.0802 -0.5935
 3273SOL    HW121281   4.137   2.689   5.471  0.7758 -1.6475  0.9463
 3273SOL    HW221282   4.186   2.633   5.346  2.0332 -0.1763  1.8280
 3274SOL     OW21283   0.421   3.380  11.772 -0.3053 -0.2529 -0.8441
 3274SOL    HW121284   0.411   3.458  11.718 -1.5182  0.7140  0.7675
 3274SOL    HW221285   0.503   3.402  11.816 -0.8769 -0.6373  0.4053
 3275SOL     OW21286   3.545   2.311  15.134  0.3873  0.2775 -0.3456
 3275SOL    HW121287   3.607   2.334  15.204 -1.1873 -0.5245  1.3029
 3275SOL    HW221288   3.583   2.359  15.060 -1.5641 -1.1276 -2.2704
 3276SOL     OW21289   3.065   4.503  11.209  0.7825  0.7707 -0.5358
 3276SOL    HW121290   3.144   4.555  11.198  1.3414  0.2645  1.0927
 3276SOL    HW221291   3.098   4.417  11.181 -2.6834 -0.4191 -1.0296
 3277SOL     OW21292   3.256   3.859   2.178  0.3122 -0.1690 -0.0794
 3277SOL    HW121293   3.255   3.947   2.215  1.7931  0.3501 -1.3061
 3277SOL    HW221294   3.243   3.872   2.084 -1.2592  0.2510  0.1989
 3278SOL     OW21295   1.223   1.331  11.366 -0.3746 -0.1413  0.1099
 3278SOL    HW121296   1.156   1.377  11.416 -0.5157  0.3648 -0.5395
 3278SOL    HW221297   1.229   1.247  11.411  2.6517  0.7436  1.3634
 3279SOL     OW21298   1.906   1.609   4.253  0.0626  0.1867 -0.4664
 3279SOL    HW121299   1.978   1.659   4.291  1.0156 -1.6310  0.1340
 3279SOL    HW221300   1.948   1.565   4.179 -1.5513  0.4464 -1.5282
 3280SOL     OW21301   3.138   2.850   3.226  0.2187 -0.7011 -0.3088
 3280SOL    HW121302   3.094   2.765   3.225  1.1917 -1.2046 -0.7793
 3280SOL    HW221303   3.147   2.871   3.319 -3.3669 -0.1396 -0.1011
 3281SOL     OW21304   2.446   0.577   8.159  0.4022  0.3063 -0.6634
 3281SOL    HW121305   2.507   0.608   8.092 -2.5942  2.8583 -2.1914
 3281SOL    HW221306   2.490   0.496   8.187  1.4368  1.1838  0.2743
 3282SOL     OW21307   3.988   4.044   2.297 -0.0126  0.4032  0.3753
 3282SOL    HW121308   4.079   4.017   2.294  0.4013  1.8675 -0.5395
 3282SOL    HW221309   3.977   4.084   2.383 -1.5173 -2.9818  1.7701
 3283SOL     OW21310   3.578   0.702   8.860 -0.3271 -0.5915 -0.2611
 3283SOL    HW121311   3.567   0.749   8.778  0.1045  1.0371  0.6163
 3283SOL    HW221312   3.492   0.663   8.872 -1.0376  1.5321  1.4384
 3284SOL     OW21313   1.573   4.536  17.626  0.2240 -0.2332 -0.4170
 3284SOL    HW121314   1.584   4.537  17.531  0.8397 -0.7515 -0.3458
 3284SOL    HW221315   1.624   4.460  17.654  1.2165  0.3202 -0.7411
 3285SOL     OW21316   4.314   3.595  11.524 -0.1731 -0.0705  0.1097
 3285SOL    HW121317   4.334   3.575  11.433  0.0628  1.7623 -0.2483
 3285SOL    HW221318   4.219   3.591  11.517 -0.0990 -0.3820 -0.6824
 3286SOL     OW21319   0.724   3.722   5.371 -0.7418 -0.1467 -0.2452
 3286SOL    HW121320   0.788   3.706   5.440 -0.1115  0.4423 -0.6923
 3286SOL    HW221321   0.775   3.754   5.297  0.8858 -2.1443  0.0214
 3287SOL     OW21322   3.698   4.067   2.252  0.1861  0.5520 -0.7689
 3287SOL    HW121323   3.730   4.152   2.282  0.5453 -0.1394  0.8036
 3287SOL    HW221324   3.770   4.009   2.277 -1.9128 -0.7628  2.2919
 3288SOL     OW21325   1.277   2.340   6.119 -0.3928  1.4122  0.4261
 3288SOL    HW121326   1.300   2.422   6.075  2.9562 -1.6048 -3.3973
 3288SOL    HW221327   1.313   2.359   6.207 -0.6522  2.3635  0.3274
 3289SOL     OW21328   1.322   1.805  12.716 -0.1180  0.5325  0.8901
 3289SOL    HW121329   1.254   1.738  12.725  0.5182  0.0242  1.9366
 3289SOL    HW221330   1.272   1.862  12.658 -0.7306  0.6277  1.5129
 3290SOL     OW21331   3.136   3.884   4.949 -0.3745 -0.0740  0.2485
 3290SOL    HW121332   3.205   3.905   5.012  0.8568  0.3291 -1.2327
 3290SOL    HW221333   3.152   3.790   4.958 -0.4932 -0.1618 -0.4594
 3291SOL     OW21334   2.228   2.896   8.796  0.3401  0.3378  0.2823
 3291SOL    HW121335   2.209   2.841   8.720 -1.0794  1.9624 -0.5442
 3291SOL    HW221336   2.323   2.883   8.801  0.3787  0.3558 -0.3286
 3292SOL     OW21337   1.117   0.909   5.850 -0.1808  0.1214 -0.5652
 3292SOL    HW121338   1.102   0.985   5.905 -0.2574  0.7522 -1.4601
 3292SOL    HW221339   1.134   0.954   5.767  1.2864  1.0811  0.2543
 3293SOL     OW21340   1.220   0.781   1.914 -0.0831 -0.5024 -0.1899
 3293SOL    HW121341   1.232   0.687   1.903 -0.0947 -0.4812 -0.3845
 3293SOL    HW221342   1.250   0.819   1.831 -0.8888  0.4954 -0.0328
 3294SOL     OW21343   4.493   1.628   5.530 -0.7963 -0.3299  0.2603
 3294SOL    HW121344   4.407   1.607   5.493 -0.0537 -3.0203  0.0746
 3294SOL    HW221345   4.471   1.600   5.619  2.1786  0.6116  1.3050
 3295SOL     OW21346   2.049   2.381   5.081 -0.4110 -0.3952  0.1339
 3295SOL    HW121347   2.130   2.401   5.127 -0.8998 -0.6294  1.0921
 3295SOL    HW221348   2.065   2.403   4.989 -1.2701  1.7088  0.4656
 3296SOL     OW21349   3.342   0.427  12.162 -0.2689 -0.6112  0.1509
 3296SOL    HW121350   3.344   0.336  12.191  0.1528 -1.0840 -1.3801
 3296SOL    HW221351   3.277   0.469  12.219 -1.0982 -1.4029 -0.2101
 3297SOL     OW21352   4.529   0.712   7.219  0.4914  0.3464 -0.2454
 3297SOL    HW121353   4.586   0.638   7.199  0.7900  0.0086  1.9194
 3297SOL    HW221354   4.590   0.776   7.255 -0.6402  0.5194  1.3638
 3298SOL     OW21355   2.211   4.678   6.180 -0.2065 -0.1831  0.1737
 3298SOL    HW121356   2.254   4.595   6.154 -1.8231 -1.0596  0.3111
 3298SOL    HW221357   2.126   4.652   6.214  0.5582  0.3338  2.4729
 3299SOL     OW21358   2.559   0.413   3.363  0.0495 -0.4198 -0.0546
 3299SOL    HW121359   2.624   0.449   3.303  1.0070  0.2322  1.3932
 3299SOL    HW221360   2.500   0.488   3.363  0.7181  0.1030 -1.3474
 3300SOL     OW21361   4.458   3.211   8.941  0.4629 -0.0447  0.6352
 3300SOL    HW121362   4.533   3.215   9.001  0.9897 -1.9586  0.0780
 3300SOL    HW221363   4.394   3.183   9.007  0.0614 -0.4635  0.0583
 3301SOL     OW21364   1.236   2.507   4.205 -0.1909  0.7037  0.1193
 3301SOL    HW121365   1.163   2.566   4.225  2.0742  3.6956 -0.5474
 3301SOL    HW221366   1.227   2.454   4.284 -1.4829  1.0414  0.2010
 3302SOL     OW21367   2.148   4.115   4.622  0.8650  0.0734  0.0923
 3302SOL    HW121368   2.054   4.117   4.606  0.6535 -1.9201  1.0195
 3302SOL    HW221369   2.179   4.059   4.550 -0.2815 -0.5882  0.1028
 3303SOL     OW21370   3.513   2.403   8.536  0.6452  0.0349 -0.3288
 3303SOL    HW121371   3.571   2.474   8.510  0.4375  0.2019 -0.3400
 3303SOL    HW221372   3.507   2.351   8.456 -0.1425 -0.5787  0.1245
 3304SOL     OW21373   2.894   3.021   7.440 -0.0505  0.1778  0.1922
 3304SOL    HW121374   2.960   3.086   7.464  0.4427  0.3395 -1.6342
 3304SOL    HW221375   2.867   2.999   7.530 -1.1457 -0.3141 -0.2538
 3305SOL     OW21376   0.530   4.695   3.401 -0.1189  0.0562  0.3865
 3305SOL    HW121377   0.591   4.621   3.407 -0.3913 -0.2967 -1.1670
 3305SOL    HW221378   0.532   4.701   3.305  0.3127 -0.4704  0.3593
 3306SOL     OW21379   0.925   3.592  13.081 -0.1557  0.1581 -0.3049
 3306SOL    HW121380   0.978   3.591  13.161 -0.7363  2.3515  0.1333
 3306SOL    HW221381   0.940   3.679  13.044  0.5247  0.8099  1.5049
 3307SOL     OW21382   1.635   1.995  17.222  0.1164 -0.3546 -0.1352
 3307SOL    HW121383   1.595   2.004  17.309 -0.4398  1.9975 -0.6497
 3307SOL    HW221384   1.558   1.988  17.166  0.3477 -1.2901 -0.3389
 3308SOL     OW21385   2.764   2.265   5.319  0.2761  0.2761 -0.4746
 3308SOL    HW121386   2.823   2.190   5.326  2.4924  2.1735  1.2336
 3308SOL    HW221387   2.811   2.322   5.258  2.4073 -0.4641  0.4589
 3309SOL     OW21388   2.907   3.565   4.028 -0.2734  0.1715 -0.7204
 3309SOL    HW121389   2.944   3.477   4.029 -1.5331 -0.3560 -2.1718
 3309SOL    HW221390   2.819   3.544   3.997  0.3641 -1.3704 -1.4772
 3310SOL     OW21391   0.633   3.762   3.183  0.3109 -0.3117 -0.1659
 3310SOL    HW121392   0.595   3.682   3.145  0.7797 -1.4786  1.8448
 3310SOL    HW221393   0.672   3.808   3.108 -1.7651  1.4724 -0.1436
 3311SOL     OW21394   4.470   0.482   5.784  0.5066 -0.2284 -0.3565
 3311SOL    HW121395   4.556   0.440   5.793  0.5501  0.0865  0.5976
 3311SOL    HW221396   4.477   0.520   5.696 -2.5656  3.4600  1.0154
 3312SOL     OW21397   1.516   4.376   8.435  0.0064  0.1019 -0.1626
 3312SOL    HW121398   1.513   4.291   8.391  0.2419  0.6676 -1.2792
 3312SOL    HW221399   1.484   4.431   8.364 -0.6859 -1.9685 -1.4400
 3313SOL     OW21400   0.512   1.618   1.773  0.0203  0.2501  0.2244
 3313SOL    HW121401   0.456   1.693   1.792  0.8679  1.5956 -2.4788
 3313SOL    HW221402   0.465   1.553   1.825  0.3843 -0.5055 -0.3898
 3314SOL     OW21403   1.557   1.544   7.907 -0.2587  0.1275 -0.3818
 3314SOL    HW121404   1.500   1.549   7.983 -0.6577  1.3543 -0.7585
 3314SOL    HW221405   1.638   1.506   7.942 -0.5852 -0.5138 -0.3218
 3315SOL     OW21406   3.908   0.926   4.489 -0.7590  0.3266 -0.5146
 3315SOL    HW121407   3.982   0.968   4.446 -1.2257 -0.8562 -2.4520
 3315SOL    HW221408   3.955   0.878   4.557  1.2472  0.9607 -1.4668
 3316SOL     OW21409   1.635   2.322   0.453  0.0943  0.2760  0.2329
 3316SOL    HW121410   1.649   2.307   0.547 -1.8057  1.4714  0.7013
 3316SOL    HW221411   1.584   2.244   0.430 -0.5022  0.6130  0.4237
 3317SOL     OW21412   3.973   3.902  16.422  0.6577  0.2292  0.8106
 3317SOL    HW121413   3.982   3.991  16.455  2.4216  0.5614 -0.5793
 3317SOL    HW221414   3.897   3.908  16.365 -0.0442 -0.4068  1.6716
 3318SOL     OW21415   1.308   0.930  13.588 -0.5846 -0.0138 -0.4678
 3318SOL    HW121416   1.215   0.927  13.563 -1.6989  0.0815  3.6345
 3318SOL    HW221417   1.337   0.847  13.551 -1.7009 -0.6216  0.0102
 3319SOL     OW21418   2.714   1.221   1.992  0.3878  0.0318  0.1726
 3319SOL    HW121419   2.634   1.201   2.041 -0.4399 -1.0703 -1.6196
 3319SOL    HW221420   2.781   1.209   2.059  0.8361 -1.4271 -0.5207
 3320SOL     OW21421   0.617   1.093   8.254  0.1033 -0.4006 -0.2059
 3320SOL    HW121422   0.585   1.127   8.337 -2.2363  1.2079 -1.7548
 3320SOL    HW221423   0.543   1.127   8.204  1.9812  2.1484 -1.2779
 3321SOL     OW21424   4.496   4.278   2.926 -0.2343  0.2435 -0.0717
 3321SOL    HW121425   4.533   4.190   2.915 -0.7896  0.3244 -2.5377
 3321SOL    HW221426   4.405   4.263   2.903 -0.4895 -0.3625  1.3038
 3322SOL     OW21427   0.654   0.096   1.907  0.7616  0.3013 -0.3088
 3322SOL    HW121428   0.582   0.038   1.932 -0.2993  1.2476 -1.1734
 3322SOL    HW221429   0.652   0.161   1.977 -1.4006 -1.5180  1.3296
 3323SOL     OW21430   3.085   1.754   3.301 -0.1908  0.1009 -0.9024
 3323SOL    HW121431   3.165   1.804   3.284 -0.6068  0.6764 -1.1790
 3323SOL    HW221432   3.114   1.666   3.277 -3.0458 -0.1902 -3.2419
 3324SOL     OW21433   0.556   3.375  15.676 -0.0773  0.5080 -0.0754
 3324SOL    HW121434   0.626   3.376  15.611 -0.2086 -0.8500 -0.2361
 3324SOL    HW221435   0.477   3.374  15.622 -0.1832 -0.2678  0.0899
 3325SOL     OW21436   4.332   1.283   7.937 -0.1677 -0.7714  0.0007
 3325SOL    HW121437   4.399   1.260   8.001 -0.9342 -0.5039  0.9025
 3325SOL    HW221438   4.369   1.370   7.924 -0.3854 -0.6747  0.0234
 3326SOL     OW21439   4.672   0.303   1.476 -0.1911 -0.0433 -0.3204
 3326SOL    HW121440   4.652   0.263   1.560 -0.2117  0.5162 -0.0572
 3326SOL    HW221441   4.581   0.310   1.444 -0.9179  0.6661  1.9423
 3327SOL     OW21442   0.240   4.316  16.398 -0.9865 -0.5374 -1.1123
 3327SOL    HW121443   0.153   4.348  16.373 -0.3376  3.2932  1.5695
 3327SOL    HW221444   0.219   4.266  16.477 -1.0427  0.4791 -0.4866
 3328SOL     OW21445   1.197   1.884   1.198 -0.3031 -0.4127  0.5577
 3328SOL    HW121446   1.132   1.868   1.131  2.8715 -1.7492 -2.2197
 3328SOL    HW221447   1.188   1.979   1.195  2.0354 -0.2043  0.2084
 3329SOL     OW21448   0.119   3.907   2.976  0.3570  0.3789  0.6372
 3329SOL    HW121449   0.095   3.853   2.901 -0.4865  0.5222  0.8005
 3329SOL    HW221450   0.210   3.877   2.980  0.1158 -0.3635  0.3977
 3330SOL     OW21451   3.017   2.078  16.428  0.2131 -0.0703  0.6170
 3330SOL    HW121452   2.987   2.141  16.362  2.0500  1.1372  0.9431
 3330SOL    HW221453   3.032   2.004  16.369  1.1340 -0.3588  1.2262
 3331SOL     OW21454   0.207   3.122   4.695  0.1342  0.7632 -0.0404
 3331SOL    HW121455   0.262   3.132   4.773  0.2229 -1.1945  0.1530
 3331SOL    HW221456   0.191   3.213   4.669  0.7405  0.6821 -0.6802
 3332SOL     OW21457   2.446   2.497   4.014  0.0246  0.2523 -0.2706
 3332SOL    HW121458   2.369   2.545   3.983  0.6370  1.0472 -0.5422
 3332SOL    HW221459   2.527   2.543   3.994 -0.1712  0.0338 -1.5685
 3333SOL     OW21460   1.685   0.542   3.519  0.2158  0.1329  0.2333
 3333SOL    HW121461   1.655   0.544   3.428 -0.0664  0.2986  0.3314
 3333SOL    HW221462   1.636   0.613   3.559  0.9833 -0.8407  2.9206
 3334SOL     OW21463   1.910   1.480  12.999 -0.0596  0.4192  0.3559
 3334SOL    HW121464   1.994   1.520  12.978  0.1839 -0.0676  0.3986
 3334SOL    HW221465   1.908   1.407  12.938  3.7973  1.1904 -0.6930
 3335SOL     OW21466   4.175   3.773   6.503  0.2170 -0.6217 -0.4793
 3335SOL    HW121467   4.211   3.700   6.453  3.9009 -0.3370  1.7804
 3335SOL    HW221468   4.113   3.722   6.555 -1.1242  1.6196  0.1306
 3336SOL     OW21469   2.003   3.438   2.886 -0.0627 -0.0264 -0.3317
 3336SOL    HW121470   2.086   3.485   2.891 -0.6660  0.6588  3.3037
 3336SOL    HW221471   2.022   3.385   2.810  3.5084 -0.2424  0.7006
 3337SOL     OW21472   2.185   0.083   8.839  0.0507  0.5365  0.4375
 3337SOL    HW121473   2.134   0.153   8.797  0.8280  1.6141  1.3056
 3337SOL    HW221474   2.256   0.138   8.871  1.9245 -1.9298  0.5113
 3338SOL     OW21475   0.501   1.371   5.622 -0.5960 -0.3296  0.1131
 3338SOL    HW121476   0.585   1.376   5.575 -0.6439  1.5035  0.2157
 3338SOL    HW221477   0.452   1.324   5.554 -0.1623 -0.0749 -0.3814
 3339SOL     OW21478   1.922   0.754   0.634 -0.5396  0.5661 -0.1168
 3339SOL    HW121479   1.955   0.723   0.550 -0.5709  2.0923 -0.7050
 3339SOL    HW221480   1.877   0.836   0.611 -0.4163  0.9831  1.0928
 3340SOL     OW21481   0.471   1.901   3.159  0.1851  0.0439 -0.0148
 3340SOL    HW121482   0.559   1.874   3.186 -0.0072 -2.6459 -2.0721
 3340SOL    HW221483   0.425   1.823   3.191  1.7109 -0.1873  1.6082
 3341SOL     OW21484   4.275   1.225   5.491 -0.6940 -0.4122 -0.5463
 3341SOL    HW121485   4.264   1.316   5.517  0.2048 -0.6796  0.8123
 3341SOL    HW221486   4.191   1.207   5.449  0.1773 -2.5382 -1.3843
 3342SOL     OW21487   3.259   1.921  11.256 -0.0137 -0.0541  0.2002
 3342SOL    HW121488   3.234   1.971  11.333  0.2928  0.2298  0.1113
 3342SOL    HW221489   3.354   1.922  11.264 -0.0308  0.5483  0.2788
 3343SOL     OW21490   3.309   4.345   6.205 -0.4741 -0.1477 -0.5226
 3343SOL    HW121491   3.318   4.302   6.120  1.5295  0.4847 -0.6118
 3343SOL    HW221492   3.271   4.277   6.262 -0.9482  2.7039  2.5601
 3344SOL     OW21493   4.699   3.845   4.745 -0.0796 -0.8571  0.4180
 3344SOL    HW121494   4.657   3.834   4.830 -1.6594 -1.6635 -0.4804
 3344SOL    HW221495   4.629   3.858   4.681  0.1887 -1.9355 -0.0966
 3345SOL     OW21496   0.221   2.361   7.891  0.4986  0.0510 -0.7043
 3345SOL    HW121497   0.300   2.332   7.937 -0.1317 -0.2335  0.1996
 3345SOL    HW221498   0.158   2.291   7.906  0.5768  0.1250 -0.0318
 3346SOL     OW21499   4.168   3.706   1.644 -0.4791  0.2392  0.2196
 3346SOL    HW121500   4.195   3.636   1.704  1.3832  0.6339 -0.1477
 3346SOL    HW221501   4.089   3.671   1.604 -0.0006 -0.9319  0.2936
 3347SOL     OW21502   3.197   0.357   3.282  0.2759  0.0364  0.0637
 3347SOL    HW121503   3.267   0.340   3.220 -1.7835 -1.6579 -1.8080
 3347SOL    HW221504   3.172   0.266   3.297  0.8037 -0.0596  0.3673
 3348SOL     OW21505   3.797   1.955   4.905 -0.0274  0.0397 -0.8199
 3348SOL    HW121506   3.878   1.976   4.951 -1.4143  1.0155  1.1794
 3348SOL    HW221507   3.780   1.867   4.938  0.8005  1.7152  4.1614
 3349SOL     OW21508   1.401   4.305   7.328  0.3431  0.0077 -0.2029
 3349SOL    HW121509   1.392   4.261   7.413  1.2287  0.8055  0.3077
 3349SOL    HW221510   1.460   4.248   7.278  3.6845  3.7184 -0.4689
 3350SOL     OW21511   3.151   3.978   7.905 -0.1295  0.1826 -0.3277
 3350SOL    HW121512   3.237   4.015   7.926  0.2483 -0.9442  0.1162
 3350SOL    HW221513   3.139   3.913   7.975  0.3107 -0.1993 -0.6106
 3351SOL     OW21514   4.384   1.269   6.572  0.0984 -0.3040 -0.6284
 3351SOL    HW121515   4.400   1.314   6.489 -0.8939 -0.0406 -0.6775
 3351SOL    HW221516   4.444   1.310   6.634 -0.6747  0.0560 -0.1231
 3352SOL     OW21517   0.203   4.015  15.696 -0.3464 -0.2923  0.7195
 3352SOL    HW121518   0.263   4.063  15.753 -0.3778 -0.1991  0.6729
 3352SOL    HW221519   0.128   3.992  15.751 -0.0258 -0.8745  0.9243
 3353SOL     OW21520   1.317   0.728  13.387  0.1032  0.3431 -0.2068
 3353SOL    HW121521   1.412   0.722  13.376 -0.3330 -1.8626 -2.7671
 3353SOL    HW221522   1.288   0.638  13.399  2.1135 -0.3627 -0.6899
 3354SOL     OW21523   0.527   2.902   4.892 -0.4025  0.0996 -0.3746
 3354SOL    HW121524   0.614   2.864   4.882 -0.4785 -0.7916  2.4571
 3354SOL    HW221525   0.488   2.824   4.854 -0.5998  0.9920 -2.0186
 3355SOL     OW21526   3.058   2.587   4.768 -0.0770  0.2427  0.1419
 3355SOL    HW121527   3.109   2.582   4.848 -0.4447  1.7202  0.4685
 3355SOL    HW221528   3.129   2.594   4.705  0.7934 -1.2717  0.9706
 3356SOL     OW21529   0.248   2.541   3.285 -0.3581 -0.4259  0.2002
 3356SOL    HW121530   0.261   2.482   3.210  2.9572  0.8895 -0.2728
 3356SOL    HW221531   0.225   2.622   3.240  0.8558 -0.9027 -1.2651
 3357SOL     OW21532   0.414   1.712   7.054  0.1851 -0.0810 -0.0640
 3357SOL    HW121533   0.485   1.647   7.055 -1.3301 -1.7070  1.2388
 3357SOL    HW221534   0.343   1.674   7.105  0.1120 -1.0902 -0.9221
 3358SOL     OW21535   2.107   1.414   4.111 -0.0023 -0.4255  0.6339
 3358SOL    HW121536   2.170   1.405   4.182  0.5524 -2.2476 -0.0920
 3358SOL    HW221537   2.148   1.360   4.043 -1.5828  0.1475 -0.7926
 3359SOL     OW21538   3.832   2.735   8.704 -0.0792 -0.0050 -0.4196
 3359SOL    HW121539   3.847   2.828   8.685  0.8616  0.5103  2.8982
 3359SOL    HW221540   3.892   2.726   8.778  0.0398  3.1534 -0.1364
 3360SOL     OW21541   3.685   4.307  13.540  0.6834  0.6453  0.3831
 3360SOL    HW121542   3.672   4.313  13.635 -2.9583 -0.1213 -0.0613
 3360SOL    HW221543   3.717   4.219  13.522  1.7934  1.5848 -2.1787
 3361SOL     OW21544   2.202   1.047   9.607  0.0012 -0.6433 -0.5296
 3361SOL    HW121545   2.130   1.003   9.652 -0.9455 -0.3734 -1.7491
 3361SOL    HW221546   2.226   0.976   9.548 -1.5802  0.9400 -3.1453
 3362SOL     OW21547   2.030   1.171   5.092 -0.2363  0.2224  0.0529
 3362SOL    HW121548   2.021   1.165   5.187 -1.6151 -0.3213 -0.1050
 3362SOL    HW221549   1.938   1.175   5.062 -0.5937  1.6017  1.3668
 3363SOL     OW21550   0.889   1.082   9.709  0.2020 -0.2182  0.9276
 3363SOL    HW121551   0.887   1.056   9.801  3.7057  0.6047  1.2244
 3363SOL    HW221552   0.849   1.003   9.671  2.4871 -0.0923 -1.6630
 3364SOL     OW21553   1.612   1.035   4.023  0.0205  0.0822 -0.3286
 3364SOL    HW121554   1.620   0.986   3.941  0.4266  1.7053 -1.2751
 3364SOL    HW221555   1.638   1.123   3.994  1.0377  0.2843  1.2279
 3365SOL     OW21556   1.603   0.304   3.943  0.2998 -0.1443 -0.1576
 3365SOL    HW121557   1.589   0.210   3.953 -1.2046  0.2852  1.7954
 3365SOL    HW221558   1.588   0.312   3.849  0.8136 -0.2897 -0.2566
 3366SOL     OW21559   3.898   3.563  10.769 -0.7143 -0.4995  0.0660
 3366SOL    HW121560   3.970   3.521  10.722  0.1572  0.2548  0.7030
 3366SOL    HW221561   3.883   3.502  10.841  1.0059 -0.4153  0.5173
 3367SOL     OW21562   0.061   0.864   9.564  0.0904 -0.4572  0.9100
 3367SOL    HW121563   0.154   0.851   9.546  0.1190  0.2328  0.5701
 3367SOL    HW221564   0.044   0.954   9.538  1.1418 -0.3503  0.6064
 3368SOL     OW21565   0.893   4.661  11.543  0.1941 -0.7174 -0.8714
 3368SOL    HW121566   0.957   4.710  11.492  0.9417  0.4022  1.1051
 3368SOL    HW221567   0.839   4.633  11.470 -0.0304 -3.3704  0.2927
 3369SOL     OW21568   4.377   0.180   3.078  0.2181 -0.2277 -0.1434
 3369SOL    HW121569   4.414   0.243   3.017 -0.5016  0.3001 -0.0245
 3369SOL    HW221570   4.286   0.209   3.083  0.8701  1.9812 -0.9721
 3370SOL     OW21571   0.327   2.692   7.682 -0.3094 -0.4207 -0.1078
 3370SOL    HW121572   0.292   2.604   7.673  1.9954 -1.3174 -0.2119
 3370SOL    HW221573   0.341   2.720   7.592 -0.5740  1.5240  0.4366
 3371SOL     OW21574   2.260   1.395  13.424 -0.0550 -0.0907 -0.2840
 3371SOL    HW121575   2.183   1.409  13.369 -0.5978 -0.4785  0.3691
 3371SOL    HW221576   2.322   1.452  13.380 -0.3623  0.3083 -0.1946
 3372SOL     OW21577   1.055   1.977   5.876 -0.1708  0.0052  0.0815
 3372SOL    HW121578   1.125   2.010   5.818  0.4207 -2.2853 -0.5180
 3372SOL    HW221579   1.104   1.902   5.909 -2.6390 -0.9168  1.5830
 3373SOL     OW21580   0.696   1.411   1.184  0.5182  0.2360  0.2400
 3373SOL    HW121581   0.732   1.458   1.260 -0.9327  0.5891  0.6928
 3373SOL    HW221582   0.634   1.354   1.229  0.6939 -0.8823 -0.9607
 3374SOL     OW21583   2.991   0.685   6.855 -0.6250  0.2903  0.0182
 3374SOL    HW121584   3.010   0.620   6.787 -1.8003 -0.3536  0.3123
 3374SOL    HW221585   2.951   0.636   6.926  0.2724 -0.0121  0.3206
 3375SOL     OW21586   4.604   2.652   3.800  0.1577 -0.1359  0.2967
 3375SOL    HW121587   4.536   2.584   3.803  0.9365 -0.8918  0.7766
 3375SOL    HW221588   4.661   2.623   3.870  0.8177  1.2679  0.3378
 3376SOL     OW21589   4.278   4.303   5.213  0.2405  0.5595  0.3567
 3376SOL    HW121590   4.215   4.374   5.202 -0.4211 -0.2862 -1.2722
 3376SOL    HW221591   4.363   4.345   5.202  0.8712 -1.2597 -1.6894
 3377SOL     OW21592   3.552   3.253   5.829 -0.1945  0.2971  0.2489
 3377SOL    HW121593   3.497   3.327   5.807  2.1616  2.8431  2.8921
 3377SOL    HW221594   3.514   3.221   5.911  0.4457 -1.2108 -0.0361
 3378SOL     OW21595   1.255   4.315   6.765 -0.4702  0.0224  0.2725
 3378SOL    HW121596   1.314   4.336   6.838  0.4046  0.7708 -0.6410
 3378SOL    HW221597   1.314   4.345   6.695 -1.0578  0.4168 -0.0610
 3379SOL     OW21598   3.612   4.595  13.771 -0.0033 -0.1717 -0.1109
 3379SOL    HW121599   3.687   4.650  13.797  0.3485 -0.5826 -0.2630
 3379SOL    HW221600   3.659   4.512  13.781  0.2846 -0.1959 -1.6923
 3380SOL     OW21601   0.111   1.948   7.184  0.4054 -0.5084 -0.1372
 3380SOL    HW121602   0.098   1.913   7.273  1.1312  1.0251  0.5618
 3380SOL    HW221603   0.106   1.863   7.139 -0.1568 -0.8350  0.5281
 3381SOL     OW21604   4.711   2.022   4.287  0.2715 -0.7329  0.1524
 3381SOL    HW121605   0.048   2.000   4.356  1.0603 -0.7877 -0.5681
 3381SOL    HW221606   0.035   1.997   4.208  0.4323  0.2403 -0.0563
 3382SOL     OW21607   1.675   3.261   2.375 -0.3733  0.1919 -0.5717
 3382SOL    HW121608   1.715   3.181   2.340 -0.6591  0.6283 -1.9174
 3382SOL    HW221609   1.584   3.249   2.349 -0.6015 -0.1624  0.3811
 3383SOL     OW21610   1.370   1.220   9.157 -0.2632 -0.2083 -0.1903
 3383SOL    HW121611   1.315   1.208   9.234  1.0223  1.3986  0.9793
 3383SOL    HW221612   1.449   1.182   9.194 -0.1340  0.7871  0.5802
 3384SOL     OW21613   1.822   2.412  12.768  0.3748  0.6750 -0.1625
 3384SOL    HW121614   1.908   2.393  12.805  0.3710 -0.8659 -0.9448
 3384SOL    HW221615   1.773   2.406  12.850  0.1957 -0.5229 -0.3479
 3385SOL     OW21616   1.116   4.715  16.299 -0.2523  0.7549  0.2535
 3385SOL    HW121617   1.143   0.034  16.380 -2.0627  2.4059 -0.0586
 3385SOL    HW221618   1.175   4.640  16.307 -0.5269  0.6734  1.5374
 3386SOL     OW21619   4.584   2.413  15.042  0.1176  0.3083  0.0666
 3386SOL    HW121620   4.502   2.463  15.038 -0.1857 -0.2880 -1.2661
 3386SOL    HW221621   4.623   2.451  14.964  2.3592 -2.1647 -0.0304
 3387SOL     OW21622   1.909   0.112   2.188  0.1803 -0.2820 -0.7655
 3387SOL    HW121623   2.003   0.097   2.196 -0.0962 -0.6416  1.7417
 3387SOL    HW221624   1.893   0.120   2.094  1.9176 -0.0844 -1.0429
 3388SOL     OW21625   1.055   1.882  14.531 -0.0908  0.5368  0.2464
 3388SOL    HW121626   1.035   1.947  14.462 -1.0257  0.5694  0.5524
 3388SOL    HW221627   1.052   1.928  14.615 -1.0221 -2.2046  1.6844
 3389SOL     OW21628   4.323   2.313   6.567 -0.2596  0.6228 -0.0606
 3389SOL    HW121629   4.264   2.301   6.493 -2.0194  1.3715  1.2204
 3389SOL    HW221630   4.270   2.277   6.638 -2.4521  2.0133 -0.9974
 3390SOL     OW21631   1.006   2.053   3.270 -0.4179 -0.5383  0.2318
 3390SOL    HW121632   0.981   2.092   3.186  1.8957  0.8238  0.1981
 3390SOL    HW221633   1.085   2.007   3.244 -0.0349  1.7998 -2.6556
 3391SOL     OW21634   0.099   4.333   6.789 -0.2172 -0.1494  0.3604
 3391SOL    HW121635   0.174   4.302   6.840  0.0193  0.8321  0.6308
 3391SOL    HW221636   0.081   4.416   6.834 -0.9455  0.3912 -0.9316
 3392SOL     OW21637   4.265   2.901  11.306  0.1019  0.6673  0.4734
 3392SOL    HW121638   4.240   2.855  11.225  0.2419 -1.3383  1.5613
 3392SOL    HW221639   4.190   2.878  11.361  0.2917  1.6220  1.1275
 3393SOL     OW21640   3.550   1.571   5.654  0.2570  0.4076 -0.7643
 3393SOL    HW121641   3.554   1.614   5.739  2.2521 -0.4787 -0.4233
 3393SOL    HW221642   3.617   1.504   5.643 -1.3223 -0.9431 -2.3068
 3394SOL     OW21643   1.150   0.247   4.184  0.4811 -0.6664 -0.1420
 3394SOL    HW121644   1.243   0.252   4.161  0.0455  0.8372 -1.5886
 3394SOL    HW221645   1.119   0.334   4.158 -2.3585 -1.9601 -1.1531
 3395SOL     OW21646   4.142   1.579   2.519 -0.4057 -0.3732 -0.0547
 3395SOL    HW121647   4.171   1.563   2.429  2.3284  0.5522  0.6853
 3395SOL    HW221648   4.056   1.602   2.482  0.1995 -1.9575 -2.4679
 3396SOL     OW21649   4.646   4.370  15.051  0.0128 -0.1115 -0.3252
 3396SOL    HW121650   4.689   4.406  14.974 -0.2152 -0.3638 -0.5704
 3396SOL    HW221651   4.724   4.371  15.107  0.7716 -0.5602 -1.3710
 3397SOL     OW21652   1.629   3.400   4.561  0.3338 -0.3663 -0.2860
 3397SOL    HW121653   1.612   3.454   4.484 -0.6918  0.3991  0.4881
 3397SOL    HW221654   1.551   3.345   4.565  0.8554 -1.0884  0.0885
 3398SOL     OW21655   2.127   2.173   5.729  0.3266  0.4517 -0.2123
 3398SOL    HW121656   2.123   2.198   5.821  0.7171 -3.1144  0.7679
 3398SOL    HW221657   2.038   2.139   5.716  0.4969  0.9261 -2.6701
 3399SOL     OW21658   3.466   0.117   8.884 -0.3407 -0.2134  0.3342
 3399SOL    HW121659   3.467   0.107   8.788  1.5157 -1.2395  0.4735
 3399SOL    HW221660   3.452   0.032   8.924 -0.8290  0.7424  2.1608
 3400SOL     OW21661   0.331   2.387   8.467  0.3217  0.1268  0.7658
 3400SOL    HW121662   0.338   2.374   8.561 -1.3345 -0.0819  0.8579
 3400SOL    HW221663   0.275   2.311   8.451 -2.2855  1.7364  2.3505
 3401SOL     OW21664   0.463   1.514   9.185  0.0148  0.4831 -0.4973
 3401SOL    HW121665   0.395   1.507   9.118 -0.9849  2.0049  0.3562
 3401SOL    HW221666   0.421   1.562   9.257 -0.4330 -1.9074  0.8316
 3402SOL     OW21667   0.509   0.468   0.946  0.1087 -0.2908 -0.4271
 3402SOL    HW121668   0.548   0.471   1.033  1.3905 -1.5437 -0.9543
 3402SOL    HW221669   0.570   0.525   0.898  1.1606 -1.1340 -0.0844
 3403SOL     OW21670   1.823   1.056  13.712  0.1867 -0.1590 -0.2800
 3403SOL    HW121671   1.795   1.137  13.755 -1.3156  0.3428 -2.2244
 3403SOL    HW221672   1.743   1.006  13.730  1.4013 -1.6415  0.9995
 3404SOL     OW21673   1.008   2.385   4.915 -0.3651  0.2194 -0.0847
 3404SOL    HW121674   1.077   2.320   4.924  1.7994  2.4585 -0.4152
 3404SOL    HW221675   0.993   2.401   5.008  0.3759 -1.5809  0.3396
 3405SOL     OW21676   0.582   3.419   0.531 -0.4130  0.5403  0.1904
 3405SOL    HW121677   0.521   3.368   0.584 -2.0237  2.8929  0.5996
 3405SOL    HW221678   0.569   3.510   0.558 -0.9113  0.8521 -1.0900
 3406SOL     OW21679   0.737   2.085  12.186  0.4401 -0.8507  0.4199
 3406SOL    HW121680   0.645   2.067  12.167  0.3214  2.2386 -1.8788
 3406SOL    HW221681   0.756   2.127  12.102  1.4788  0.9739  1.6001
 3407SOL     OW21682   4.151   0.231   2.676  0.3592  0.1504 -0.0724
 3407SOL    HW121683   4.098   0.153   2.690 -0.1559  0.0096 -2.6969
 3407SOL    HW221684   4.235   0.191   2.652  0.0098 -1.1801  0.9427
 3408SOL     OW21685   0.082   1.733   7.012 -0.1271  0.2828  0.0024
 3408SOL    HW121686   0.117   1.644   7.010 -1.8382 -0.3707 -0.4899
 3408SOL    HW221687   0.134   1.765   6.938  1.8408 -0.6966  0.9597
 3409SOL     OW21688   0.181   3.598   5.649  0.6425 -0.2876 -0.2760
 3409SOL    HW121689   0.188   3.677   5.704 -0.0078  0.4591 -1.2629
 3409SOL    HW221690   0.185   3.525   5.710  1.6804 -0.6054 -0.7229
 3410SOL     OW21691   3.871   2.803  17.626 -0.3124 -0.3340  0.9793
 3410SOL    HW121692   3.947   2.827  17.573 -0.7929 -0.8621  0.0296
 3410SOL    HW221693   3.853   2.715  17.592  0.3025  0.5240 -1.6088
 3411SOL     OW21694   1.636   1.810  15.200  0.0358 -0.3831  0.3558
 3411SOL    HW121695   1.655   1.717  15.190 -0.6205 -0.5462  0.5689
 3411SOL    HW221696   1.564   1.803  15.263 -1.2352  1.3075 -0.9251
 3412SOL     OW21697   3.511   3.922   7.517  0.3144  0.1074 -0.0881
 3412SOL    HW121698   3.432   3.929   7.571 -0.7239  1.4973 -1.7593
 3412SOL    HW221699   3.564   3.858   7.565  0.1038 -0.0437 -0.0568
 3413SOL     OW21700   2.561   1.808  14.111 -0.1325  0.5030 -0.6761
 3413SOL    HW121701   2.571   1.797  14.016  0.2138  0.4088 -0.6290
 3413SOL    HW221702   2.633   1.865  14.138 -0.0886 -0.3166  0.9442
 3414SOL     OW21703   4.355   2.785   7.598  0.2097 -1.0103  0.0044
 3414SOL    HW121704   4.379   2.858   7.541  1.3361 -1.9390 -0.6929
 3414SOL    HW221705   4.438   2.738   7.601  0.8071  0.0334 -0.3519
 3415SOL     OW21706   0.271   4.696  10.687  0.0526 -0.4306 -0.0701
 3415SOL    HW121707   0.222   4.642  10.749 -0.4210  0.2195  0.1148
 3415SOL    HW221708   0.210   0.037  10.655 -2.1906 -2.4495 -0.0193
 3416SOL     OW21709   1.171   3.597   2.773  0.2327  0.0479  0.0382
 3416SOL    HW121710   1.231   3.644   2.832  1.2441 -0.2301 -0.7730
 3416SOL    HW221711   1.226   3.523   2.747 -1.1498 -1.0966  0.3886
 3417SOL     OW21712   2.316   1.956   2.686 -0.0142 -0.3757  0.1058
 3417SOL    HW121713   2.363   2.027   2.729 -3.0569  1.6553  0.1097
 3417SOL    HW221714   2.314   1.894   2.759 -0.7404  0.0572  0.4562
 3418SOL     OW21715   0.622   1.281   8.492 -0.3560  0.4876  0.3657
 3418SOL    HW121716   0.713   1.282   8.521 -0.2530 -0.8185  0.0720
 3418SOL    HW221717   0.606   1.373   8.471  1.5695  1.0226  1.2739
 3419SOL     OW21718   0.093   0.611   4.843  0.0732  0.2025  0.0902
 3419SOL    HW121719   0.087   0.706   4.848  1.7179  0.3865 -1.2832
 3419SOL    HW221720   0.185   0.596   4.864 -0.4291  0.2836  2.3588
 3420SOL     OW21721   3.684   3.084   2.613 -0.1604  0.1408 -0.5970
 3420SOL    HW121722   3.694   3.006   2.559  1.0156 -0.9268  1.1566
 3420SOL    HW221723   3.655   3.039   2.693  0.0254 -2.0883 -1.7811
 3421SOL     OW21724   4.635   4.255   3.196  0.3701 -0.1917 -0.1680
 3421SOL    HW121725   4.619   4.343   3.229  0.0665 -0.9567  1.7037
 3421SOL    HW221726   4.603   4.271   3.107  1.4201  2.4831 -0.0505
 3422SOL     OW21727   1.038   1.697   9.612 -0.5631  0.2702  0.1804
 3422SOL    HW121728   1.013   1.785   9.584  1.0188  0.5470 -0.3514
 3422SOL    HW221729   0.987   1.651   9.545 -0.4465 -0.1845  0.4104
 3423SOL     OW21730   3.680   2.330   5.430 -0.1063 -0.2892  0.4588
 3423SOL    HW121731   3.695   2.243   5.467  1.6407 -0.3185 -0.3242
 3423SOL    HW221732   3.633   2.374   5.500  0.1140  0.7342 -0.0423
 3424SOL     OW21733   0.521   0.295  14.948 -0.2445 -0.8334  0.2147
 3424SOL    HW121734   0.568   0.347  15.013 -0.9370  1.9619 -1.5095
 3424SOL    HW221735   0.531   0.339  14.864  2.1721 -2.0363 -0.1099
 3425SOL     OW21736   2.821   2.847   2.158  0.5877 -0.5830  0.3657
 3425SOL    HW121737   2.813   2.752   2.161  3.0660 -0.7474  2.0375
 3425SOL    HW221738   2.894   2.853   2.096  0.6742  0.1977  0.5440
 3426SOL     OW21739   1.365   2.621   8.129 -0.6122  0.0071  0.0420
 3426SOL    HW121740   1.355   2.630   8.034 -2.2316  1.2699  0.3396
 3426SOL    HW221741   1.273   2.603   8.147 -0.0576 -2.9124 -0.0365
 3427SOL     OW21742   3.647   0.860   2.477  0.0326 -0.2624  0.0654
 3427SOL    HW121743   3.558   0.871   2.510 -0.1404  0.1723 -0.5508
 3427SOL    HW221744   3.625   0.883   2.387 -0.2785 -2.3560 -0.3842
 3428SOL     OW21745   1.798   4.615   4.460  0.7203 -0.2054 -0.2001
 3428SOL    HW121746   1.868   4.680   4.470  0.3936  0.3341 -1.4587
 3428SOL    HW221747   1.842   4.531   4.450  0.1744 -0.5440  0.2397
 3429SOL     OW21748   4.474   4.030  15.428 -0.1086 -0.0084 -0.6919
 3429SOL    HW121749   4.475   3.948  15.478  0.2165  1.1084  1.1498
 3429SOL    HW221750   4.469   4.091  15.501 -0.7415 -0.4397 -0.3728
 3430SOL     OW21751   3.138   1.875   4.609 -0.2333 -0.6124 -0.3434
 3430SOL    HW121752   3.175   1.964   4.608  0.9414 -1.0962 -0.5009
 3430SOL    HW221753   3.145   1.856   4.516 -2.0182  0.8965 -0.7897
 3431SOL     OW21754   0.804   0.995   8.893  0.5469 -0.1581 -0.4268
 3431SOL    HW121755   0.782   0.902   8.887  0.2948 -0.0665 -0.9467
 3431SOL    HW221756   0.756   1.036   8.821 -0.7717  1.3116  1.2879
 3432SOL     OW21757   1.586   1.821   5.628  0.0580 -0.3964 -0.7471
 3432SOL    HW121758   1.599   1.807   5.534 -1.9516 -0.4885 -1.0145
 3432SOL    HW221759   1.601   1.915   5.628  1.2262 -0.5873 -2.5264
 3433SOL     OW21760   1.140   3.009   9.171  0.8002  0.2215  0.3347
 3433SOL    HW121761   1.206   3.033   9.236  2.2151 -0.3839 -0.9088
 3433SOL    HW221762   1.138   3.093   9.125  1.4310  0.0532  0.0107
 3434SOL     OW21763   3.935   1.841   7.707 -0.1765  0.1815 -0.5214
 3434SOL    HW121764   3.931   1.796   7.622  0.0964  1.3791 -1.1830
 3434SOL    HW221765   3.860   1.799   7.748  1.3821 -0.9532  1.1397
 3435SOL     OW21766   0.925   3.406   7.177  0.3239  0.3238  0.4486
 3435SOL    HW121767   0.882   3.402   7.262  0.4477 -2.0072  0.4138
 3435SOL    HW221768   0.909   3.499   7.166  1.4279  0.3678 -0.7857
 3436SOL     OW21769   1.852   0.006   4.879 -0.7092  0.3547 -0.4720
 3436SOL    HW121770   1.831   4.640   4.857  1.4100 -0.4791  0.9110
 3436SOL    HW221771   1.768   0.047   4.862 -2.5900 -2.6593  1.5831
 3437SOL     OW21772   1.008   0.453   2.437  0.5066  0.1756 -0.2155
 3437SOL    HW121773   1.022   0.400   2.358  2.1708  2.2967 -1.3321
 3437SOL    HW221774   1.085   0.418   2.482 -0.1879 -0.0019  0.8247
 3438SOL     OW21775   4.176   1.661  15.284 -0.4107 -0.0884 -0.2691
 3438SOL    HW121776   4.193   1.707  15.202 -1.1441  1.3600  0.3990
 3438SOL    HW221777   4.178   1.569  15.257  0.4798 -0.4254  0.9476
 3439SOL     OW21778   3.268   2.299   2.874  0.2639 -0.0335 -0.1842
 3439SOL    HW121779   3.263   2.246   2.954 -3.3876 -1.1533 -1.1185
 3439SOL    HW221780   3.208   2.246   2.821  0.4116 -0.2532 -0.1328
 3440SOL     OW21781   1.545   0.308  13.307  0.1317  0.4640 -0.5953
 3440SOL    HW121782   1.490   0.231  13.299  2.1792 -1.4082  2.9647
 3440SOL    HW221783   1.619   0.270  13.355  0.5087  0.6342 -1.0455
 3441SOL     OW21784   2.921   0.983   4.442 -0.5467 -0.0951 -0.0832
 3441SOL    HW121785   2.920   1.064   4.390  1.1348  1.0986  1.7342
 3441SOL    HW221786   2.885   0.923   4.377  0.2236 -1.2028  0.5230
 3442SOL     OW21787   0.706   1.919   2.175  0.1142  0.2985  0.0007
 3442SOL    HW121788   0.739   1.971   2.248 -3.9327  0.9968  1.2988
 3442SOL    HW221789   0.714   1.832   2.216  1.4100 -0.4951 -1.9126
 3443SOL     OW21790   1.470   0.499  12.663 -0.0336  0.2063  0.6076
 3443SOL    HW121791   1.534   0.540  12.605 -0.3299 -0.2816 -0.0514
 3443SOL    HW221792   1.410   0.573  12.661  1.1773  1.1358 -1.5203
 3444SOL     OW21793   3.544   1.801   9.120  0.1842  0.2304  0.2054
 3444SOL    HW121794   3.627   1.826   9.160  0.6796 -0.9397 -0.0872
 3444SOL    HW221795   3.498   1.828   9.199 -1.2384  0.6292 -0.7559
 3445SOL     OW21796   0.594   4.507   5.083  0.2535 -0.0522 -0.2466
 3445SOL    HW121797   0.658   4.444   5.116  0.4135 -0.1449 -0.7468
 3445SOL    HW221798   0.633   4.582   5.129 -0.1986  1.8378 -2.9672
 3446SOL     OW21799   0.857   0.892   0.915 -0.0004 -0.5211 -0.2302
 3446SOL    HW121800   0.917   0.863   0.984 -1.3447 -0.0128  1.1344
 3446SOL    HW221801   0.779   0.838   0.928 -0.5586  0.1103 -0.9869
 3447SOL     OW21802   2.288   4.613  14.484  0.5969  0.3290  0.1791
 3447SOL    HW121803   2.271   4.561  14.405  0.1753  0.8101 -0.0532
 3447SOL    HW221804   2.308   4.703  14.459 -0.3162  0.8749  1.4534
 3448SOL     OW21805   1.668   4.211  10.496  0.9133  0.4713  0.4528
 3448SOL    HW121806   1.649   4.128  10.541 -2.1496 -0.4227 -2.4670
 3448SOL    HW221807   1.647   4.194  10.405 -0.5034 -2.7027  1.3662
 3449SOL     OW21808   2.694   2.931   3.993 -0.3413 -0.1572 -0.2258
 3449SOL    HW121809   2.726   2.879   3.919 -0.1056 -0.3022 -0.0223
 3449SOL    HW221810   2.775   2.953   4.038 -0.4323  1.9503 -1.0613
 3450SOL     OW21811   3.510   3.979   9.653  0.0491 -0.5612 -0.3775
 3450SOL    HW121812   3.572   3.944   9.718 -2.2779 -0.2598  1.9925
 3450SOL    HW221813   3.438   3.916   9.660  0.5147 -0.9418  1.1512
 3451SOL     OW21814   1.737   0.034   3.496  0.4961  0.3319  0.4060
 3451SOL    HW121815   1.737   4.663   3.490 -2.3145  0.3163  0.5414
 3451SOL    HW221816   1.659   0.043   3.442  0.1502  0.4265  0.9206
 3452SOL     OW21817   4.092   2.615   2.946  0.3520  0.3264 -0.8068
 3452SOL    HW121818   4.052   2.641   2.863 -0.2296  0.3765 -0.5100
 3452SOL    HW221819   4.047   2.652   3.023  0.7947  0.9170 -0.8312
 3453SOL     OW21820   3.700   3.412   5.068 -0.1032 -0.2713  0.1556
 3453SOL    HW121821   3.746   3.369   4.996  0.6289 -0.1374  0.5427
 3453SOL    HW221822   3.657   3.337   5.109  1.0856 -0.6602  0.6847
 3454SOL     OW21823   1.877   4.467   6.539  0.1246  0.1851  0.0711
 3454SOL    HW121824   1.929   4.387   6.539  0.0729  0.1579  2.0428
 3454SOL    HW221825   1.844   4.464   6.629  0.7786 -1.7833  0.2513
 3455SOL     OW21826   4.614   0.101  16.984 -0.2088  0.0432 -0.0242
 3455SOL    HW121827   4.648   0.191  16.993 -0.0570 -0.0048 -0.1079
 3455SOL    HW221828   4.591   0.089  17.076 -0.3300 -0.0266 -0.0643
 3456SOL     OW21829   1.480   0.085   6.030  0.4035 -0.7954 -0.1980
 3456SOL    HW121830   1.464   0.045   5.944 -2.2796  0.8707 -0.4637
 3456SOL    HW221831   1.456   0.175   6.007  1.2786 -0.4224  0.3110
 3457SOL     OW21832   4.533   0.539   8.809 -0.6827 -0.4210  0.1830
 3457SOL    HW121833   4.444   0.508   8.794 -0.9045 -0.0472  0.7211
 3457SOL    HW221834   4.532   0.526   8.903  1.6042 -0.9728  0.1240
 3458SOL     OW21835   3.593   0.086   8.303  0.2094 -1.1234  0.1039
 3458SOL    HW121836   3.536   0.017   8.271  2.3350 -3.1274  0.6794
 3458SOL    HW221837   3.636   0.108   8.220 -0.0617 -0.0263  0.2465
 3459SOL     OW21838   2.279   3.294   3.919  0.3808 -0.2459  0.4039
 3459SOL    HW121839   2.337   3.233   3.874 -0.8488 -0.8569 -0.3443
 3459SOL    HW221840   2.259   3.244   3.998 -1.4094 -0.6339 -0.3141
 3460SOL     OW21841   2.387   4.243   5.817  0.0888  0.3212  0.4264
 3460SOL    HW121842   2.421   4.310   5.877 -0.0724  0.3656  0.4678
 3460SOL    HW221843   2.465   4.190   5.801 -0.0568  0.9485 -2.2783
 3461SOL     OW21844   1.328   1.115  14.657  0.0915  0.5856  0.4685
 3461SOL    HW121845   1.343   1.094  14.565 -0.6521 -0.8498  0.6670
 3461SOL    HW221846   1.382   1.191  14.678 -0.3111  1.1530 -0.5341
 3462SOL     OW21847   2.366   1.835   9.150  0.0813 -0.3613 -0.0105
 3462SOL    HW121848   2.428   1.787   9.094 -0.9940 -1.0241 -0.6227
 3462SOL    HW221849   2.427   1.904   9.179 -0.3143  0.7514 -1.7688
 3463SOL     OW21850   2.824   0.956  16.576  0.4085  0.2374  0.0214
 3463SOL    HW121851   2.728   0.949  16.570  0.6204  0.0921 -3.0664
 3463SOL    HW221852   2.848   0.929  16.665 -0.5993 -0.2831  0.1455
 3464SOL     OW21853   1.231   0.547   1.612 -0.3448  0.5336  0.0973
 3464SOL    HW121854   1.302   0.581   1.558 -0.2962 -0.3725 -0.4288
 3464SOL    HW221855   1.159   0.551   1.549  0.1015 -2.8024 -0.6456
 3465SOL     OW21856   3.007   2.539  13.227 -0.4066  0.1395 -0.1564
 3465SOL    HW121857   2.922   2.496  13.238  0.1932 -1.2280 -0.9046
 3465SOL    HW221858   3.060   2.487  13.288 -1.0622 -0.4818 -0.1103
 3466SOL     OW21859   3.698   1.789   8.266 -0.2513  0.0979  0.4645
 3466SOL    HW121860   3.729   1.703   8.238 -0.1118  1.1906 -2.7169
 3466SOL    HW221861   3.696   1.778   8.361 -2.2430  0.8868  0.5132
 3467SOL     OW21862   3.361   4.128   1.471 -0.2551  0.0316 -0.0429
 3467SOL    HW121863   3.452   4.128   1.443 -0.8306  0.7761 -1.9362
 3467SOL    HW221864   3.318   4.177   1.400 -1.0453 -0.2951  0.2096
 3468SOL     OW21865   2.775   1.667  15.426  0.0728 -0.3144  0.0384
 3468SOL    HW121866   2.803   1.602  15.491 -0.7793  0.5215  1.2642
 3468SOL    HW221867   2.684   1.672  15.458 -0.0860  1.1704 -0.6637
 3469SOL     OW21868   1.281   2.785  17.124 -0.8836 -0.2901  0.3462
 3469SOL    HW121869   1.270   2.836  17.204 -0.8027 -0.6063  0.5600
 3469SOL    HW221870   1.294   2.698  17.161 -1.4792 -1.7308 -2.8298
 3470SOL     OW21871   3.483   4.672   4.323 -0.0253  0.0100 -0.4054
 3470SOL    HW121872   3.482   4.598   4.383 -1.7615  0.6604  0.3773
 3470SOL    HW221873   3.544   0.005   4.367  1.4704  0.1751 -2.6868
 3471SOL     OW21874   0.104   2.770   9.587  0.1183  0.5574  0.4427
 3471SOL    HW121875   0.147   2.814   9.514 -0.4578 -2.5295 -1.7871
 3471SOL    HW221876   0.146   2.813   9.661  0.3115  0.4901  0.3712
 3472SOL     OW21877   2.241   3.425   1.925 -0.2619 -0.4197 -0.3925
 3472SOL    HW121878   2.290   3.397   1.848  1.4902  0.4103  0.4019
 3472SOL    HW221879   2.253   3.346   1.978  2.2839 -0.4587 -1.0340
 3473SOL     OW21880   2.428   1.062   5.666  0.3318  0.2245 -0.0398
 3473SOL    HW121881   2.450   0.969   5.671  0.8128  0.2915 -1.0081
 3473SOL    HW221882   2.334   1.066   5.685  0.1596  0.2629 -0.9195
 3474SOL     OW21883   0.176   1.874  16.638  0.7211 -0.1108 -0.1175
 3474SOL    HW121884   0.085   1.872  16.611  1.0605  0.5196 -1.3063
 3474SOL    HW221885   0.220   1.845  16.558  0.2034  1.9442 -1.1442
 3475SOL     OW21886   1.732   4.667   2.319 -0.5575  0.0682 -0.1970
 3475SOL    HW121887   1.807   4.716   2.286 -1.2710  1.3122  0.0439
 3475SOL    HW221888   1.716   4.707   2.404  2.3355 -0.0278  0.3872
 3476SOL     OW21889   2.594   2.380   9.440  0.3725 -0.0134  0.2233
 3476SOL    HW121890   2.664   2.339   9.389  0.5533  0.3700  0.1657
 3476SOL    HW221891   2.564   2.456   9.390 -1.2762 -0.0504  1.1718
 3477SOL     OW21892   3.613   2.367  14.529 -0.5294  0.8685 -0.0981
 3477SOL    HW121893   3.700   2.362  14.567  1.0875  1.1306 -3.7836
 3477SOL    HW221894   3.617   2.450  14.481 -1.2365  0.4882 -0.8245
 3478SOL     OW21895   0.053   1.008   0.322 -0.2801 -0.3968 -0.0530
 3478SOL    HW121896   4.705   0.985   0.266 -2.2336 -0.3152  2.4877
 3478SOL    HW221897   0.113   0.944   0.283  0.0488 -0.5892  0.7427
 3479SOL     OW21898   4.402   0.328   0.183  0.2035 -0.2324  0.0776
 3479SOL    HW121899   4.478   0.284   0.146  0.1116 -0.1802 -0.1784
 3479SOL    HW221900   4.423   0.419   0.162  0.5698 -0.1916  0.6351
 3480SOL     OW21901   0.616   3.223  13.167  0.6980 -0.2377 -0.5059
 3480SOL    HW121902   0.628   3.128  13.162 -4.3838 -0.9750  1.2967
 3480SOL    HW221903   0.691   3.242  13.223  0.6226  1.7089 -1.0707
 3481SOL     OW21904   3.735   4.179   3.413  0.2886  0.3746  0.0726
 3481SOL    HW121905   3.688   4.210   3.491 -0.1882  0.0238 -0.0753
 3481SOL    HW221906   3.702   4.089   3.408  0.2840  0.2431  2.3637
 3482SOL     OW21907   3.959   1.354   2.849 -0.5237  0.2640  0.2280
 3482SOL    HW121908   3.921   1.292   2.787  0.2065 -1.3874  1.4148
 3482SOL    HW221909   3.877   1.396   2.874 -0.3908  1.1162 -0.7966
 3483SOL     OW21910   0.608   1.147  11.077  0.1704  0.2222  0.5668
 3483SOL    HW121911   0.619   1.130  10.983  0.2577 -0.2818  0.6651
 3483SOL    HW221912   0.687   1.102  11.108  0.2131 -1.0199 -1.3414
 3484SOL     OW21913   4.547   3.510   3.108  0.3554  0.3247 -0.2779
 3484SOL    HW121914   4.503   3.595   3.109  0.3017  0.2824  1.1773
 3484SOL    HW221915   4.551   3.483   3.200 -0.7014  0.4882 -0.1839
 3485SOL     OW21916   1.764   3.653   6.571 -0.6166  0.1134 -0.2610
 3485SOL    HW121917   1.823   3.598   6.520  0.5165 -1.6582  2.8991
 3485SOL    HW221918   1.837   3.702   6.608  0.9138 -2.5905  0.3070
 3486SOL     OW21919   4.660   4.489   2.942 -0.1532  0.1336 -0.4639
 3486SOL    HW121920   4.582   4.544   2.949 -0.2574  0.0579 -1.0335
 3486SOL    HW221921   4.619   4.404   2.926 -1.4960  0.9098 -1.1581
 3487SOL     OW21922   2.364   2.656   5.098  0.0247 -0.0162  0.4343
 3487SOL    HW121923   2.299   2.725   5.084  1.0340  0.8578  0.0356
 3487SOL    HW221924   2.365   2.640   5.192  1.5363 -3.2717 -0.1327
 3488SOL     OW21925   4.162   2.812   5.871 -0.0625  0.8345 -0.1674
 3488SOL    HW121926   4.170   2.899   5.910 -2.1421  0.8035  0.3308
 3488SOL    HW221927   4.080   2.788   5.915  0.0988  0.6980  0.0536
 3489SOL     OW21928   1.626   2.561   1.921  0.1930 -0.3142  0.6963
 3489SOL    HW121929   1.545   2.589   1.965 -0.6460 -2.4734  0.5182
 3489SOL    HW221930   1.672   2.641   1.898  0.7126 -1.7860 -3.4022
 3490SOL     OW21931   0.585   3.807  10.798  0.1943 -0.0750  0.5162
 3490SOL    HW121932   0.528   3.860  10.742  1.7955 -0.0579 -1.1045
 3490SOL    HW221933   0.594   3.735  10.735  1.1165  1.5691 -1.2542
 3491SOL     OW21934   3.103   2.218   7.107  0.4078  0.1228  0.3149
 3491SOL    HW121935   3.030   2.278   7.122 -0.9568 -1.2054 -1.0595
 3491SOL    HW221936   3.057   2.135   7.095 -0.1802  0.7094 -1.6091
 3492SOL     OW21937   0.140   2.916   6.205 -0.6317  0.0754 -0.7096
 3492SOL    HW121938   0.062   2.899   6.259 -0.5107  2.1394  0.1246
 3492SOL    HW221939   0.090   2.939   6.126  0.0443  1.5814 -0.7025
 3493SOL     OW21940   3.628   2.733   6.285  0.1963  0.3432 -0.3593
 3493SOL    HW121941   3.717   2.750   6.318  0.1515 -1.1367  0.5121
 3493SOL    HW221942   3.610   2.671   6.356  2.0633  0.2360  0.0380
 3494SOL     OW21943   2.359   1.986   3.350  0.1476  0.2902 -0.1533
 3494SOL    HW121944   2.329   1.897   3.364 -0.4341  0.2994 -1.3442
 3494SOL    HW221945   2.338   1.997   3.257 -3.5774 -2.7769  0.3632
 3495SOL     OW21946   1.748   0.390   4.155 -0.2996 -0.9535 -0.0430
 3495SOL    HW121947   1.804   0.455   4.112  0.2619 -1.4808 -0.1173
 3495SOL    HW221948   1.698   0.367   4.077 -0.0583  0.3285 -0.5798
 3496SOL     OW21949   0.426   2.348   4.807  0.1726 -0.4511 -0.2352
 3496SOL    HW121950   0.489   2.355   4.878 -1.4630 -1.0201  1.2563
 3496SOL    HW221951   0.357   2.299   4.852 -1.0621  0.2849 -1.3263
 3497SOL     OW21952   0.783   2.366  12.836 -0.0703 -0.0668  0.7284
 3497SOL    HW121953   0.798   2.273  12.820 -0.7188  0.2897 -1.9108
 3497SOL    HW221954   0.694   2.379  12.804 -0.1725  1.5428  1.6806
 3498SOL     OW21955   0.993   4.203  11.462  0.0492 -0.3901 -0.0332
 3498SOL    HW121956   1.019   4.290  11.494  0.3059 -0.4418 -0.1019
 3498SOL    HW221957   1.010   4.221  11.369 -1.4102 -0.7878 -0.3681
 3499SOL     OW21958   4.647   1.505   4.053  0.1235 -0.5098 -0.0036
 3499SOL    HW121959   4.565   1.466   4.083 -0.1033 -0.7994 -0.9709
 3499SOL    HW221960   4.694   1.441   3.998 -0.1144  0.9783 -1.9631
 3500SOL     OW21961   1.601   3.879  14.295 -0.1916 -0.2797  0.3716
 3500SOL    HW121962   1.553   3.940  14.352 -1.1539 -2.1228  1.5303
 3500SOL    HW221963   1.687   3.876  14.336  0.1668 -1.9059 -0.4996
 3501SOL     OW21964   0.327   3.300  11.509 -0.0473  0.3951 -0.2049
 3501SOL    HW121965   0.360   3.310  11.598  2.1531 -1.1104 -0.8588
 3501SOL    HW221966   0.405   3.307  11.454  0.3818  0.9729  0.4774
 3502SOL     OW21967   0.798   0.129  12.029 -0.2910  0.2698 -0.0600
 3502SOL    HW121968   0.848   0.185  12.088  2.6683 -1.5174 -0.8785
 3502SOL    HW221969   0.850   0.105  11.952 -0.9719  0.2157 -0.5040
 3503SOL     OW21970   0.248   0.525   6.668  0.0524 -0.4193  0.1827
 3503SOL    HW121971   0.226   0.549   6.758  0.7088 -3.2108  1.0757
 3503SOL    HW221972   0.282   0.436   6.682  1.4318 -0.1838 -1.6257
 3504SOL     OW21973   3.385   3.124   2.288 -0.1898  0.1625  0.1279
 3504SOL    HW121974   3.401   3.150   2.379  2.0505 -2.6196  0.5562
 3504SOL    HW221975   3.335   3.194   2.246  0.3284 -0.5943 -1.7559
 3505SOL     OW21976   0.184   2.106   4.030  0.0287  0.5778  0.5048
 3505SOL    HW121977   0.232   2.168   3.974 -0.7506  0.8374  0.1238
 3505SOL    HW221978   0.209   2.135   4.118  1.6816  1.2868 -0.1862
 3506SOL     OW21979   3.649   1.274   2.476 -0.7213 -0.0751 -0.3548
 3506SOL    HW121980   3.657   1.330   2.398 -2.0636  0.0295 -0.4157
 3506SOL    HW221981   3.585   1.208   2.449 -1.2564  1.1565 -2.1260
 3507SOL     OW21982   0.707   0.556  17.426  0.4170  0.0167  0.5721
 3507SOL    HW121983   0.792   0.591  17.399 -1.9847  3.1460 -3.0714
 3507SOL    HW221984   0.727   0.463  17.434  1.9297  0.3342  0.4430
 3508SOL     OW21985   0.412   1.782   2.223 -0.2928 -0.0428 -0.3258
 3508SOL    HW121986   0.322   1.765   2.195 -0.0102 -0.5845 -0.8719
 3508SOL    HW221987   0.413   1.878   2.227 -0.1508 -0.0742  0.5369
 3509SOL     OW21988   3.819   3.496   7.613 -0.4249  0.0887  0.4347
 3509SOL    HW121989   3.905   3.495   7.571 -0.7438 -1.0959 -0.1974
 3509SOL    HW221990   3.840   3.456   7.697  2.6155  1.2455  0.2209
 3510SOL     OW21991   4.084   1.013   6.234 -0.3716 -0.3344  0.7568
 3510SOL    HW121992   4.150   1.022   6.302 -2.3410 -0.2693  2.6690
 3510SOL    HW221993   4.139   0.974   6.166 -0.2930 -0.7897  1.0821
 3511SOL     OW21994   3.922   2.046  14.044  0.3027 -0.5449 -0.6319
 3511SOL    HW121995   3.883   2.009  13.965 -2.4692 -2.1969  1.5160
 3511SOL    HW221996   3.849   2.089  14.089  0.0282 -0.3127 -1.3033
 3512SOL     OW21997   2.465   2.098   3.816  0.2334 -0.2898 -0.2990
 3512SOL    HW121998   2.442   2.005   3.812  2.1179 -0.8100  0.8727
 3512SOL    HW221999   2.416   2.125   3.739 -0.7705 -1.2948 -0.0074
 3513SOL     OW22000   1.551   3.407   7.802  0.1902 -0.0586  0.0394
 3513SOL    HW122001   1.644   3.395   7.822  0.0969 -0.1852  0.4109
 3513SOL    HW222002   1.501   3.390   7.882 -0.0198 -0.4780 -0.1783
 3514SOL     OW22003   0.939   2.993  13.333  0.0165 -0.0211 -0.5104
 3514SOL    HW122004   0.923   2.949  13.249 -0.5516 -2.8068  1.0763
 3514SOL    HW222005   0.942   2.913  13.385 -1.5021 -0.2724 -0.8142
 3515SOL     OW22006   3.544   2.459   4.439 -0.3537  0.2192 -0.9867
 3515SOL    HW122007   3.635   2.474   4.463  0.0706  0.1739 -2.5735
 3515SOL    HW222008   3.529   2.548   4.407 -1.1013  1.0433  1.6550
 3516SOL     OW22009   1.554   4.546   8.969 -0.1274 -0.4705  0.5638
 3516SOL    HW122010   1.464   4.534   9.000 -0.9865 -0.7146 -1.9967
 3516SOL    HW222011   1.570   4.630   9.011  1.7733 -0.7034  0.2814
 3517SOL     OW22012   0.280   3.100   8.307 -0.0088  0.1034 -0.2543
 3517SOL    HW122013   0.192   3.109   8.271 -0.1576 -1.4716 -0.3047
 3517SOL    HW222014   0.320   3.059   8.230  2.5251  3.0336 -0.4672
 3518SOL     OW22015   1.433   3.506  12.923  0.4145 -0.4573  0.7436
 3518SOL    HW122016   1.500   3.492  12.855 -0.1535  1.0611 -0.1228
 3518SOL    HW222017   1.356   3.457  12.895  0.2429 -0.1266  0.6316
 3519SOL     OW22018   3.799   3.221   6.637 -0.0732  0.1863  0.8072
 3519SOL    HW122019   3.838   3.279   6.703  0.9232  0.4230  0.0002
 3519SOL    HW222020   3.753   3.170   6.703  0.6306 -2.9581 -1.1674
 3520SOL     OW22021   3.690   0.594  15.192  0.2861 -0.1737  0.7724
 3520SOL    HW122022   3.737   0.539  15.129 -0.2135  0.2874 -0.0037
 3520SOL    HW222023   3.657   0.534  15.260 -0.1662 -0.7554  0.0381
 3521SOL     OW22024   2.145   4.393  11.804  0.2177  0.4152 -0.0804
 3521SOL    HW122025   2.161   4.446  11.726  0.3696 -1.8202 -1.5642
 3521SOL    HW222026   2.144   4.463  11.868 -0.5451 -0.0832  0.4587
 3522SOL     OW22027   1.015   2.245   2.808  0.4327 -0.3675  0.0044
 3522SOL    HW122028   0.983   2.333   2.827  0.1420 -1.0335  2.5264
 3522SOL    HW222029   1.088   2.267   2.750 -0.4103  1.8574 -0.2291
 3523SOL     OW22030   2.603   1.635   6.909  0.2274 -0.0578  0.1238
 3523SOL    HW122031   2.671   1.588   6.957  2.6961  1.7036 -1.6904
 3523SOL    HW222032   2.530   1.631   6.972 -1.0208 -0.1166 -1.3337
 3524SOL     OW22033   3.707   2.866   4.958 -0.3545 -0.4266 -0.1814
 3524SOL    HW122034   3.674   2.923   4.888  0.2974  1.6590  1.1817
 3524SOL    HW222035   3.770   2.933   4.983 -0.5295 -0.0683 -0.6974
 3525SOL     OW22036   0.404   0.489   5.946 -0.7139  0.4656 -0.1324
 3525SOL    HW122037   0.322   0.445   5.968 -0.7377  0.8019  0.4236
 3525SOL    HW222038   0.403   0.485   5.850 -1.1620  1.1588 -0.1551
 3526SOL     OW22039   1.152   3.546   9.335  0.3977  1.1174  0.1962
 3526SOL    HW122040   1.076   3.535   9.278  1.8937  0.2194 -1.6175
 3526SOL    HW222041   1.201   3.466   9.317 -0.2494  1.0285 -1.1953
 3527SOL     OW22042   1.783   1.258  14.081 -0.4710  0.1904 -0.1000
 3527SOL    HW122043   1.792   1.325  14.013  2.2257  0.7962  0.8475
 3527SOL    HW222044   1.842   1.188  14.054  1.0322  1.1637  0.6283
 3528SOL     OW22045   1.411   3.515   8.714 -0.1916 -0.2214  0.5398
 3528SOL    HW122046   1.419   3.499   8.620  1.2852 -0.5373  0.7178
 3528SOL    HW222047   1.317   3.523   8.732  0.1061  0.4419  1.8033
 3529SOL     OW22048   1.450   1.377   0.974 -0.2703  0.1965 -0.0498
 3529SOL    HW122049   1.545   1.388   0.979  0.0220 -1.4734 -1.8054
 3529SOL    HW222050   1.436   1.324   0.895  0.3868  1.0019 -0.7216
 3530SOL     OW22051   2.060   4.304   5.274  1.0993  0.3037  0.0663
 3530SOL    HW122052   2.003   4.343   5.341 -0.5880 -0.3508 -0.9998
 3530SOL    HW222053   2.112   4.384   5.262 -2.5001  2.7785  0.7331
 3531SOL     OW22054   0.262   0.383   1.642 -0.7364  0.3957  0.6319
 3531SOL    HW122055   0.224   0.342   1.720 -0.0085 -1.8567 -0.1938
 3531SOL    HW222056   0.247   0.476   1.657  1.5684  0.9479 -0.4830
 3532SOL     OW22057   1.494   4.049   2.651 -0.3776 -0.0104 -0.0079
 3532SOL    HW122058   1.447   4.129   2.674 -0.8880 -0.3864  0.2680
 3532SOL    HW222059   1.499   4.062   2.557  0.2882 -0.3161 -0.0181
 3533SOL     OW22060   1.304   0.488  11.240 -0.2084  0.3327 -0.0049
 3533SOL    HW122061   1.373   0.555  11.242  0.8468 -0.7013 -2.1589
 3533SOL    HW222062   1.319   0.443  11.157  1.2732 -0.3438  0.6486
 3534SOL     OW22063   3.290   4.290  13.343  0.1689 -0.0337  0.2441
 3534SOL    HW122064   3.262   4.212  13.296  0.9433 -0.5638  0.6542
 3534SOL    HW222065   3.381   4.279  13.316 -0.9096  0.4865 -3.5520
 3535SOL     OW22066   3.134   4.102   2.233  0.3225 -0.5872 -0.4605
 3535SOL    HW122067   3.183   4.172   2.190 -0.0970 -0.4587 -0.7245
 3535SOL    HW222068   3.069   4.085   2.165  0.5526 -1.0194 -0.5697
 3536SOL     OW22069   1.416   3.148  10.093 -0.6061  0.2741  0.3757
 3536SOL    HW122070   1.368   3.110  10.020  2.3793 -1.6439 -0.5719
 3536SOL    HW222071   1.484   3.189  10.040 -0.1145 -1.4986 -0.3643
 3537SOL     OW22072   3.641   4.565   3.516 -0.2861 -0.0515  0.0559
 3537SOL    HW122073   3.575   4.633   3.534 -1.9921 -1.7276  0.0634
 3537SOL    HW222074   3.646   4.530   3.605 -0.2767  1.3986  0.6360
 3538SOL     OW22075   4.416   2.284   5.855 -0.2327  0.1314 -0.2904
 3538SOL    HW122076   4.456   2.197   5.863  1.8801  1.0617 -0.5408
 3538SOL    HW222077   4.324   2.260   5.843 -0.3215  1.0549 -1.4849
 3539SOL     OW22078   2.795   4.663   4.010  0.2112  0.4042 -0.1670
 3539SOL    HW122079   2.804   0.002   3.941  1.4389  0.3540 -0.0477
 3539SOL    HW222080   2.778   4.715   4.089 -2.8231  0.5669 -0.9209
 3540SOL     OW22081   3.356   1.897   5.838  0.1678 -0.3811 -0.3498
 3540SOL    HW122082   3.338   1.847   5.918  1.0117 -1.5915 -0.9083
 3540SOL    HW222083   3.420   1.957   5.875  1.2395 -1.8296  0.1575
 3541SOL     OW22084   3.180   2.179   9.486  0.4915  0.3025  0.2635
 3541SOL    HW122085   3.187   2.235   9.408  0.1027  1.8602  1.3356
 3541SOL    HW222086   3.225   2.100   9.457  0.8544  0.0256  1.5665
 3542SOL     OW22087   0.973   3.417   5.337 -0.1898 -0.3399 -0.3949
 3542SOL    HW122088   1.062   3.407   5.369 -1.0112 -1.7627  1.3789
 3542SOL    HW222089   0.929   3.454   5.413  1.1134  2.6433 -1.0868
 3543SOL     OW22090   2.674   0.629  16.382 -0.2345  0.0910 -0.1929
 3543SOL    HW122091   2.635   0.700  16.433 -2.1449 -0.6986 -0.5612
 3543SOL    HW222092   2.699   0.682  16.306 -2.6381  1.7288  0.1859
 3544SOL     OW22093   2.807   0.918   8.223 -0.6051 -0.2582  0.3104
 3544SOL    HW122094   2.829   0.897   8.313  1.2800 -0.4414 -0.1885
 3544SOL    HW222095   2.895   0.949   8.201 -0.7642  0.1972  0.3190
 3545SOL     OW22096   0.065   2.912   0.772  0.0091  0.0438  0.2194
 3545SOL    HW122097   0.092   2.968   0.699  0.5975  0.9121  1.1041
 3545SOL    HW222098   4.705   2.949   0.792 -0.1258 -1.2751  2.1041
 3546SOL     OW22099   0.665   4.213   2.926 -0.4922  0.3336  0.4972
 3546SOL    HW122100   0.718   4.197   3.003  0.7849  0.9411 -0.2576
 3546SOL    HW222101   0.733   4.206   2.859 -0.9415  0.6852  0.0016
 3547SOL     OW22102   1.661   3.973   6.626  0.3297  0.6830 -0.1993
 3547SOL    HW122103   1.665   3.963   6.531 -0.1742  1.0519 -0.2582
 3547SOL    HW222104   1.575   4.012   6.640 -0.5154 -1.2064 -0.2367
 3548SOL     OW22105   2.360   4.392  13.788  0.0161 -0.1465  0.0065
 3548SOL    HW122106   2.338   4.415  13.697  0.8330 -0.5763 -0.3062
 3548SOL    HW222107   2.271   4.365  13.812  0.7105 -0.2419  2.4706
 3549SOL     OW22108   3.835   2.430   3.007  0.4690 -0.4921  0.1545
 3549SOL    HW122109   3.908   2.465   3.059  0.5393 -1.0864  0.4540
 3549SOL    HW222110   3.865   2.434   2.917  1.4609 -0.4022  0.4826
 3550SOL     OW22111   4.042   2.000  13.682 -0.5366 -0.2499 -1.5440
 3550SOL    HW122112   3.970   2.003  13.745  0.7728  0.0474 -0.0441
 3550SOL    HW222113   4.091   1.938  13.735 -0.2331  0.3637 -1.1009
 3551SOL     OW22114   2.716   4.644   7.911  0.3562 -0.3471  0.0281
 3551SOL    HW122115   2.697   4.568   7.966 -0.8585 -0.2936 -0.3139
 3551SOL    HW222116   2.791   4.691   7.947  0.1374  0.2919 -0.3515
 3552SOL     OW22117   1.161   2.161   0.197  0.4109  0.2330 -0.3294
 3552SOL    HW122118   1.199   2.241   0.159  0.4619  0.6233  0.5309
 3552SOL    HW222119   1.227   2.137   0.263 -0.5658  0.5077  0.7399
 3553SOL     OW22120   1.998   3.708   5.934 -0.5117 -0.3632 -0.7408
 3553SOL    HW122121   2.039   3.641   5.988  2.3850  0.5192 -1.8207
 3553SOL    HW222122   1.913   3.729   5.972 -0.4789 -2.0695  0.2743
 3554SOL     OW22123   0.046   4.539   0.118 -0.3500  0.0444 -0.0289
 3554SOL    HW122124   0.046   4.444   0.131  0.6327 -0.2346 -1.9936
 3554SOL    HW222125   4.724   4.547   0.035 -1.2231  0.8824  0.5433
 3555SOL     OW22126   4.527   2.947   9.677  0.5783 -1.3456 -0.4601
 3555SOL    HW122127   4.546   3.016   9.740  1.6271 -1.1526 -0.9893
 3555SOL    HW222128   4.554   2.998   9.601  0.8830 -0.3174  0.3354
 3556SOL     OW22129   3.282   3.387  10.013 -0.1769 -0.1817 -0.6314
 3556SOL    HW122130   3.203   3.416  10.058  1.5315  1.0554  1.5164
 3556SOL    HW222131   3.241   3.320   9.957 -1.6330  1.0885 -1.0775
 3557SOL     OW22132   2.350   4.495   9.669 -0.5374  0.1565  0.1801
 3557SOL    HW122133   2.326   4.582   9.635 -0.7324 -0.0259 -0.1492
 3557SOL    HW222134   2.429   4.474   9.620 -0.8807 -0.1205 -0.2587
 3558SOL     OW22135   4.557   2.133   8.880 -0.2882 -0.7292 -0.5332
 3558SOL    HW122136   4.503   2.210   8.863  0.3731 -0.4802 -1.5134
 3558SOL    HW222137   4.616   2.167   8.947  0.1353 -1.4134 -0.5622
 3559SOL     OW22138   3.641   4.148   1.506  0.1880  0.0215 -0.4284
 3559SOL    HW122139   3.632   4.130   1.599  0.9697  1.0562 -0.1552
 3559SOL    HW222140   3.728   4.126   1.474  0.7083  0.8708  0.4162
 3560SOL     OW22141   0.379   4.594   2.822  0.2070  0.2786  0.8775
 3560SOL    HW122142   0.453   4.536   2.840  1.2302  1.4528  0.4347
 3560SOL    HW222143   0.427   4.669   2.787 -1.2849  0.9607  0.3154
 3561SOL     OW22144   1.802   2.582  16.615  0.4200  0.2952  0.1513
 3561SOL    HW122145   1.713   2.589  16.651  0.3245 -0.4551  0.0512
 3561SOL    HW222146   1.801   2.677  16.597  2.0076  0.5366  1.3427
 3562SOL     OW22147   4.081   3.599   4.055 -0.8082 -0.3126 -0.8018
 3562SOL    HW122148   4.117   3.515   4.086  1.1926  0.2492 -1.6052
 3562SOL    HW222149   4.123   3.611   3.970 -1.0109  0.7359 -0.7425
 3563SOL     OW22150   2.874   0.505   2.131 -0.7433 -0.4624  0.3775
 3563SOL    HW122151   2.897   0.485   2.040  2.3597 -0.4329  1.1397
 3563SOL    HW222152   2.814   0.579   2.124  3.3180  2.8027  0.1083
 3564SOL     OW22153   0.967   1.887   9.414 -0.6028  0.6681  0.1539
 3564SOL    HW122154   0.923   1.971   9.430 -0.3031  0.9580 -0.5558
 3564SOL    HW222155   1.034   1.911   9.350  0.3533 -0.2689  0.8096
 3565SOL     OW22156   3.832   3.019   0.841  0.0603  0.0690 -0.4600
 3565SOL    HW122157   3.815   3.069   0.761 -0.9995  1.0011  0.3555
 3565SOL    HW222158   3.928   3.018   0.844  0.0106 -2.6018  0.3419
 3566SOL     OW22159   3.550   4.687   2.445  0.0987 -0.0158 -0.1704
 3566SOL    HW122160   3.533   0.011   2.365 -2.1965 -0.7053 -0.1158
 3566SOL    HW222161   3.505   4.605   2.424 -1.1053  0.0939  1.9152
 3567SOL     OW22162   4.017   3.035   5.555  0.3703 -0.0638 -0.2075
 3567SOL    HW122163   3.958   2.982   5.609  1.0499 -0.1402  0.4493
 3567SOL    HW222164   3.968   3.117   5.548  1.8275  0.7973 -0.2675
 3568SOL     OW22165   2.464   3.142  13.739  0.4061 -0.1588 -0.0529
 3568SOL    HW122166   2.512   3.158  13.820  1.0521  1.5962 -0.7891
 3568SOL    HW222167   2.440   3.227  13.702  0.4350  0.8840  2.3672
 3569SOL     OW22168   2.752   1.176   4.028  0.1605 -0.2179  0.2187
 3569SOL    HW122169   2.732   1.266   4.002 -1.7948 -1.5584 -2.8645
 3569SOL    HW222170   2.799   1.188   4.111  1.5422 -0.1240 -0.5778
 3570SOL     OW22171   1.594   1.202  16.692 -0.2610  0.1990 -0.0089
 3570SOL    HW122172   1.560   1.269  16.633 -0.3905  0.1981  0.0653
 3570SOL    HW222173   1.593   1.127  16.632 -1.6912 -0.4286  0.8011
 3571SOL     OW22174   3.538   3.909   2.391  0.1845 -0.3949  0.1331
 3571SOL    HW122175   3.584   3.987   2.361  1.2931 -1.4359 -0.8606
 3571SOL    HW222176   3.579   3.838   2.342 -2.0329 -0.1751 -2.0374
 3572SOL     OW22177   2.229   1.280   8.242 -0.3172  0.0053 -0.2197
 3572SOL    HW122178   2.259   1.203   8.290  0.9330 -0.0800 -1.1357
 3572SOL    HW222179   2.309   1.296   8.191 -1.3950  1.8476 -1.3507
 3573SOL     OW22180   2.773   3.984   6.020  0.4539  0.8713  0.6067
 3573SOL    HW122181   2.686   4.008   6.053 -0.7666 -1.8484 -0.6478
 3573SOL    HW222182   2.816   3.956   6.101 -0.3065 -1.5010  0.1633
 3574SOL     OW22183   1.655   2.476   8.342  0.2339  0.2217  0.0508
 3574SOL    HW122184   1.721   2.406   8.337  0.5562  0.4352  1.2822
 3574SOL    HW222185   1.651   2.493   8.436 -1.0106  2.8127 -0.4882
 3575SOL     OW22186   0.834   1.318   4.887  0.0299 -0.2509  0.0463
 3575SOL    HW122187   0.912   1.269   4.914  0.3762 -0.3647 -1.1694
 3575SOL    HW222188   0.761   1.261   4.912 -0.6887  0.6361 -0.0535
 3576SOL     OW22189   0.268   2.739   6.365  0.0556  0.5615  0.5354
 3576SOL    HW122190   0.238   2.803   6.301  0.7301 -2.4219 -2.7705
 3576SOL    HW222191   0.214   2.663   6.347  1.7056 -0.5902  0.4287
 3577SOL     OW22192   1.694   2.341   3.658  0.0774  0.7139  0.3369
 3577SOL    HW122193   1.703   2.429   3.621  1.0342  1.0073  1.2392
 3577SOL    HW222194   1.759   2.346   3.728  0.5901 -0.8314 -0.0275
 3578SOL     OW22195   2.357   1.797   1.373 -0.2533 -0.0418  0.1506
 3578SOL    HW122196   2.449   1.775   1.381 -0.2489  0.4874  1.4579
 3578SOL    HW222197   2.323   1.707   1.377  1.2883 -0.4372  3.6859
 3579SOL     OW22198   4.257   0.965   7.507  0.4830  0.0640  0.5965
 3579SOL    HW122199   4.317   0.981   7.580 -0.1483 -0.9647  1.3250
 3579SOL    HW222200   4.197   0.904   7.549 -0.1081 -1.5200 -2.5142
 3580SOL     OW22201   0.705   4.257  12.957  0.1751 -0.6206  0.5188
 3580SOL    HW122202   0.612   4.239  12.947  0.1391  0.0348 -0.3224
 3580SOL    HW222203   0.699   4.348  12.984  0.8398 -0.0685 -1.1678
 3581SOL     OW22204   2.946   4.056   5.494 -0.5429  0.3871  0.3066
 3581SOL    HW122205   2.963   4.149   5.482 -0.3949  0.2779 -0.3740
 3581SOL    HW222206   3.032   4.029   5.525 -0.7786 -2.6547 -1.6054
 3582SOL     OW22207   1.061   2.385   4.014  0.8457  0.0455  0.4177
 3582SOL    HW122208   1.115   2.306   4.012  1.0964  0.2145  0.4610
 3582SOL    HW222209   1.113   2.430   4.081  0.7324  0.0744  0.4857
 3583SOL     OW22210   2.668   3.697   7.194  0.5813 -0.2892  0.6036
 3583SOL    HW122211   2.635   3.649   7.270  0.2444  0.3067  0.8309
 3583SOL    HW222212   2.664   3.788   7.225  0.2382 -1.1441  3.1282
 3584SOL     OW22213   1.377   3.554   4.894 -0.5329  0.4924 -0.0539
 3584SOL    HW122214   1.467   3.529   4.914 -0.4811  0.3508 -0.4810
 3584SOL    HW222215   1.337   3.538   4.980 -0.6855  0.5650 -0.1118
 3585SOL     OW22216   3.690   2.494   7.019 -0.2814 -0.1803  0.3287
 3585SOL    HW122217   3.639   2.499   7.100 -1.3562  1.0533 -0.4214
 3585SOL    HW222218   3.771   2.539   7.042  0.1999 -0.9882  0.2229
 3586SOL     OW22219   4.434   1.945   4.658 -0.4533  0.6923 -0.3392
 3586SOL    HW122220   4.370   1.999   4.703 -1.5956 -2.0151  1.2377
 3586SOL    HW222221   4.504   1.932   4.722 -0.4027  0.2386 -0.4814
 3587SOL     OW22222   1.886   2.333   1.912  0.3039 -0.1328  0.0791
 3587SOL    HW122223   1.831   2.320   1.835  1.3825  2.8093 -1.1569
 3587SOL    HW222224   1.956   2.374   1.863  0.2131 -2.4856 -2.0287
 3588SOL     OW22225   1.267   0.618   8.498 -0.0633 -0.2976  0.1271
 3588SOL    HW122226   1.291   0.598   8.589 -1.4255 -0.4717  0.4546
 3588SOL    HW222227   1.234   0.529   8.483  1.3369 -0.8897  0.5659
 3589SOL     OW22228   1.710   2.264   7.072 -0.0042  0.1211 -0.3504
 3589SOL    HW122229   1.678   2.306   7.151  0.3807  0.0502 -0.1565
 3589SOL    HW222230   1.763   2.336   7.038 -1.8226  1.5457 -0.1368
 3590SOL     OW22231   2.374   4.015   4.151  0.0544 -0.4257  0.0147
 3590SOL    HW122232   2.394   4.094   4.201 -0.6596 -0.8773  1.0252
 3590SOL    HW222233   2.465   3.991   4.133  0.1750  0.4511 -0.4964
 3591SOL     OW22234   0.392   1.602   5.228 -0.2260 -0.5260  0.5051
 3591SOL    HW122235   0.358   1.517   5.253  0.4502 -0.8686  0.2715
 3591SOL    HW222236   0.457   1.580   5.162  0.6480  0.4119  1.0524
 3592SOL     OW22237   3.214   0.921   6.522 -0.1519  0.3226 -0.5742
 3592SOL    HW122238   3.200   0.880   6.436  1.3559 -1.7382  0.1503
 3592SOL    HW222239   3.140   0.981   6.518  1.3172  2.1256 -0.1197
 3593SOL     OW22240   3.280   2.761   8.719  0.5258  0.7391 -0.1153
 3593SOL    HW122241   3.345   2.804   8.664  0.4126  1.0125 -0.0349
 3593SOL    HW222242   3.249   2.691   8.662  0.7226 -0.0987  0.7828
 3594SOL     OW22243   4.548   2.836   4.225 -0.1380  0.4963 -0.6187
 3594SOL    HW122244   4.469   2.819   4.174  0.4453 -0.6690 -1.1230
 3594SOL    HW222245   4.617   2.798   4.171  0.9416  0.2511  0.9100
 3595SOL     OW22246   2.752   1.410  12.946  0.0882 -0.4075 -0.3794
 3595SOL    HW122247   2.827   1.420  12.887  0.4578 -1.1437 -0.0367
 3595SOL    HW222248   2.674   1.416  12.891  0.0909  3.9317  0.1022
 3596SOL     OW22249   3.417   2.617  15.149  0.1416 -0.0557 -0.1496
 3596SOL    HW122250   3.449   2.613  15.239  1.3939 -0.9125 -0.6405
 3596SOL    HW222251   3.502   2.620  15.106  0.2038  4.0586  0.2235
 3597SOL     OW22252   1.316   1.908  10.525  0.4086 -0.3613  0.6990
 3597SOL    HW122253   1.305   1.998  10.556  1.5923  0.1059 -0.2287
 3597SOL    HW222254   1.378   1.873  10.589  1.2174 -0.1409  0.0533
 3598SOL     OW22255   0.882   3.234   5.978  0.2450  0.6770  0.2220
 3598SOL    HW122256   0.821   3.213   6.049  0.6727  1.5488  0.8462
 3598SOL    HW222257   0.854   3.323   5.958  0.1360  0.3404 -1.0750
 3599SOL     OW22258   0.924   4.097   7.480 -0.0913 -0.1178  0.7444
 3599SOL    HW122259   0.964   4.142   7.406  0.3766 -2.0709 -0.1791
 3599SOL    HW222260   0.860   4.163   7.507  0.9804  0.9432  0.7034
 3600SOL     OW22261   1.697   3.637  10.449  0.0316  0.1263 -0.2094
 3600SOL    HW122262   1.708   3.695  10.374  1.2961 -0.2437 -0.3176
 3600SOL    HW222263   1.776   3.583  10.435  0.4116  0.6437 -0.0686
 3601SOL     OW22264   3.727   1.141   5.771 -0.5042  0.4071 -0.3028
 3601SOL    HW122265   3.673   1.119   5.695  2.2736 -2.2690 -1.5429
 3601SOL    HW222266   3.665   1.156   5.842 -0.5757  0.1968 -0.3210
 3602SOL     OW22267   3.087   0.396   0.253  0.1306  0.4038  0.4382
 3602SOL    HW122268   3.100   0.490   0.258  1.3316  0.3227 -1.0986
 3602SOL    HW222269   3.096   0.377   0.347  0.6610  2.6093  0.8253
 3603SOL     OW22270   4.276   1.619   8.575 -0.2973 -0.5155 -0.2457
 3603SOL    HW122271   4.336   1.649   8.506  0.4920 -2.9835 -0.6379
 3603SOL    HW222272   4.335   1.586   8.643 -1.3919 -0.7377  0.6011
 3604SOL     OW22273   2.606   1.021  17.368  0.5262  0.6318  0.2298
 3604SOL    HW122274   2.596   1.108  17.330 -0.9827 -0.8960 -2.8868
 3604SOL    HW222275   2.535   1.005  17.430 -0.1239  0.0196 -0.6596
 3605SOL     OW22276   4.289   4.123   8.405 -0.6385  0.3925 -0.2573
 3605SOL    HW122277   4.343   4.182   8.353  0.2682 -0.4317 -0.2616
 3605SOL    HW222278   4.320   4.041   8.366 -0.7059 -0.1841  0.8876
 3606SOL     OW22279   2.724   2.179   2.760 -0.3371 -0.3891  0.8636
 3606SOL    HW122280   2.642   2.225   2.747  0.3763  0.7336  0.3186
 3606SOL    HW222281   2.738   2.217   2.847  3.3433  2.0157 -0.7817
 3607SOL     OW22282   2.227   3.623   6.566  0.1480  0.3384 -0.0860
 3607SOL    HW122283   2.230   3.539   6.611 -1.5664 -0.8551 -2.2471
 3607SOL    HW222284   2.291   3.673   6.617  0.7457 -0.4761 -0.0374
 3608SOL     OW22285   3.378   3.300   4.922  0.0485  0.4989  0.2380
 3608SOL    HW122286   3.430   3.225   4.951 -0.8736  0.0668  0.7933
 3608SOL    HW222287   3.305   3.290   4.984 -0.0961  0.7819  0.1112
 3609SOL     OW22288   3.203   2.321   8.961  0.1255  0.4391 -0.0360
 3609SOL    HW122289   3.260   2.386   8.920  2.3045  0.1607  2.5213
 3609SOL    HW222290   3.202   2.253   8.894  2.3117 -1.3230  1.6895
 3610SOL     OW22291   1.159   2.713  16.801  0.0642 -0.1971  0.0240
 3610SOL    HW122292   1.191   2.633  16.842 -0.5400 -0.9546 -0.9940
 3610SOL    HW222293   1.238   2.765  16.786  0.8971 -2.1606 -2.3287
 3611SOL     OW22294   3.954   2.284   2.102  0.7729  0.4322 -0.6161
 3611SOL    HW122295   3.898   2.361   2.095 -0.2197 -0.1078  1.2887
 3611SOL    HW222296   4.040   2.325   2.104 -0.3288  2.6885  0.3465
 3612SOL     OW22297   0.743   1.151   4.482 -0.5001 -0.1904  0.0484
 3612SOL    HW122298   0.820   1.138   4.426  0.3010 -1.4293  1.4628
 3612SOL    HW222299   0.763   1.224   4.540  0.1237  2.3227 -3.2933
 3613SOL     OW22300   0.251   3.346  17.649 -0.0299 -0.4428  0.3046
 3613SOL    HW122301   0.270   3.371  17.559  0.9669 -0.7150  0.4283
 3613SOL    HW222302   0.190   3.272  17.649  0.9933 -1.2793 -1.3379
 3614SOL     OW22303   0.037   3.126   1.301  0.2008  0.4375 -0.0711
 3614SOL    HW122304   0.098   3.102   1.231 -0.5437  0.2821 -0.6658
 3614SOL    HW222305   0.093   3.175   1.362 -0.0672 -0.0031  0.5317
 3615SOL     OW22306   0.004   0.055   3.898 -0.5676 -0.0422 -0.3406
 3615SOL    HW122307   0.096   0.048   3.871 -0.3431 -1.5074  0.7916
 3615SOL    HW222308   0.031   0.079   3.987  1.6549 -2.0478 -0.4539
 3616SOL     OW22309   1.231   3.912   6.884  0.4598  0.2547 -0.2066
 3616SOL    HW122310   1.197   3.837   6.835 -1.6875 -0.2308  1.9908
 3616SOL    HW222311   1.297   3.865   6.934 -0.4200 -1.5498 -0.7292
 3617SOL     OW22312   0.767   3.250  12.285  0.2900  0.1448 -0.1927
 3617SOL    HW122313   0.808   3.164  12.279 -1.5578 -0.8713  1.5949
 3617SOL    HW222314   0.804   3.287  12.205 -0.1360 -4.6318 -2.5726
 3618SOL     OW22315   3.945   2.308  12.739  0.5355 -0.3013 -0.1420
 3618SOL    HW122316   3.898   2.266  12.811  2.5972 -0.6303  1.0337
 3618SOL    HW222317   3.935   2.400  12.764 -0.0317 -0.6692  0.9878
 3619SOL     OW22318   1.060   0.662   3.417  0.2153 -0.1093 -0.0654
 3619SOL    HW122319   1.075   0.646   3.323 -0.2729 -0.6027 -0.0613
 3619SOL    HW222320   1.020   0.578   3.440  0.8771 -0.9104 -1.8162
 3620SOL     OW22321   3.249   4.722  11.248 -0.0589  0.3292  0.2789
 3620SOL    HW122322   3.320   4.722  11.183  1.2376  0.7330  1.6972
 3620SOL    HW222323   3.272   0.069  11.306 -2.4533  2.6288 -1.5915
 3621SOL     OW22324   2.940   2.669   5.037 -0.0414 -0.2676  0.4591
 3621SOL    HW122325   2.876   2.676   5.108  1.2554  1.3769  1.4502
 3621SOL    HW222326   2.898   2.603   4.980  0.7317 -1.2355  1.0030
 3622SOL     OW22327   4.578   0.551  13.450  0.0484  0.0172 -0.3337
 3622SOL    HW122328   4.566   0.640  13.418  1.0363 -0.4171 -1.9260
 3622SOL    HW222329   4.512   0.540  13.519  0.2488  0.3564 -0.0872
 3623SOL     OW22330   3.049   1.910   3.662  0.2025  0.2898 -0.9918
 3623SOL    HW122331   3.063   1.957   3.579  1.9398  1.0132 -0.2736
 3623SOL    HW222332   2.961   1.877   3.641  0.3625 -0.0633 -1.0992
 3624SOL     OW22333   3.870   2.153   7.698 -0.0014 -0.1267  0.0278
 3624SOL    HW122334   3.943   2.140   7.758 -0.6739  0.9450  1.0665
 3624SOL    HW222335   3.800   2.127   7.758  1.0711 -0.3931  1.1725
 3625SOL     OW22336   4.592   1.150   4.367  0.6024  0.4504  0.0282
 3625SOL    HW122337   4.603   1.105   4.283 -2.6397 -0.8298  0.3138
 3625SOL    HW222338   4.598   1.077   4.429 -0.6670 -1.0278 -1.5825
 3626SOL     OW22339   0.935   3.209  14.104 -0.4536 -0.2935 -0.1690
 3626SOL    HW122340   1.019   3.239  14.139  0.3749 -1.9737 -0.6989
 3626SOL    HW222341   0.896   3.162  14.178 -1.3531 -0.3579 -0.6781
 3627SOL     OW22342   4.218   0.228  10.267  0.4222  0.3900  0.4364
 3627SOL    HW122343   4.189   0.212  10.357  1.1997 -3.1495  0.0536
 3627SOL    HW222344   4.161   0.297  10.232  0.5622 -0.2706 -1.1079
 3628SOL     OW22345   4.489   0.576  17.438 -0.3163 -0.4630 -0.4976
 3628SOL    HW122346   4.436   0.521  17.495  2.1077 -0.4025  1.8219
 3628SOL    HW222347   4.425   0.635  17.398  1.1371  1.2874 -0.2478
 3629SOL     OW22348   4.676   3.511   4.787  0.0674  0.2627  0.0180
 3629SOL    HW122349   4.600   3.518   4.729  1.3131 -0.3315 -1.7077
 3629SOL    HW222350   0.007   3.572   4.739  0.8480 -0.6068 -0.1854
 3630SOL     OW22351   2.108   3.190  17.461  0.2771  0.4310 -0.3998
 3630SOL    HW122352   2.078   3.139  17.385 -1.3744  0.7155  0.0514
 3630SOL    HW222353   2.135   3.117  17.516 -0.2795  1.3263  1.0557
 3631SOL     OW22354   0.607   0.301   5.870  0.2582  0.0721 -0.3070
 3631SOL    HW122355   0.534   0.243   5.849  1.7043 -2.0274  0.4451
 3631SOL    HW222356   0.555   0.381   5.877  3.1806  2.0890 -1.5522
 3632SOL     OW22357   1.115   1.264  14.212 -0.6440 -0.1925 -0.3000
 3632SOL    HW122358   1.169   1.281  14.135  1.4583  0.2247  1.2451
 3632SOL    HW222359   1.039   1.321  14.202 -2.1259 -1.7148  2.3084
 3633SOL     OW22360   3.172   4.510   4.403  0.3758 -0.6141  0.7247
 3633SOL    HW122361   3.219   4.548   4.477  2.7318  0.8569 -1.5154
 3633SOL    HW222362   3.246   4.459   4.370 -1.5248 -1.2887 -2.5055
 3634SOL     OW22363   3.772   2.288   9.146  0.9210  0.0444  0.5038
 3634SOL    HW122364   3.755   2.371   9.190 -1.1918  0.6309 -1.4404
 3634SOL    HW222365   3.868   2.293   9.145  1.0375 -2.2357  0.5682
 3635SOL     OW22366   0.568   2.316   8.374  0.3193  0.0683 -0.4749
 3635SOL    HW122367   0.479   2.347   8.387  0.6539  0.6066  0.5578
 3635SOL    HW222368   0.548   2.223   8.384  0.8227 -0.1212 -1.1643
 3636SOL     OW22369   2.442   2.142   4.538  0.4167 -0.2213  0.7302
 3636SOL    HW122370   2.497   2.208   4.494 -0.5570 -0.6997 -1.2066
 3636SOL    HW222371   2.504   2.069   4.550  2.2444  1.1774 -0.1417
 3637SOL     OW22372   1.077   4.603   4.600  0.0800  0.5924 -0.3115
 3637SOL    HW122373   1.075   4.654   4.519  0.2368  2.4062  0.8289
 3637SOL    HW222374   1.170   4.603   4.619 -0.4835  2.0620  2.4388
 3638SOL     OW22375   4.265   2.952   7.265  0.2110  0.4041 -0.2821
 3638SOL    HW122376   4.343   3.003   7.286  0.3039  0.8534 -1.7311
 3638SOL    HW222377   4.256   2.961   7.170 -1.1274 -1.0728 -0.3042
 3639SOL     OW22378   3.609   0.878  15.245 -0.7780  0.3779 -0.3345
 3639SOL    HW122379   3.526   0.893  15.288 -0.9680 -2.2349  0.2211
 3639SOL    HW222380   3.616   0.783  15.243  0.2855  0.4314  1.0769
 3640SOL     OW22381   0.728   2.354  16.217 -0.0329  0.1720 -0.2159
 3640SOL    HW122382   0.643   2.386  16.186  0.3934  0.8604 -0.6789
 3640SOL    HW222383   0.764   2.307  16.142  2.7701 -1.8984  2.4211
 3641SOL     OW22384   1.165   2.330  15.312  0.5164  0.0240 -0.0638
 3641SOL    HW122385   1.203   2.414  15.286 -1.0811  1.3525  1.9095
 3641SOL    HW222386   1.164   2.287  15.227  2.1104 -0.5463  0.2111
 3642SOL     OW22387   3.382   0.574  12.987  0.0597 -0.3453 -0.6765
 3642SOL    HW122388   3.389   0.531  12.902  0.2476  2.3064 -1.9992
 3642SOL    HW222389   3.299   0.620  12.973 -0.5648 -1.7705 -1.6396
 3643SOL     OW22390   3.576   1.750  15.683 -0.1079  0.4315 -0.6112
 3643SOL    HW122391   3.636   1.747  15.757 -1.4109  0.2677  0.4259
 3643SOL    HW222392   3.518   1.692  15.732 -0.6441  2.2420  0.8515
 3644SOL     OW22393   0.277   0.462   2.947  0.1149 -0.8949  0.2774
 3644SOL    HW122394   0.346   0.438   3.009  0.2957 -0.0125  0.4163
 3644SOL    HW222395   0.327   0.505   2.877 -1.2242  2.0871  1.2071
 3645SOL     OW22396   1.808   0.206  13.842  0.0575 -0.1633 -0.2813
 3645SOL    HW122397   1.882   0.191  13.783 -0.6530 -1.9386 -0.7217
 3645SOL    HW222398   1.736   0.166  13.795 -0.1429 -0.7385  0.5145
 3646SOL     OW22399   4.722   1.529  17.377 -0.1367 -0.5374  0.0170
 3646SOL    HW122400   0.089   1.504  17.390 -0.4434 -1.1901  0.9219
 3646SOL    HW222401   4.672   1.448  17.386  1.7721 -1.8335 -0.8988
 3647SOL     OW22402   2.429   1.167   6.661  0.1288 -0.4685  0.5328
 3647SOL    HW122403   2.338   1.151   6.685 -0.2586 -1.2448 -1.4514
 3647SOL    HW222404   2.470   1.087   6.629 -0.0998 -0.9895  1.5540
 3648SOL     OW22405   1.096   1.129  15.903  0.0229 -0.5988 -0.4878
 3648SOL    HW122406   1.179   1.103  15.863  0.4112 -0.7995  0.4606
 3648SOL    HW222407   1.048   1.167  15.829  0.9260  0.8229 -0.3560
 3649SOL     OW22408   3.616   1.155   5.249  0.1886  0.1265 -0.7702
 3649SOL    HW122409   3.601   1.099   5.173 -0.5374  0.6158 -0.9935
 3649SOL    HW222410   3.570   1.236   5.225  0.5544  1.6359  3.4928
 3650SOL     OW22411   0.629   0.635   5.681  0.5376  0.0056  0.0467
 3650SOL    HW122412   0.576   0.654   5.604 -0.8911  0.6416  1.1666
 3650SOL    HW222413   0.582   0.671   5.757  1.7144  0.7642  0.4165
 3651SOL     OW22414   3.810   3.331  12.945  1.0279  0.4389  0.2079
 3651SOL    HW122415   3.753   3.258  12.967  1.4662 -0.4100 -1.4937
 3651SOL    HW222416   3.891   3.304  12.900  1.2236 -0.0857  0.8693
 3652SOL     OW22417   0.727   1.765   9.432 -0.0571 -0.6786 -0.1296
 3652SOL    HW122418   0.743   1.678   9.468  0.1447 -0.3260  0.6414
 3652SOL    HW222419   0.812   1.782   9.390  1.5676 -3.3475  2.1102
 3653SOL     OW22420   0.748   3.990  12.821 -0.3116  0.4274 -0.9002
 3653SOL    HW122421   0.818   4.045  12.785  0.2172 -0.2091 -0.8358
 3653SOL    HW222422   0.672   4.029  12.778 -0.7669  1.4285  0.8222
 3654SOL     OW22423   1.875   4.156   9.593  0.1721 -0.3523  0.3184
 3654SOL    HW122424   1.949   4.119   9.642 -1.0432 -1.5851  1.2244
 3654SOL    HW222425   1.812   4.084   9.588 -0.7502  0.4726  0.0112
 3655SOL     OW22426   3.354   0.065   4.781  0.0254 -0.0620  0.4982
 3655SOL    HW122427   3.350   0.103   4.869  0.3753 -1.5527  1.1594
 3655SOL    HW222428   3.387   0.148   4.744 -1.4152 -0.4102 -1.6012
 3656SOL     OW22429   0.129   1.074  10.060 -0.0823 -0.4247  0.8579
 3656SOL    HW122430   0.130   1.166  10.085 -1.2340  0.0187 -0.7069
 3656SOL    HW222431   0.041   1.048  10.086 -0.2961 -0.9619 -0.3727
 3657SOL     OW22432   1.703   3.235  11.022  0.3672 -0.0686 -0.3247
 3657SOL    HW122433   1.649   3.165  11.058 -0.9050  0.4244 -1.2683
 3657SOL    HW222434   1.647   3.279  10.958  1.5171  1.4606 -0.2934
 3658SOL     OW22435   0.902   1.464  14.197  0.1034  0.6595 -0.6294
 3658SOL    HW122436   0.834   1.515  14.241  0.2149  0.0747  0.2125
 3658SOL    HW222437   0.856   1.470  14.113  2.5032 -2.5059 -2.1609
 3659SOL     OW22438   1.781   0.518   9.350  0.2468 -0.3985 -0.0441
 3659SOL    HW122439   1.747   0.493   9.264 -1.7406 -0.3266  0.7107
 3659SOL    HW222440   1.865   0.473   9.341  0.4408  0.1871 -1.0918
 3660SOL     OW22441   1.297   4.672   2.204  0.6528 -0.3963 -0.2259
 3660SOL    HW122442   1.372   0.004   2.186 -0.7707  1.6817  0.3665
 3660SOL    HW222443   1.331   4.629   2.283  2.2609 -4.2575 -3.0341
 3661SOL     OW22444   3.240   1.845  16.668  0.2596  0.0004  0.2311
 3661SOL    HW122445   3.254   1.788  16.592 -2.3893 -0.7014  0.2598
 3661SOL    HW222446   3.257   1.787  16.741  2.1387  0.1064 -0.1332
 3662SOL     OW22447   2.623   3.957   4.059 -0.1654  0.3835 -0.4008
 3662SOL    HW122448   2.654   4.046   4.038  0.1931  0.9841  2.5323
 3662SOL    HW222449   2.648   3.909   3.981 -0.2278 -0.8615  0.3465
 3663SOL     OW22450   2.785   0.405   9.243  0.3718  0.5523  0.1842
 3663SOL    HW122451   2.854   0.344   9.215 -1.3302 -0.7717 -1.1066
 3663SOL    HW222452   2.818   0.488   9.207 -1.6183  1.4769  0.5232
 3664SOL     OW22453   2.254   1.041   8.041  0.2360  0.8051 -0.0480
 3664SOL    HW122454   2.201   1.110   8.081  0.4103  0.3000  1.0553
 3664SOL    HW222455   2.281   0.986   8.115  1.7117  2.6011  0.7576
 3665SOL     OW22456   3.667   3.100   5.475 -0.4617  0.2566  0.0570
 3665SOL    HW122457   3.732   3.114   5.406  1.4287  0.7684  1.9599
 3665SOL    HW222458   3.600   3.167   5.461 -1.4812 -1.1206 -1.7590
 3666SOL     OW22459   4.377   0.297  10.041 -0.2998 -0.4981 -0.0341
 3666SOL    HW122460   4.346   0.274  10.129  1.9211 -0.9870  0.6191
 3666SOL    HW222461   4.312   0.249   9.989 -0.2160 -0.2607 -0.3596
 3667SOL     OW22462   2.215   3.325   6.648  0.0991  0.4194  0.2616
 3667SOL    HW122463   2.294   3.319   6.702 -0.7580 -0.6063  1.4194
 3667SOL    HW222464   2.229   3.249   6.590 -2.8019  0.7844 -0.8845
 3668SOL     OW22465   2.616   2.723   5.330 -0.3120 -0.8011 -0.1280
 3668SOL    HW122466   2.534   2.675   5.342 -0.6046 -0.5715 -1.2087
 3668SOL    HW222467   2.613   2.775   5.410 -3.1575 -1.4087  0.1650
 3669SOL     OW22468   3.531   1.134   7.005 -0.2843 -0.1816 -0.0780
 3669SOL    HW122469   3.482   1.057   6.976  0.1716 -1.6131  2.9304
 3669SOL    HW222470   3.622   1.103   7.012 -1.0119 -1.8495  2.0065
 3670SOL     OW22471   0.224   1.480   7.079 -0.0622  0.1659 -0.0748
 3670SOL    HW122472   0.201   1.479   7.172  0.3336 -0.0361  0.0191
 3670SOL    HW222473   0.207   1.390   7.053  1.2321  0.1939 -1.0159
 3671SOL     OW22474   0.441   2.854  16.100 -0.1981  0.8072  0.3435
 3671SOL    HW122475   0.530   2.827  16.076 -1.2635 -0.8416 -1.7520
 3671SOL    HW222476   0.448   2.846  16.195 -1.4523 -0.5603  0.3247
 3672SOL     OW22477   4.670   2.145  11.097 -0.4936 -0.4671 -0.6111
 3672SOL    HW122478   0.001   2.140  11.019  2.6406 -3.7419  1.8743
 3672SOL    HW222479   4.721   2.099  11.163  1.4712  1.3943 -0.8049
 3673SOL     OW22480   1.185   3.072   3.049 -0.5302  0.2249  0.0280
 3673SOL    HW122481   1.148   3.068   3.137 -0.1399 -2.2220  0.0795
 3673SOL    HW222482   1.111   3.119   3.011 -1.4721  0.2766  1.8937
 3674SOL     OW22483   0.373   2.769  12.452 -0.3678 -0.0065 -0.4681
 3674SOL    HW122484   0.463   2.739  12.441 -1.1480 -1.7335 -2.0883
 3674SOL    HW222485   0.388   2.839  12.516  2.4885 -1.1853  0.1774
 3675SOL     OW22486   3.746   2.614   1.027  0.1614  0.2241 -0.2248
 3675SOL    HW122487   3.689   2.577   1.095  2.7151 -0.5473  1.4730
 3675SOL    HW222488   3.763   2.544   0.964 -0.1764 -0.5286  0.5246
 3676SOL     OW22489   2.840   0.236   4.464  0.2302 -0.5667 -0.5664
 3676SOL    HW122490   2.918   0.190   4.434 -0.6904 -1.4517 -1.5955
 3676SOL    HW222491   2.787   0.222   4.386 -1.9879  1.8699  0.5087
 3677SOL     OW22492   1.671   1.620  17.361  0.2550  0.3616 -0.1005
 3677SOL    HW122493   1.575   1.617  17.365  0.2126 -1.3198 -2.1990
 3677SOL    HW222494   1.697   1.712  17.370  1.4751 -0.0228  0.1852
 3678SOL     OW22495   4.564   0.451   0.594 -0.5821  0.4141  0.1278
 3678SOL    HW122496   4.510   0.421   0.522 -0.0434 -1.6048  0.5559
 3678SOL    HW222497   4.633   0.491   0.541  0.5197 -1.5706  0.0532
 3679SOL     OW22498   0.163   4.634   8.035 -0.3379 -0.2328 -0.2341
 3679SOL    HW122499   0.213   4.647   8.115 -0.1561 -0.2172 -0.3500
 3679SOL    HW222500   0.144   0.002   8.029 -1.8997 -0.4555  1.0010
 3680SOL     OW22501   2.500   1.823   2.488  0.6091  0.0434 -0.0392
 3680SOL    HW122502   2.441   1.862   2.553  1.9505  1.8269  0.1100
 3680SOL    HW222503   2.458   1.742   2.461 -2.5214  0.7353  2.7738
 3681SOL     OW22504   4.719   1.310  10.177 -0.3633 -0.7858 -0.4670
 3681SOL    HW122505   0.027   1.386  10.225  1.3787  1.3306 -5.0937
 3681SOL    HW222506   4.704   1.249  10.249 -1.4588  0.4795  0.3754
 3682SOL     OW22507   3.277   2.225   7.354  0.7767  0.3430  0.0915
 3682SOL    HW122508   3.275   2.308   7.401 -2.5667  0.5710 -0.3951
 3682SOL    HW222509   3.218   2.239   7.280 -0.4729 -0.2751  0.9724
 3683SOL     OW22510   4.457   4.421   4.111 -0.4904  0.6804 -0.3835
 3683SOL    HW122511   4.387   4.384   4.057 -0.7366 -3.0396  2.5253
 3683SOL    HW222512   4.460   4.511   4.079  1.0251  0.4025 -1.0385
 3684SOL     OW22513   2.749   3.772   4.825 -0.1640 -0.2236  0.1737
 3684SOL    HW122514   2.731   3.850   4.774 -1.7794 -0.4838  0.3624
 3684SOL    HW222515   2.817   3.731   4.772 -0.3925  0.7009 -0.8231
 3685SOL     OW22516   1.778   1.337  13.792 -0.0916  0.4358  1.0480
 3685SOL    HW122517   1.787   1.359  13.699  1.4233 -2.1538  0.5737
 3685SOL    HW222518   1.820   1.413  13.831 -0.1140  0.9681  0.0510
 3686SOL     OW22519   2.414   3.843  13.868 -0.1551 -0.1795 -0.2188
 3686SOL    HW122520   2.335   3.850  13.922  0.8385  0.7079  1.0944
 3686SOL    HW222521   2.390   3.903  13.797 -3.6512 -1.2749  0.0391
 3687SOL     OW22522   1.739   3.780  14.657 -0.3026  0.2881 -0.0212
 3687SOL    HW122523   1.654   3.824  14.657 -0.5957 -0.2604 -2.1468
 3687SOL    HW222524   1.794   3.856  14.678  0.8319 -1.1408  2.1611
 3688SOL     OW22525   4.577   2.278   6.449 -0.5432  0.3725  0.4626
 3688SOL    HW122526   4.632   2.301   6.524 -0.2270  0.1040  0.3168
 3688SOL    HW222527   4.492   2.278   6.492 -0.8703  0.3192 -0.1908
 3689SOL     OW22528   0.006   4.152   8.988  0.0828  0.2149  0.7889
 3689SOL    HW122529   0.088   4.114   8.957 -1.4182 -1.1717 -1.4527
 3689SOL    HW222530   4.670   4.096   8.941 -0.1844  2.3355 -1.4492
 3690SOL     OW22531   4.702   0.968   7.975  0.0606 -0.2759  0.0963
 3690SOL    HW122532   0.010   0.894   7.923 -0.5573  0.5373 -1.4710
 3690SOL    HW222533   0.044   0.975   8.042  3.4017  1.6902 -3.4599
 3691SOL     OW22534   1.263   1.812   8.935  0.1801 -0.0262  0.3799
 3691SOL    HW122535   1.254   1.779   8.846 -0.6754 -0.2672  0.5585
 3691SOL    HW222536   1.223   1.751   8.997  0.1664  0.4320  0.8311
 3692SOL     OW22537   3.770   0.713   6.347 -0.2077  0.7775 -0.4021
 3692SOL    HW122538   3.811   0.779   6.402  2.6414 -1.5402  0.2885
 3692SOL    HW222539   3.844   0.693   6.289 -2.0196  0.6787 -2.6764
 3693SOL     OW22540   4.175   3.475   8.695 -0.0306  0.1211 -0.1552
 3693SOL    HW122541   4.130   3.481   8.779 -0.7524  2.7780 -0.7086
 3693SOL    HW222542   4.185   3.380   8.688  1.7157  0.4658 -2.5453
 3694SOL     OW22543   2.801   0.088   9.360  0.0606  0.0415  0.0208
 3694SOL    HW122544   2.794   0.115   9.452  1.3069 -0.7821  0.3573
 3694SOL    HW222545   2.874   0.147   9.339 -0.2237  1.0614  1.7722
 3695SOL     OW22546   3.740   0.038  11.183  0.4914  0.3393  0.3249
 3695SOL    HW122547   3.763   0.074  11.097  2.0160  2.2305  1.5224
 3695SOL    HW222548   3.812   4.701  11.184 -0.2520 -0.5232  0.3810
 3696SOL     OW22549   0.123   3.134  17.334 -0.5399 -0.0245 -0.3456
 3696SOL    HW122550   0.116   3.223  17.368 -1.0214 -0.4497  0.6661
 3696SOL    HW222551   0.217   3.119  17.348 -0.4489 -0.2570 -1.2069
 3697SOL     OW22552   4.626   3.884   3.162 -0.5148  0.2634 -0.2727
 3697SOL    HW122553   4.660   3.868   3.074  0.5144  0.3027  0.1163
 3697SOL    HW222554   4.533   3.861   3.162 -0.8777  1.6972 -1.9045
 3698SOL     OW22555   2.030   1.565   6.158 -0.0635 -0.1937 -0.1878
 3698SOL    HW122556   2.096   1.575   6.089 -0.2375 -1.4418 -0.5415
 3698SOL    HW222557   1.947   1.584   6.114 -0.0529  0.7053  0.2032
 3699SOL     OW22558   2.360   4.100   6.320 -0.2634  0.6139  0.1807
 3699SOL    HW122559   2.320   4.180   6.286  0.0885  0.8172  0.2437
 3699SOL    HW222560   2.410   4.142   6.390 -1.1573  0.6499  0.7930
 3700SOL     OW22561   0.296   1.894   7.603  0.3093  0.8161 -0.1031
 3700SOL    HW122562   0.281   1.988   7.610  1.8444  0.9494  1.4593
 3700SOL    HW222563   0.295   1.857   7.692 -2.1159 -0.7189 -0.7721
 3701SOL     OW22564   0.610   2.524   5.732  0.3121  0.1462 -0.0051
 3701SOL    HW122565   0.634   2.559   5.646  0.1226  0.2706 -0.0073
 3701SOL    HW222566   0.525   2.487   5.709 -0.2969  1.9079 -0.6485
 3702SOL     OW22567   1.481   1.219   2.673  0.3466  0.3409  0.7603
 3702SOL    HW122568   1.392   1.209   2.639  0.1405  1.2812  1.0290
 3702SOL    HW222569   1.533   1.163   2.615 -0.0277 -0.2267  0.9755
 3703SOL     OW22570   2.818   3.675  13.478 -0.7867 -0.4549 -0.0635
 3703SOL    HW122571   2.902   3.638  13.451 -0.5568  0.1884 -0.2397
 3703SOL    HW222572   2.830   3.752  13.534 -1.1875  1.8678 -3.1180
 3704SOL     OW22573   0.622   0.825  17.130 -0.1557  0.4493  0.3049
 3704SOL    HW122574   0.638   0.919  17.118  0.4734  0.2952 -0.0225
 3704SOL    HW222575   0.661   0.808  17.216 -0.3970 -1.5913  0.0173
 3705SOL     OW22576   3.296   2.311   9.249 -0.2961 -0.0446 -0.3244
 3705SOL    HW122577   3.294   2.407   9.255  2.2208 -0.0641  0.8710
 3705SOL    HW222578   3.343   2.287   9.169 -1.9151 -1.3950 -0.8711
 3706SOL     OW22579   1.431   1.377   7.726 -0.3045  0.0752 -0.0094
 3706SOL    HW122580   1.460   1.442   7.790 -3.3583  0.0180  1.4557
 3706SOL    HW222581   1.388   1.307   7.775 -0.3563  1.3073  1.6955
 3707SOL     OW22582   3.762   1.649   8.873 -0.0158  0.4505  0.2474
 3707SOL    HW122583   3.837   1.660   8.931  0.0585 -0.6753  0.3636
 3707SOL    HW222584   3.791   1.573   8.823 -1.2635  1.2902 -1.7493
 3708SOL     OW22585   4.247   2.965   6.727  0.6791 -0.1378 -0.2931
 3708SOL    HW122586   4.153   2.950   6.718  0.7922 -1.2632  0.3636
 3708SOL    HW222587   4.292   2.884   6.703 -0.9761 -1.0858 -0.1862
 3709SOL     OW22588   0.634   3.167   4.048 -0.0096 -0.1463 -0.1720
 3709SOL    HW122589   0.550   3.193   4.085  0.6485  0.9991  0.5317
 3709SOL    HW222590   0.693   3.228   4.093 -0.4301 -1.0970  1.6693
 3710SOL     OW22591   3.317   0.829   1.957 -0.0938  0.1011 -0.3458
 3710SOL    HW122592   3.274   0.746   1.980 -0.4377 -0.4032 -2.8278
 3710SOL    HW222593   3.337   0.816   1.865  2.7284  1.7796  0.0227
 3711SOL     OW22594   2.538   3.403   2.740 -0.0683  0.2487  0.2287
 3711SOL    HW122595   2.452   3.433   2.770  1.3488  2.3080  2.2028
 3711SOL    HW222596   2.591   3.456   2.800  2.0167  1.0630 -2.3757
 3712SOL     OW22597   3.941   0.859   1.919 -0.0977 -0.1502 -0.5950
 3712SOL    HW122598   3.884   0.909   1.860  0.2312 -0.0253 -0.8074
 3712SOL    HW222599   3.992   0.930   1.958  2.3222 -1.4601 -1.3440
 3713SOL     OW22600   2.826   2.888   0.580 -0.1519  0.1888 -0.0865
 3713SOL    HW122601   2.824   2.972   0.627 -1.6997 -0.0504  0.2670
 3713SOL    HW222602   2.741   2.899   0.538 -0.4057  0.9291  0.6242
 3714SOL     OW22603   0.720   1.236   6.029  0.2806 -0.2676  0.8342
 3714SOL    HW122604   0.782   1.168   6.004 -2.4627 -2.4239 -0.2311
 3714SOL    HW222605   0.738   1.248   6.122  1.1202 -1.2346  0.7859
 3715SOL     OW22606   3.661   1.150  11.036 -0.0433  0.0249  0.2116
 3715SOL    HW122607   3.751   1.147  11.066 -0.2626 -0.2296  0.8360
 3715SOL    HW222608   3.658   1.068  10.988  0.2992  0.5924 -0.7764
 3716SOL     OW22609   2.734   1.991   3.100  0.9397 -0.0460 -0.4936
 3716SOL    HW122610   2.761   2.075   3.064  0.5801  0.6156  0.7790
 3716SOL    HW222611   2.777   1.933   3.038  3.3769  0.0040  1.1280
 3717SOL     OW22612   2.930   3.095   8.600  0.1391  0.1840  0.4629
 3717SOL    HW122613   2.939   3.004   8.570  1.0166 -0.0016  1.3210
 3717SOL    HW222614   3.021   3.122   8.589  0.7187 -0.4285  3.7154
 3718SOL     OW22615   3.840   3.057   5.983 -0.6139 -0.1628  0.2231
 3718SOL    HW122616   3.816   3.066   5.890 -0.4343  0.8714  0.2809
 3718SOL    HW222617   3.795   2.974   6.001 -2.3452  0.8806  0.6694
 3719SOL     OW22618   4.558   2.427  10.343  0.3190  0.9101 -0.1364
 3719SOL    HW122619   4.468   2.448  10.367  0.4372 -1.6920  2.5826
 3719SOL    HW222620   4.608   2.497  10.385  2.6094 -1.0278  0.3428
 3720SOL     OW22621   2.577   2.904   2.184  0.2656 -0.1144 -0.7236
 3720SOL    HW122622   2.530   2.878   2.105 -1.4333 -1.4868  0.7262
 3720SOL    HW222623   2.669   2.880   2.174  0.6469  0.8922  0.2884
 3721SOL     OW22624   4.091   2.027   9.737  0.4087  0.2782 -0.1257
 3721SOL    HW122625   4.051   2.082   9.804  1.9045  2.1385 -0.7405
 3721SOL    HW222626   4.151   2.094   9.703  1.6719 -0.2631  1.0271
 3722SOL     OW22627   1.518   1.423  11.859 -0.2203 -0.2062  0.5982
 3722SOL    HW122628   1.464   1.397  11.785  0.6492 -1.0647  0.2664
 3722SOL    HW222629   1.488   1.514  11.865  2.2851  0.7436 -1.1920
 3723SOL     OW22630   0.063   4.133  12.454 -0.0761 -0.0865  0.4745
 3723SOL    HW122631   0.016   4.216  12.465 -0.6731 -0.5436  1.3886
 3723SOL    HW222632   4.713   4.077  12.476 -1.1982  0.6377 -1.5461
 3724SOL     OW22633   2.916   1.696  12.817  0.3797  0.1091  0.1091
 3724SOL    HW122634   2.893   1.606  12.838  1.3666  0.1838  1.5710
 3724SOL    HW222635   2.841   1.744  12.853 -0.5017 -0.4567 -0.9767
 3725SOL     OW22636   1.876   0.815   4.037 -0.0223 -0.7730  0.4683
 3725SOL    HW122637   1.800   0.852   3.993 -0.1634 -1.2221  0.3402
 3725SOL    HW222638   1.908   0.900   4.068  1.4578 -0.5917 -1.5150
 3726SOL     OW22639   3.909   0.896  14.838 -0.2872 -0.1280  0.3749
 3726SOL    HW122640   3.843   0.886  14.906  0.3689  0.1557  1.0491
 3726SOL    HW222641   3.975   0.829  14.854  0.8190  1.0778  0.8235
 3727SOL     OW22642   3.721   3.023   8.611  0.0324  0.3031  0.0313
 3727SOL    HW122643   3.698   3.116   8.607 -2.7532 -0.4503 -1.6122
 3727SOL    HW222644   3.806   3.036   8.571 -0.6705 -2.8886 -2.5109
 3728SOL     OW22645   2.026   3.480   3.269 -0.5902 -0.1524  0.5442
 3728SOL    HW122646   1.931   3.474   3.264 -0.6414 -0.2869  1.7273
 3728SOL    HW222647   2.041   3.573   3.252 -3.3010  0.4589  1.6227
 3729SOL     OW22648   3.969   1.635   4.787  0.7254  0.8654  0.7346
 3729SOL    HW122649   3.878   1.632   4.758  1.0951 -3.5927 -0.0147
 3729SOL    HW222650   3.984   1.544   4.815  0.5529  0.8903  0.9053
 3730SOL     OW22651   4.472   0.264   8.557  0.4221  0.1668  0.5552
 3730SOL    HW122652   4.485   0.203   8.484  0.8849  2.7976 -1.5822
 3730SOL    HW222653   4.413   0.210   8.610 -0.6806  1.3684  0.5521
 3731SOL     OW22654   4.207   2.853   3.474  0.7331  0.4436  0.1213
 3731SOL    HW122655   4.233   2.773   3.521  1.1222  0.0228 -0.7992
 3731SOL    HW222656   4.174   2.818   3.391 -0.3807  1.2585  0.2261
 3732SOL     OW22657   4.664   4.289   7.103  0.0642  0.2452 -0.2469
 3732SOL    HW122658   4.676   4.223   7.036 -0.3572 -0.5600  0.4766
 3732SOL    HW222659   0.018   4.286   7.157  1.0840 -2.4693 -1.9248
 3733SOL     OW22660   1.265   0.330   8.957 -0.1689 -0.2164  0.1650
 3733SOL    HW122661   1.299   0.390   9.023 -2.7088  0.2127  1.0893
 3733SOL    HW222662   1.173   0.319   8.982  0.2432 -0.3429  1.6605
 3734SOL     OW22663   3.318   1.091  11.085 -0.1268  0.1478 -0.1689
 3734SOL    HW122664   3.394   1.043  11.120 -0.5849  0.1807  0.8756
 3734SOL    HW222665   3.272   1.100  11.168  0.3253 -0.2170  0.1238
 3735SOL     OW22666   0.390   1.415  13.763 -0.1518 -0.6038 -0.0627
 3735SOL    HW122667   0.354   1.478  13.825  0.7775 -1.4847  1.3669
 3735SOL    HW222668   0.392   1.331  13.809 -1.0606 -0.0618  0.9430
 3736SOL     OW22669   4.050   1.922   4.692 -0.3800 -0.5310  0.2836
 3736SOL    HW122670   4.077   1.932   4.600  1.6596  0.8062  1.0343
 3736SOL    HW222671   4.039   1.827   4.692 -1.7906 -0.3699 -0.1259
 3737SOL     OW22672   3.024   4.659   0.475  0.5721  0.2373  0.0583
 3737SOL    HW122673   2.975   4.629   0.551  1.2045  1.8239  1.0710
 3737SOL    HW222674   2.963   4.723   0.438 -1.3169  0.9564  4.4059
 3738SOL     OW22675   4.449   1.547   6.046  0.8914 -0.5320 -0.2080
 3738SOL    HW122676   4.478   1.457   6.065  2.6161 -0.1930 -1.1956
 3738SOL    HW222677   4.527   1.601   6.056  0.8193 -0.0804 -2.1003
 3739SOL     OW22678   2.710   1.577   4.628 -0.1879  0.0948 -0.6547
 3739SOL    HW122679   2.759   1.547   4.551 -2.2201  0.8796 -2.2377
 3739SOL    HW222680   2.777   1.556   4.694  0.2200  0.9078 -0.8131
 3740SOL     OW22681   1.446   1.877   5.973 -0.5099 -0.1728 -0.0462
 3740SOL    HW122682   1.432   1.904   6.064  1.2534  1.6026 -0.3017
 3740SOL    HW222683   1.380   1.930   5.929  1.0244  1.9923  0.2757
 3741SOL     OW22684   1.495   2.016  16.942 -0.1693 -0.4263  0.2387
 3741SOL    HW122685   1.553   2.092  16.945 -1.3099  0.5182 -1.3813
 3741SOL    HW222686   1.413   2.055  16.972 -0.8676  0.1057 -2.2842
 3742SOL     OW22687   1.145   2.442   7.700  0.5075 -0.3327  0.6499
 3742SOL    HW122688   1.149   2.416   7.608 -0.7296 -1.6386  0.9570
 3742SOL    HW222689   1.145   2.360   7.749 -1.5097 -0.1784  0.9355
 3743SOL     OW22690   0.037   3.545   8.513 -0.0003  0.0083 -0.2447
 3743SOL    HW122691   4.724   3.531   8.600  1.1107  2.7206  0.6807
 3743SOL    HW222692   0.132   3.551   8.525  0.0534 -1.0208 -0.1630
 3744SOL     OW22693   0.610   4.399   6.087  0.1499  0.1405  0.1113
 3744SOL    HW122694   0.565   4.360   6.162 -1.7095 -0.2907 -1.2250
 3744SOL    HW222695   0.556   4.383   6.010 -1.3314  2.6649  0.6444
 3745SOL     OW22696   4.614   1.306   8.566 -0.2575 -0.4742 -0.2908
 3745SOL    HW122697   4.541   1.320   8.626 -0.2913 -1.2237 -0.1630
 3745SOL    HW222698   4.682   1.363   8.601 -1.1933  1.3930 -1.4927
 3746SOL     OW22699   2.493   1.765  15.826 -0.1703 -0.4989 -0.0401
 3746SOL    HW122700   2.418   1.821  15.846 -0.3665 -0.6454 -0.3660
 3746SOL    HW222701   2.552   1.766  15.901  1.7388  0.2670 -1.5508
 3747SOL     OW22702   0.113   1.408  11.153  0.3993 -0.4451  0.2429
 3747SOL    HW122703   0.149   1.360  11.228  0.8713 -0.1823  0.1860
 3747SOL    HW222704   0.192   1.421  11.101  0.1768 -0.4014 -0.0837
 3748SOL     OW22705   3.624   1.716   7.429  0.0062  0.0316 -0.0169
 3748SOL    HW122706   3.603   1.684   7.341 -0.3455  2.4578 -0.8178
 3748SOL    HW222707   3.541   1.730   7.475 -2.5610 -2.0603 -3.9474
 3749SOL     OW22708   4.272   3.659   3.842 -0.1857 -0.0913 -0.0143
 3749SOL    HW122709   4.367   3.650   3.852 -0.4516 -1.2237  1.6638
 3749SOL    HW222710   4.274   3.745   3.801  2.1693 -1.1764 -2.2235
 3750SOL     OW22711   2.194   3.162   4.206 -0.3846  0.0316  0.0105
 3750SOL    HW122712   2.270   3.219   4.201 -0.0202 -0.2920  1.9917
 3750SOL    HW222713   2.209   3.136   4.297  0.2812 -0.9341 -0.3761
 3751SOL     OW22714   1.750   0.718   8.506  0.3131 -0.0776  0.1344
 3751SOL    HW122715   1.674   0.756   8.462  1.9749  0.9788 -1.8136
 3751SOL    HW222716   1.809   0.700   8.433 -1.6092  1.4920 -1.8136
 3752SOL     OW22717   4.546   1.290  10.741  0.2596  0.2614  0.2154
 3752SOL    HW122718   4.516   1.220  10.798 -1.0066  1.2299  0.7548
 3752SOL    HW222719   4.573   1.351  10.809  1.6378  1.0450 -1.0295
 3753SOL     OW22720   3.448   1.208   4.299 -0.3500  0.7746  0.3335
 3753SOL    HW122721   3.511   1.202   4.228  0.1538  0.5433  0.7976
 3753SOL    HW222722   3.394   1.133   4.275 -0.8685  1.4632 -0.6712
 3754SOL     OW22723   3.784   0.929   6.023 -0.2886  0.4215  0.4067
 3754SOL    HW122724   3.771   0.859   5.960 -2.1668  0.8244  0.3531
 3754SOL    HW222725   3.818   0.994   5.961  1.8240 -3.0127 -1.9988
 3755SOL     OW22726   2.743   3.745   5.506  0.2430 -0.3972  0.3743
 3755SOL    HW122727   2.649   3.745   5.484  0.2681 -0.8962  0.2595
 3755SOL    HW222728   2.775   3.781   5.423  0.1637  1.6433  1.2301
 3756SOL     OW22729   1.982   4.081   8.525  0.9841  0.2883  0.7525
 3756SOL    HW122730   1.977   4.175   8.545 -0.5101 -0.1648  2.5223
 3756SOL    HW222731   1.891   4.071   8.494  1.4018  0.7494 -0.6412
 3757SOL     OW22732   1.283   4.286  11.579 -0.4875  0.2961  0.2150
 3757SOL    HW122733   1.197   4.317  11.607 -0.1096  0.3718  1.3125
 3757SOL    HW222734   1.327   4.369  11.595  1.9927 -1.1628  1.0382
 3758SOL     OW22735   1.031   4.152   2.112 -0.3754 -0.4275  0.2233
 3758SOL    HW122736   0.998   4.229   2.157 -1.6614 -0.9947  0.2601
 3758SOL    HW222737   1.124   4.147   2.135 -0.3754 -0.3197  0.2435
 3759SOL     OW22738   0.002   2.561   6.959 -0.1911  0.0067 -0.7322
 3759SOL    HW122739   4.701   2.623   7.027 -0.6816  1.4070 -2.1920
 3759SOL    HW222740   4.646   2.541   6.914 -0.1975  0.9461 -1.1412
 3760SOL     OW22741   3.489   2.359  17.020  0.0025 -0.2305  0.0773
 3760SOL    HW122742   3.556   2.342  16.953 -2.4163 -0.1944 -2.3426
 3760SOL    HW222743   3.427   2.288  17.005 -1.6688  1.1036  0.7069
 3761SOL     OW22744   3.079   3.309   0.766  0.4150  0.4492 -0.4747
 3761SOL    HW122745   3.155   3.352   0.726  0.2596  1.9195  0.8067
 3761SOL    HW222746   3.008   3.366   0.738 -1.0623 -1.2548 -0.2281
 3762SOL     OW22747   1.883   4.714   4.103  0.2041  0.3001 -0.4067
 3762SOL    HW122748   1.958   0.012   4.048  0.1725  3.5177  0.9125
 3762SOL    HW222749   1.898   0.057   4.168 -0.5287  0.5714 -0.5276
 3763SOL     OW22750   1.019   2.356  17.486 -0.0023 -0.0655  0.3344
 3763SOL    HW122751   0.990   2.423  17.548  2.1111 -0.0474  1.2973
 3763SOL    HW222752   1.009   2.277  17.539  3.3932 -1.8083 -1.6318
 3764SOL     OW22753   3.099   3.558   9.788 -0.8405 -0.0667  0.3032
 3764SOL    HW122754   3.112   3.500   9.713 -0.1707 -1.0987  1.2161
 3764SOL    HW222755   3.033   3.515   9.841 -3.1921  2.7122 -0.3459
 3765SOL     OW22756   2.578   3.182  13.991  0.5406 -0.2427 -0.1318
 3765SOL    HW122757   2.527   3.116  14.037 -0.2470  0.1259 -0.4675
 3765SOL    HW222758   2.556   3.263  14.037  0.9250 -0.7536  0.9492
 3766SOL     OW22759   3.619   0.919   8.407  0.1052 -0.4657 -0.2253
 3766SOL    HW122760   3.581   0.862   8.340  1.5371  1.2310 -2.4865
 3766SOL    HW222761   3.679   0.862   8.456  2.1858  0.7513 -1.3236
 3767SOL     OW22762   2.388   4.323  11.497 -0.6780 -0.3937  0.0858
 3767SOL    HW122763   2.462   4.383  11.510  0.1623 -2.0756  2.9482
 3767SOL    HW222764   2.333   4.372  11.436 -0.1790 -0.7666 -0.6645
 3768SOL     OW22765   1.621   0.049   4.052  0.8863 -0.2397 -0.2816
 3768SOL    HW122766   1.594   4.695   4.006  1.2333 -0.3800 -0.2469
 3768SOL    HW222767   1.713   0.027   4.064  0.4799 -1.8626 -0.1230
 3769SOL     OW22768   3.009   3.255   3.332  0.2290 -0.6415  0.1299
 3769SOL    HW122769   3.100   3.227   3.341  0.0793 -0.9618  0.6339
 3769SOL    HW222770   2.997   3.237   3.425 -2.4991 -1.2177 -0.3230
 3770SOL     OW22771   4.538   0.075  10.189 -0.2545  0.0370  0.1144
 3770SOL    HW122772   4.601   0.056  10.120 -2.2244 -1.7536 -1.2298
 3770SOL    HW222773   4.504   0.160  10.163 -0.7672  0.4225  2.0618
 3771SOL     OW22774   2.588   3.036   8.322  0.0725 -0.1852 -0.4048
 3771SOL    HW122775   2.609   3.039   8.416 -0.3549 -1.4990 -0.2722
 3771SOL    HW222776   2.583   2.941   8.315 -0.6349 -0.1121 -0.8747
 3772SOL     OW22777   3.152   0.345   4.636 -0.2078  0.2849 -0.0638
 3772SOL    HW122778   3.189   0.266   4.597 -2.3600 -1.2981  1.0900
 3772SOL    HW222779   3.220   0.408   4.658 -0.0775 -0.2606  1.1083
 3773SOL     OW22780   2.616   4.303  13.892  0.4735 -0.4207  0.7123
 3773SOL    HW122781   2.546   4.366  13.871  2.3519  2.5730  3.5915
 3773SOL    HW222782   2.631   4.269  13.803 -0.5675 -3.5638  1.7246
 3774SOL     OW22783   1.075   0.285   2.914  0.3175 -0.0916  0.3389
 3774SOL    HW122784   1.093   0.358   2.973 -2.6667  0.9143 -0.0036
 3774SOL    HW222785   0.990   0.250   2.939  0.8543 -2.8973 -1.6886
 3775SOL     OW22786   0.047   2.729   4.063 -0.5992 -0.2073  0.1132
 3775SOL    HW122787   0.015   2.639   4.069 -0.3559 -0.4547 -2.2865
 3775SOL    HW222788   0.110   2.716   4.134  0.2014 -1.4231 -0.8228
 3776SOL     OW22789   3.336   3.670  11.775  0.4546 -0.3610 -0.1706
 3776SOL    HW122790   3.249   3.695  11.807  1.0874  3.2880 -1.2816
 3776SOL    HW222791   3.370   3.758  11.760  0.0513 -0.1524  0.1202
 3777SOL     OW22792   1.130   4.304   4.668 -0.4306  0.2612  0.2404
 3777SOL    HW122793   1.111   4.384   4.716 -1.6358  1.3161 -2.0185
 3777SOL    HW222794   1.223   4.302   4.690 -0.6189  2.8864  1.2354
 3778SOL     OW22795   1.941   3.570  14.810 -0.3163  0.1941  0.1796
 3778SOL    HW122796   1.914   3.639  14.870 -2.9062  0.9877 -1.8997
 3778SOL    HW222797   1.993   3.623  14.750 -1.4286  0.2200 -0.7743
 3779SOL     OW22798   3.873   3.479  13.176  0.4350 -0.0672 -0.4700
 3779SOL    HW122799   3.890   3.431  13.095  0.5597 -1.1706  0.2186
 3779SOL    HW222800   3.792   3.440  13.210  1.3337 -1.0989  0.4613
 3780SOL     OW22801   4.720   2.411  16.845  0.3368  0.2426 -0.1033
 3780SOL    HW122802   0.075   2.461  16.860  0.4185 -0.7124  2.5922
 3780SOL    HW222803   0.038   2.326  16.832  2.5114  1.6002 -1.9302
 3781SOL     OW22804   1.617   0.507   9.800 -0.3702  0.4517  0.2735
 3781SOL    HW122805   1.646   0.591   9.763  2.3502 -1.0677 -1.0149
 3781SOL    HW222806   1.523   0.519   9.816 -0.1638  0.5471  1.3687
 3782SOL     OW22807   2.684   2.828   2.898 -0.0940  0.0007  0.2375
 3782SOL    HW122808   2.760   2.838   2.954  1.3118  1.1279 -1.8337
 3782SOL    HW222809   2.710   2.885   2.825 -1.3356  1.4463  0.9059
 3783SOL     OW22810   3.990   3.992   0.740 -0.0002 -0.3722 -0.5403
 3783SOL    HW122811   3.909   4.042   0.749  0.7604  0.4958  1.6280
 3783SOL    HW222812   3.962   3.904   0.766 -2.0652 -0.1927 -2.1753
 3784SOL     OW22813   0.010   3.427   2.015 -0.5694  0.2709  0.5151
 3784SOL    HW122814   0.009   3.486   2.090  0.7311  1.1531 -0.1506
 3784SOL    HW222815   0.019   3.485   1.939 -1.0738  0.9910  1.0058
 3785SOL     OW22816   0.486   4.182   8.609 -0.1145 -0.4851 -0.2472
 3785SOL    HW122817   0.546   4.125   8.561  1.1274  0.5446  0.0814
 3785SOL    HW222818   0.530   4.264   8.586  0.9833 -1.1956 -0.6869
 3786SOL     OW22819   3.321   2.227   1.660 -0.1267  0.1968 -0.3036
 3786SOL    HW122820   3.411   2.256   1.643 -0.3460  1.0512 -0.0438
 3786SOL    HW222821   3.335   2.219   1.754 -1.7261  0.5109 -0.0402
 3787SOL     OW22822   4.115   4.398  11.265  0.2616  0.6264 -0.3635
 3787SOL    HW122823   4.202   4.431  11.287 -0.0803  1.1717  0.1714
 3787SOL    HW222824   4.141   4.313  11.229 -3.5065  0.3462 -2.4075
 3788SOL     OW22825   2.170   4.706   9.781 -0.1440  0.4419  0.2756
 3788SOL    HW122826   2.158   4.657   9.863  2.0857  0.0378  0.3510
 3788SOL    HW222827   2.124   0.063   9.797  0.9429  1.2005 -0.5654
 3789SOL     OW22828   1.040   3.355   7.879  0.4813 -0.2753 -0.1841
 3789SOL    HW122829   0.982   3.431   7.885  0.4080 -0.3829  0.4921
 3789SOL    HW222830   1.069   3.359   7.970  0.5636  0.2126 -0.2349
 3790SOL     OW22831   0.399   1.301   7.432  0.2973 -0.0644 -0.2276
 3790SOL    HW122832   0.415   1.207   7.421  1.0992 -0.0756  0.9590
 3790SOL    HW222833   0.485   1.336   7.412 -0.0609  0.5757 -0.6322
 3791SOL     OW22834   2.334   2.339   8.448 -1.0520 -0.6190  0.7028
 3791SOL    HW122835   2.386   2.260   8.464  0.8760  0.6297  0.5927
 3791SOL    HW222836   2.403   2.400   8.473 -2.6139  1.3135  0.2464
 3792SOL     OW22837   2.437   1.350   1.461 -0.0258  0.1684 -0.3504
 3792SOL    HW122838   2.457   1.280   1.400  0.3598 -0.4778  0.5150
 3792SOL    HW222839   2.466   1.318   1.547  1.6292  0.3089 -0.8403
 3793SOL     OW22840   2.593   2.029   5.143 -0.4801  0.3382 -0.0726
 3793SOL    HW122841   2.672   2.076   5.169  1.1181 -1.8866 -0.9435
 3793SOL    HW222842   2.530   2.100   5.129  0.6939  1.4077  0.0873
 3794SOL     OW22843   0.824   1.266   8.168  0.5226 -0.1181  0.5592
 3794SOL    HW122844   0.751   1.205   8.177  0.2908 -0.1385 -1.3735
 3794SOL    HW222845   0.781   1.337   8.118  0.7299 -0.8388 -0.6476
 3795SOL     OW22846   2.213   3.920   3.625  0.3839  0.1538 -0.2081
 3795SOL    HW122847   2.232   3.941   3.717 -3.0044 -0.9446  0.7177
 3795SOL    HW222848   2.129   3.965   3.616 -0.4924 -0.8716  2.7674
 3796SOL     OW22849   2.703   0.240   0.859  0.5288  0.1716  0.0950
 3796SOL    HW122850   2.667   0.318   0.816  0.3523  0.2100  0.3146
 3796SOL    HW222851   2.685   0.250   0.952 -1.7150 -0.5592 -0.2738
 3797SOL     OW22852   4.677   1.661   6.635 -0.1390  0.3626  0.3859
 3797SOL    HW122853   4.687   1.736   6.694 -0.4783  0.7106  0.0028
 3797SOL    HW222854   0.025   1.604   6.657 -0.2519  1.0899  2.6572
 3798SOL     OW22855   2.684   2.275   0.662 -0.2985 -0.2091  0.0115
 3798SOL    HW122856   2.645   2.200   0.707  1.7141 -1.1998  0.1307
 3798SOL    HW222857   2.608   2.332   0.669  0.2313  0.3385  1.2947
 3799SOL     OW22858   4.574   2.282   6.733  0.5001 -0.4319  0.1126
 3799SOL    HW122859   4.662   2.255   6.759  1.8795  1.7810 -2.2080
 3799SOL    HW222860   4.535   2.195   6.722  0.0145  0.0796 -2.2017
 3800SOL     OW22861   4.501   3.225   1.151  0.3223 -0.1644  0.1250
 3800SOL    HW122862   4.588   3.214   1.190  1.1471  0.5189 -1.5112
 3800SOL    HW222863   4.522   3.206   1.059  2.2818  0.6485  0.4052
 3801SOL     OW22864   4.725   1.616   9.393  0.0932  0.2493  0.0586
 3801SOL    HW122865   0.056   1.666   9.452  0.1471 -0.6044  0.7215
 3801SOL    HW222866   0.045   1.620   9.309 -0.8123 -0.4647 -0.4654
 3802SOL     OW22867   0.797   3.367  15.534 -0.0510 -0.6283  0.5940
 3802SOL    HW122868   0.841   3.354  15.450 -2.4728  0.5527 -0.8409
 3802SOL    HW222869   0.810   3.284  15.581 -1.8216 -1.7938 -0.9758
 3803SOL     OW22870   4.449   0.712   6.692 -0.1627  0.0397  0.2678
 3803SOL    HW122871   4.455   0.662   6.611  1.6784 -0.9485  1.0143
 3803SOL    HW222872   4.441   0.799   6.654  2.1154  0.4085  0.6320
 3804SOL     OW22873   4.703   1.894   5.334 -0.2827 -0.3764 -0.0400
 3804SOL    HW122874   4.612   1.916   5.356 -1.0593 -0.7376 -2.9327
 3804SOL    HW222875   4.689   1.817   5.279  3.0365 -1.9827  1.3855
 3805SOL     OW22876   3.439   4.270   3.105 -0.3575  0.2795 -0.8371
 3805SOL    HW122877   3.483   4.224   3.176 -0.9839  3.1479  1.4303
 3805SOL    HW222878   3.415   4.205   3.039 -0.2577  0.1525 -0.7459
 3806SOL     OW22879   0.625   1.698   3.697 -0.2139 -0.1253  0.2282
 3806SOL    HW122880   0.649   1.775   3.748  1.3173 -2.4472  3.0214
 3806SOL    HW222881   0.577   1.653   3.767  0.9748 -1.4870  0.1556
 3807SOL     OW22882   2.481   2.897   8.835  0.1143  0.4899 -0.5152
 3807SOL    HW122883   2.536   2.941   8.900 -2.6829  1.1390  1.3964
 3807SOL    HW222884   2.537   2.899   8.758  2.0144 -4.0198  0.7859
 3808SOL     OW22885   2.201   0.596   3.829 -0.6824 -0.2332 -0.1471
 3808SOL    HW122886   2.228   0.600   3.921 -0.4502 -1.6769 -0.1547
 3808SOL    HW222887   2.132   0.530   3.831  0.4641 -1.4467 -1.6196
 3809SOL     OW22888   2.468   3.185   2.604 -0.5026 -0.2409 -0.4073
 3809SOL    HW122889   2.517   3.260   2.638  0.7284 -1.2065 -0.0560
 3809SOL    HW222890   2.397   3.177   2.668 -0.1581  0.5603  0.0864
 3810SOL     OW22891   3.838   1.619   5.502  0.0554 -0.5853 -0.8294
 3810SOL    HW122892   3.834   1.606   5.407  1.2014  0.4200 -1.0148
 3810SOL    HW222893   3.838   1.531   5.540 -0.7696  0.8465  2.4958
 3811SOL     OW22894   1.457   2.464   3.738  0.4161  0.2438 -0.1357
 3811SOL    HW122895   1.535   2.409   3.726 -0.7703 -1.9188  1.9264
 3811SOL    HW222896   1.440   2.452   3.831 -0.5283  1.8106 -0.1066
 3812SOL     OW22897   3.753   1.586   4.327 -0.3625  0.5016  0.2861
 3812SOL    HW122898   3.774   1.672   4.363 -0.3837  0.3246  0.7177
 3812SOL    HW222899   3.821   1.529   4.362 -0.0271  1.1546  0.6925
 3813SOL     OW22900   1.190   1.919   2.255 -0.5466  0.1134 -0.1089
 3813SOL    HW122901   1.269   1.919   2.201 -0.4586 -1.9363  0.0338
 3813SOL    HW222902   1.127   1.959   2.195 -0.6953 -1.5828 -1.0690
 3814SOL     OW22903   3.870   0.270   8.198 -0.1436  0.2542 -0.2746
 3814SOL    HW122904   3.924   0.302   8.125  0.3457 -0.7105 -0.3354
 3814SOL    HW222905   3.795   0.253   8.142 -1.3930 -1.4888  1.9434
 3815SOL     OW22906   0.496   2.760   3.818 -0.0506 -0.0945  0.0061
 3815SOL    HW122907   0.507   2.843   3.865 -2.0443  0.2694 -0.1930
 3815SOL    HW222908   0.508   2.798   3.731  1.8126  0.3949  0.4616
 3816SOL     OW22909   3.216   1.589   7.837  0.4914  0.7401 -0.1316
 3816SOL    HW122910   3.169   1.526   7.782 -0.5199 -0.2163  1.8610
 3816SOL    HW222911   3.145   1.652   7.831  1.3242  1.6971  0.0331
 3817SOL     OW22912   3.747   4.465   1.831 -0.4124  0.6285 -0.0242
 3817SOL    HW122913   3.826   4.478   1.778 -0.6695 -0.5142 -0.6966
 3817SOL    HW222914   3.765   4.380   1.870 -0.6154  1.3853  1.7133
 3818SOL     OW22915   0.354   4.202   3.531  0.3786 -0.4394 -0.3810
 3818SOL    HW122916   0.328   4.292   3.512 -0.3271 -0.8058 -1.1532
 3818SOL    HW222917   0.271   4.170   3.567  0.4901  0.4317  0.6492
 3819SOL     OW22918   2.901   0.661   2.931  0.3178 -0.1107  0.0133
 3819SOL    HW122919   2.877   0.675   2.840  1.7397 -1.2708 -0.5374
 3819SOL    HW222920   2.811   0.672   2.963 -0.4994  1.3911 -2.8057
 3820SOL     OW22921   3.349   2.170  16.809 -0.0260 -0.7245  0.4066
 3820SOL    HW122922   3.362   2.087  16.763 -0.8048 -1.3775  1.3847
 3820SOL    HW222923   3.262   2.188  16.774  0.2594  0.2622  0.1913
 3821SOL     OW22924   1.182   1.570   1.367 -0.6910 -0.3170 -0.0577
 3821SOL    HW122925   1.213   1.635   1.430 -0.9170 -1.6597  1.4446
 3821SOL    HW222926   1.220   1.489   1.400 -1.0056  0.2698  1.7566
 3822SOL     OW22927   3.713   1.797   6.371  0.4032 -0.1368  0.3317
 3822SOL    HW122928   3.680   1.729   6.430 -0.4073 -0.2302 -0.2311
 3822SOL    HW222929   3.803   1.769   6.357  0.6893  0.3671  1.1436
 3823SOL     OW22930   1.201   4.650   3.633  0.6489 -0.5531 -0.0324
 3823SOL    HW122931   1.277   4.638   3.689 -0.1709 -1.7257  0.8250
 3823SOL    HW222932   1.229   4.596   3.560 -1.2341 -0.1732 -1.0557
 3824SOL     OW22933   0.270   1.369   8.454  0.1730  0.1678  0.1178
 3824SOL    HW122934   0.214   1.296   8.425  1.2847 -1.0485  1.0235
 3824SOL    HW222935   0.350   1.323   8.480 -0.3948 -0.3800  0.8988
 3825SOL     OW22936   0.951   0.010   0.395  0.0474 -0.0589 -0.0396
 3825SOL    HW122937   0.960   4.672   0.324  0.3322 -0.9329  0.7781
 3825SOL    HW222938   0.897   4.694   0.462 -3.0098  1.7732 -1.3551
 3826SOL     OW22939   0.741   3.985  15.992 -0.3008  0.0711  0.2060
 3826SOL    HW122940   0.658   3.941  15.975  0.2745 -1.1733  0.6582
 3826SOL    HW222941   0.781   3.922  16.051 -0.5244 -1.0069 -0.8040
 3827SOL     OW22942   2.230   0.359   0.487  0.1209  0.5856 -0.3540
 3827SOL    HW122943   2.180   0.403   0.419  0.1565  0.9118 -0.1701
 3827SOL    HW222944   2.318   0.394   0.475  1.3592 -1.6599  2.0321
 3828SOL     OW22945   4.275   3.399  16.617  0.3335  0.0350 -0.1214
 3828SOL    HW122946   4.226   3.319  16.598  1.2711 -0.2786 -1.2139
 3828SOL    HW222947   4.324   3.427  16.540  0.9349  0.0023  0.2495
 3829SOL     OW22948   2.727   2.276   1.628  0.6404 -0.2500  0.3473
 3829SOL    HW122949   2.682   2.262   1.545  0.7812  1.5289 -0.0336
 3829SOL    HW222950   2.723   2.371   1.642 -0.8691 -0.2636 -0.0301
 3830SOL     OW22951   0.939   1.070   2.160 -0.0387  0.2144  0.3321
 3830SOL    HW122952   0.963   1.084   2.068  0.2608 -3.5706 -0.1584
 3830SOL    HW222953   0.844   1.079   2.169 -0.2097  0.7913 -1.8617
 3831SOL     OW22954   0.461   1.678  15.507 -0.4000 -0.2437  0.0284
 3831SOL    HW122955   0.370   1.653  15.523 -0.7530  0.1930 -1.3517
 3831SOL    HW222956   0.452   1.751  15.446 -1.0163 -1.4152 -1.2897
 3832SOL     OW22957   1.563   2.468   4.308  0.3189  0.1818  0.2482
 3832SOL    HW122958   1.502   2.521   4.359 -1.3282 -2.8287  1.3630
 3832SOL    HW222959   1.583   2.403   4.374  2.1348  1.1462  0.6601
 3833SOL     OW22960   3.922   2.815   4.176  0.1167  0.2907 -0.2346
 3833SOL    HW122961   3.890   2.802   4.265  0.9297 -0.3110 -0.0333
 3833SOL    HW222962   3.856   2.774   4.121 -0.8185 -0.0135  1.1170
 3834SOL     OW22963   0.236   1.401   0.920 -0.5337  0.1121 -0.2194
 3834SOL    HW122964   0.201   1.390   1.008  1.5224 -2.3324  0.2655
 3834SOL    HW222965   0.161   1.425   0.864  0.3523  1.9495 -0.6371
 3835SOL     OW22966   3.362   4.326  10.200  0.1638 -0.4795 -0.0422
 3835SOL    HW122967   3.380   4.237  10.228  0.7967  0.3919  2.2835
 3835SOL    HW222968   3.284   4.305  10.148 -0.2185  3.1599 -0.9272
 3836SOL     OW22969   2.304   4.208   2.212  0.1387 -0.3757  0.6204
 3836SOL    HW122970   2.214   4.175   2.209  0.5925 -1.4680 -1.2619
 3836SOL    HW222971   2.328   4.187   2.122  0.2333  2.6157 -0.0453
 3837SOL     OW22972   4.004   3.563   8.449  0.4243 -0.1116 -0.4042
 3837SOL    HW122973   3.992   3.658   8.445 -0.1830 -0.2078 -0.7924
 3837SOL    HW222974   4.005   3.544   8.543  1.3728  3.4844  0.3063
 3838SOL     OW22975   3.611   0.620   4.401 -0.0575 -0.0063 -0.8731
 3838SOL    HW122976   3.623   0.546   4.460 -0.2261  0.8731  0.2574
 3838SOL    HW222977   3.530   0.657   4.437 -1.0314 -1.9082 -1.0589
 3839SOL     OW22978   1.309   1.283   3.015 -0.0692 -0.5486  0.1044
 3839SOL    HW122979   1.245   1.227   2.970  0.2620 -0.7405 -0.1232
 3839SOL    HW222980   1.392   1.249   2.982 -0.0519 -0.0807 -0.3284
 3840SOL     OW22981   4.628   1.116   9.213 -0.1991 -0.2297  0.6349
 3840SOL    HW122982   4.642   1.093   9.305  0.3234  0.0707  0.6299
 3840SOL    HW222983   4.630   1.211   9.209  2.3230 -0.2518  1.3319
 3841SOL     OW22984   2.047   0.846   3.206 -0.0632  0.3333  0.0715
 3841SOL    HW122985   2.140   0.845   3.183 -0.2318  0.9010 -0.6461
 3841SOL    HW222986   2.054   0.803   3.291  4.2069 -0.1237 -0.4764
 3842SOL     OW22987   2.000   0.051   8.233  0.2247 -0.2622  0.9355
 3842SOL    HW122988   1.987   4.682   8.227 -0.5098 -0.2402  2.1693
 3842SOL    HW222989   2.081   0.076   8.189  0.1048 -0.4323  0.6241
 3843SOL     OW22990   3.490   3.226   9.592  0.6799 -0.2749  0.6511
 3843SOL    HW122991   3.433   3.229   9.515  1.8734 -1.8868 -0.2945
 3843SOL    HW222992   3.556   3.292   9.572  2.0142 -2.3217 -1.6651
 3844SOL     OW22993   1.018   0.817  13.725 -0.0081 -0.3749 -0.4518
 3844SOL    HW122994   0.939   0.769  13.702 -0.1807  1.4533 -3.7221
 3844SOL    HW222995   1.076   0.745  13.700 -0.4239 -0.6457 -0.6202
 3845SOL     OW22996   2.410   4.720   1.612 -0.2083  0.4576  0.0554
 3845SOL    HW122997   2.346   4.725   1.541 -0.5302  1.5839  0.4277
 3845SOL    HW222998   2.415   4.628   1.639 -2.0874  0.7488  1.4319
 3846SOL     OW22999   2.376   0.293   4.704 -0.0722 -0.1630 -0.4568
 3846SOL    HW123000   2.339   0.339   4.779 -1.4726 -2.1434  0.0768
 3846SOL    HW223001   2.347   0.204   4.724  0.7010 -0.4985 -0.8099
 3847SOL     OW23002   4.037   0.876   2.451  0.0477 -0.4177  0.4365
 3847SOL    HW123003   3.964   0.846   2.505 -0.5362  2.7071  1.4095
 3847SOL    HW223004   3.989   0.870   2.368  0.8465  4.5957 -0.4035
 3848SOL     OW23005   4.611   0.505   8.550 -0.1220  0.3077 -0.2990
 3848SOL    HW123006   4.560   0.557   8.612  1.9562  0.4837  1.2523
 3848SOL    HW223007   4.562   0.423   8.561 -1.7117  1.2899  0.0411
 3849SOL     OW23008   0.391   4.521   7.003  0.0649  0.0057 -0.6255
 3849SOL    HW123009   0.477   4.530   7.044  0.1450 -0.1237 -0.7637
 3849SOL    HW223010   0.349   4.567   7.075  1.3265 -0.4775  0.4239
 3850SOL     OW23011   1.206   1.429   8.292  0.0196  0.2038  0.4334
 3850SOL    HW123012   1.257   1.397   8.217 -0.9588 -1.6942  0.5776
 3850SOL    HW223013   1.148   1.492   8.248 -0.1372  0.8353  1.5577
 3851SOL     OW23014   1.161   1.570   1.922 -0.4654  0.5077 -0.1471
 3851SOL    HW123015   1.133   1.661   1.927 -0.8069  0.1506  4.2561
 3851SOL    HW223016   1.089   1.522   1.882 -1.0771  3.8117 -2.9765
 3852SOL     OW23017   0.297   3.969  12.432  0.2744  0.1605  0.3923
 3852SOL    HW123018   0.230   3.906  12.460  1.4140 -0.9464  0.6562
 3852SOL    HW223019   0.242   4.047  12.437 -0.7958 -0.5726  0.0184
 3853SOL     OW23020   4.603   0.682   9.302 -0.2043 -0.3504  0.1747
 3853SOL    HW123021   4.614   0.749   9.370  0.0174 -1.7015  1.4735
 3853SOL    HW223022   4.515   0.651   9.324 -1.2764  1.4084 -1.6487
 3854SOL     OW23023   3.400   1.149   3.544  0.1397 -0.2387 -0.4672
 3854SOL    HW123024   3.382   1.055   3.546 -2.4332  0.2594 -0.7921
 3854SOL    HW223025   3.315   1.192   3.549  0.4214  0.3389 -0.7454
 3855SOL     OW23026   0.681   3.406   2.858  0.0135 -0.1766  0.6984
 3855SOL    HW123027   0.659   3.313   2.853 -2.4238  0.4712 -0.9806
 3855SOL    HW223028   0.636   3.417   2.942  1.3600 -0.6922  1.4714
 3856SOL     OW23029   3.275   0.031   0.421  0.0687  0.1807 -0.0588
 3856SOL    HW123030   3.329   4.704   0.362 -2.4432 -0.6675 -1.5878
 3856SOL    HW223031   3.194   4.706   0.409  0.3040  0.1389 -1.4606
 3857SOL     OW23032   3.418   3.369   1.808  0.0737 -0.4707  0.6347
 3857SOL    HW123033   3.379   3.455   1.821 -2.6187 -1.8024  1.3336
 3857SOL    HW223034   3.374   3.327   1.881 -0.4387 -1.6333 -0.3404
 3858SOL     OW23035   4.574   1.325   6.006  0.3456  0.2154  0.0032
 3858SOL    HW123036   4.596   1.236   6.034 -1.7744  0.4055  2.2806
 3858SOL    HW223037   4.655   1.349   5.961  0.3354  0.3998  0.0811
 3859SOL     OW23038   3.667   2.608   2.140 -0.2769  0.6486  0.1194
 3859SOL    HW123039   3.654   2.587   2.233  1.8203 -0.2317  0.2197
 3859SOL    HW223040   3.583   2.643   2.111 -1.5343 -0.9640  1.8106
 3860SOL     OW23041   2.719   4.529  17.625 -0.4489 -0.6704 -0.0655
 3860SOL    HW123042   2.772   4.516  17.546  1.5750  1.2420  0.9885
 3860SOL    HW223043   2.658   4.598  17.601  1.5313  1.2117  0.3104
 3861SOL     OW23044   3.089   1.465   8.272 -0.4587 -0.0220 -0.2722
 3861SOL    HW123045   3.132   1.391   8.229  0.4854  0.0386  0.5861
 3861SOL    HW223046   3.027   1.488   8.202 -0.7131 -1.4977 -0.5531
 3862SOL     OW23047   4.588   4.716   8.629  0.2968 -0.1855  0.1730
 3862SOL    HW123048   4.582   0.016   8.537  0.0762 -1.9560 -0.2997
 3862SOL    HW223049   4.614   4.624   8.617 -0.3509 -0.0722 -2.0136
 3863SOL     OW23050   1.301   1.481   5.380  0.3526 -0.0501  0.0072
 3863SOL    HW123051   1.387   1.451   5.409  0.3789 -1.2425 -1.3386
 3863SOL    HW223052   1.231   1.447   5.436  0.1088 -0.6178 -0.6495
 3864SOL     OW23053   2.961   0.063   2.506 -0.1112  0.4485  0.0242
 3864SOL    HW123054   2.903   0.018   2.445 -0.9693  0.1870  1.0312
 3864SOL    HW223055   3.025   4.718   2.518 -1.3036 -0.5095  0.8236
 3865SOL     OW23056   0.076   0.758   6.838  0.2444  0.3158  0.0699
 3865SOL    HW123057   4.707   0.740   6.834  0.4192 -0.7527  0.9275
 3865SOL    HW223058   0.108   0.685   6.890  0.4569 -0.3879 -1.0496
 3866SOL     OW23059   2.973   3.403   4.325  0.1321  0.2374  0.1623
 3866SOL    HW123060   2.895   3.350   4.311 -1.0777  1.8724  0.7626
 3866SOL    HW223061   3.039   3.337   4.347  0.9527  0.7355 -0.8244
 3867SOL     OW23062   0.423   3.286   4.159 -0.1526 -0.0234 -0.1540
 3867SOL    HW123063   0.434   3.334   4.241 -1.3306  2.3239 -1.3871
 3867SOL    HW223064   0.392   3.358   4.104  0.7253  0.7904  0.4226
 3868SOL     OW23065   3.515   0.132   3.987 -0.0789  0.6912 -0.4204
 3868SOL    HW123066   3.539   0.194   3.917  1.1206 -0.3762 -0.9525
 3868SOL    HW223067   3.577   0.063   3.965 -0.5821 -0.0315  0.4615
 3869SOL     OW23068   3.338   2.722   7.962 -0.1221 -0.1074  0.1502
 3869SOL    HW123069   3.357   2.806   7.919  0.2356  0.2745  1.0496
 3869SOL    HW223070   3.380   2.666   7.897  0.8618  2.7827 -1.7387
 3870SOL     OW23071   1.151   2.117  12.789  0.7040 -0.0322 -0.0072
 3870SOL    HW123072   1.142   2.051  12.720 -0.2803  0.0904  0.0071
 3870SOL    HW223073   1.113   2.194  12.747 -1.2783 -1.8808 -1.5988
 3871SOL     OW23074   0.807   1.399  13.209 -0.0471 -0.4012 -0.1274
 3871SOL    HW123075   0.715   1.397  13.183 -0.3542  2.9889  0.7452
 3871SOL    HW223076   0.802   1.443  13.294  0.3396 -0.3372 -0.1354
 3872SOL     OW23077   0.444   3.854   7.874 -0.0542 -0.1788 -0.2535
 3872SOL    HW123078   0.411   3.771   7.841  1.2465 -0.0449 -1.9322
 3872SOL    HW223079   0.492   3.822   7.950 -1.9587  0.5416  1.2504
 3873SOL     OW23080   2.048   2.025   0.700  0.4824  0.0949 -0.6405
 3873SOL    HW123081   1.957   2.035   0.671  0.1555  2.2885  1.1258
 3873SOL    HW223082   2.053   1.988   0.788 -3.4658  0.4374 -0.2595
 3874SOL     OW23083   0.271   1.036   5.587 -0.1319  0.1170  0.3340
 3874SOL    HW123084   0.255   1.106   5.524 -0.3604 -1.3841 -1.2589
 3874SOL    HW223085   0.346   1.074   5.634  0.4768 -0.9576  0.2434
 3875SOL     OW23086   2.225   1.559   8.521 -0.4900 -0.8003  0.0606
 3875SOL    HW123087   2.231   1.628   8.455  0.7806 -2.4230 -1.5053
 3875SOL    HW223088   2.258   1.483   8.474 -0.6472 -1.0791  0.4073
 3876SOL     OW23089   4.472   4.014   3.981 -0.5010  0.0035  0.0663
 3876SOL    HW123090   4.435   3.998   3.894  0.2480  1.0375 -0.4471
 3876SOL    HW223091   4.507   4.103   3.978 -0.5283  0.0307  0.6171
 3877SOL     OW23092   4.334   1.090   4.653 -0.3056  0.5746  0.2916
 3877SOL    HW123093   4.351   1.077   4.746  0.6145  0.4797  0.1142
 3877SOL    HW223094   4.359   1.180   4.633 -0.6459  0.6781  0.3315
 3878SOL     OW23095   2.726   0.613  12.385 -0.0593  0.2607  0.0004
 3878SOL    HW123096   2.801   0.629  12.443  0.0461 -0.4508  0.0556
 3878SOL    HW223097   2.739   0.677  12.315 -1.7215 -1.2582 -1.6834
 3879SOL     OW23098   3.702   2.269   1.428  0.2341  0.1724 -0.6784
 3879SOL    HW123099   3.685   2.180   1.398  0.7210 -0.6079  1.3462
 3879SOL    HW223100   3.784   2.287   1.383 -0.8392  1.0674 -2.2942
 3880SOL     OW23101   3.585   3.628   4.495 -0.7469 -0.2043  0.3265
 3880SOL    HW123102   3.521   3.573   4.450 -0.6699  1.3145 -1.5970
 3880SOL    HW223103   3.628   3.674   4.423  0.0311  0.2276  1.0658
 3881SOL     OW23104   4.134   0.469   0.184 -0.4720  0.0585 -0.0522
 3881SOL    HW123105   4.173   0.545   0.140 -0.9289  1.7644  2.4696
 3881SOL    HW223106   4.211   0.416   0.203 -1.2312 -1.0842 -0.1714
 3882SOL     OW23107   4.721   2.235   9.057 -0.3125 -0.3698  0.8011
 3882SOL    HW123108   0.002   2.296   9.131  0.3810  1.4685 -0.7822
 3882SOL    HW223109   0.035   2.160   9.101  0.7991 -0.0193  0.4123
 3883SOL     OW23110   2.078   1.980   3.792  0.0930 -0.3609  0.0651
 3883SOL    HW123111   2.069   2.061   3.742 -1.6643  0.4514  1.6726
 3883SOL    HW223112   2.117   1.920   3.728  1.5297  1.5508 -0.8525
 3884SOL     OW23113   2.119   2.311  10.823  0.1151 -0.3018  0.0043
 3884SOL    HW123114   2.161   2.225  10.830 -0.0161 -0.2620  1.4431
 3884SOL    HW223115   2.189   2.364  10.861 -1.0237 -0.6770  2.6753
 3885SOL     OW23116   1.547   2.884   7.499 -0.3369 -0.0342 -0.3012
 3885SOL    HW123117   1.608   2.937   7.552 -0.8955 -0.3329  0.6371
 3885SOL    HW223118   1.593   2.896   7.415 -1.5952  0.7167 -0.8854
 3886SOL     OW23119   2.000   3.679   0.224  0.2251 -0.5365 -0.3469
 3886SOL    HW123120   1.931   3.621   0.254  0.4359 -0.4538  0.2932
 3886SOL    HW223121   1.951   3.713   0.150  0.3104  2.5415  1.0094
 3887SOL     OW23122   3.664   3.279   3.639 -0.4756  0.2582 -0.3872
 3887SOL    HW123123   3.723   3.221   3.687  0.9228 -0.0313 -2.4881
 3887SOL    HW223124   3.716   3.356   3.615  1.6664 -0.9233  0.4764
 3888SOL     OW23125   2.146   2.043   7.093 -0.1354 -0.1243 -0.2826
 3888SOL    HW123126   2.077   1.979   7.110  0.4305 -0.4616  0.7496
 3888SOL    HW223127   2.155   2.090   7.176 -1.0578 -0.0947 -0.1932
 3889SOL     OW23128   4.381   0.969   2.484 -0.1924  0.0232  0.7169
 3889SOL    HW123129   4.302   0.949   2.434 -0.0557 -0.5877  0.7417
 3889SOL    HW223130   4.339   0.993   2.566  1.1719  0.5528  1.2685
 3890SOL     OW23131   0.659   0.659  16.329  0.1935  0.2975 -0.4190
 3890SOL    HW123132   0.652   0.579  16.278  0.9458 -0.2202  0.2765
 3890SOL    HW223133   0.630   0.630  16.415 -1.2651  1.3356 -0.5623
 3891SOL     OW23134   4.227   4.310   4.027  0.0554 -0.2190 -0.0835
 3891SOL    HW123135   4.282   4.333   3.952 -0.7041  2.5596  0.1992
 3891SOL    HW223136   4.145   4.336   3.985 -0.2679  0.0958  0.7278
 3892SOL     OW23137   4.622   4.226   4.186  0.3445  0.2592 -0.4087
 3892SOL    HW123138   4.663   4.231   4.272  0.3912  0.7601 -0.4629
 3892SOL    HW223139   4.587   4.311   4.160  1.0514  1.1895  1.6621
 3893SOL     OW23140   1.551   2.171   3.515  0.3776  0.3080  0.0412
 3893SOL    HW123141   1.570   2.182   3.422 -0.0812 -3.5162 -0.4956
 3893SOL    HW223142   1.617   2.224   3.560  0.7666  2.6395 -3.2636
 3894SOL     OW23143   2.306   2.115   3.586  0.0806  0.0816  0.0460
 3894SOL    HW123144   2.229   2.166   3.561  1.8005  1.8653 -1.5580
 3894SOL    HW223145   2.319   2.062   3.508 -4.0758 -1.9342  0.7088
 3895SOL     OW23146   3.114   4.260   7.880 -0.1911  0.7007  0.3507
 3895SOL    HW123147   3.132   4.176   7.922 -1.2882 -0.8527 -2.3336
 3895SOL    HW223148   3.202   4.298   7.867  0.1989 -0.7956 -1.3041
 3896SOL     OW23149   3.203   3.280   4.387 -0.0487  0.5191 -0.2097
 3896SOL    HW123150   3.242   3.366   4.402  5.0464 -1.7961 -0.0689
 3896SOL    HW223151   3.277   3.239   4.342  0.4975  2.5734 -1.1555
 3897SOL     OW23152   1.525   1.950   7.265 -0.7190  0.1152  0.0325
 3897SOL    HW123153   1.433   1.967   7.285 -0.4047 -0.0035  1.5927
 3897SOL    HW223154   1.552   1.997   7.344  1.9703  0.0494 -0.8604
 3898SOL     OW23155   0.955   1.842   1.415  0.2756  0.6216 -0.3821
 3898SOL    HW123156   0.922   1.908   1.354  2.4681  2.5581  0.5434
 3898SOL    HW223157   0.954   1.763   1.360 -1.4166  0.1757  0.3066
 3899SOL     OW23158   1.222   1.890   3.168  0.3073  0.5841 -0.6398
 3899SOL    HW123159   1.257   1.832   3.235  2.7731  2.5426 -0.2269
 3899SOL    HW223160   1.296   1.931   3.123  0.8267 -2.3247 -2.4701
 3900SOL     OW23161   2.958   2.400   2.784 -0.2812  1.0437 -0.0000
 3900SOL    HW123162   2.991   2.450   2.858 -1.9189  1.0891  0.6977
 3900SOL    HW223163   2.962   2.311   2.818  1.7840  0.7852 -0.9433
 3901SOL     OW23164   3.724   4.639   2.843  0.1890 -0.7449 -0.1522
 3901SOL    HW123165   3.698   0.006   2.843 -1.0416 -1.0981 -1.3680
 3901SOL    HW223166   3.640   4.596   2.859 -0.8955  2.1982  1.9615
 3902SOL     OW23167   4.426   3.273   7.483 -0.0935  0.3578  0.5570
 3902SOL    HW123168   4.481   3.342   7.518 -0.9605  0.9754  0.7193
 3902SOL    HW223169   4.382   3.327   7.417 -0.1462 -0.2451  0.0932
 3903SOL     OW23170   0.254   2.497  13.099 -0.1504 -0.2320 -0.2029
 3903SOL    HW123171   0.338   2.458  13.126 -0.6525 -2.2913 -1.6321
 3903SOL    HW223172   0.199   2.439  13.152  0.4401  1.5911  2.4013
 3904SOL     OW23173   3.733   1.752   2.955  0.5795  0.0462 -0.6353
 3904SOL    HW123174   3.681   1.734   3.033 -0.1653 -1.0763 -1.3862
 3904SOL    HW223175   3.766   1.838   2.980 -3.9033  1.1158  1.6990
 3905SOL     OW23176   3.176   0.742  12.718 -0.7091  0.1683  0.6099
 3905SOL    HW123177   3.167   0.726  12.812  2.4383  3.1216  1.4114
 3905SOL    HW223178   3.127   0.823  12.705  0.1557  0.6897  0.5619
 3906SOL     OW23179   2.024   1.989  16.131  0.0388  0.4025  0.0994
 3906SOL    HW123180   2.017   1.904  16.087  1.3298  0.5404 -0.3776
 3906SOL    HW223181   1.948   1.985  16.190 -0.1725 -2.5868 -0.3500
 3907SOL     OW23182   2.714   1.600   7.229  0.2779 -0.5295  0.3008
 3907SOL    HW123183   2.737   1.538   7.160  2.6048 -0.4123  0.9899
 3907SOL    HW223184   2.684   1.539   7.296 -2.7282  0.2799 -0.3111
 3908SOL     OW23185   3.427   0.350   1.885  0.3558 -0.3828  0.1707
 3908SOL    HW123186   3.390   0.276   1.836 -2.9440  0.0248  2.1246
 3908SOL    HW223187   3.452   0.408   1.813 -2.1805 -0.0724 -0.4507
 3909SOL     OW23188   3.278   1.445   4.592 -0.0348  0.1386 -0.2777
 3909SOL    HW123189   3.332   1.367   4.602 -0.6230 -0.2380 -0.0149
 3909SOL    HW223190   3.270   1.470   4.684  1.2409  1.6277 -0.5789
 3910SOL     OW23191   0.934   0.635   2.803 -0.1934  0.4169 -0.2451
 3910SOL    HW123192   0.938   0.635   2.707  1.1063  1.3546 -0.1801
 3910SOL    HW223193   0.860   0.575   2.813  0.4446  0.2028  3.1939
 3911SOL     OW23194   0.655   1.291   9.181  0.0050  0.1169  0.4310
 3911SOL    HW123195   0.710   1.347   9.127 -2.8332  0.0774 -2.5265
 3911SOL    HW223196   0.581   1.349   9.196 -2.3401 -3.0365  1.1454
 3912SOL     OW23197   0.600   3.186  15.885 -0.1456 -0.4471 -0.7873
 3912SOL    HW123198   0.634   3.251  15.824  1.7009 -0.1985  0.5047
 3912SOL    HW223199   0.522   3.167  15.832 -1.4428 -0.1676  0.9869
 3913SOL     OW23200   1.436   2.179  10.107 -0.4738  0.7256  0.1098
 3913SOL    HW123201   1.409   2.095  10.142 -1.0143  1.1151  0.6366
 3913SOL    HW223202   1.525   2.183  10.141 -1.3196 -0.0584  2.4029
 3914SOL     OW23203   3.462   2.023   8.662 -0.5935  0.2906  0.2362
 3914SOL    HW123204   3.381   2.003   8.615 -0.8630 -1.6479  1.5249
 3914SOL    HW223205   3.463   1.980   8.748 -0.5561  1.9446  1.0659
 3915SOL     OW23206   1.400   0.265   3.480  0.1834  0.0204 -0.3999
 3915SOL    HW123207   1.311   0.228   3.477  0.1153  0.1325  0.1057
 3915SOL    HW223208   1.454   0.197   3.441  1.6896  0.1391  1.4645
 3916SOL     OW23209   2.540   1.285  17.320 -0.6718 -0.2796  0.1980
 3916SOL    HW123210   2.452   1.295  17.284 -1.1700 -1.1775  1.1714
 3916SOL    HW223211   2.576   1.369  17.291  0.1199 -0.1394  1.5954
 3917SOL     OW23212   2.092   0.060  17.700  0.3209 -0.0967  0.4833
 3917SOL    HW123213   2.043   0.003  17.641  0.3681  2.4147 -1.9678
 3917SOL    HW223214   2.018   0.083   0.054 -0.2033  0.4380 -0.4354
 3918SOL     OW23215   4.532   3.491   7.890  0.6503 -0.1867  0.1353
 3918SOL    HW123216   4.449   3.449   7.866  0.3503 -0.2132  1.2195
 3918SOL    HW223217   4.502   3.547   7.962 -1.1593  1.1438 -1.6112
 3919SOL     OW23218   3.556   1.483  16.844  0.5284  0.0991  0.2585
 3919SOL    HW123219   3.526   1.466  16.754  1.3754 -0.0080  0.0010
 3919SOL    HW223220   3.562   1.398  16.887 -1.7757 -0.2488 -0.0544
 3920SOL     OW23221   2.920   3.691   3.677  0.0981  0.2114  0.1520
 3920SOL    HW123222   2.959   3.753   3.615  1.0247  0.6794  1.2015
 3920SOL    HW223223   2.995   3.660   3.729  1.2938  1.2190 -0.9844
 3921SOL     OW23224   1.065   4.006  12.249  0.0616 -0.1160  0.5603
 3921SOL    HW123225   1.092   3.962  12.330  2.5016 -0.8557 -0.6438
 3921SOL    HW223226   0.992   3.949  12.228  0.5983 -1.1837  1.5951
 3922SOL     OW23227   1.308   0.573   2.990  0.8558  0.3645  0.1389
 3922SOL    HW123228   1.339   0.638   3.053 -2.7573  0.6156  1.6767
 3922SOL    HW223229   1.261   0.632   2.931  0.2279  0.7915  1.0583
 3923SOL     OW23230   3.415   1.629   3.369 -0.0523  0.0723  0.2141
 3923SOL    HW123231   3.334   1.584   3.393 -0.5191  1.1529  0.6584
 3923SOL    HW223232   3.473   1.600   3.440 -0.2455  1.7384  1.0495
 3924SOL     OW23233   1.656   2.526   8.621  0.6899  0.0714 -0.0708
 3924SOL    HW123234   1.701   2.603   8.656 -0.6718  0.6108  0.4904
 3924SOL    HW223235   1.725   2.465   8.596  3.7117  3.2480  0.4090
 3925SOL     OW23236   0.325   1.519   8.949  0.4095 -0.1521 -0.2987
 3925SOL    HW123237   0.310   1.429   8.919 -0.9786 -0.7229  2.1699
 3925SOL    HW223238   0.406   1.542   8.903  0.3278 -0.7903 -0.7610
 3926SOL     OW23239   3.170   3.474   3.276 -0.2681 -0.3961  0.5768
 3926SOL    HW123240   3.102   3.410   3.298 -1.2041  0.0050 -1.1648
 3926SOL    HW223241   3.120   3.556   3.271  0.4868  0.1958  2.5508
 3927SOL     OW23242   4.394   0.177   7.738 -0.6825  0.6158  0.3263
 3927SOL    HW123243   4.402   0.083   7.754  0.1299  0.8353  1.2490
 3927SOL    HW223244   4.425   0.168   7.648 -1.7214 -1.7999  0.2404
 3928SOL     OW23245   2.832   3.003  15.339  0.4104 -0.5415 -0.2567
 3928SOL    HW123246   2.759   2.966  15.289  0.0291 -0.7298  0.4387
 3928SOL    HW223247   2.903   2.948  15.305  0.3510 -0.3904 -0.6276
 3929SOL     OW23248   2.388   3.222   7.464  0.7625  0.1828 -0.0515
 3929SOL    HW123249   2.453   3.187   7.524 -0.1468 -0.5427  0.5067
 3929SOL    HW223250   2.392   3.153   7.398  2.1126  0.2858 -0.0699
 3930SOL     OW23251   0.762   4.041   3.332  0.2885 -0.1214  0.1675
 3930SOL    HW123252   0.674   4.038   3.370  0.0741 -2.6663 -0.5548
 3930SOL    HW223253   0.813   4.024   3.412 -1.5650  0.6001  1.5244
 3931SOL     OW23254   0.922   0.244   1.765  0.1510  0.0874  0.1142
 3931SOL    HW123255   0.849   0.183   1.767 -1.9320  2.5435 -1.1707
 3931SOL    HW223256   0.881   0.322   1.728  1.8136  0.3238 -1.2251
 3932SOL     OW23257   3.660   2.053   5.273  0.0648 -0.0081  0.3004
 3932SOL    HW123258   3.601   2.055   5.198  1.0683 -0.8117 -0.5043
 3932SOL    HW223259   3.627   1.986   5.333 -0.5085  1.6095  1.8262
 3933SOL     OW23260   1.579   1.034  11.689 -0.3937  0.8640  0.5061
 3933SOL    HW123261   1.559   0.975  11.761 -0.6234  0.4826  0.1287
 3933SOL    HW223262   1.513   1.021  11.620  0.5509 -0.6587 -0.1044
 3934SOL     OW23263   2.465   1.363  12.790 -0.2370  0.1793  0.1457
 3934SOL    HW123264   2.390   1.323  12.833 -1.8841  3.4644  0.2970
 3934SOL    HW223265   2.433   1.452  12.805 -1.2295 -0.1403 -0.0928
 3935SOL     OW23266   2.605   2.873   4.511 -0.0905  0.0950  0.6615
 3935SOL    HW123267   2.631   2.964   4.504 -1.2345  0.3878  0.1802
 3935SOL    HW223268   2.634   2.848   4.599 -4.0573  1.7694  2.4001
 3936SOL     OW23269   1.078   1.752  11.693 -0.2251  0.3392 -0.0993
 3936SOL    HW123270   1.124   1.693  11.753  0.0911 -0.7018 -1.3476
 3936SOL    HW223271   1.003   1.696  11.672  1.1296 -1.0996 -1.1455
 3937SOL     OW23272   2.615   1.465  12.182 -0.3500  0.4553 -0.3654
 3937SOL    HW123273   2.651   1.552  12.168  0.7107  0.1956  0.7194
 3937SOL    HW223274   2.685   1.422  12.134  1.6574  1.0190  2.0447
 3938SOL     OW23275   1.183   4.092   3.032 -0.1530  0.2360  0.1256
 3938SOL    HW123276   1.244   4.143   3.085 -0.9482  1.2938  0.0141
 3938SOL    HW223277   1.100   4.083   3.078  0.5582 -0.9388  1.1663
 3939SOL     OW23278   3.799   3.737  12.711 -0.4066 -0.0800  0.1430
 3939SOL    HW123279   3.841   3.666  12.760 -0.1189 -2.0662 -2.9437
 3939SOL    HW223280   3.785   3.806  12.776  1.4254  0.0495  0.3987
 3940SOL     OW23281   0.651   3.976   4.242  0.9390 -0.4211 -0.6281
 3940SOL    HW123282   0.648   4.064   4.206 -0.0384  0.1521  0.8587
 3940SOL    HW223283   0.739   3.949   4.216  1.9147 -0.4637  2.7090
 3941SOL     OW23284   3.560   1.157   8.281 -0.1429  0.1137  0.3708
 3941SOL    HW123285   3.495   1.210   8.327  1.2883  2.7803 -0.7117
 3941SOL    HW223286   3.573   1.073   8.325 -0.3882  0.5674  1.3177
 3942SOL     OW23287   1.938   0.560   4.073  0.3335 -0.3503 -0.3846
 3942SOL    HW123288   1.944   0.519   3.987 -2.9357  1.0250 -1.2491
 3942SOL    HW223289   1.914   0.649   4.049 -1.0712 -0.9636 -1.2486
 3943SOL     OW23290   3.353   4.187   6.608 -0.7418  0.4355  0.2125
 3943SOL    HW123291   3.288   4.239   6.653 -2.8716 -0.1543 -2.1604
 3943SOL    HW223292   3.300   4.132   6.550  1.2127 -0.1439 -1.0647
 3944SOL     OW23293   3.893   3.683  11.140  0.3473 -0.4117  0.0579
 3944SOL    HW123294   3.824   3.730  11.093  0.6683 -0.0729 -0.0686
 3944SOL    HW223295   3.966   3.726  11.096  0.4921  0.0419  0.7357
 3945SOL     OW23296   1.263   2.986   2.097  0.0266 -0.4231  0.2999
 3945SOL    HW123297   1.260   3.065   2.044  0.7986 -0.8187 -0.3308
 3945SOL    HW223298   1.207   2.928   2.044  0.1940 -1.1598  0.9286
 3946SOL     OW23299   2.453   4.679  10.402  0.3932 -0.2113  0.0352
 3946SOL    HW123300   2.382   0.008  10.437  0.5928  0.9180 -1.3023
 3946SOL    HW223301   2.407   4.618  10.345  0.6035  0.8333 -1.2351
 3947SOL     OW23302   2.071   1.445   7.409 -0.5553  0.4936 -0.2257
 3947SOL    HW123303   2.111   1.505   7.346 -0.1895 -1.3288 -1.7399
 3947SOL    HW223304   2.123   1.468   7.486 -0.4859 -2.0003  0.4551
 3948SOL     OW23305   4.669   2.920   8.699  0.0282 -0.1881  0.9450
 3948SOL    HW123306   4.683   2.839   8.747 -0.2038 -2.1519 -2.3570
 3948SOL    HW223307   4.697   2.892   8.612  1.2858 -0.6193  1.4828
 3949SOL     OW23308   1.454   2.086  15.792 -0.4066  0.4910  0.3150
 3949SOL    HW123309   1.394   2.160  15.791 -1.3982 -0.3122  1.3223
 3949SOL    HW223310   1.536   2.133  15.774 -0.5134  0.8545  0.7834
 3950SOL     OW23311   0.146   1.594   2.865 -0.2343  0.4790  0.6066
 3950SOL    HW123312   0.086   1.564   2.796 -1.1082  0.5600  1.3220
 3950SOL    HW223313   0.102   1.540   2.931  2.0392 -2.1057 -0.0154
 3951SOL     OW23314   0.836   2.532   5.373 -0.2668 -0.3338  0.3098
 3951SOL    HW123315   0.746   2.544   5.403  0.1168 -0.4924  1.5271
 3951SOL    HW223316   0.885   2.587   5.435 -1.4144  1.5133 -0.4335
 3952SOL     OW23317   0.659   4.428   7.558  0.7246 -0.3461  0.0037
 3952SOL    HW123318   0.704   4.354   7.598 -1.0123 -0.6482  1.4019
 3952SOL    HW223319   0.577   4.405   7.601  0.6770  0.2092  0.2117
 3953SOL     OW23320   1.561   1.364   1.411  0.6124  0.7625  0.4174
 3953SOL    HW123321   1.541   1.410   1.330  1.7603  1.6166  0.6122
 3953SOL    HW223322   1.474   1.328   1.426  0.5589  0.4095 -0.7607
 3954SOL     OW23323   0.779   0.941   3.278 -0.3911  0.5511  0.0112
 3954SOL    HW123324   0.788   0.977   3.366  0.1113  1.1979 -0.3058
 3954SOL    HW223325   0.701   0.984   3.244 -1.5325 -1.5661 -0.0684
 3955SOL     OW23326   4.212   0.035   0.764  0.0062 -0.4375 -0.1155
 3955SOL    HW123327   4.188   0.127   0.758  0.5668 -0.1856  1.4684
 3955SOL    HW223328   4.290   0.042   0.820 -0.2283  0.6854  0.0614
 3956SOL     OW23329   1.659   0.387   6.712  0.4334 -0.4790  0.4086
 3956SOL    HW123330   1.649   0.391   6.807  0.4460  0.7619  0.3567
 3956SOL    HW223331   1.703   0.302   6.717  0.2096 -0.7413 -1.9169
 3957SOL     OW23332   2.560   0.014  15.257  0.6980  0.7290  0.0975
 3957SOL    HW123333   2.473   4.702  15.270  0.8170 -0.0846 -1.5339
 3957SOL    HW223334   2.571   4.704  15.169 -2.3003 -2.2666  0.9458
 3958SOL     OW23335   2.738   0.746   5.107 -0.3240 -0.5901 -0.1290
 3958SOL    HW123336   2.703   0.786   5.028 -0.1992  0.6206  0.4352
 3958SOL    HW223337   2.820   0.707   5.078 -0.7110 -1.1599 -0.4633
 3959SOL     OW23338   1.909   4.052   6.745  0.1085  0.0238 -0.1521
 3959SOL    HW123339   1.948   4.005   6.818  2.1505  1.6322 -0.1942
 3959SOL    HW223340   1.838   3.995   6.717 -0.8160  0.8871  0.4291
 3960SOL     OW23341   3.503   4.173  14.132  0.6522 -0.2330 -0.3169
 3960SOL    HW123342   3.498   4.110  14.204  0.8759 -0.9114 -0.9017
 3960SOL    HW223343   3.412   4.200  14.122  0.9995  0.0050 -2.8178
 3961SOL     OW23344   0.202   0.890   8.809 -0.1136  0.2059 -0.1975
 3961SOL    HW123345   0.117   0.856   8.781 -0.1917  2.6854 -2.9237
 3961SOL    HW223346   0.175   0.933   8.890 -1.2475 -0.9336  0.0371
 3962SOL     OW23347   3.893   4.656   7.668  0.1548 -0.5666  0.1203
 3962SOL    HW123348   3.845   4.577   7.643 -1.3771  0.0244  1.1993
 3962SOL    HW223349   3.953   4.670   7.594  0.9502  1.5966  1.1902
 3963SOL     OW23350   1.093   0.836   2.908  0.2437 -0.1270  0.0126
 3963SOL    HW123351   1.043   0.759   2.883 -0.3164  0.5026 -0.7867
 3963SOL    HW223352   1.082   0.831   3.003  1.0396 -1.0037  0.0563
 3964SOL     OW23353   2.295   3.374   5.654 -0.0549 -0.0900  0.1862
 3964SOL    HW123354   2.366   3.388   5.590  0.9695  0.1610  1.3681
 3964SOL    HW223355   2.235   3.331   5.594 -1.6429  2.9997 -0.4734
 3965SOL     OW23356   1.782   4.169   4.555  0.1822  0.1125 -0.3649
 3965SOL    HW123357   1.776   4.077   4.530 -1.2634  0.6484 -2.0648
 3965SOL    HW223358   1.827   4.212   4.483  0.3905 -1.5515 -1.2170
 3966SOL     OW23359   0.553   1.590   8.835 -0.1171  0.3486 -0.1223
 3966SOL    HW123360   0.567   1.587   8.740  0.5876 -2.1070  0.0654
 3966SOL    HW223361   0.637   1.578   8.879 -0.3721  0.2259  0.3361
 3967SOL     OW23362   2.529   2.493   7.559  0.3003  0.6347 -0.0544
 3967SOL    HW123363   2.563   2.568   7.511  0.1945  1.0715  0.5582
 3967SOL    HW223364   2.443   2.521   7.589  0.3271  0.1928  0.4405
 3968SOL     OW23365   3.636   3.552   5.610  0.7257  0.1205 -0.1132
 3968SOL    HW123366   3.562   3.492   5.616  1.1144 -0.2296  1.1874
 3968SOL    HW223367   3.618   3.595   5.694  1.1156  1.2171 -0.5885
 3969SOL     OW23368   3.455   3.066   0.030 -0.2399  0.4255 -0.3311
 3969SOL    HW123369   3.428   3.054   0.121 -0.2387  1.0791 -0.2403
 3969SOL    HW223370   3.521   2.998   0.022 -1.1099 -0.5519  0.7063
 3970SOL     OW23371   3.899   3.390   6.821 -0.0269  0.1302  0.0317
 3970SOL    HW123372   3.980   3.349   6.790  1.1373  2.1199  0.4558
 3970SOL    HW223373   3.906   3.397   6.916 -0.7248 -0.6822  0.1443
 3971SOL     OW23374   2.102   2.097   9.400  0.1541 -0.7024 -0.4205
 3971SOL    HW123375   2.026   2.156   9.401  0.9028  0.1838  3.2927
 3971SOL    HW223376   2.122   2.100   9.307 -1.1624  0.9363 -0.6696
 3972SOL     OW23377   4.307   4.699   6.458  0.0406  0.1555  0.9768
 3972SOL    HW123378   4.364   0.007   6.389 -1.6925 -1.8211 -1.4220
 3972SOL    HW223379   4.361   4.639   6.509  1.2125 -1.5924 -2.3509
 3973SOL     OW23380   1.444   2.726   2.633  0.0966  0.2332  0.0276
 3973SOL    HW123381   1.466   2.812   2.597  0.7984  0.5352  1.1701
 3973SOL    HW223382   1.472   2.742   2.723 -1.2187 -0.0621  0.4866
 3974SOL     OW23383   3.151   4.610  12.706 -0.2677  0.7911 -0.1452
 3974SOL    HW123384   3.162   4.515  12.700  0.8153  0.9044  0.0347
 3974SOL    HW223385   3.077   4.616  12.765 -0.1702  0.2099  0.0371
 3975SOL     OW23386   2.933   3.619   4.637  0.1621  0.1778  1.1200
 3975SOL    HW123387   2.992   3.684   4.599  0.6900  0.7088  2.8464
 3975SOL    HW223388   2.983   3.537   4.640  1.9157  1.1839 -0.4179
 3976SOL     OW23389   2.991   2.292   3.433  0.2504  0.1899 -0.2923
 3976SOL    HW123390   3.032   2.352   3.496 -1.2698 -0.0399  0.9207
 3976SOL    HW223391   3.073   2.273   3.388  0.0042 -0.0335 -0.6442
 3977SOL     OW23392   1.081   0.666   0.562  0.3691  0.5451  0.0722
 3977SOL    HW123393   1.054   0.651   0.471  1.6889  1.6932 -0.5023
 3977SOL    HW223394   1.029   0.743   0.587 -0.4453  0.1899 -0.5355
 3978SOL     OW23395   1.592   2.835   9.378 -0.0800  0.1126  0.4869
 3978SOL    HW123396   1.503   2.840   9.411  0.2266  2.3933  0.9530
 3978SOL    HW223397   1.627   2.760   9.425  1.1960 -0.0150 -0.6534
 3979SOL     OW23398   2.616   4.467   3.639  0.2691  0.1053  0.0672
 3979SOL    HW123399   2.583   4.487   3.727 -0.5075  0.5378 -0.3194
 3979SOL    HW223400   2.593   4.548   3.594 -1.0098  0.2291  0.9487
 3980SOL     OW23401   0.754   3.024  10.748  0.5078  0.3315  0.1449
 3980SOL    HW123402   0.740   2.993  10.658  0.9035  3.1487 -0.8730
 3980SOL    HW223403   0.671   3.065  10.772  0.2951  0.6631 -1.1444
 3981SOL     OW23404   3.569   1.549   7.205 -0.1044 -0.1277 -0.7423
 3981SOL    HW123405   3.507   1.477   7.191 -2.3700  1.5061  0.8349
 3981SOL    HW223406   3.640   1.530   7.145  0.2520 -2.2686  0.3862
 3982SOL     OW23407   1.557   2.484   2.990  0.5072  0.0698 -0.1372
 3982SOL    HW123408   1.611   2.551   2.948  1.6083 -1.1643 -0.6989
 3982SOL    HW223409   1.560   2.414   2.925 -2.8207  0.0284 -0.2353
 3983SOL     OW23410   1.697   1.460   6.549  0.4343  0.2431 -0.0010
 3983SOL    HW123411   1.671   1.438   6.639  0.1741  0.3541 -0.0497
 3983SOL    HW223412   1.706   1.372   6.513 -0.0870  1.0188 -1.9986
 3984SOL     OW23413   1.657   0.006   1.751  0.2230 -0.1369  0.2721
 3984SOL    HW123414   1.678   4.668   1.820  0.5767  0.8617  1.0758
 3984SOL    HW223415   1.564   0.021   1.763  0.3200  1.3191 -0.7921
 3985SOL     OW23416   1.482   1.633   5.163 -0.1723  0.6406  0.1028
 3985SOL    HW123417   1.421   1.595   5.226 -2.1188 -1.1476 -2.8615
 3985SOL    HW223418   1.538   1.559   5.139 -4.7159 -1.5799 -3.7136
 3986SOL     OW23419   0.794   0.668   7.518  0.0002  0.0205 -0.3508
 3986SOL    HW123420   0.766   0.591   7.566  0.4740 -0.7490 -1.3030
 3986SOL    HW223421   0.871   0.627   7.478 -0.2612  1.3664 -2.2219
 3987SOL     OW23422   0.248   4.581   7.591 -0.0118  0.5008  0.1485
 3987SOL    HW123423   0.244   4.655   7.651  1.9315  0.7236 -0.0053
 3987SOL    HW223424   0.268   4.514   7.656 -1.2664  0.8148  0.8602
 3988SOL     OW23425   1.649   2.265   2.092  0.3677 -0.0145  0.6479
 3988SOL    HW123426   1.690   2.180   2.106  2.5163  0.6795 -1.3799
 3988SOL    HW223427   1.726   2.318   2.068 -0.6854  0.2214 -2.2061
 3989SOL     OW23428   2.080   1.919   8.303  0.7696  0.0518 -0.2454
 3989SOL    HW123429   1.992   1.957   8.295  0.9833  0.6024  0.0234
 3989SOL    HW223430   2.069   1.849   8.238  1.6224 -0.9604  0.7186
 3990SOL     OW23431   2.747   0.207   8.884  0.4367 -0.0599 -0.3993
 3990SOL    HW123432   2.826   0.181   8.931 -0.0417 -0.4995  0.1593
 3990SOL    HW223433   2.693   0.127   8.890 -1.2561  1.1629  0.4948
 3991SOL     OW23434   1.172   4.226   3.696  0.3032 -0.7533  0.3889
 3991SOL    HW123435   1.167   4.200   3.788 -0.9393  0.5601  0.7058
 3991SOL    HW223436   1.098   4.287   3.694  2.2270  1.5316 -0.6952
 3992SOL     OW23437   2.408   4.131   8.347 -0.3369 -0.0979 -0.1653
 3992SOL    HW123438   2.466   4.056   8.356  0.9415  0.9247  0.0656
 3992SOL    HW223439   2.349   4.109   8.275  1.1315 -1.5511 -0.9038
 3993SOL     OW23440   0.846   4.411   3.265  0.4817 -0.4791 -0.0281
 3993SOL    HW123441   0.919   4.473   3.259  0.8922 -1.2830 -3.2469
 3993SOL    HW223442   0.889   4.342   3.316  0.5037 -0.8206 -0.5123
 3994SOL     OW23443   3.318   4.073   6.973 -0.3401 -0.2220 -1.0195
 3994SOL    HW123444   3.315   3.978   6.982 -0.0049 -0.0273  1.1077
 3994SOL    HW223445   3.412   4.080   6.961 -0.3816 -1.3979 -2.0872
 3995SOL     OW23446   0.706   4.647   3.832 -0.3771 -0.0815 -0.3707
 3995SOL    HW123447   0.708   4.713   3.763  0.0074  0.8699  0.5544
 3995SOL    HW223448   0.801   4.635   3.836 -0.3604  1.0104  2.6353
 3996SOL     OW23449   1.663   1.007   6.154 -0.2032  0.3974 -0.5506
 3996SOL    HW123450   1.726   0.943   6.121 -1.3902 -0.8214 -0.4317
 3996SOL    HW223451   1.593   0.942   6.150 -0.0808  0.1787  0.7495
 3997SOL     OW23452   0.033   0.356   8.995 -0.0770 -0.1436  0.0814
 3997SOL    HW123453   0.058   0.448   8.986 -1.1860  0.0868 -0.5777
 3997SOL    HW223454   4.664   0.354   9.008  0.0908 -2.5190  1.0134
 3998SOL     OW23455   1.274   0.896   7.972 -0.0907  0.6720 -0.1309
 3998SOL    HW123456   1.186   0.861   7.958 -0.0535  0.1014  0.9909
 3998SOL    HW223457   1.326   0.817   7.956  0.8920  1.1679  0.6307
 3999SOL     OW23458   1.306   0.695   5.629  0.0134 -0.0203 -0.0408
 3999SOL    HW123459   1.267   0.656   5.708 -0.1338 -0.4315 -0.3190
 3999SOL    HW223460   1.285   0.626   5.566  0.8586  0.6723 -1.0741
 4000SOL     OW23461   0.257   2.356  12.067  0.1962 -0.3039  0.0929
 4000SOL    HW123462   0.214   2.282  12.109  0.2701  0.7799  2.0737
 4000SOL    HW223463   0.204   2.397  11.999  0.5486 -0.9707 -0.5807
 4001SOL     OW23464   0.972   3.237   2.990 -0.0886  0.2533 -0.3122
 4001SOL    HW123465   0.894   3.183   3.004 -0.6364  0.8269 -1.1333
 4001SOL    HW223466   0.946   3.322   3.027  1.4385 -0.0924  1.5099
 4002SOL     OW23467   1.660   0.644   3.856  0.6511  0.1292  0.4924
 4002SOL    HW123468   1.694   0.602   3.935 -3.7903  1.2602  3.0171
 4002SOL    HW223469   1.630   0.564   3.813  0.5163  0.9769 -0.9765
 4003SOL     OW23470   3.375   0.905  10.036 -0.1305  0.1395  0.2617
 4003SOL    HW123471   3.369   0.859   9.952 -1.5469  0.7204  0.0408
 4003SOL    HW223472   3.385   0.991   9.997 -1.2290 -0.0813 -0.5162
 4004SOL     OW23473   4.581   2.789   1.608  0.0894  0.1084 -0.1127
 4004SOL    HW123474   4.592   2.704   1.567  1.1584  1.2284 -2.1705
 4004SOL    HW223475   4.553   2.859   1.548  1.5936  0.8844  0.1025
 4005SOL     OW23476   1.280   3.040   2.448  0.4775 -0.6723 -0.0761
 4005SOL    HW123477   1.299   3.029   2.541  1.4175 -2.4887 -0.4781
 4005SOL    HW223478   1.254   3.132   2.448 -1.6840 -1.2921 -0.0408
 4006SOL     OW23479   2.226   2.748   8.291  0.2996  0.6076 -0.3322
 4006SOL    HW123480   2.282   2.671   8.299 -0.2152  0.4329  1.6883
 4006SOL    HW223481   2.217   2.763   8.197  0.4576 -0.3292 -0.4975
 4007SOL     OW23482   2.882   1.240   7.232 -0.2478  0.2673  0.6116
 4007SOL    HW123483   2.966   1.195   7.234 -1.0764 -1.1901  2.9175
 4007SOL    HW223484   2.858   1.249   7.325 -2.1060 -0.3199  0.1862
 4008SOL     OW23485   4.098   0.541   5.552 -0.2288  0.0687  0.4552
 4008SOL    HW123486   4.133   0.619   5.595 -0.7019 -0.5207  1.8878
 4008SOL    HW223487   4.028   0.572   5.494 -1.5173 -0.4993  1.7114
 4009SOL     OW23488   4.509   0.105   3.677 -0.4677 -0.4034 -0.1471
 4009SOL    HW123489   4.583   0.162   3.697 -0.6962 -0.8544  1.9225
 4009SOL    HW223490   4.541   0.056   3.601  0.7439  2.4214 -1.4597
 4010SOL     OW23491   3.939   0.135   1.819 -0.2921  0.7212  0.4011
 4010SOL    HW123492   3.966   0.219   1.782  2.1728  0.6557  2.0591
 4010SOL    HW223493   3.849   0.154   1.845 -1.1969 -1.4421 -1.1370
 4011SOL     OW23494   3.107   1.772  14.023  0.3355  0.0366  0.0830
 4011SOL    HW123495   3.119   1.866  14.040  0.6836  0.2730 -1.4318
 4011SOL    HW223496   3.179   1.743  14.079 -0.9949 -1.1126  1.1876
 4012SOL     OW23497   4.152   2.439  17.457  0.5477  0.3255  0.0912
 4012SOL    HW123498   4.082   2.503  17.467 -0.9140 -1.0834 -1.1774
 4012SOL    HW223499   4.177   2.455  17.548  0.8091 -2.4691  0.5228
 4013SOL     OW23500   4.368   2.469   3.477  0.6334  0.5858  0.3361
 4013SOL    HW123501   4.364   2.524   3.398 -1.6628  2.9813  2.1405
 4013SOL    HW223502   4.281   2.430   3.478  0.5822  0.6972  0.2183
 4014SOL     OW23503   2.141   2.973  16.876  0.0461 -0.6029  0.1624
 4014SOL    HW123504   2.162   3.060  16.841 -1.8390 -0.4799 -0.6843
 4014SOL    HW223505   2.209   2.966  16.942 -0.8633  1.6699  1.3224
 4015SOL     OW23506   4.078   0.932   6.596  0.3758  0.1336 -0.4456
 4015SOL    HW123507   4.111   0.890   6.676 -1.8564 -0.4752  0.1663
 4015SOL    HW223508   4.120   0.873   6.533  3.7224  0.7623  1.1887
 4016SOL     OW23509   4.673   3.302   5.272 -0.4510  0.0627 -0.0364
 4016SOL    HW123510   4.721   3.230   5.312 -0.1409  0.1647 -0.2231
 4016SOL    HW223511   4.610   3.312   5.344  0.5817  1.4745  0.6721
 4017SOL     OW23512   1.457   2.616   6.549  0.0752 -0.9640  0.5414
 4017SOL    HW123513   1.397   2.661   6.608  0.9064 -0.9520  1.3813
 4017SOL    HW223514   1.509   2.570   6.615  2.6811 -0.3990 -1.1253
 4018SOL     OW23515   3.345   4.381   4.237 -0.5845 -0.0691  0.1133
 4018SOL    HW123516   3.307   4.419   4.158 -0.1231  0.1642  0.0025
 4018SOL    HW223517   3.431   4.393   4.195 -0.1179  0.0901  1.1140
 4019SOL     OW23518   2.616   1.200  14.609 -0.1070 -0.0336 -0.6675
 4019SOL    HW123519   2.626   1.171  14.699 -1.1941  3.6719  0.6554
 4019SOL    HW223520   2.675   1.276  14.608 -0.8620  0.5708  0.6327
 4020SOL     OW23521   2.033   2.149   4.032  0.2040 -0.1691  0.0360
 4020SOL    HW123522   2.074   2.097   3.963 -1.5286  1.0075 -1.9119
 4020SOL    HW223523   2.110   2.203   4.051  0.1173 -0.3644  0.9213
 4021SOL     OW23524   4.287   0.110   8.656  0.1912  0.0870 -0.0554
 4021SOL    HW123525   4.313   0.058   8.732  0.9874  0.4451 -0.0880
 4021SOL    HW223526   4.226   0.170   8.699  1.4570  2.2683 -1.3210
 4022SOL     OW23527   4.548   1.477  10.989  0.6341  0.0308  0.5949
 4022SOL    HW123528   4.516   1.544  10.929  0.4543 -0.6518 -0.0752
 4022SOL    HW223529   4.607   1.535  11.036  1.1511 -0.9505  1.1705
 4023SOL     OW23530   1.413   0.627   7.918 -0.5381 -0.3313 -0.6318
 4023SOL    HW123531   1.337   0.580   7.885 -1.6202 -0.0121  1.4062
 4023SOL    HW223532   1.436   0.576   7.996 -0.3632 -1.1682 -1.2351
 4024SOL     OW23533   2.913   3.374   9.637  0.7823 -0.4707  0.1987
 4024SOL    HW123534   2.857   3.354   9.712 -0.2230  4.0916  0.7172
 4024SOL    HW223535   2.878   3.326   9.563  0.3243 -1.9571  1.3871
 4025SOL     OW23536   1.059   0.798   8.733  0.4871 -0.4963  0.3450
 4025SOL    HW123537   1.046   0.709   8.700 -0.3710 -1.5908  3.7145
 4025SOL    HW223538   1.041   0.847   8.652  1.4915  1.2804  1.1986
 4026SOL     OW23539   1.582   2.366   8.904  0.4150  0.2708 -0.6735
 4026SOL    HW123540   1.597   2.290   8.848  0.3619  0.4461 -0.9245
 4026SOL    HW223541   1.647   2.432   8.879  0.0995  0.1281 -1.8495
 4027SOL     OW23542   2.653   0.718   8.041  0.0725  0.4677 -0.1361
 4027SOL    HW123543   2.630   0.786   7.978  2.5648  0.7479 -0.7313
 4027SOL    HW223544   2.707   0.771   8.099 -0.8323 -0.1931  1.3217
 4028SOL     OW23545   1.711   3.355   6.217 -0.4048  0.8705  0.2887
 4028SOL    HW123546   1.620   3.374   6.191 -0.9894 -1.6498  0.5512
 4028SOL    HW223547   1.747   3.440   6.241  0.8902 -0.7166  3.8906
 4029SOL     OW23548   2.737   1.770   9.752 -0.1336 -0.9041 -0.3255
 4029SOL    HW123549   2.719   1.850   9.800  0.2325  0.8632 -3.1115
 4029SOL    HW223550   2.651   1.729   9.744 -0.6090  0.4031 -2.1069
 4030SOL     OW23551   2.049   3.891   8.707  0.0321 -0.4215  0.0503
 4030SOL    HW123552   2.117   3.939   8.755 -1.9303  1.3020  1.1240
 4030SOL    HW223553   2.049   3.949   8.631  2.2957  1.7611  1.6921
 4031SOL     OW23554   2.391   4.033   5.247  0.7505 -0.2099  0.1656
 4031SOL    HW123555   2.432   4.114   5.280 -1.5702  0.5371  1.2634
 4031SOL    HW223556   2.375   4.072   5.161 -1.5530 -2.1319 -0.2457
 4032SOL     OW23557   2.983   1.468   3.571  0.9257 -0.3199  0.1054
 4032SOL    HW123558   2.923   1.542   3.584 -1.2551 -1.7366 -1.7526
 4032SOL    HW223559   3.065   1.508   3.544  1.2140 -0.2962  1.0307
 4033SOL     OW23560   1.570   1.783  13.812  0.1575  0.1268  0.2509
 4033SOL    HW123561   1.536   1.871  13.796  1.3528  0.3878 -0.8737
 4033SOL    HW223562   1.662   1.793  13.789 -0.1536  0.6744 -0.7891
 4034SOL     OW23563   1.716   1.686   6.954 -0.1850  0.3868  0.1257
 4034SOL    HW123564   1.672   1.676   7.039 -1.5438 -0.0225 -0.6335
 4034SOL    HW223565   1.707   1.781   6.944  1.0751  0.5753  0.8429
 4035SOL     OW23566   4.079   1.762   5.527  0.1225 -0.2824 -0.0558
 4035SOL    HW123567   4.068   1.855   5.549  0.3857  0.3145 -2.4968
 4035SOL    HW223568   3.995   1.724   5.553  0.3202 -0.4224  0.3693
 4036SOL     OW23569   0.003   0.131   6.290  0.0023 -0.1856 -0.4152
 4036SOL    HW123570   0.014   0.039   6.266  1.7609  0.1276 -0.7686
 4036SOL    HW223571   4.675   0.113   6.368 -0.5829  2.6083 -0.1841
 4037SOL     OW23572   2.628   4.723  17.039  0.1352 -0.0893 -0.2102
 4037SOL    HW123573   2.557   4.661  17.020  0.2470 -0.5384  0.8586
 4037SOL    HW223574   2.675   0.001  16.956 -1.3382 -0.0624 -1.0477
 4038SOL     OW23575   2.908   1.303   4.535  0.6806 -0.1586 -0.1761
 4038SOL    HW123576   2.964   1.317   4.458 -0.7308  1.0797 -0.9896
 4038SOL    HW223577   2.956   1.343   4.607  0.9758 -0.0056 -0.4575
 4039SOL     OW23578   0.621   3.759   8.047  0.7625 -0.1223  0.1342
 4039SOL    HW123579   0.717   3.757   8.054  0.7974 -0.0402 -0.2905
 4039SOL    HW223580   0.603   3.716   8.131 -2.4049 -1.9565 -1.4840
 4040SOL     OW23581   3.026   2.765   7.194 -0.0276  0.1097  0.4796
 4040SOL    HW123582   3.071   2.699   7.142  0.9355  1.8071 -0.8658
 4040SOL    HW223583   2.990   2.811   7.118 -0.2933  0.3337  0.7374
 4041SOL     OW23584   3.624   2.192   4.128 -0.3777 -0.1830 -0.1215
 4041SOL    HW123585   3.705   2.236   4.101 -1.5105  1.5525 -0.7054
 4041SOL    HW223586   3.638   2.103   4.098 -0.6792 -0.0227 -0.7302
 4042SOL     OW23587   3.528   4.410   1.262 -0.1041 -0.0500 -0.3420
 4042SOL    HW123588   3.493   4.465   1.191 -0.3261  1.3066  0.8115
 4042SOL    HW223589   3.458   4.424   1.326  0.8305  1.2076  0.4144
 4043SOL     OW23590   2.579   4.435   3.203  0.1197  0.1328  0.1410
 4043SOL    HW123591   2.659   4.449   3.152  0.3319 -0.3871  0.3349
 4043SOL    HW223592   2.606   4.347   3.229 -0.1198  0.1114  0.3196
 4044SOL     OW23593   3.662   1.520   6.189  0.5149  0.2836  0.1772
 4044SOL    HW123594   3.689   1.431   6.214 -3.0641 -1.6317 -2.8026
 4044SOL    HW223595   3.623   1.557   6.268  0.2136 -0.7850  0.5362
 4045SOL     OW23596   4.694   3.227   1.783 -0.1346 -0.1740  0.4591
 4045SOL    HW123597   4.632   3.299   1.769  0.1111 -0.3636 -1.5504
 4045SOL    HW223598   0.009   3.263   1.862 -2.7440  0.5322  1.4968
 4046SOL     OW23599   0.083   3.566   3.833  0.2466  0.0221  0.0670
 4046SOL    HW123600   0.120   3.487   3.793 -1.2418  0.3530 -1.9937
 4046SOL    HW223601   0.152   3.630   3.820 -0.0658  0.6788  1.5500
 4047SOL     OW23602   0.590   0.139   8.939 -0.0457 -0.3828  0.9404
 4047SOL    HW123603   0.602   0.048   8.967 -1.6906 -0.7603  0.4055
 4047SOL    HW223604   0.670   0.172   8.980 -0.4605  1.9200 -0.1261
 4048SOL     OW23605   2.195   3.169   8.708  0.2879 -0.7453 -0.0447
 4048SOL    HW123606   2.132   3.179   8.636 -0.8454  2.1333  1.3672
 4048SOL    HW223607   2.206   3.074   8.707  0.6131 -0.7175  1.5453
 4049SOL     OW23608   0.559   0.719  12.812  0.6344 -0.6254  0.2727
 4049SOL    HW123609   0.644   0.740  12.850 -0.0841  0.7414  1.1516
 4049SOL    HW223610   0.511   0.686  12.889 -1.0064 -3.0079 -1.7800
 4050SOL     OW23611   2.790   3.073   4.546 -0.5386 -0.0471 -0.2564
 4050SOL    HW123612   2.818   3.094   4.457 -0.3929  0.9824  0.0307
 4050SOL    HW223613   2.870   3.046   4.591 -1.2966  0.9299  1.6503
 4051SOL     OW23614   2.984   1.363   5.453  0.0806 -0.3381 -0.1533
 4051SOL    HW123615   2.951   1.346   5.541 -2.5187 -0.8177 -1.2037
 4051SOL    HW223616   2.910   1.357   5.392 -0.7236  0.4628  0.7338
 4052SOL     OW23617   0.834   2.739   3.947 -0.0306 -0.3769  0.7536
 4052SOL    HW123618   0.770   2.677   3.913 -0.6289  0.8738 -0.3795
 4052SOL    HW223619   0.780   2.803   3.993  0.7717 -0.3936  1.7108
 4053SOL     OW23620   0.987   1.635   0.734 -0.0128  0.8058  0.2382
 4053SOL    HW123621   0.906   1.683   0.716 -0.2764 -0.4256 -1.8314
 4053SOL    HW223622   1.032   1.625   0.650  0.5223  3.1045  0.2407
 4054SOL     OW23623   0.318   1.046   0.828  0.1491  0.1716  0.0561
 4054SOL    HW123624   0.264   1.097   0.768  0.0753 -0.5696 -0.5071
 4054SOL    HW223625   0.347   0.978   0.767 -0.1202  2.9125 -3.1072
 4055SOL     OW23626   0.790   0.401   4.967  0.1758  0.1813  0.0417
 4055SOL    HW123627   0.878   0.419   4.933  0.2596 -1.1868 -0.4901
 4055SOL    HW223628   0.800   0.305   4.971 -0.4619  0.1800  1.4267
 4056SOL     OW23629   2.723   2.140   5.889 -0.1625  0.1776 -0.5944
 4056SOL    HW123630   2.742   2.126   5.982  1.6620 -0.6534 -1.0957
 4056SOL    HW223631   2.768   2.222   5.867 -0.1709 -0.1123 -1.6707
 4057SOL     OW23632   0.050   4.123  15.470  0.2922  0.2317 -0.1173
 4057SOL    HW123633   0.006   4.166  15.542 -0.2401  1.4238 -1.1617
 4057SOL    HW223634   0.119   4.078  15.519  1.4512 -0.9179 -2.7484
 4058SOL     OW23635   3.820   0.926   3.147  0.2138  0.0444 -0.5644
 4058SOL    HW123636   3.752   0.987   3.120  0.0118  0.0377 -0.0807
 4058SOL    HW223637   3.781   0.886   3.226 -1.2831 -0.9542 -1.8040
 4059SOL     OW23638   1.851   0.163   8.451 -0.6874 -0.0593  1.1243
 4059SOL    HW123639   1.924   0.132   8.397 -0.2134  2.9446  0.0059
 4059SOL    HW223640   1.836   0.083   8.501  1.5148 -1.2110 -0.0880
 4060SOL     OW23641   0.796   0.748   9.094  0.4030  0.2013 -0.5502
 4060SOL    HW123642   0.759   0.834   9.116  0.2838  0.6459 -2.5019
 4060SOL    HW223643   0.883   0.767   9.059 -0.0181  1.6077 -0.8356
 4061SOL     OW23644   1.241   0.597   5.278  0.0995 -0.4656 -0.1997
 4061SOL    HW123645   1.255   0.602   5.372  0.6136 -3.2314 -0.1102
 4061SOL    HW223646   1.281   0.513   5.254 -0.1206 -0.7935  0.6006
 4062SOL     OW23647   0.211   0.964   6.733 -0.8717 -0.4827 -0.0815
 4062SOL    HW123648   0.306   0.949   6.739 -0.7576  0.5288  0.6568
 4062SOL    HW223649   0.178   0.882   6.770 -2.1981 -0.1118 -0.4591
 4063SOL     OW23650   3.448   3.147   4.318 -0.7557  0.0680 -0.2822
 4063SOL    HW123651   3.521   3.207   4.331 -0.5348 -0.3176  0.2320
 4063SOL    HW223652   3.449   3.145   4.222 -2.1856 -1.1441 -0.2668
 4064SOL     OW23653   2.409   0.086  14.703 -0.2283  0.3858  0.4195
 4064SOL    HW123654   2.473   0.144  14.746  0.1077 -0.5144  1.1417
 4064SOL    HW223655   2.454   0.067  14.621  0.9430  1.0729  0.8871
 4065SOL     OW23656   0.066   0.174   4.153 -0.7092 -0.0049 -0.5125
 4065SOL    HW123657   0.034   0.174   4.243  0.5247  0.4896 -0.0653
 4065SOL    HW223658   0.154   0.210   4.164 -0.3975 -0.7518 -0.5991
 4066SOL     OW23659   3.793   1.373   5.327 -0.3903 -0.3647  0.4206
 4066SOL    HW123660   3.744   1.293   5.308 -0.3255 -0.6989  1.6285
 4066SOL    HW223661   3.798   1.421   5.245 -1.5344  1.6782  1.5466
 4067SOL     OW23662   3.822   3.448   2.254  0.3405  0.3911  0.3226
 4067SOL    HW123663   3.906   3.427   2.214  1.1855 -0.8958  2.7940
 4067SOL    HW223664   3.774   3.367   2.238 -0.2534  0.7644  0.2148
 4068SOL     OW23665   0.377   2.208   6.116 -0.4486  0.1360  0.2483
 4068SOL    HW123666   0.470   2.228   6.114 -0.5010  0.1489 -1.6024
 4068SOL    HW223667   0.337   2.295   6.113  1.9035  1.1930 -0.2925
 4069SOL     OW23668   3.855   0.749   3.601  0.2117  0.0808  0.3507
 4069SOL    HW123669   3.929   0.697   3.634 -0.4024 -1.9516 -1.5420
 4069SOL    HW223670   3.913   0.784   3.533  0.2342  1.4736  1.0809
 4070SOL     OW23671   1.769   1.289  11.899 -0.1200 -0.5837 -0.1519
 4070SOL    HW123672   1.695   1.350  11.897 -0.8656 -1.5365 -1.0693
 4070SOL    HW223673   1.722   1.207  11.892 -1.8892  0.1683  2.5814
 4071SOL     OW23674   4.713   0.566   7.100  0.0784 -0.4200 -0.3419
 4071SOL    HW123675   4.656   0.537   7.029 -0.2348 -0.3061 -0.1379
 4071SOL    HW223676   0.034   0.487   7.131  0.8040  0.3637  0.5774
 4072SOL     OW23677   4.690   3.255   4.239 -0.3227  0.0764  0.4674
 4072SOL    HW123678   4.668   3.243   4.331  0.4222 -4.8608  0.0030
 4072SOL    HW223679   4.723   3.170   4.209  0.5472  0.1136  1.3238
 4073SOL     OW23680   2.318   2.169   5.459  0.5915 -0.8800 -0.0845
 4073SOL    HW123681   2.282   2.199   5.542 -0.3502 -3.0749  0.2999
 4073SOL    HW223682   2.395   2.125   5.496  0.8586  0.9230  1.5166
 4074SOL     OW23683   0.653   1.542  16.457  0.0212 -0.0621 -0.2837
 4074SOL    HW123684   0.560   1.531  16.435 -0.4860  1.6104  1.0278
 4074SOL    HW223685   0.699   1.486  16.394  0.7067  2.2599 -1.8193
 4075SOL     OW23686   4.217   4.191   1.868  0.0545 -0.3218 -0.2119
 4075SOL    HW123687   4.183   4.105   1.842 -0.4584 -0.3899  0.6780
 4075SOL    HW223688   4.306   4.164   1.888 -0.5772  0.8187  4.0698
 4076SOL     OW23689   4.274   1.356  14.900 -0.1669  0.1954  0.2059
 4076SOL    HW123690   4.179   1.360  14.900 -0.2161 -0.8986  2.3415
 4076SOL    HW223691   4.300   1.309  14.821  0.5209 -0.2347  0.6872
 4077SOL     OW23692   0.143   3.568   6.246 -0.3270 -0.1550 -0.7860
 4077SOL    HW123693   0.143   3.490   6.302 -1.5589 -0.7574 -1.6293
 4077SOL    HW223694   0.049   3.567   6.227 -0.7222  0.4044  1.2085
 4078SOL     OW23695   3.758   0.324   3.694  0.0516  0.2376  0.4821
 4078SOL    HW123696   3.794   0.376   3.622 -2.7456  0.5339 -0.7047
 4078SOL    HW223697   3.830   0.261   3.704  0.2117  0.5121  1.0745
 4079SOL     OW23698   1.918   0.441   5.102 -0.1177 -0.2534 -0.1300
 4079SOL    HW123699   1.971   0.515   5.131 -0.2518 -0.0082 -0.5184
 4079SOL    HW223700   1.894   0.474   5.016  0.0841  1.2842  0.4061
 4080SOL     OW23701   0.173   1.846   4.690 -0.0748  0.0771 -0.2616
 4080SOL    HW123702   0.157   1.915   4.625 -2.6533 -0.2677 -0.0102
 4080SOL    HW223703   0.138   1.886   4.770  0.7787 -1.2289  0.7516
 4081SOL     OW23704   0.169   2.456   0.176 -0.2249  0.1836 -0.1063
 4081SOL    HW123705   0.116   2.520   0.129 -0.5424 -1.6118 -2.2106
 4081SOL    HW223706   0.182   2.510   0.254  0.5315  1.1075 -0.8689
 4082SOL     OW23707   1.154   1.185   2.286  0.5823 -0.2068 -0.0750
 4082SOL    HW123708   1.093   1.130   2.236 -0.4630  1.4169 -0.6257
 4082SOL    HW223709   1.101   1.265   2.279 -0.8641 -0.8963  3.0130
 4083SOL     OW23710   4.687   0.243   6.051 -0.4110 -0.2694  0.1717
 4083SOL    HW123711   4.706   0.220   6.141 -0.1211  0.9825  0.4343
 4083SOL    HW223712   4.624   0.173   6.036 -0.7309 -0.1858  1.1570
 4084SOL     OW23713   0.337   0.309   1.301  0.0800 -0.0934  0.5770
 4084SOL    HW123714   0.297   0.386   1.341  2.5779  0.7544  1.4184
 4084SOL    HW223715   0.256   0.258   1.294  0.2668 -0.3484  0.2539
 4085SOL     OW23716   1.454   2.450   2.183 -0.5005 -0.1039 -0.5062
 4085SOL    HW123717   1.527   2.506   2.211  0.4795 -0.9012 -1.4187
 4085SOL    HW223718   1.502   2.367   2.174  0.9312  0.2254  4.3587
 4086SOL     OW23719   3.605   3.302   7.910 -0.0110 -0.1962 -0.7899
 4086SOL    HW123720   3.694   3.321   7.879  0.0087 -0.0361 -0.6355
 4086SOL    HW223721   3.567   3.243   7.845  2.4264 -1.7366 -0.8258
 4087SOL     OW23722   1.643   1.888   1.735 -0.1517  0.0002  0.1832
 4087SOL    HW123723   1.591   1.833   1.676 -0.9512 -0.9943  1.7970
 4087SOL    HW223724   1.659   1.971   1.690  0.7280 -1.0377 -1.4064
 4088SOL     OW23725   2.989   4.051   8.223 -0.3029  0.2485 -0.5682
 4088SOL    HW123726   2.941   4.096   8.292  0.8123  0.6232 -0.0367
 4088SOL    HW223727   3.039   4.126   8.193 -3.1823  2.2237 -0.4284
 4089SOL     OW23728   0.135   1.934   3.377 -0.2069 -0.0900  0.2483
 4089SOL    HW123729   0.228   1.953   3.366 -0.9869  1.2426 -4.3844
 4089SOL    HW223730   0.127   1.869   3.307  0.7499  0.7529 -0.6599
 4090SOL     OW23731   3.833   1.781   4.488  0.0975  0.1300 -0.2205
 4090SOL    HW123732   3.784   1.857   4.520  1.2293  0.9130 -0.3179
 4090SOL    HW223733   3.802   1.721   4.556  1.8633 -0.8636 -0.3000
 4091SOL     OW23734   1.201   4.561   7.919 -0.0465 -0.8207  0.5224
 4091SOL    HW123735   1.258   4.502   7.868  1.9112  0.3753  1.3047
 4091SOL    HW223736   1.249   4.643   7.926 -2.0645  0.2186  2.1054
 4092SOL     OW23737   2.315   4.241  12.695  0.3251  0.0288 -0.1124
 4092SOL    HW123738   2.341   4.153  12.720  1.5654  0.6592  0.8014
 4092SOL    HW223739   2.308   4.283  12.781 -0.4317 -2.9256  1.2545
 4093SOL     OW23740   2.118   3.058   5.334  0.2903 -0.2041 -0.4806
 4093SOL    HW123741   2.031   3.060   5.295 -0.0556  0.6002  0.3436
 4093SOL    HW223742   2.112   3.129   5.398  0.1856 -0.8054  0.1782
 4094SOL     OW23743   2.513   4.298   2.926 -0.0361  0.3129 -0.1041
 4094SOL    HW123744   2.526   4.294   2.831  0.4166  2.8064 -0.1677
 4094SOL    HW223745   2.599   4.289   2.966 -0.0128 -0.4885 -0.3308
 4095SOL     OW23746   2.935   4.174  13.117  0.3874 -0.1674 -0.4909
 4095SOL    HW123747   2.880   4.172  13.039  1.4792  0.7706 -1.2855
 4095SOL    HW223748   2.974   4.262  13.114  0.8189 -0.3799 -1.0071
 4096SOL     OW23749   3.817   0.631   7.216  0.2276 -0.4427  0.2402
 4096SOL    HW123750   3.800   0.597   7.128 -0.4775 -0.4245  0.3680
 4096SOL    HW223751   3.734   0.606   7.256  0.1923  0.0008  0.4433
 4097SOL     OW23752   3.012   2.837   1.520  0.1973 -0.1624  0.1707
 4097SOL    HW123753   2.927   2.820   1.479  0.4336 -2.6271  0.7003
 4097SOL    HW223754   2.993   2.923   1.556  0.5087 -0.3404  0.7569
 4098SOL     OW23755   3.808   3.663   8.170 -0.1612 -0.5132 -0.2135
 4098SOL    HW123756   3.746   3.715   8.221  0.6722 -0.3225  0.6226
 4098SOL    HW223757   3.743   3.617   8.117 -1.3222 -0.6516  1.3429
 4099SOL     OW23758   2.749   3.133   0.673  0.0044  0.1354 -0.2235
 4099SOL    HW123759   2.702   3.192   0.732 -0.8896 -0.9183  0.1412
 4099SOL    HW223760   2.809   3.195   0.632  0.2663 -1.0016 -1.5795
 4100SOL     OW23761   1.134   1.536   3.979 -0.4654  0.5494  0.0845
 4100SOL    HW123762   1.105   1.529   3.888  1.4057 -0.2182 -0.4553
 4100SOL    HW223763   1.098   1.620   4.005  0.9688  2.0878 -2.9159
 4101SOL     OW23764   2.864   1.979  13.169  0.1264  0.7000 -0.3872
 4101SOL    HW123765   2.917   2.057  13.153 -0.6374  0.9947 -1.4117
 4101SOL    HW223766   2.807   2.016  13.236  1.2830  1.4729  0.1729
 4102SOL     OW23767   4.708   0.389   9.317 -1.0543 -0.3680  0.0269
 4102SOL    HW123768   0.014   0.448   9.249  3.1739 -0.4590  1.9023
 4102SOL    HW223769   4.656   0.443   9.376 -0.2332  1.6173 -1.0832
 4103SOL     OW23770   4.255   4.506   9.045  0.1037  0.1570  0.5868
 4103SOL    HW123771   4.175   4.544   9.084  0.8459  0.9213  1.3772
 4103SOL    HW223772   4.246   4.412   9.031 -1.9702  0.0946  2.2609
 4104SOL     OW23773   2.541   1.351  15.264  0.1648 -0.6205  0.3240
 4104SOL    HW123774   2.475   1.321  15.327 -0.6263 -1.0577 -0.6958
 4104SOL    HW223775   2.536   1.443  15.291 -1.0657 -0.0850 -1.7257
 4105SOL     OW23776   1.307   2.325  14.520 -0.0586 -0.0677  0.0127
 4105SOL    HW123777   1.282   2.401  14.468 -0.6199  1.0887  1.9576
 4105SOL    HW223778   1.403   2.327  14.517 -0.0515  0.3571  0.4681
 4106SOL     OW23779   0.025   1.591   5.489 -0.0065  0.0346 -0.2579
 4106SOL    HW123780   0.018   1.601   5.395 -1.4826 -0.2874 -0.1864
 4106SOL    HW223781   4.663   1.621   5.514 -1.3186 -0.7892 -3.9550
 4107SOL     OW23782   0.130   0.614   8.953 -0.1106 -0.1953  0.2760
 4107SOL    HW123783   0.218   0.645   8.931  0.0584  0.7720  2.3227
 4107SOL    HW223784   0.092   0.605   8.866 -2.0475 -2.5047  1.3626
 4108SOL     OW23785   2.591   0.615   8.408  0.0303 -0.1057 -0.2528
 4108SOL    HW123786   2.584   0.692   8.464 -0.5672 -0.3089 -0.0443
 4108SOL    HW223787   2.507   0.627   8.363 -0.1953  2.5190  0.8592
 4109SOL     OW23788   3.955   0.938   8.226 -1.2881  0.5359  0.2657
 4109SOL    HW123789   4.040   0.955   8.185 -0.4136  1.2931  2.3858
 4109SOL    HW223790   3.913   0.898   8.150 -2.3412 -2.7275  2.5676
 4110SOL     OW23791   1.782   2.592   7.303 -0.0632  0.1952 -0.3850
 4110SOL    HW123792   1.694   2.571   7.335 -0.7860  1.5645 -1.4657
 4110SOL    HW223793   1.784   2.687   7.294 -0.7226  0.1679 -0.8263
 4111SOL     OW23794   1.737   3.207  16.815  0.3449  0.0722  0.1446
 4111SOL    HW123795   1.800   3.221  16.886  1.3088 -0.9340 -0.5164
 4111SOL    HW223796   1.777   3.256  16.744  0.2919 -1.2863 -0.8167
 4112SOL     OW23797   2.555   0.238  17.138 -0.1810 -0.0729  0.3962
 4112SOL    HW123798   2.592   0.150  17.131 -0.3614 -0.1711  0.6345
 4112SOL    HW223799   2.461   0.220  17.128 -0.4170  1.7989 -0.6392
 4113SOL     OW23800   2.378   4.129   4.984 -0.0792  0.7982  0.3494
 4113SOL    HW123801   2.408   4.050   4.939  1.3936  0.1837  2.4048
 4113SOL    HW223802   2.343   4.177   4.909  1.1273  0.7509 -0.2306
 4114SOL     OW23803   2.651   1.323   0.592  0.1204  0.5147  0.2355
 4114SOL    HW123804   2.699   1.405   0.596  3.7183 -1.6736  2.1568
 4114SOL    HW223805   2.594   1.323   0.669 -1.8177 -0.1652 -1.2127
 4115SOL     OW23806   2.057   1.439  14.873 -0.4901 -0.2305  0.1386
 4115SOL    HW123807   2.095   1.394  14.949  0.1995  0.4679  0.2039
 4115SOL    HW223808   1.971   1.399  14.859 -0.3936 -0.6915  0.8595
 4116SOL     OW23809   0.371   0.602  14.633  0.3878 -0.1104 -0.2027
 4116SOL    HW123810   0.277   0.622  14.632  0.5430  0.6398  1.2319
 4116SOL    HW223811   0.395   0.628  14.722  1.1463 -0.4985 -0.3002
 4117SOL     OW23812   3.130   1.315   2.271 -0.4378  0.3479  0.0768
 4117SOL    HW123813   3.127   1.220   2.259  0.2400  0.3096  0.2178
 4117SOL    HW223814   3.093   1.349   2.190 -2.9889 -1.7271  0.3629
 4118SOL     OW23815   1.088   3.126   5.848  0.3054 -0.3583  0.0013
 4118SOL    HW123816   1.010   3.159   5.892 -1.0452 -1.8665 -1.2375
 4118SOL    HW223817   1.136   3.205   5.824  0.0552  0.1007  1.0006
 4119SOL     OW23818   3.007   0.196   1.466  0.5907  0.2361  0.1997
 4119SOL    HW123819   3.088   0.171   1.511 -0.0830 -2.0459  0.1717
 4119SOL    HW223820   3.032   0.192   1.374  0.9074  0.0803  0.2925
 4120SOL     OW23821   4.484   1.913   5.630  0.4334 -0.1922  0.3200
 4120SOL    HW123822   4.394   1.917   5.663  0.1139 -0.7440 -0.4882
 4120SOL    HW223823   4.497   1.820   5.611  2.6872  0.0435  0.6158
 4121SOL     OW23824   2.815   2.273   9.282  0.3178 -0.1748  0.1228
 4121SOL    HW123825   2.813   2.300   9.190  1.7005  2.7241  0.9441
 4121SOL    HW223826   2.841   2.181   9.284  0.9730  0.0550  1.9867
 4122SOL     OW23827   1.854   2.926  11.627  0.6384  0.1417  0.2114
 4122SOL    HW123828   1.771   2.883  11.611  0.5886  0.1667  0.4019
 4122SOL    HW223829   1.869   2.888  11.713 -0.3168  0.0716  0.3434
 4123SOL     OW23830   2.437   3.921  14.214 -0.7170  0.0069  0.0617
 4123SOL    HW123831   2.461   3.962  14.297  0.7001 -1.3461  0.3214
 4123SOL    HW223832   2.374   3.987  14.185  1.5260  1.1701 -2.1321
 4124SOL     OW23833   1.343   1.388   4.801  0.2338  0.0266  0.0385
 4124SOL    HW123834   1.290   1.373   4.723  1.3927 -0.4825 -0.6642
 4124SOL    HW223835   1.426   1.412   4.758  0.0248 -0.9231 -0.8927
 4125SOL     OW23836   1.020   3.772   1.076 -0.7105 -0.1198  0.3698
 4125SOL    HW123837   0.964   3.698   1.057  1.1378 -0.9164 -1.9678
 4125SOL    HW223838   1.098   3.752   1.025 -1.5764 -0.0633 -0.9694
 4126SOL     OW23839   1.189   3.792   6.338  1.3495 -0.0583  0.2608
 4126SOL    HW123840   1.219   3.882   6.339  0.5569  0.1802  1.9731
 4126SOL    HW223841   1.129   3.787   6.412  0.2148 -0.2724 -0.6630
 4127SOL     OW23842   1.043   3.017   2.293  0.3137  0.3222 -0.7036
 4127SOL    HW123843   1.123   3.000   2.343 -1.8790  0.7386  2.9394
 4127SOL    HW223844   1.088   3.034   2.210 -1.7884  0.4412 -1.7976
 4128SOL     OW23845   1.831   1.341   8.101  0.2704 -0.2836 -0.2004
 4128SOL    HW123846   1.753   1.318   8.151  0.7595 -0.1080  0.6558
 4128SOL    HW223847   1.848   1.286   8.024 -0.1425  2.9770 -2.6248
 4129SOL     OW23848   3.386   0.125  15.087 -0.3172  0.3426  0.1572
 4129SOL    HW123849   3.427   0.117  15.001 -0.1424 -0.4811  0.3207
 4129SOL    HW223850   3.294   0.103  15.069  0.2948 -1.7427 -0.3508
 4130SOL     OW23851   0.204   3.611   4.786 -0.0471 -0.1945 -0.2292
 4130SOL    HW123852   0.229   3.688   4.735  0.7008  0.8717  1.7631
 4130SOL    HW223853   0.234   3.641   4.872  2.1979  0.2543 -1.1662
 4131SOL     OW23854   4.420   4.193   9.091 -0.4194 -0.2236  0.3757
 4131SOL    HW123855   4.335   4.210   9.049 -0.6214  0.4592  1.0697
 4131SOL    HW223856   4.397   4.105   9.121  0.6087 -0.5824  0.0991
 4132SOL     OW23857   0.883   0.131   8.363  0.2252  0.1768  0.3248
 4132SOL    HW123858   0.942   0.106   8.292 -1.4581 -1.3927 -0.5193
 4132SOL    HW223859   0.856   0.220   8.344 -0.1509  0.0967  0.4744
 4133SOL     OW23860   0.553   1.454   4.656 -0.5738  0.0333 -0.8680
 4133SOL    HW123861   0.515   1.430   4.740  0.0690  0.4404 -0.4629
 4133SOL    HW223862   0.492   1.524   4.634 -0.4221  0.5944  0.5249
 4134SOL     OW23863   4.326   3.497   6.537  0.2241  0.0867 -0.2710
 4134SOL    HW123864   4.244   3.453   6.515 -0.5978  1.3191  0.3228
 4134SOL    HW223865   4.384   3.442   6.485 -0.2934 -0.9112  0.2013
 4135SOL     OW23866   1.735   0.833   5.619  0.6683  0.1174 -0.4635
 4135SOL    HW123867   1.735   0.743   5.587 -0.3579  0.0518 -0.2771
 4135SOL    HW223868   1.649   0.871   5.604  0.0882 -1.2789 -0.6967
 4136SOL     OW23869   0.975   4.263  13.168  0.1270 -0.7235 -0.4869
 4136SOL    HW123870   1.022   4.185  13.196  0.7193 -0.0979  0.2883
 4136SOL    HW223871   0.953   4.241  13.078 -3.4751 -0.0691  0.2188
 4137SOL     OW23872   2.190   3.846   5.764  0.5735  0.1634  0.2789
 4137SOL    HW123873   2.268   3.799   5.735  0.3959  0.1797 -0.2269
 4137SOL    HW223874   2.163   3.787   5.834 -1.3010  0.8341  0.1177
 4138SOL     OW23875   3.451   0.596   3.100 -0.3488 -0.0871 -0.1855
 4138SOL    HW123876   3.447   0.636   3.013  2.3504 -2.1821 -1.2805
 4138SOL    HW223877   3.404   0.660   3.154 -0.8472  1.0173 -1.9018
 4139SOL     OW23878   2.897   2.277   7.781  0.1958  0.8220  0.7769
 4139SOL    HW123879   2.842   2.349   7.751 -0.1678  0.0104 -0.4775
 4139SOL    HW223880   2.981   2.281   7.735 -1.2833  0.7038 -1.8897
 4140SOL     OW23881   3.616   4.497   4.782  0.7114 -0.7618  0.9866
 4140SOL    HW123882   3.655   4.583   4.795 -1.2592 -0.1890  3.1667
 4140SOL    HW223883   3.552   4.499   4.854 -1.1826 -0.5881 -0.7172
 4141SOL     OW23884   2.793   4.632   2.311  0.2172  0.2202 -0.2924
 4141SOL    HW123885   2.707   4.660   2.281 -0.4334 -1.2651  0.2315
 4141SOL    HW223886   2.776   4.573   2.385  1.5264  1.6239  1.1374
 4142SOL     OW23887   0.855   3.293  15.092  0.1042 -0.2486  0.8350
 4142SOL    HW123888   0.799   3.370  15.085  1.6682  0.7305 -1.0291
 4142SOL    HW223889   0.920   3.311  15.024  0.2294 -0.4086  0.9122
 4143SOL     OW23890   0.445   1.938   0.654  0.4528  0.5378 -0.3315
 4143SOL    HW123891   0.387   1.870   0.689  2.2819 -0.8671  0.0048
 4143SOL    HW223892   0.385   1.996   0.608  0.3400  1.5241  1.0503
 4144SOL     OW23893   0.181   1.140   7.341 -0.0851 -0.0844  0.0820
 4144SOL    HW123894   0.170   1.193   7.420  0.1142  1.6936 -1.0618
 4144SOL    HW223895   0.271   1.108   7.347  0.0086 -0.2790 -2.1793
 4145SOL     OW23896   2.071   3.228   8.435  0.1554 -0.0678  0.0076
 4145SOL    HW123897   2.093   3.316   8.404 -0.6086 -0.2523 -1.0218
 4145SOL    HW223898   2.019   3.195   8.362  2.5330 -1.1092 -1.2154
 4146SOL     OW23899   1.379   2.859  16.873  0.8867 -0.1380 -0.1804
 4146SOL    HW123900   1.324   2.824  16.943 -1.1270  4.2439  0.4587
 4146SOL    HW223901   1.396   2.946  16.908 -1.1315  2.1460 -4.8701
 4147SOL     OW23902   0.792   4.605   0.569 -0.1737  0.0978 -0.1354
 4147SOL    HW123903   0.734   4.651   0.629  0.1233 -0.6802  0.7548
 4147SOL    HW223904   0.731   4.582   0.499  1.8036 -1.8367 -1.2187
 4148SOL     OW23905   3.537   0.126   1.667  0.4852  0.0979 -0.4093
 4148SOL    HW123906   3.595   0.050   1.660  0.5633  0.0446  0.8969
 4148SOL    HW223907   3.595   0.175   1.726  1.3510 -0.8885 -0.4359
 4149SOL     OW23908   1.042   2.088   6.966 -1.3733  0.2315 -0.3451
 4149SOL    HW123909   1.049   2.177   7.001  4.2905  0.9827 -3.3834
 4149SOL    HW223910   1.129   2.077   6.927 -0.6237  0.8310  1.1777
 4150SOL     OW23911   3.630   1.272   1.283 -0.1954  0.1126 -0.2992
 4150SOL    HW123912   3.656   1.362   1.307  0.9501 -0.3572  0.2374
 4150SOL    HW223913   3.711   1.220   1.280  0.5459  1.2675 -0.4180
 4151SOL     OW23914   1.487   4.561   8.152 -0.0931  0.1846 -0.0262
 4151SOL    HW123915   1.516   4.581   8.063 -0.6286  0.9517 -0.0286
 4151SOL    HW223916   1.455   4.644   8.187 -1.2646 -0.4153  0.3279
 4152SOL     OW23917   2.499   0.974   6.184  0.0259  0.2888 -0.1744
 4152SOL    HW123918   2.439   0.928   6.243  0.7646 -0.1918  0.1934
 4152SOL    HW223919   2.447   0.987   6.104  0.1467 -2.5190 -0.6917
 4153SOL     OW23920   4.562   1.422   1.477 -0.4540  0.0257  0.5224
 4153SOL    HW123921   4.635   1.432   1.416 -0.9631 -2.3839 -0.4864
 4153SOL    HW223922   4.580   1.342   1.525 -0.8913 -0.5591 -0.2875
 4154SOL     OW23923   0.927   0.533   8.742  0.2102 -0.4956 -0.0171
 4154SOL    HW123924   0.932   0.475   8.818  0.8455 -0.1854  0.1735
 4154SOL    HW223925   0.923   0.474   8.666  3.2349 -1.0700  0.2514
 4155SOL     OW23926   2.291   2.568   4.288 -0.5922  0.6136 -0.0938
 4155SOL    HW123927   2.373   2.583   4.242  0.1300 -1.1912  0.6071
 4155SOL    HW223928   2.304   2.636   4.354  1.2102 -0.2497  0.4319
 4156SOL     OW23929   2.281   1.918  15.901 -0.3493 -0.0887  0.6509
 4156SOL    HW123930   2.200   1.871  15.885 -1.5834  1.2731  2.9264
 4156SOL    HW223931   2.249   2.007  15.915  0.6625  0.0379  2.1858
 4157SOL     OW23932   2.938   3.745   5.927 -0.4390  0.3055 -0.4397
 4157SOL    HW123933   3.005   3.810   5.905  1.0024 -1.6713 -1.9940
 4157SOL    HW223934   2.901   3.783   6.006 -1.4511  0.1123 -0.8153
 4158SOL     OW23935   2.633   3.395  13.768  1.0355  0.0070  0.9721
 4158SOL    HW123936   2.588   3.420  13.687  0.8381  0.5821  1.2588
 4158SOL    HW223937   2.586   3.436  13.840  0.0342 -0.6645  0.7045
 4159SOL     OW23938   0.410   0.107   1.616  0.0758  0.4320  0.0475
 4159SOL    HW123939   0.401   0.088   1.710  0.0430 -0.3734 -0.1171
 4159SOL    HW223940   0.364   0.191   1.616 -0.0609  0.3402 -1.8818
 4160SOL     OW23941   0.460   2.168  15.928 -0.8215  0.1257  0.1546
 4160SOL    HW123942   0.525   2.179  15.997  0.2521  1.5984 -1.0986
 4160SOL    HW223943   0.518   2.165  15.852 -1.6875 -2.2418 -0.4258
 4161SOL     OW23944   1.077   2.381   7.416 -0.0376  0.0793  0.3622
 4161SOL    HW123945   0.983   2.364   7.419  0.2355 -1.2833  0.8959
 4161SOL    HW223946   1.097   2.321   7.345  0.2450 -0.3201  0.7819
 4162SOL     OW23947   4.435   0.600   2.538 -0.2674  0.5522  0.5086
 4162SOL    HW123948   4.354   0.562   2.573  0.8175 -3.1650 -1.0702
 4162SOL    HW223949   4.418   0.589   2.444 -0.5080 -0.6764  0.6971
 4163SOL     OW23950   4.056   0.724   9.009 -0.4900 -0.0309  0.6944
 4163SOL    HW123951   4.067   0.634   8.981 -2.5011 -0.9055  2.6839
 4163SOL    HW223952   3.961   0.735   9.013 -0.6021  0.1208 -2.2379
 4164SOL     OW23953   2.067   3.589   6.957  1.0063  0.4260  0.7746
 4164SOL    HW123954   2.147   3.582   7.010  1.4784  0.6817  0.0854
 4164SOL    HW223955   2.003   3.597   7.028 -0.1117 -1.2873 -0.0456
 4165SOL     OW23956   3.663   0.311   6.027  0.4634  0.2175 -0.2262
 4165SOL    HW123957   3.723   0.289   5.955 -0.5314 -1.6225 -0.4809
 4165SOL    HW223958   3.689   0.401   6.049 -1.8003  1.1762 -1.4765
 4166SOL     OW23959   4.268   0.658  10.652  0.0268  0.1862  0.2334
 4166SOL    HW123960   4.181   0.691  10.632 -0.1296 -1.0701 -1.1782
 4166SOL    HW223961   4.325   0.715  10.600 -1.3482  0.7713 -0.6331
 4167SOL     OW23962   4.207   0.154   6.969  0.2957  0.0021 -0.7913
 4167SOL    HW123963   4.120   0.123   6.995  0.0357  0.4548 -1.1353
 4167SOL    HW223964   4.168   0.220   6.912  1.6043  0.8373 -0.7175
 4168SOL     OW23965   4.209   4.390   5.748  0.1077 -0.0875 -0.6028
 4168SOL    HW123966   4.135   4.425   5.698  0.3135 -0.1981 -0.9839
 4168SOL    HW223967   4.257   4.473   5.746  0.4814 -0.3037 -0.3807
 4169SOL     OW23968   3.700   4.697   4.520  0.3002 -0.6477  0.0362
 4169SOL    HW123969   3.689   0.021   4.602 -0.1516 -1.4058  0.4399
 4169SOL    HW223970   3.748   4.620   4.552  1.0291 -0.1937  0.0242
 4170SOL     OW23971   0.148   3.992   2.620 -0.0238 -0.3471 -0.8166
 4170SOL    HW123972   0.207   4.036   2.559  0.9879  1.1036  1.2196
 4170SOL    HW223973   0.209   3.926   2.653  1.2668  2.2982  2.1375
 4171SOL     OW23974   4.635   2.038   0.578 -0.3025 -0.0738  0.3339
 4171SOL    HW123975   4.629   2.104   0.647  1.0897  2.3924 -1.8997
 4171SOL    HW223976   4.628   2.095   0.502 -1.3850 -0.2470  0.3163
 4172SOL     OW23977   1.780   0.124   9.387 -0.4650  0.3947 -0.2182
 4172SOL    HW123978   1.857   0.089   9.433  0.0061  0.9342 -0.5909
 4172SOL    HW223979   1.728   0.112   9.467  0.6981 -0.3027  0.4415
 4173SOL     OW23980   4.651   3.743   5.864 -0.1435 -0.1244  0.0535
 4173SOL    HW123981   0.007   3.778   5.829  0.6181 -2.2629 -0.3174
 4173SOL    HW223982   4.601   3.812   5.908 -0.9208 -0.3752 -0.4286
 4174SOL     OW23983   2.382   3.595   8.750 -0.1566  0.1129  0.5540
 4174SOL    HW123984   2.413   3.523   8.695 -1.1562 -1.2574  1.7675
 4174SOL    HW223985   2.292   3.574   8.774 -0.0400  0.3194  1.1718
 4175SOL     OW23986   4.275   3.636  12.071 -0.3127 -0.4069  0.3624
 4175SOL    HW123987   4.356   3.659  12.117  0.6738 -0.1757 -1.4849
 4175SOL    HW223988   4.309   3.617  11.983  1.7723 -0.5451  1.1918
 4176SOL     OW23989   2.242   3.536   5.009  0.0678 -0.2098  0.3951
 4176SOL    HW123990   2.330   3.498   5.011 -0.1277 -0.8140 -1.8634
 4176SOL    HW223991   2.245   3.572   5.097 -0.7143  0.5962  0.0960
 4177SOL     OW23992   1.883   4.382   9.423 -0.2299  0.1516  0.0676
 4177SOL    HW123993   1.906   4.303   9.473 -4.3672 -0.9644  0.2239
 4177SOL    HW223994   1.896   4.453   9.486 -0.9036 -1.0843  1.6046
 4178SOL     OW23995   0.178   2.885   3.763  0.0940  0.0730 -0.2669
 4178SOL    HW123996   0.252   2.938   3.794 -0.7475  1.2349 -0.2459
 4178SOL    HW223997   0.146   2.837   3.840  2.2312  0.2529  0.7471
 4179SOL     OW23998   4.235   4.053  14.787  0.5083 -0.4991 -0.6042
 4179SOL    HW123999   4.275   4.120  14.843 -1.7012  2.1874 -2.2121
 4179SOL    HW224000   4.305   3.989  14.796 -0.6804 -1.5148  1.3031
 4180SOL     OW24001   3.339   3.975   3.231 -0.1554 -0.1402 -0.2483
 4180SOL    HW124002   3.412   3.924   3.265 -0.6284 -1.3009 -0.9500
 4180SOL    HW224003   3.315   4.030   3.305  1.0639 -0.1220  0.1292
 4181SOL     OW24004   2.480   2.789   6.448 -0.4926 -0.0030  0.3316
 4181SOL    HW124005   2.563   2.773   6.492 -0.5547  0.1877  0.5176
 4181SOL    HW224006   2.478   2.884   6.461 -1.2928  0.0983 -0.5246
 4182SOL     OW24007   1.644   4.271   8.650 -0.4233  0.0412  0.0781
 4182SOL    HW124008   1.580   4.329   8.610 -1.0957 -0.4779  0.4046
 4182SOL    HW224009   1.645   4.198   8.588  0.2259 -0.7929  1.0663
 4183SOL     OW24010   4.724   4.426   6.544  0.5860 -0.0664 -0.0786
 4183SOL    HW124011   4.715   4.352   6.604 -1.4579 -1.6889 -2.3857
 4183SOL    HW224012   0.089   4.453   6.564  0.8230 -0.1967 -0.9389
 4184SOL     OW24013   0.246   0.790   2.817 -0.0090  0.2335 -0.6244
 4184SOL    HW124014   0.224   0.877   2.850 -0.7518 -0.7573  1.4430
 4184SOL    HW224015   0.216   0.734   2.888  2.0160 -0.0742  0.0058
 4185SOL     OW24016   1.503   0.425   2.830  0.9100  0.2600 -0.3638
 4185SOL    HW124017   1.552   0.422   2.912 -0.6082 -0.3474  0.5052
 4185SOL    HW224018   1.427   0.476   2.859  0.8965  1.1617 -1.9543
 4186SOL     OW24019   1.189   3.025  13.498  0.4776  1.0430  0.0546
 4186SOL    HW124020   1.128   3.003  13.428 -0.4824  1.3511  0.7879
 4186SOL    HW224021   1.178   2.942  13.545 -2.8611  0.6766 -1.3732
 4187SOL     OW24022   2.542   3.385   5.491  0.5599 -0.3765 -0.4126
 4187SOL    HW124023   2.552   3.307   5.437 -2.9203 -2.5020  1.9912
 4187SOL    HW224024   2.563   3.453   5.427  0.0444 -0.8132 -1.0480
 4188SOL     OW24025   1.092   2.303  17.029 -0.5764 -0.4414  0.2118
 4188SOL    HW124026   1.056   2.280  16.943 -1.4438 -0.2198  0.5183
 4188SOL    HW224027   1.127   2.220  17.060 -0.8952 -0.5412  0.2919
 4189SOL     OW24028   1.733   0.832   5.290 -0.2372 -0.2041 -0.4555
 4189SOL    HW124029   1.710   0.868   5.376 -1.2761 -2.6022  0.2668
 4189SOL    HW224030   1.664   0.865   5.233  0.3552 -0.3322 -1.2563
 4190SOL     OW24031   1.007   2.640   6.919 -0.1176 -0.1127  0.0231
 4190SOL    HW124032   1.012   2.702   6.847  3.2600 -0.7703 -0.3369
 4190SOL    HW224033   0.920   2.658   6.954  0.7707  2.4336  0.9216
 4191SOL     OW24034   0.508   1.618  11.212 -0.2098  0.4523 -0.0471
 4191SOL    HW124035   0.549   1.583  11.291  0.9922  0.9665 -0.4502
 4191SOL    HW224036   0.539   1.546  11.157  1.3373  1.0718  0.0311
 4192SOL     OW24037   1.620   4.249   3.697 -0.3591 -0.1229  0.0682
 4192SOL    HW124038   1.685   4.280   3.761  1.8346  0.8830 -2.6697
 4192SOL    HW224039   1.597   4.169   3.745  0.9482 -0.6193 -0.1382
 4193SOL     OW24040   4.642   4.422   4.528 -0.4508 -0.1214  0.2001
 4193SOL    HW124041   4.549   4.403   4.514 -0.5739  0.0328  0.8108
 4193SOL    HW224042   4.650   4.505   4.481  1.0782 -0.2385  0.2628
 4194SOL     OW24043   4.089   4.592   3.522 -0.1496  0.0551  0.7216
 4194SOL    HW124044   4.044   4.573   3.440  1.5490  0.3104 -0.2646
 4194SOL    HW224045   4.175   4.557   3.499 -0.6938 -0.9407  0.1898
 4195SOL     OW24046   1.677   0.838   8.745  0.1089 -0.1077 -0.1809
 4195SOL    HW124047   1.706   0.795   8.665  1.7061 -0.0582  0.3695
 4195SOL    HW224048   1.683   0.927   8.710 -0.6820 -0.9999 -2.5524
 4196SOL     OW24049   2.893   2.081   4.128  0.1444  0.2160 -0.0042
 4196SOL    HW124050   2.804   2.102   4.156  1.2165  0.6418  3.0287
 4196SOL    HW224051   2.906   2.139   4.053 -2.7242 -0.4270 -0.9790
 4197SOL     OW24052   3.498   1.304   3.310 -0.0129 -0.0066 -0.1094
 4197SOL    HW124053   3.405   1.283   3.320  0.1084 -0.2338  0.5935
 4197SOL    HW224054   3.497   1.363   3.386  2.6854 -1.1040  0.7649
 4198SOL     OW24055   0.883   0.265  11.714 -0.4796  0.0133 -0.0136
 4198SOL    HW124056   0.790   0.263  11.735 -0.3492  0.1376  0.5948
 4198SOL    HW224057   0.903   0.176  11.745 -2.6688 -0.9027 -1.2165
 4199SOL     OW24058   4.627   1.875   2.749 -0.0181  0.1011  0.0616
 4199SOL    HW124059   4.609   1.783   2.733  0.2859  0.0389  0.0639
 4199SOL    HW224060   4.621   1.878   2.845  1.3887  1.5473  0.1282
 4200SOL     OW24061   0.706   4.022  10.195  0.4728 -0.8736  0.7904
 4200SOL    HW124062   0.794   4.026  10.158 -0.7431 -1.7059 -2.2019
 4200SOL    HW224063   0.660   3.995  10.116  0.9232 -1.2434  0.6585
 4201SOL     OW24064   3.016   3.423  15.056  0.0376 -0.0184  0.4439
 4201SOL    HW124065   2.959   3.500  15.066 -0.7364 -0.5605  0.1940
 4201SOL    HW224066   2.984   3.351  15.110 -1.5960 -0.3253 -0.9464
 4202SOL     OW24067   3.389   4.508  12.385 -0.0595 -0.3222 -0.0128
 4202SOL    HW124068   3.387   4.445  12.457  0.1846  1.0597  1.2081
 4202SOL    HW224069   3.482   4.506  12.363 -0.1567  0.2161 -0.5003
 4203SOL     OW24070   0.910   0.862   0.640  0.0727  0.0433 -0.1552
 4203SOL    HW124071   0.880   0.877   0.730 -1.8273 -1.6640 -0.4950
 4203SOL    HW224072   0.944   0.950   0.622  0.1261  0.7281  3.3588
 4204SOL     OW24073   3.429   0.629  15.056  0.0963  0.3240  0.5058
 4204SOL    HW124074   3.402   0.715  15.023 -0.9311 -0.3266 -0.3685
 4204SOL    HW224075   3.507   0.648  15.107 -0.5309 -1.1354  2.0216
 4205SOL     OW24076   1.464   3.582  15.760  0.7118 -0.5439  0.0793
 4205SOL    HW124077   1.497   3.575  15.670  0.6681  0.9284 -0.0466
 4205SOL    HW224078   1.371   3.596  15.743  0.2477 -1.7410  1.6656
 4206SOL     OW24079   1.592   3.745   9.905 -0.3828 -0.8619 -0.2487
 4206SOL    HW124080   1.519   3.701   9.950  1.0047 -2.1323  0.7552
 4206SOL    HW224081   1.565   3.728   9.815 -0.5681  1.9443 -0.7252
 4207SOL     OW24082   1.927   4.658   6.185  0.1627 -0.2719  0.0873
 4207SOL    HW124083   1.943   0.020   6.147 -0.7712 -0.9392 -1.8413
 4207SOL    HW224084   1.843   4.632   6.148  0.7811 -1.7479 -0.2699
 4208SOL     OW24085   3.228   1.407  10.364 -0.4240  0.0175  0.8368
 4208SOL    HW124086   3.271   1.367  10.439  2.0873  0.9460 -0.1261
 4208SOL    HW224087   3.142   1.431  10.399 -0.4155  0.6543  0.4290
 4209SOL     OW24088   3.417   0.617   3.477  0.1567 -0.1617  0.0651
 4209SOL    HW124089   3.444   0.614   3.569  0.4026 -2.3260 -0.0678
 4209SOL    HW224090   3.497   0.593   3.431 -1.2416 -1.3768 -1.7166
 4210SOL     OW24091   3.005   1.502   2.467 -0.4723 -0.7759  0.0116
 4210SOL    HW124092   2.944   1.439   2.504 -0.2941 -0.5250  0.7404
 4210SOL    HW224093   3.063   1.443   2.419 -0.4085 -0.9367  0.2826
 4211SOL     OW24094   2.479   0.192   9.448 -0.6074 -0.2401  0.2442
 4211SOL    HW124095   2.389   0.210   9.422 -0.7094  0.7220  1.2443
 4211SOL    HW224096   2.489   0.266   9.509  0.7310 -0.0095 -0.2637
 4212SOL     OW24097   4.598   2.184   6.194  0.2092  0.1290 -0.1222
 4212SOL    HW124098   4.583   2.090   6.206 -1.0934  0.4138  0.4903
 4212SOL    HW224099   4.593   2.223   6.281  0.2025 -1.4370  0.5863
 4213SOL     OW24100   0.661   2.485   1.213 -0.4633 -0.0534  0.0173
 4213SOL    HW124101   0.735   2.515   1.160  2.1871 -0.2491  3.5982
 4213SOL    HW224102   0.701   2.421   1.272 -2.2773 -1.2456 -0.0575
 4214SOL     OW24103   4.198   0.078  12.620  0.4754  0.1789 -0.0021
 4214SOL    HW124104   4.206   0.069  12.525  0.2797  0.4912 -0.0477
 4214SOL    HW224105   4.172   0.170  12.618  1.0405  0.3561  0.4864
 4215SOL     OW24106   3.738   3.664   7.346  0.7036  0.4639 -0.7992
 4215SOL    HW124107   3.828   3.645   7.321  0.5214  0.1601 -1.2197
 4215SOL    HW224108   3.706   3.633   7.261  0.3108  0.2110 -0.5561
 4216SOL     OW24109   2.433   2.329  11.651 -0.1208  0.0846 -0.2253
 4216SOL    HW124110   2.398   2.399  11.707 -0.3091 -0.3750  0.2237
 4216SOL    HW224111   2.358   2.320  11.593 -0.5788 -4.0604  1.0138
 4217SOL     OW24112   4.141   0.214   8.194  0.4939  0.3313  0.5424
 4217SOL    HW124113   4.162   0.152   8.125 -1.0325  1.0892 -0.6185
 4217SOL    HW224114   4.045   0.215   8.187  0.7166  2.1375 -2.3222
 4218SOL     OW24115   0.644   2.593   6.907 -0.8824 -0.6750  0.8562
 4218SOL    HW124116   0.648   2.689   6.905 -0.8752 -0.7528 -2.5208
 4218SOL    HW224117   0.589   2.580   6.984  1.8113  3.0732  3.4281
 4219SOL     OW24118   0.523   4.536   7.902  0.3782 -0.0673 -0.0659
 4219SOL    HW124119   0.447   4.586   7.873  0.3682 -0.6910 -1.1302
 4219SOL    HW224120   0.502   4.447   7.877 -2.8418  0.7326 -0.1664
 4220SOL     OW24121   0.454   0.852   7.951 -0.3988  0.2999  0.0094
 4220SOL    HW124122   0.399   0.913   7.902  0.5832 -0.2238 -1.7593
 4220SOL    HW224123   0.411   0.850   8.036  0.3677 -0.0503  0.3870
 4221SOL     OW24124   4.355   0.447  17.625 -0.1279 -0.3646 -0.4771
 4221SOL    HW124125   4.284   0.502  17.659  0.5324  1.6589 -2.3731
 4221SOL    HW224126   4.331   0.355  17.635 -3.7749  0.7417  0.9734
 4222SOL     OW24127   1.031   2.407   3.521  0.4995  0.4508 -0.2245
 4222SOL    HW124128   1.019   2.425   3.614  1.3726 -1.3799  0.2554
 4222SOL    HW224129   1.122   2.432   3.506  0.6623  0.6278  1.1384
 4223SOL     OW24130   0.549   2.560   3.620 -0.0144  0.2453 -0.2240
 4223SOL    HW124131   0.555   2.603   3.705 -0.0580 -0.4416  0.1230
 4223SOL    HW224132   0.634   2.517   3.617  0.6228  1.4452  0.6542
 4224SOL     OW24133   1.250   3.472   4.467  0.1718 -0.1346 -0.1727
 4224SOL    HW124134   1.315   3.483   4.397 -0.8541 -0.1648 -1.1331
 4224SOL    HW224135   1.273   3.538   4.532  2.0143 -1.3933  0.4515
 4225SOL     OW24136   0.825   1.715   4.409  0.2163 -0.0582  0.5374
 4225SOL    HW124137   0.763   1.781   4.378 -0.5288 -0.9087  0.2134
 4225SOL    HW224138   0.793   1.713   4.499  2.1891  1.9431  1.2893
 4226SOL     OW24139   1.571   4.325   4.655  0.0583 -0.2357  0.1710
 4226SOL    HW124140   1.650   4.272   4.655  0.1438 -0.1090  0.8148
 4226SOL    HW224141   1.563   4.331   4.560 -2.4057  1.4276  0.4787
 4227SOL     OW24142   4.539   2.977   2.036 -0.5067  0.4543 -0.2048
 4227SOL    HW124143   4.448   2.993   2.010 -1.0683 -1.9358  0.2357
 4227SOL    HW224144   4.575   3.062   2.058  0.0341 -0.4990  2.5283
 4228SOL     OW24145   0.853   4.580   9.828 -0.3616  0.0855 -0.1366
 4228SOL    HW124146   0.948   4.568   9.828 -0.2312  1.1823 -2.3358
 4228SOL    HW224147   0.836   4.627   9.910 -1.2541 -0.4142 -0.0404
 4229SOL     OW24148   1.213   3.400   5.802  0.2818 -0.1403  0.0447
 4229SOL    HW124149   1.189   3.485   5.765  1.2082  0.1401  0.0819
 4229SOL    HW224150   1.303   3.425   5.823  0.7476 -0.8971 -1.0276
 4230SOL     OW24151   0.068   0.288   8.402 -0.4535  0.0659  0.4617
 4230SOL    HW124152   0.096   0.267   8.491  2.1011 -0.2326 -0.3978
 4230SOL    HW224153   4.712   0.336   8.414 -0.2985  1.1177 -2.8586
 4231SOL     OW24154   2.822   4.156   9.346  0.0338  0.0948  0.1704
 4231SOL    HW124155   2.853   4.102   9.273  1.5501  1.4066 -0.1560
 4231SOL    HW224156   2.822   4.244   9.309 -0.2648  0.8052  1.8534
 4232SOL     OW24157   3.330   1.656  16.503 -0.5050 -0.3961  0.1309
 4232SOL    HW124158   3.338   1.614  16.417 -0.8750  1.0824 -0.6416
 4232SOL    HW224159   3.401   1.620  16.555  1.2690  0.9328 -1.3301
 4233SOL     OW24160   2.542   2.340   9.119  0.2991  0.2993 -0.4157
 4233SOL    HW124161   2.474   2.380   9.172  0.6553 -2.8908  2.3933
 4233SOL    HW224162   2.594   2.416   9.093  1.0765 -0.5359 -1.3219
 4234SOL     OW24163   1.384   0.071  11.612 -0.2144 -0.2834 -0.1116
 4234SOL    HW124164   1.408   0.117  11.693  2.4382 -2.4289  0.3255
 4234SOL    HW224165   1.411   0.133  11.545  0.9133 -1.7192 -0.9775
 4235SOL     OW24166   3.812   2.405   4.062 -0.2985 -0.1965 -0.1342
 4235SOL    HW124167   3.819   2.483   4.007 -1.1388  0.0262  0.0776
 4235SOL    HW224168   3.886   2.411   4.122  0.4045 -1.1238 -0.8876
 4236SOL     OW24169   2.365   2.148   5.046  0.1717  0.6357 -0.0873
 4236SOL    HW124170   2.415   2.229   5.037  1.7062 -0.4755 -1.5879
 4236SOL    HW224171   2.365   2.122   4.954 -0.0856  0.8881 -0.1556
 4237SOL     OW24172   3.453   1.055  15.528 -0.3877  0.0577 -0.4175
 4237SOL    HW124173   3.373   1.045  15.476 -0.1697  0.6182 -0.8597
 4237SOL    HW224174   3.446   0.969  15.570  1.6741 -0.2261 -0.7051
 4238SOL     OW24175   1.195   4.199   3.977  0.4354  0.0673  0.0860
 4238SOL    HW124176   1.123   4.247   4.016 -1.9807 -0.1951 -4.0143
 4238SOL    HW224177   1.173   4.111   4.008 -1.4469  1.6582  3.2951
 4239SOL     OW24178   3.259   0.477   6.652 -0.0048  0.0883  0.3958
 4239SOL    HW124179   3.166   0.495   6.634 -0.3300 -1.0536  0.9037
 4239SOL    HW224180   3.308   0.558   6.639 -1.4982  1.2041  1.5864
 4240SOL     OW24181   4.530   2.990   0.718 -0.2802  0.3072 -0.1897
 4240SOL    HW124182   4.471   2.923   0.684  0.8166  0.3330 -2.2045
 4240SOL    HW224183   4.469   3.040   0.771 -0.8095 -1.4861  0.9036
 4241SOL     OW24184   4.121   1.938   7.496  0.5547 -0.1755  0.4607
 4241SOL    HW124185   4.041   1.936   7.548  0.1753  2.6603 -0.0080
 4241SOL    HW224186   4.188   1.962   7.560 -2.1267  2.3395  2.3187
 4242SOL     OW24187   3.261   2.601   6.547  0.6729 -0.0170 -0.1914
 4242SOL    HW124188   3.192   2.667   6.545 -0.1512 -0.8722  0.1587
 4242SOL    HW224189   3.230   2.546   6.619 -1.6900  0.3440 -0.9378
 4243SOL     OW24190   4.415   1.815   9.169  0.7656  0.2808  0.0403
 4243SOL    HW124191   4.466   1.858   9.238  2.5846  0.7103 -1.5842
 4243SOL    HW224192   4.454   1.820   9.082 -0.6517  0.4866 -0.5910
 4244SOL     OW24193   3.341   0.908  15.316  0.2010  0.1113 -0.3025
 4244SOL    HW124194   3.264   0.854  15.297 -0.9800  2.1557 -1.4528
 4244SOL    HW224195   3.313   0.978  15.256 -1.5418 -0.3507 -0.0540
 4245SOL     OW24196   3.819   2.010   4.044  0.3421 -0.1848  0.1694
 4245SOL    HW124197   3.821   1.917   4.021 -1.2969 -0.2572  0.3054
 4245SOL    HW224198   3.825   2.008   4.139  0.4856 -1.1434  0.1470
 4246SOL     OW24199   3.738   4.453   5.191 -0.4425  0.0880 -0.0114
 4246SOL    HW124200   3.754   4.465   5.285  1.7205  3.8839 -0.8673
 4246SOL    HW224201   3.644   4.462   5.177 -0.2556  0.8220 -0.8216
 4247SOL     OW24202   0.438   4.575   5.880  0.0651  0.0021  0.1935
 4247SOL    HW124203   0.445   4.482   5.902  1.4432 -0.3204 -1.5953
 4247SOL    HW224204   0.353   4.574   5.837  0.4288  2.4550 -0.5762
 4248SOL     OW24205   0.697   3.414  11.813  0.4387  0.5221  0.1452
 4248SOL    HW124206   0.736   3.371  11.890  0.3394  2.1829  1.1323
 4248SOL    HW224207   0.734   3.353  11.750 -0.2947 -1.7844  1.8988
 4249SOL     OW24208   2.008   3.325   7.662 -0.0782  0.2980  0.3977
 4249SOL    HW124209   2.072   3.359   7.599 -0.7812  0.0966 -0.4249
 4249SOL    HW224210   1.928   3.374   7.645 -1.1165 -1.1187  1.2077
 4250SOL     OW24211   1.768   3.817   4.178 -0.0193 -0.2751  0.5861
 4250SOL    HW124212   1.764   3.728   4.143 -1.4696  0.0485 -0.0736
 4250SOL    HW224213   1.753   3.855   4.091 -0.5873 -2.1100 -0.1265
 4251SOL     OW24214   1.115   0.783   4.027 -0.5197 -0.1709  0.5779
 4251SOL    HW124215   1.209   0.800   4.035 -1.1040  2.7199  1.1101
 4251SOL    HW224216   1.096   0.806   3.936  0.7626  0.5207  0.4930
 4252SOL     OW24217   2.386   1.392   5.105 -0.5609 -0.1273 -0.6737
 4252SOL    HW124218   2.412   1.352   5.188  0.3201 -1.5636 -1.6418
 4252SOL    HW224219   2.356   1.316   5.056 -2.4406  1.2127 -1.6153
 4253SOL     OW24220   4.167   4.336   3.676  0.1113  0.1801 -0.1004
 4253SOL    HW124221   4.249   4.371   3.710  0.4582 -2.5842  1.9076
 4253SOL    HW224222   4.190   4.338   3.583 -1.2525  1.7202 -0.3947
 4254SOL     OW24223   0.528   2.501   7.156 -0.0314 -0.1687 -0.1241
 4254SOL    HW124224   0.444   2.488   7.200 -1.2142 -1.9456 -2.8672
 4254SOL    HW224225   0.569   2.415   7.156 -1.6999 -0.9683  1.0385
 4255SOL     OW24226   1.048   2.878   5.710  0.9759  0.2132 -0.5177
 4255SOL    HW124227   1.021   2.923   5.629 -0.7077 -0.3265 -0.2674
 4255SOL    HW224228   1.080   2.948   5.767  3.2188 -0.7608 -0.6006
 4256SOL     OW24229   0.908   1.019  14.118 -0.4131  0.2101 -0.0907
 4256SOL    HW124230   0.913   0.931  14.155 -0.6770  1.0144  1.8536
 4256SOL    HW224231   0.961   1.007  14.039 -0.3589  1.8900 -0.2939
 4257SOL     OW24232   3.251   4.516   9.416 -0.2863  0.0608  0.2396
 4257SOL    HW124233   3.161   4.538   9.390 -1.2402 -1.5698  2.1730
 4257SOL    HW224234   3.238   4.424   9.437 -1.5526  0.0443 -0.6195
 4258SOL     OW24235   1.949   1.187   5.362 -0.4419  0.4792  0.3544
 4258SOL    HW124236   1.907   1.218   5.442 -1.0138  1.4132 -0.3070
 4258SOL    HW224237   1.877   1.196   5.298 -0.3770  2.1993  0.5321
 4259SOL     OW24238   2.734   0.496   7.924  0.3943  0.1490 -0.2225
 4259SOL    HW124239   2.798   0.462   7.986  0.1072 -1.5187 -0.8449
 4259SOL    HW224240   2.713   0.585   7.952 -0.8405  0.1347 -1.0759
 4260SOL     OW24241   3.203   1.785   2.931  0.4561 -0.1273  0.2891
 4260SOL    HW124242   3.225   1.704   2.977  1.7201  0.6187  0.9925
 4260SOL    HW224243   3.143   1.752   2.864 -0.9567 -0.2097  1.5896
 4261SOL     OW24244   4.498   2.945   7.801 -0.4308  0.4148 -0.3432
 4261SOL    HW124245   4.557   2.991   7.741 -1.3920  0.6080 -1.1310
 4261SOL    HW224246   4.559   2.880   7.836 -1.0043 -0.2942 -0.6530
 4262SOL     OW24247   3.182   4.257   5.170 -0.4614 -0.4563 -0.2308
 4262SOL    HW124248   3.145   4.213   5.093  0.0617 -0.1244 -0.6696
 4262SOL    HW224249   3.208   4.183   5.225 -0.4342 -0.8931 -0.8232
 4263SOL     OW24250   1.194   2.151   1.227 -0.5092 -0.2090  0.2852
 4263SOL    HW124251   1.214   2.200   1.146 -0.2114  2.1204  1.7699
 4263SOL    HW224252   1.118   2.199   1.260  0.3458  0.9112  0.6418
 4264SOL     OW24253   2.251   4.598   5.458 -0.9653 -0.0136  0.7519
 4264SOL    HW124254   2.245   4.540   5.382  2.3220 -1.1520  1.3474
 4264SOL    HW224255   2.193   4.669   5.430  0.8293  0.8464 -0.7905
 4265SOL     OW24256   1.155   4.391   8.861  0.6615  0.3426 -0.4834
 4265SOL    HW124257   1.203   4.411   8.942 -3.0165  2.2164  1.2625
 4265SOL    HW224258   1.069   4.409   8.900  0.8940  0.5180 -0.0509
 4266SOL     OW24259   2.124   2.454   8.389 -0.2363  0.1781  0.2912
 4266SOL    HW124260   2.119   2.426   8.298 -0.0648  0.1005  0.3053
 4266SOL    HW224261   2.210   2.420   8.413  0.4099  0.5253 -1.5531
 4267SOL     OW24262   2.430   4.046   7.114  0.4249 -0.4909  0.2579
 4267SOL    HW124263   2.461   4.080   7.030  0.9430 -0.1214  0.5989
 4267SOL    HW224264   2.357   3.993   7.083  1.1139 -1.1861 -0.1786
 4268SOL     OW24265   2.070   0.180   3.873 -0.3998  0.2722 -0.4457
 4268SOL    HW124266   2.136   0.158   3.808  0.3971 -1.6174  0.9880
 4268SOL    HW224267   2.128   0.205   3.945 -0.0876  3.6816 -1.8591
 4269SOL     OW24268   3.902   1.116   7.537 -0.1123 -0.0247  0.4203
 4269SOL    HW124269   3.909   1.043   7.599 -0.7139  0.2096  0.7579
 4269SOL    HW224270   3.948   1.072   7.465 -0.4710 -1.3787  1.0174
 4270SOL     OW24271   4.070   2.681   9.902  0.1426 -0.2146 -0.1784
 4270SOL    HW124272   4.150   2.638   9.931 -1.0875 -0.3253  3.0560
 4270SOL    HW224273   4.089   2.774   9.889 -0.1140 -0.0419  0.6797
 4271SOL     OW24274   0.850   1.192  15.282 -0.0193  0.1408 -0.0324
 4271SOL    HW124275   0.831   1.224  15.370 -0.8731  1.4482 -0.6853
 4271SOL    HW224276   0.860   1.274  15.234 -2.2619  0.6102  0.2963
 4272SOL     OW24277   3.847   3.516   9.276  0.9493 -0.0062  0.1352
 4272SOL    HW124278   3.901   3.453   9.228 -0.6248 -0.5903 -0.8683
 4272SOL    HW224279   3.850   3.595   9.222  0.9739 -1.5419 -2.1399
 4273SOL     OW24280   4.398   3.125   6.566  0.1980 -0.0053 -0.5218
 4273SOL    HW124281   4.340   3.052   6.589  2.0147 -2.0351 -2.3329
 4273SOL    HW224282   4.460   3.073   6.515 -0.2192 -0.0733 -0.9652
 4274SOL     OW24283   2.501   0.917   7.909  0.0353  0.4822  0.0744
 4274SOL    HW124284   2.482   0.880   7.823 -0.4801  1.5127 -0.2561
 4274SOL    HW224285   2.416   0.957   7.928 -0.3554 -0.2096 -0.2428
 4275SOL     OW24286   2.786   3.072  15.587  0.0438 -0.3011  0.3784
 4275SOL    HW124287   2.821   3.044  15.502  0.2113 -1.3388  0.7921
 4275SOL    HW224288   2.695   3.083  15.561  0.2013  1.2043  0.4449
 4276SOL     OW24289   4.189   0.169   9.089  0.2973 -0.0381  0.6491
 4276SOL    HW124290   4.134   0.095   9.067 -0.8470  0.4907  1.7582
 4276SOL    HW224291   4.172   0.243   9.031 -1.5920 -1.4378 -0.5616
 4277SOL     OW24292   0.286   4.700   1.403  0.6892  0.3783  0.0416
 4277SOL    HW124293   0.239   0.052   1.371  2.4247  1.1962 -0.5502
 4277SOL    HW224294   0.333   0.011   1.478  0.7152  1.3261 -0.4257
 4278SOL     OW24295   0.822   0.432  10.451 -0.4221 -0.1561  0.1865
 4278SOL    HW124296   0.836   0.338  10.439 -1.5659 -0.1915 -0.8724
 4278SOL    HW224297   0.745   0.434  10.507 -1.3175  2.0363 -1.1180
 4279SOL     OW24298   3.441   3.307   6.686 -0.0181  0.0754  0.9470
 4279SOL    HW124299   3.422   3.214   6.674 -1.0243  0.2613  1.1160
 4279SOL    HW224300   3.421   3.330   6.595  2.2705  1.6981  0.8239
 4280SOL     OW24301   3.230   3.326   8.444 -0.3900  0.1929 -0.6628
 4280SOL    HW124302   3.300   3.290   8.390  0.7145  0.7493  0.3924
 4280SOL    HW224303   3.220   3.259   8.512 -0.8162  2.2058  1.2794
 4281SOL     OW24304   4.285   1.629   4.028  0.0492 -0.2588 -0.2447
 4281SOL    HW124305   4.192   1.608   4.016  0.3612 -1.8658  0.0651
 4281SOL    HW224306   4.299   1.592   4.115  0.9289  0.8158  0.0707
 4282SOL     OW24307   4.370   1.646  10.507 -0.3154 -0.6309 -0.5867
 4282SOL    HW124308   4.442   1.688  10.554 -1.3969  0.5481  0.0326
 4282SOL    HW224309   4.411   1.642  10.421  1.5556  0.8304  0.2422
 4283SOL     OW24310   3.438   1.276   6.318 -0.3983 -0.0716  0.2985
 4283SOL    HW124311   3.527   1.288   6.350 -0.4881  2.0645 -0.2102
 4283SOL    HW224312   3.384   1.329   6.377 -0.7245 -1.1753  0.9770
 4284SOL     OW24313   3.653   1.511   2.283 -0.6489 -0.2659 -0.6327
 4284SOL    HW124314   3.736   1.488   2.325 -0.8162  1.3145  0.5806
 4284SOL    HW224315   3.672   1.588   2.228 -0.7117  1.7924  2.2014
 4285SOL     OW24316   0.318   0.711   6.455 -0.0939  0.0563  0.2771
 4285SOL    HW124317   0.399   0.763   6.454 -0.7400  1.0423 -0.3964
 4285SOL    HW224318   0.324   0.643   6.523 -0.8014  0.2412  0.5261
 4286SOL     OW24319   0.032   1.943   6.645 -0.2869  0.1814  0.3015
 4286SOL    HW124320   0.095   1.939   6.717  0.4812 -1.2304 -0.4453
 4286SOL    HW224321   0.088   1.985   6.580  1.3422 -2.5442 -0.0458
 4287SOL     OW24322   1.732   2.464  13.018 -0.0555  0.0924 -0.0351
 4287SOL    HW124323   1.707   2.547  12.978  3.1958  1.3627  0.5576
 4287SOL    HW224324   1.697   2.487  13.104  0.4062  2.8622 -0.5814
 4288SOL     OW24325   1.935   0.114   5.888  0.0865 -0.4073 -0.3087
 4288SOL    HW124326   1.877   0.048   5.850  0.3421 -0.6032 -0.3606
 4288SOL    HW224327   1.875   0.167   5.941  0.6117 -1.0353  0.9137
 4289SOL     OW24328   2.332   1.054   3.675  0.7027  0.3933 -0.1305
 4289SOL    HW124329   2.253   1.002   3.691  0.1484  0.8306 -1.5204
 4289SOL    HW224330   2.394   1.011   3.735 -0.5781  2.2323  2.5082
 4290SOL     OW24331   3.682   0.155   8.031  0.0523  0.1156 -0.3100
 4290SOL    HW124332   3.735   0.097   7.976  0.0617 -0.6423  0.4967
 4290SOL    HW224333   3.596   0.160   7.989  0.2323 -0.9754 -0.8354
 4291SOL     OW24334   3.404   2.883   6.227 -0.1206 -0.0337  0.1074
 4291SOL    HW124335   3.496   2.857   6.236 -0.9309 -2.2104  2.1587
 4291SOL    HW224336   3.358   2.801   6.242 -0.4778 -0.1824 -1.8257
 4292SOL     OW24337   1.724   2.940   3.467  0.0527  0.7721  0.0530
 4292SOL    HW124338   1.676   2.952   3.549  0.1628  0.3019  0.1859
 4292SOL    HW224339   1.687   2.859   3.432 -2.1588 -0.1993  4.6849
 4293SOL     OW24340   0.830   1.034   2.961 -0.0879  0.1895 -0.6714
 4293SOL    HW124341   0.744   1.049   2.998  1.3147  1.2382  2.1190
 4293SOL    HW224342   0.878   0.992   3.032 -0.0612  1.3052 -0.0413
 4294SOL     OW24343   4.629   4.706   3.458  0.1120  0.0965 -0.6990
 4294SOL    HW124344   4.537   4.719   3.435  0.2031 -1.4453 -1.9268
 4294SOL    HW224345   4.676   0.056   3.423 -1.7450  1.6644  0.1984
 4295SOL     OW24346   1.245   1.781  14.363 -0.6606  0.0549  0.7140
 4295SOL    HW124347   1.174   1.803  14.424  1.4822  1.1216  2.8217
 4295SOL    HW224348   1.324   1.804  14.412  0.8794 -1.2425 -1.1341
 4296SOL     OW24349   1.056   4.179   1.831 -0.3930  0.2984  0.2908
 4296SOL    HW124350   1.039   4.142   1.918 -2.0104  1.0152  0.2875
 4296SOL    HW224351   0.974   4.225   1.812 -0.0676  0.3532 -0.9490
 4297SOL     OW24352   0.903   1.539   9.440 -0.6598  0.1020 -0.9577
 4297SOL    HW124353   0.909   1.521   9.347 -1.6782 -0.0282 -0.9910
 4297SOL    HW224354   0.929   1.458   9.484 -1.8053  0.5384  0.5318
 4298SOL     OW24355   2.318   2.042   4.107  0.4132  0.0027 -0.3888
 4298SOL    HW124356   2.359   2.043   4.021  1.0137  1.1219 -0.0880
 4298SOL    HW224357   2.331   2.128   4.147  2.1967 -0.7906  0.7527
 4299SOL     OW24358   3.739   0.964   8.055 -0.7444  0.4240  0.3143
 4299SOL    HW124359   3.727   1.015   8.135 -0.0645  1.4204 -0.2329
 4299SOL    HW224360   3.732   1.030   7.987  1.6339 -2.3217 -2.6263
 4300SOL     OW24361   0.590   1.888   3.468  0.4587 -0.0273 -0.0281
 4300SOL    HW124362   0.527   1.959   3.474  1.0841  0.3126  2.5462
 4300SOL    HW224363   0.615   1.863   3.557  0.0374 -0.3167  0.0089
 4301SOL     OW24364   4.266   1.646   2.952 -0.1520 -0.1155 -0.3767
 4301SOL    HW124365   4.181   1.650   2.910 -0.3948 -1.3129  0.0102
 4301SOL    HW224366   4.269   1.733   2.994 -1.1861 -1.1595  1.8376
 4302SOL     OW24367   4.535   1.273   2.801  0.0402 -0.0993 -0.0955
 4302SOL    HW124368   4.614   1.220   2.793 -0.1125 -0.3418 -0.0009
 4302SOL    HW224369   4.508   1.294   2.711  2.4938 -0.7051 -0.9570
 4303SOL     OW24370   3.129   3.771   8.482 -0.2193  0.3076  0.3176
 4303SOL    HW124371   3.158   3.844   8.428 -0.6727 -0.0520 -0.4103
 4303SOL    HW224372   3.208   3.719   8.495  0.2549  1.2718  1.3196
 4304SOL     OW24373   3.582   1.727   5.342 -0.1167  0.3914 -0.0216
 4304SOL    HW124374   3.588   1.686   5.428  0.5250 -0.4282 -0.4526
 4304SOL    HW224375   3.493   1.760   5.350 -0.0743  0.6008 -0.4050
 4305SOL     OW24376   4.412   4.086  10.086 -0.0264 -0.3002 -0.3313
 4305SOL    HW124377   4.367   4.006  10.115 -0.2037  0.3274  1.1068
 4305SOL    HW224378   4.412   4.137  10.167 -0.5878  1.3619 -1.3826
 4306SOL     OW24379   0.520   0.093   2.205  0.3695  0.1106  0.4275
 4306SOL    HW124380   0.605   0.075   2.246 -0.1854  1.5853  2.1993
 4306SOL    HW224381   0.457   0.086   2.277 -1.0413 -1.6257 -0.9863
 4307SOL     OW24382   2.238   1.657   2.495  0.4313  0.6046  0.0409
 4307SOL    HW124383   2.145   1.638   2.485  0.8218 -1.3929  0.3224
 4307SOL    HW224384   2.264   1.676   2.405  0.0642 -0.2578 -0.2389
 4308SOL     OW24385   0.865   0.124   0.961 -0.4976  0.0633  0.5048
 4308SOL    HW124386   0.770   0.131   0.972 -0.4439  0.4827  0.7158
 4308SOL    HW224387   0.881   0.035   0.991 -0.1193  0.6854  2.1644
 4309SOL     OW24388   3.231   2.900   5.344  0.4877 -0.0494  0.3189
 4309SOL    HW124389   3.311   2.866   5.305 -0.4420 -2.6038  0.6665
 4309SOL    HW224390   3.179   2.825   5.317  2.8598 -1.6775  0.3581
 4310SOL     OW24391   2.401   4.308   7.487 -0.3803 -0.0794  0.3205
 4310SOL    HW124392   2.429   4.218   7.475  0.0768  0.2258 -0.8602
 4310SOL    HW224393   2.384   4.319   7.581 -1.2706 -0.6040  0.2128
 4311SOL     OW24394   3.749   1.078  15.505 -1.0915 -0.1600 -0.0108
 4311SOL    HW124395   3.782   1.116  15.586 -0.0839 -2.6719  0.7551
 4311SOL    HW224396   3.658   1.108  15.500 -0.4288  1.8378 -0.3080
 4312SOL     OW24397   0.780   2.075   4.420 -0.5041  0.4952 -0.3416
 4312SOL    HW124398   0.768   2.157   4.372  2.4055 -0.8058 -3.2523
 4312SOL    HW224399   0.717   2.022   4.372 -1.7004  0.7329  0.9528
 4313SOL     OW24400   3.057   2.882  15.796  0.5963  0.0570 -0.3241
 4313SOL    HW124401   3.060   2.976  15.776  3.4875 -0.2393 -1.2017
 4313SOL    HW224402   3.059   2.835  15.713 -1.1082 -0.2945 -0.1791
 4314SOL     OW24403   4.352   1.920  13.727 -0.0779  0.2050  0.9468
 4314SOL    HW124404   4.443   1.948  13.737  0.2387 -0.7474  0.6844
 4314SOL    HW224405   4.336   1.853  13.794 -1.3559  0.7751  1.2154
 4315SOL     OW24406   3.966   1.742   3.283  0.1166 -0.2356 -0.4127
 4315SOL    HW124407   3.977   1.681   3.211 -0.2156 -1.2391  0.3915
 4315SOL    HW224408   3.926   1.680   3.344  0.2066  1.0574  0.9569
 4316SOL     OW24409   4.615   2.918  10.791 -0.3960  0.0306 -0.0859
 4316SOL    HW124410   4.706   2.934  10.766  0.0284  0.3433  1.6075
 4316SOL    HW224411   4.625   2.950  10.881 -0.9679 -1.9771  0.7003
 4317SOL     OW24412   0.010   0.518   5.817 -0.0289  0.2406  0.6087
 4317SOL    HW124413   4.718   0.610   5.798 -0.6418 -0.1186 -0.5775
 4317SOL    HW224414   0.072   0.495   5.747 -2.2571 -0.4036 -1.1397
 4318SOL     OW24415   3.699   4.560   9.964 -0.8458  0.6176 -0.4524
 4318SOL    HW124416   3.656   4.476   9.978 -0.7078  0.6907  0.4437
 4318SOL    HW224417   3.633   4.623   9.933 -0.5432  1.9948  1.6795
 4319SOL     OW24418   2.593   0.100   6.496  0.0850 -0.1370 -0.5729
 4319SOL    HW124419   2.595   0.196   6.495 -0.3554 -0.1518 -2.3403
 4319SOL    HW224420   2.541   0.076   6.573 -0.1304  3.0485  0.2633
 4320SOL     OW24421   3.913   2.161  12.516  0.2492  0.0202 -0.5609
 4320SOL    HW124422   3.903   2.229  12.582 -2.0994 -1.4151  0.5257
 4320SOL    HW224423   3.832   2.112  12.524  2.0344 -3.0036 -0.6804
 4321SOL     OW24424   0.979   1.787   3.941 -0.0272 -0.2022  0.3355
 4321SOL    HW124425   1.020   1.871   3.964 -1.0618  0.2802  0.4317
 4321SOL    HW224426   0.958   1.800   3.849  4.2703 -2.3499 -0.9470
 4322SOL     OW24427   2.467   3.964   4.702  0.4084 -0.4665 -0.1849
 4322SOL    HW124428   2.459   3.893   4.638  0.5858 -0.1066 -0.6052
 4322SOL    HW224429   2.394   3.935   4.757  0.2885  2.2891  1.1321
 4323SOL     OW24430   2.615   4.233   8.485 -0.3434 -0.2325 -0.3710
 4323SOL    HW124431   2.639   4.149   8.524 -0.7578  0.2227  0.8369
 4323SOL    HW224432   2.547   4.208   8.422  0.8399  0.0264 -1.7731
 4324SOL     OW24433   3.295   1.147  15.163  0.5959 -0.2994  0.0426
 4324SOL    HW124434   3.382   1.159  15.126  0.2186  0.0172 -0.7646
 4324SOL    HW224435   3.257   1.130  15.077 -2.4317 -2.8597  1.8888
 4325SOL     OW24436   2.214   4.418   2.500 -0.3216 -0.2271 -0.1355
 4325SOL    HW124437   2.163   4.353   2.452 -1.4086  2.4267 -2.6332
 4325SOL    HW224438   2.150   4.490   2.505 -0.5154 -0.2096 -2.5219
 4326SOL     OW24439   2.457   1.302   8.542  0.3119  0.2471  0.7687
 4326SOL    HW124440   2.410   1.327   8.622 -0.0306 -0.5770  0.8348
 4326SOL    HW224441   2.395   1.242   8.499  0.1973  0.5401  0.5205
 4327SOL     OW24442   1.320   3.174  10.339 -0.0242 -0.6122  0.6800
 4327SOL    HW124443   1.269   3.251  10.316  2.4136  0.3958 -1.4182
 4327SOL    HW224444   1.373   3.161  10.260 -1.4504  0.1275 -0.4018
 4328SOL     OW24445   2.636   1.161   6.337  0.4082  0.3452 -0.1901
 4328SOL    HW124446   2.605   1.088   6.284  0.2718  1.6776 -1.9438
 4328SOL    HW224447   2.554   1.211   6.345  0.7887  0.3317  3.7665
 4329SOL     OW24448   2.620   1.354  14.158  0.1135 -0.0239 -0.0310
 4329SOL    HW124449   2.620   1.427  14.095  2.1214  0.4435  0.5220
 4329SOL    HW224450   2.661   1.385  14.239  0.7346  0.7579 -0.6447
 4330SOL     OW24451   3.416   0.960  14.829  0.5317 -0.8245  0.1767
 4330SOL    HW124452   3.331   0.969  14.870  0.0664  1.5499 -1.2968
 4330SOL    HW224453   3.461   1.030  14.876 -0.2553  0.8994 -1.6515
 4331SOL     OW24454   0.375   2.069   7.333 -0.0398 -0.5657 -0.0524
 4331SOL    HW124455   0.281   2.050   7.334 -0.2896  0.6675  0.9684
 4331SOL    HW224456   0.407   2.039   7.249 -1.4026  1.3529 -1.2480
 4332SOL     OW24457   3.124   0.554   3.550  0.4987  0.3808  0.4451
 4332SOL    HW124458   3.044   0.588   3.592  0.3744  1.5216 -0.6876
 4332SOL    HW224459   3.184   0.551   3.624 -0.1476  0.2510  0.9652
 4333SOL     OW24460   0.379   3.367   5.236 -0.3329 -0.2220 -0.0826
 4333SOL    HW124461   0.307   3.400   5.183  0.9634  0.1586 -1.6007
 4333SOL    HW224462   0.366   3.416   5.317 -0.3379  0.0541 -0.2529
 4334SOL     OW24463   4.720   3.655   1.874 -0.3385  0.3394  0.4342
 4334SOL    HW124464   4.694   3.664   1.783 -1.3704  1.2202  0.8193
 4334SOL    HW224465   4.712   3.746   1.904 -1.1616  0.8163 -1.2560
 4335SOL     OW24466   3.757   1.400  14.653 -0.3984  0.0348  0.1328
 4335SOL    HW124467   3.793   1.444  14.575 -1.9559  0.2048 -0.4907
 4335SOL    HW224468   3.806   1.318  14.646  0.5954  0.4843  1.8344
 4336SOL     OW24469   0.808   1.493   8.581 -0.1996 -0.2413  0.2087
 4336SOL    HW124470   0.860   1.428   8.535 -0.4638 -1.0873  1.1146
 4336SOL    HW224471   0.862   1.533   8.650 -0.5647 -0.8802  0.8659
 4337SOL     OW24472   3.530   3.104   9.297  0.6171 -0.3737  0.0227
 4337SOL    HW124473   3.569   3.046   9.362 -1.3124 -0.9838  0.6290
 4337SOL    HW224474   3.609   3.126   9.248 -1.0090  1.0137 -2.0313
 4338SOL     OW24475   3.533   4.346   4.495 -0.1520  0.3727  0.1055
 4338SOL    HW124476   3.489   4.368   4.577 -0.0288 -0.5681  0.4281
 4338SOL    HW224477   3.465   4.298   4.448 -0.3697  1.3670 -0.5982
 4339SOL     OW24478   3.398   4.391  12.647  0.2364 -0.5716 -0.1460
 4339SOL    HW124479   3.306   4.370  12.662  0.2955 -2.1461 -1.9471
 4339SOL    HW224480   3.436   4.322  12.702  0.8207 -0.3263 -0.2426
 4340SOL     OW24481   3.604   3.881   5.692 -0.3415  0.1846 -0.1346
 4340SOL    HW124482   3.577   3.797   5.729  2.5067 -0.0288  1.4187
 4340SOL    HW224483   3.593   3.938   5.768 -1.2367 -0.8768  0.5156
 4341SOL     OW24484   0.757   1.050   3.922  0.0776 -0.4832 -0.2846
 4341SOL    HW124485   0.763   1.132   3.971  2.5608 -0.4069 -0.6991
 4341SOL    HW224486   0.794   0.986   3.983 -2.3084 -2.7257 -1.1775
 4342SOL     OW24487   0.103   3.220   9.836 -0.0886 -0.3115  0.3610
 4342SOL    HW124488   0.184   3.272   9.835  1.1786 -2.2786  0.1903
 4342SOL    HW224489   0.064   3.257   9.915 -2.4597  0.2598 -1.0791
 4343SOL     OW24490   4.077   4.488   7.920  0.6199  0.5407 -0.7038
 4343SOL    HW124491   4.082   4.428   7.994  2.3679  1.9622  0.3494
 4343SOL    HW224492   3.983   4.499   7.903  0.4918  1.1816  0.4551
 4344SOL     OW24493   1.156   4.315   5.822  0.5122  0.3364 -0.2244
 4344SOL    HW124494   1.137   4.374   5.894  0.2874 -1.2485  1.0177
 4344SOL    HW224495   1.077   4.338   5.773  0.8485  0.2705 -0.8031
 4345SOL     OW24496   3.946   4.567  11.167  0.2696  0.6536 -0.2809
 4345SOL    HW124497   4.009   4.615  11.114 -1.9203  2.5154 -1.1700
 4345SOL    HW224498   4.007   4.503  11.205  0.7359  0.6609 -1.0227
 4346SOL     OW24499   2.089   3.682  14.606  0.2255  0.2133  0.2191
 4346SOL    HW124500   2.135   3.756  14.645  1.2700 -0.0132 -0.5892
 4346SOL    HW224501   2.096   3.704  14.513  0.3165  0.2755  0.2415
 4347SOL     OW24502   2.690   0.210   2.480 -0.2370 -0.1227 -0.0524
 4347SOL    HW124503   2.726   0.299   2.477  1.1975 -0.6938 -0.0243
 4347SOL    HW224504   2.771   0.160   2.493 -0.0193 -0.5248 -2.9471
 4348SOL     OW24505   3.021   3.684   6.470 -0.1211  0.3722  0.3693
 4348SOL    HW124506   2.958   3.682   6.398  0.0767  2.5132  0.1333
 4348SOL    HW224507   3.102   3.666   6.422 -0.4470  1.1423 -0.4689
 4349SOL     OW24508   0.714   4.211  11.052  0.7530 -0.1161 -0.1903
 4349SOL    HW124509   0.677   4.158  11.122  0.5544  1.6583  1.0456
 4349SOL    HW224510   0.748   4.140  10.998 -2.0449 -0.5893 -1.3108
 4350SOL     OW24511   0.314   4.682   4.314 -0.1951  0.5231 -0.1286
 4350SOL    HW124512   0.273   4.617   4.257  1.2086  0.2280 -0.8087
 4350SOL    HW224513   0.304   0.037   4.263  0.0119  1.2514  0.9665
 4351SOL     OW24514   1.574   1.362   5.065 -0.4486 -0.1720 -0.8381
 4351SOL    HW124515   1.626   1.442   5.061 -1.3529  0.5488  2.2000
 4351SOL    HW224516   1.599   1.312   4.987 -0.2556  2.1300 -2.2421
 4352SOL     OW24517   3.755   1.852   3.673  0.6202  0.0481 -0.7041
 4352SOL    HW124518   3.682   1.791   3.683  1.7783 -0.6082  3.9417
 4352SOL    HW224519   3.759   1.855   3.578 -2.5356  0.3756 -0.8498
 4353SOL     OW24520   2.874   2.391   7.195  0.1623 -0.6083  0.6139
 4353SOL    HW124521   2.829   2.311   7.225  2.1514 -2.9978 -2.8472
 4353SOL    HW224522   2.807   2.458   7.208 -2.1852 -2.4926 -1.7135
 4354SOL     OW24523   1.475   0.088   7.809  0.6500  0.2430  0.1786
 4354SOL    HW124524   1.399   0.070   7.754  0.0769  0.9753  0.7291
 4354SOL    HW224525   1.527   0.012   7.783 -0.9218  0.0035 -2.2232
 4355SOL     OW24526   0.122   1.750   8.761 -0.7171 -0.2466 -0.3102
 4355SOL    HW124527   0.074   1.769   8.841  0.7448 -1.5969  0.8790
 4355SOL    HW224528   0.204   1.728   8.804 -0.2478 -0.3124 -1.2272
 4356SOL     OW24529   1.436   3.928   1.161 -0.1588  0.5078  0.3348
 4356SOL    HW124530   1.517   3.935   1.111  0.4728 -2.9002  0.8443
 4356SOL    HW224531   1.469   3.959   1.245 -2.5109  0.6712  1.2000
 4357SOL     OW24532   3.122   2.276   1.928 -0.1480  0.0677 -0.8373
 4357SOL    HW124533   3.215   2.296   1.941 -0.6046  0.3336  2.0346
 4357SOL    HW224534   3.098   2.329   1.852 -2.2897  1.4144  0.7708
 4358SOL     OW24535   1.369   2.292   8.082 -0.6276  0.0231 -0.3087
 4358SOL    HW124536   1.408   2.215   8.040 -1.0037 -0.6449  0.5643
 4358SOL    HW224537   1.286   2.293   8.035 -0.4448  2.2930 -0.5810
 4359SOL     OW24538   1.138   0.141   3.317 -0.3222 -0.1339 -0.6501
 4359SOL    HW124539   1.119   0.225   3.277  0.9836 -0.2863 -1.5687
 4359SOL    HW224540   1.180   0.091   3.247 -1.1603  0.9339 -1.8979
 4360SOL     OW24541   3.182   1.227  15.682  0.1427  0.7881  0.5431
 4360SOL    HW124542   3.096   1.194  15.709 -0.4141  0.8675 -1.1091
 4360SOL    HW224543   3.193   1.208  15.588 -1.1085  1.7880  0.1823
 4361SOL     OW24544   2.031   4.413  16.997 -0.0146 -0.4421 -0.2982
 4361SOL    HW124545   1.936   4.421  16.996 -0.0186 -0.5218 -0.7470
 4361SOL    HW224546   2.054   4.353  17.068 -0.2301  0.5884  0.6434
 4362SOL     OW24547   4.112   2.250   3.434  0.3234  0.0749 -0.2679
 4362SOL    HW124548   4.041   2.305   3.466  1.3000  0.5304  1.1445
 4362SOL    HW224549   4.122   2.285   3.345  0.6290 -0.2400 -0.3556
 4363SOL     OW24550   0.113   3.052   2.572  0.4157  0.0800  0.4003
 4363SOL    HW124551   0.042   3.044   2.509 -0.2885  0.2752  1.1744
 4363SOL    HW224552   0.181   3.000   2.529  1.0498 -0.3084  1.8401
 4364SOL     OW24553   1.638   0.443   1.617  0.0654 -0.0794 -0.1693
 4364SOL    HW124554   1.664   0.396   1.696 -0.2977  3.2864  1.9710
 4364SOL    HW224555   1.554   0.401   1.603 -0.2148  0.5807 -0.4918
 4365SOL     OW24556   1.584   0.406  11.206  0.0066  0.1028 -0.0513
 4365SOL    HW124557   1.596   0.501  11.213  0.2741  0.0537  0.1457
 4365SOL    HW224558   1.584   0.404  11.110 -2.4345 -2.2373  0.0102
 4366SOL     OW24559   2.008   3.412   4.876  0.2820 -0.1999 -0.1833
 4366SOL    HW124560   2.095   3.425   4.914  0.4837  0.6592 -0.9421
 4366SOL    HW224561   2.025   3.353   4.803  1.0721 -0.3245  0.0960
 4367SOL     OW24562   1.416   4.106   6.068  0.3144  0.4199  0.0948
 4367SOL    HW124563   1.504   4.112   6.031  1.2278  0.8096  2.3208
 4367SOL    HW224564   1.421   4.013   6.088  2.1380  0.1845 -1.4979
 4368SOL     OW24565   3.233   3.105   9.241  0.1157  0.1308 -0.1241
 4368SOL    HW124566   3.228   3.160   9.162 -3.1607  1.3877  0.9729
 4368SOL    HW224567   3.314   3.134   9.283  0.8509 -1.7758 -0.2114
 4369SOL     OW24568   0.144   2.089  11.922  0.0595  0.3100  0.3047
 4369SOL    HW124569   0.127   2.174  11.882  0.2326 -1.1178 -2.8566
 4369SOL    HW224570   0.239   2.078  11.912  0.1631  1.1513  0.3584
 4370SOL     OW24571   1.160   0.280   1.369 -0.2690  0.3079  0.1156
 4370SOL    HW124572   1.108   0.346   1.414  0.1190 -1.1307  2.6856
 4370SOL    HW224573   1.099   0.261   1.297 -1.6891  1.8129  0.9336
 4371SOL     OW24574   3.660   3.398   9.486 -0.0991  0.1276 -0.5621
 4371SOL    HW124575   3.676   3.436   9.399 -0.7955 -0.9922 -1.1771
 4371SOL    HW224576   3.729   3.450   9.527 -0.4735  0.5246 -0.4249
 4372SOL     OW24577   1.509   1.936   8.490  0.0341  1.0089  0.6742
 4372SOL    HW124578   1.591   1.934   8.441  0.3280 -1.4327  1.2500
 4372SOL    HW224579   1.528   1.996   8.562 -1.3692  2.0102  0.2244
 4373SOL     OW24580   4.166   2.123   7.263  0.5156 -0.3407  0.8166
 4373SOL    HW124581   4.098   2.121   7.330  0.4189 -0.1554  0.7224
 4373SOL    HW224582   4.241   2.117   7.322  1.1683  1.6992  0.1776
 4374SOL     OW24583   3.545   1.165   2.967  0.0794 -0.3844 -0.3274
 4374SOL    HW124584   3.468   1.143   2.916 -0.2009 -0.4917  0.1403
 4374SOL    HW224585   3.546   1.261   2.970 -0.0359 -0.3457 -1.7479
 4375SOL     OW24586   2.247   0.701  16.776 -0.3093  0.0675  0.3617
 4375SOL    HW124587   2.279   0.726  16.689 -0.3453  0.2888  0.4098
 4375SOL    HW224588   2.176   0.764  16.791 -0.8415 -0.2560 -0.7978
 4376SOL     OW24589   1.709   0.973  16.850 -0.3542  0.3804  0.3965
 4376SOL    HW124590   1.637   0.915  16.823  0.2565  0.8660 -2.3298
 4376SOL    HW224591   1.701   1.049  16.792  3.3936 -0.5161 -1.2600
 4377SOL     OW24592   0.665   0.861  10.988  0.7810 -0.2530  0.4036
 4377SOL    HW124593   0.728   0.914  11.038 -1.0235  2.3051 -0.0263
 4377SOL    HW224594   0.628   0.811  11.061 -0.6791  0.5153  0.1914
 4378SOL     OW24595   1.594   0.726   6.954  0.0136 -0.4038  0.3337
 4378SOL    HW124596   1.596   0.755   7.045  2.1547 -1.8578  0.7502
 4378SOL    HW224597   1.509   0.681   6.958 -0.5214  0.6215  0.3981
 4379SOL     OW24598   4.284   3.402   0.847  0.3689  0.1996 -0.1866
 4379SOL    HW124599   4.310   3.476   0.790 -1.9825  0.1349 -1.3536
 4379SOL    HW224600   4.204   3.440   0.884  0.2983 -1.9579  1.8372
 4380SOL     OW24601   3.783   3.049  13.810  0.3265 -0.1222  0.6943
 4380SOL    HW124602   3.789   3.093  13.895  0.0084  0.0226  0.6430
 4380SOL    HW224603   3.834   3.109  13.756 -0.4962  0.4959  0.6064
 4381SOL     OW24604   2.652   1.757   0.493 -0.2914 -0.3266 -0.0129
 4381SOL    HW124605   2.702   1.723   0.567 -0.7021  1.2277  0.9572
 4381SOL    HW224606   2.572   1.775   0.541  0.4871 -0.9330  1.5027
 4382SOL     OW24607   2.503   0.328   7.898 -0.2327  0.0723 -0.0694
 4382SOL    HW124608   2.585   0.377   7.885 -0.3975  0.3934  0.0937
 4382SOL    HW224609   2.516   0.242   7.859 -0.9105  0.2091 -0.5928
 4383SOL     OW24610   1.238   2.078   7.780  0.1101  0.3624 -0.0019
 4383SOL    HW124611   1.148   2.102   7.756 -0.5566  0.4600  2.5794
 4383SOL    HW224612   1.288   2.091   7.699  1.3574 -1.0814  0.5435
 4384SOL     OW24613   0.252   2.671  16.040 -0.1715  0.0042  0.5660
 4384SOL    HW124614   0.190   2.722  15.988  1.5687 -1.6711 -3.1264
 4384SOL    HW224615   0.335   2.718  16.042  0.4864 -1.0322 -1.9193
 4385SOL     OW24616   1.654   2.818   3.911  0.1232 -0.0764 -0.0753
 4385SOL    HW124617   1.715   2.890   3.931  0.2824 -0.1570 -0.2671
 4385SOL    HW224618   1.647   2.784   4.000  1.1552 -0.0597  0.0108
 4386SOL     OW24619   2.161   4.011   7.318  0.0624 -0.1912  0.1596
 4386SOL    HW124620   2.225   3.940   7.312  0.4315 -0.0421  2.3749
 4386SOL    HW224621   2.166   4.038   7.410  0.1461 -0.8141  0.3369
 4387SOL     OW24622   1.987   3.305  10.319 -0.2395 -0.0490 -0.2126
 4387SOL    HW124623   2.010   3.216  10.344  0.0109  0.7858  2.5217
 4387SOL    HW224624   1.894   3.300  10.295 -0.2613  0.5848 -0.2600
 4388SOL     OW24625   1.292   4.496   3.406 -0.3845  0.1385  0.2983
 4388SOL    HW124626   1.344   4.422   3.438  2.6909  1.0600 -2.5766
 4388SOL    HW224627   1.322   4.492   3.315 -0.6126 -1.1383  0.2760
 4389SOL     OW24628   1.825   0.118   7.866 -0.2357  0.8388 -0.4850
 4389SOL    HW124629   1.799   0.028   7.883  0.8412  0.4806 -0.7294
 4389SOL    HW224630   1.780   0.165   7.936 -1.8646 -0.8053 -0.4116
 4390SOL     OW24631   3.863   3.433   4.510 -0.5514 -0.2918  0.5038
 4390SOL    HW124632   3.866   3.483   4.429 -0.5589  0.0874  0.7356
 4390SOL    HW224633   3.816   3.489   4.572 -0.4315 -0.3454  0.6450
 4391SOL     OW24634   4.588   0.659   3.638 -0.0806 -0.0207  0.0891
 4391SOL    HW124635   4.605   0.569   3.666  1.4064  0.3800  0.4706
 4391SOL    HW224636   4.632   0.706   3.709  0.2802 -0.9855  0.4913
 4392SOL     OW24637   4.209   4.258   4.677  1.1921  0.3196 -0.2280
 4392SOL    HW124638   4.150   4.224   4.744 -1.6227  1.1723 -2.2600
 4392SOL    HW224639   4.250   4.175   4.654  1.8803  0.3155  1.0137
 4393SOL     OW24640   1.927   0.159   7.327 -0.4448 -0.8080 -0.1968
 4393SOL    HW124641   1.971   0.228   7.278  0.3035 -0.9447  0.2884
 4393SOL    HW224642   1.995   0.158   7.394 -1.6267 -1.1487  1.0173
 4394SOL     OW24643   4.533   3.549   3.771 -0.0546  0.1650  0.4181
 4394SOL    HW124644   4.617   3.533   3.814  0.0863 -0.5083 -0.1012
 4394SOL    HW224645   4.495   3.461   3.776  0.7160 -0.1026  1.7798
 4395SOL     OW24646   1.628   0.756   9.701 -0.1507 -0.0659  0.2621
 4395SOL    HW124647   1.611   0.831   9.645  5.2303 -0.0048 -1.2499
 4395SOL    HW224648   1.594   0.793   9.782  0.7597 -0.0230  0.6296
 4396SOL     OW24649   3.981   2.478  15.952 -0.5032 -0.2672  0.0326
 4396SOL    HW124650   4.074   2.495  15.940 -0.4404 -1.4306 -1.1010
 4396SOL    HW224651   3.939   2.565  15.951  2.7212  1.2449 -4.1337
 4397SOL     OW24652   4.458   4.454   9.230  0.6210  0.4171  0.1706
 4397SOL    HW124653   4.491   4.542   9.248  1.5321 -0.0329  0.7017
 4397SOL    HW224654   4.386   4.478   9.171  0.1677  0.9335  0.9359
 4398SOL     OW24655   0.461   3.769   5.631  0.1745 -0.2463  0.3558
 4398SOL    HW124656   0.404   3.706   5.676  0.6104  0.3005  1.6676
 4398SOL    HW224657   0.545   3.744   5.670  0.2426 -1.1739 -0.3749
 4399SOL     OW24658   4.435   4.653   0.522  0.5082 -0.9065  0.0234
 4399SOL    HW124659   4.408   4.725   0.464 -2.2218 -0.4987  1.7987
 4399SOL    HW224660   4.477   4.597   0.457 -1.5724 -2.0354 -0.3321
 4400SOL     OW24661   0.260   4.298   8.695  0.2650 -0.9706 -0.4407
 4400SOL    HW124662   0.341   4.251   8.676  0.7992 -0.1633 -0.1920
 4400SOL    HW224663   0.198   4.261   8.633 -0.7023  1.9934 -1.2157
 4401SOL     OW24664   3.018   2.823  13.236  0.5986  0.3222 -0.2161
 4401SOL    HW124665   2.943   2.836  13.294  0.5292 -0.2380 -0.1839
 4401SOL    HW224666   3.044   2.734  13.261  3.3364  1.1638 -0.1087
 4402SOL     OW24667   1.153   0.908  16.352  0.0196 -1.0128 -0.2286
 4402SOL    HW124668   1.074   0.854  16.359 -0.6440  0.1446  1.2844
 4402SOL    HW224669   1.130   0.972  16.284  2.1593 -0.0281 -0.0034
 4403SOL     OW24670   1.146   3.799   5.854 -0.3842  0.1538 -0.0046
 4403SOL    HW124671   1.172   3.766   5.941  0.6500  0.5337 -0.1604
 4403SOL    HW224672   1.161   3.892   5.875 -0.6793  0.1635  0.1581
 4404SOL     OW24673   3.438   3.253   5.438  0.1842 -0.8048  0.1235
 4404SOL    HW124674   3.415   3.343   5.416  0.1692 -0.4153  1.8066
 4404SOL    HW224675   3.374   3.228   5.505 -0.4284  0.3339 -0.0447
 4405SOL     OW24676   1.266   2.502  16.926  0.0535  0.5302 -0.2233
 4405SOL    HW124677   1.336   2.509  16.991 -1.1223 -1.5476  1.2228
 4405SOL    HW224678   1.197   2.454  16.972  0.0721  0.3374 -0.3947
 4406SOL     OW24679   1.447   1.176  17.162  0.4710 -0.0211  0.0925
 4406SOL    HW124680   1.449   1.226  17.244 -1.1285  0.4762 -0.1762
 4406SOL    HW224681   1.462   1.247  17.100 -0.3901 -1.9631 -2.2898
 4407SOL     OW24682   1.135   1.156   9.311  0.6649  0.4073  0.0009
 4407SOL    HW124683   1.108   1.238   9.352  2.2054  1.7547 -1.6519
 4407SOL    HW224684   1.092   1.163   9.226  1.8939  0.0276 -0.6568
 4408SOL     OW24685   4.565   1.319  17.373  0.0435  0.2675 -0.6607
 4408SOL    HW124686   4.491   1.264  17.348 -0.2469  0.6887 -0.7312
 4408SOL    HW224687   4.643   1.268  17.352 -0.5627 -0.6385 -0.7210
 4409SOL     OW24688   2.040   1.775   2.227  0.0074 -0.3301 -0.4275
 4409SOL    HW124689   1.971   1.711   2.244  0.8029 -1.2756 -0.8327
 4409SOL    HW224690   2.045   1.766   2.132  2.5322 -0.2827 -0.2843
 4410SOL     OW24691   0.762   4.019   1.944  0.1496  0.0632 -0.1238
 4410SOL    HW124692   0.668   4.020   1.959  0.2413  4.3080  0.2340
 4410SOL    HW224693   0.806   4.001   2.027 -2.0215 -0.3645  0.9446
 4411SOL     OW24694   3.243   1.957   7.111  0.0068  0.2875 -0.1621
 4411SOL    HW124695   3.269   1.891   7.047 -3.4725 -0.4821 -0.7714
 4411SOL    HW224696   3.289   2.027   7.065  0.7115  0.6430  1.0749
 4412SOL     OW24697   1.418   0.503   6.222  0.5230  0.5421 -0.1891
 4412SOL    HW124698   1.432   0.444   6.296  1.1439 -0.4506 -1.0970
 4412SOL    HW224699   1.324   0.510   6.208  0.5424  0.4305 -0.3826
 4413SOL     OW24700   2.646   0.501   7.325  0.4817 -0.2843 -0.3113
 4413SOL    HW124701   2.682   0.413   7.333 -1.2842 -0.8732  1.0335
 4413SOL    HW224702   2.561   0.478   7.288  0.5989  0.8926 -1.3139
 4414SOL     OW24703   4.235   4.022   9.883 -0.1053 -0.2097  0.1347
 4414SOL    HW124704   4.236   4.064   9.797 -2.3779 -0.5600 -0.0748
 4414SOL    HW224705   4.317   4.056   9.919  0.3766 -0.6394 -0.5517
 4415SOL     OW24706   0.487   3.303   4.482  0.0008 -0.3482 -0.2149
 4415SOL    HW124707   0.488   3.395   4.507  0.4028 -0.5422  0.4865
 4415SOL    HW224708   0.476   3.263   4.568  1.6760 -1.1232 -0.3574
 4416SOL     OW24709   1.398   3.209   5.238  0.1626  0.2048 -0.1128
 4416SOL    HW124710   1.337   3.207   5.164  2.2918  3.3421 -1.9552
 4416SOL    HW224711   1.390   3.302   5.260 -0.5508 -0.4488  2.3870
 4417SOL     OW24712   3.172   1.132  10.450 -0.0418  0.1688 -0.0017
 4417SOL    HW124713   3.228   1.158  10.523 -0.2126 -2.1859  1.0026
 4417SOL    HW224714   3.109   1.204  10.445 -0.4234  0.0824  3.0780
 4418SOL     OW24715   3.089   0.794   7.448  0.4469 -0.4789  0.1097
 4418SOL    HW124716   3.112   0.716   7.397 -2.8847 -1.6489  0.4088
 4418SOL    HW224717   3.060   0.740   7.521  0.0000 -2.7482 -1.7518
 4419SOL     OW24718   0.193   3.245   2.001  0.3332  0.0441 -0.9119
 4419SOL    HW124719   0.143   3.316   2.041 -0.0843 -0.1136 -1.1491
 4419SOL    HW224720   0.231   3.288   1.925  0.6948  0.1546 -0.6725
 4420SOL     OW24721   0.015   2.843   6.592 -0.0893 -0.0458  0.1596
 4420SOL    HW124722   4.700   2.843   6.679  1.0853 -1.9177  0.7140
 4420SOL    HW224723   0.107   2.846   6.618 -0.5238  0.3440  1.6506
 4421SOL     OW24724   0.885   1.383   0.555  0.4386 -0.3423  0.1761
 4421SOL    HW124725   0.832   1.460   0.577  0.1082 -0.8424  1.1045
 4421SOL    HW224726   0.852   1.316   0.614  2.6602  0.0951  1.9237
 4422SOL     OW24727   2.842   1.573   4.355 -0.3196  0.2143 -0.3554
 4422SOL    HW124728   2.798   1.529   4.283 -0.3087  0.9956 -0.8358
 4422SOL    HW224729   2.925   1.525   4.352  0.0228  0.7075  1.2780
 4423SOL     OW24730   0.468   1.591  12.569  0.1532  0.2687  0.8999
 4423SOL    HW124731   0.415   1.526  12.616  0.0439 -1.5006 -1.6490
 4423SOL    HW224732   0.417   1.604  12.489  0.4530 -4.4613 -0.0915
 4424SOL     OW24733   0.060   3.341   8.222  0.1369  0.8370  0.1568
 4424SOL    HW124734   4.708   3.398   8.227  2.0645  3.4814 -0.4946
 4424SOL    HW224735   0.125   3.405   8.248  2.2786 -0.4104 -2.0743
 4425SOL     OW24736   2.631   3.568   5.291  0.5405  0.3465  0.1086
 4425SOL    HW124737   2.636   3.663   5.280 -1.1344  0.1272 -2.6572
 4425SOL    HW224738   2.599   3.547   5.204  0.2164  2.2102 -0.2311
 4426SOL     OW24739   3.249   2.131   7.856 -0.2861  0.2624  0.2972
 4426SOL    HW124740   3.191   2.107   7.784  0.0502 -0.3315  0.2253
 4426SOL    HW224741   3.294   2.047   7.861 -1.8878 -0.6417 -0.6619
 4427SOL     OW24742   2.302   1.866   6.947 -0.1841 -0.0909  0.0472
 4427SOL    HW124743   2.239   1.933   6.974  1.7095  1.9872 -0.6617
 4427SOL    HW224744   2.245   1.823   6.883  0.3034 -3.4026  1.8513
 4428SOL     OW24745   4.406   4.327   8.803 -0.3319  0.1560  0.2506
 4428SOL    HW124746   4.344   4.311   8.874 -1.3905 -0.9971 -0.9125
 4428SOL    HW224747   4.353   4.324   8.724  2.2151 -0.9511 -1.4152
 4429SOL     OW24748   2.519   1.789   9.510  0.0586  0.5066 -0.1472
 4429SOL    HW124749   2.557   1.875   9.529  1.4315 -0.0754 -0.2609
 4429SOL    HW224750   2.426   1.806   9.497 -0.0952  0.1893  0.5255
 4430SOL     OW24751   4.265   4.451  14.856  0.0732 -0.4631 -0.0058
 4430SOL    HW124752   4.316   4.464  14.937  1.8571 -1.0924 -1.0149
 4430SOL    HW224753   4.300   4.511  14.791 -0.4033  0.1300  0.2867
 4431SOL     OW24754   0.490   1.581   2.654 -0.2047  0.9311  0.5315
 4431SOL    HW124755   0.450   1.532   2.582  2.0019  0.8309 -0.6210
 4431SOL    HW224756   0.551   1.514   2.687 -0.8714  0.0707  0.0179
 4432SOL     OW24757   1.389   4.250   2.462  0.2889  0.5282  0.3476
 4432SOL    HW124758   1.439   4.175   2.428  1.1016  1.6851 -0.9904
 4432SOL    HW224759   1.316   4.203   2.504 -0.0272  1.3760  0.7400
 4433SOL     OW24760   2.106   3.013   3.075  0.0107 -0.5213  0.1477
 4433SOL    HW124761   2.108   2.964   3.157 -0.2074 -0.1790  0.3562
 4433SOL    HW224762   2.131   3.101   3.101 -1.4470 -0.2628  0.6369
 4434SOL     OW24763   1.607   1.298   8.251 -0.1208 -0.4011 -0.7097
 4434SOL    HW124764   1.603   1.389   8.280 -1.8158 -0.5655 -0.4515
 4434SOL    HW224765   1.517   1.275   8.274  0.0122  0.1340  0.3343
 4435SOL     OW24766   2.148   2.901   5.641  0.3625  0.2905 -0.5274
 4435SOL    HW124767   2.209   2.827   5.639  1.5996  1.3144 -0.2023
 4435SOL    HW224768   2.085   2.874   5.573 -0.7815  1.0926  0.2189
 4436SOL     OW24769   3.007   0.069  11.067  0.7799 -0.3271  0.7274
 4436SOL    HW124770   3.035   0.113  10.986 -0.4406 -1.7808 -0.4996
 4436SOL    HW224771   3.089   0.031  11.098  1.6129  1.6840  0.9660
 4437SOL     OW24772   3.251   2.661  11.397 -0.6184 -0.6115 -0.3828
 4437SOL    HW124773   3.303   2.733  11.360  2.1858 -2.1581  0.5998
 4437SOL    HW224774   3.244   2.677  11.491  0.3730 -0.6959 -0.2916
 4438SOL     OW24775   1.611   3.058   5.224 -0.1678 -0.5438  0.1467
 4438SOL    HW124776   1.606   3.031   5.132  0.1517  0.9651 -0.3135
 4438SOL    HW224777   1.541   3.122   5.230 -0.5470 -0.8144 -1.3395
 4439SOL     OW24778   1.244   4.642  14.797  0.3384 -0.6892 -0.1042
 4439SOL    HW124779   1.166   4.628  14.851  1.6794 -1.4880  1.6547
 4439SOL    HW224780   1.223   4.586  14.723 -2.3984 -1.1219  0.9884
 4440SOL     OW24781   1.915   0.226   1.139  0.0499 -0.5627 -0.6124
 4440SOL    HW124782   1.822   0.246   1.124  0.5831  2.2596 -0.2017
 4440SOL    HW224783   1.952   0.282   1.071  2.1263 -0.9527  0.1990
 4441SOL     OW24784   4.420   1.315   2.565  0.3854 -0.1808  0.6851
 4441SOL    HW124785   4.385   1.240   2.517  0.9212 -0.2157  0.3473
 4441SOL    HW224786   4.339   1.338   2.610 -1.0955 -1.8040 -1.1192
 4442SOL     OW24787   4.553   2.031  14.384 -0.2709 -0.0507 -0.4593
 4442SOL    HW124788   4.528   2.013  14.474  0.7938 -1.6055 -0.4772
 4442SOL    HW224789   4.576   1.940  14.363  0.3142  0.0208 -0.1177
 4443SOL     OW24790   2.902   3.725  15.504 -0.1582 -0.8741 -0.0046
 4443SOL    HW124791   2.938   3.668  15.572  0.9730 -0.1422  0.0128
 4443SOL    HW224792   2.982   3.760  15.465  0.2488  0.4321  1.9930
 4444SOL     OW24793   3.915   0.645   5.872  0.8709 -0.4535  0.0309
 4444SOL    HW124794   3.987   0.688   5.826 -0.0083 -0.8583 -1.7178
 4444SOL    HW224795   3.838   0.697   5.848  1.7629  0.9481  0.2272
 4445SOL     OW24796   2.779   0.400   1.121  0.2377  0.6105  0.4303
 4445SOL    HW124797   2.710   0.465   1.134 -2.6013 -2.1915 -0.5784
 4445SOL    HW224798   2.727   0.326   1.153  0.9976 -0.1502 -0.0753
 4446SOL     OW24799   3.912   2.206   1.228  0.5808 -0.2830 -0.7854
 4446SOL    HW124800   3.989   2.151   1.220  1.5936  0.7529  1.8368
 4446SOL    HW224801   3.853   2.149   1.178 -1.3977 -0.2824  1.5315
 4447SOL     OW24802   3.888   0.313   1.418 -0.6273 -0.5848  1.2086
 4447SOL    HW124803   3.943   0.357   1.353 -0.8791 -0.7694  0.8774
 4447SOL    HW224804   3.957   0.256   1.451 -1.3847 -1.9972  0.3116
 4448SOL     OW24805   4.716   3.308   2.576 -0.2751  0.1477 -0.0314
 4448SOL    HW124806   4.725   3.325   2.669 -2.0321  3.9861 -0.5731
 4448SOL    HW224807   0.028   3.220   2.562 -0.3935  0.3154 -1.4204
 4449SOL     OW24808   0.019   3.022   8.202  0.1440  0.0381  0.1026
 4449SOL    HW124809   4.706   3.095   8.251  0.3005 -0.8235  1.5151
 4449SOL    HW224810   4.665   2.974   8.178  0.5126 -0.4872 -0.0659
 4450SOL     OW24811   1.954   1.842   4.972 -0.4248  0.4198 -0.2753
 4450SOL    HW124812   1.951   1.931   5.006  1.7213  0.5962 -0.5464
 4450SOL    HW224813   2.046   1.820   4.983 -0.3714  0.4327 -0.6876
 4451SOL     OW24814   1.952   4.438   4.138 -0.0476 -0.3472  0.2882
 4451SOL    HW124815   1.923   4.529   4.131  1.9563  0.3737  1.3650
 4451SOL    HW224816   2.036   4.441   4.091 -0.8149 -1.1632 -1.1184
 4452SOL     OW24817   2.323   4.456   8.392 -0.0882 -0.2910 -0.5058
 4452SOL    HW124818   2.310   4.364   8.414  0.2668 -0.0370  0.7740
 4452SOL    HW224819   2.360   4.477   8.478  0.1743 -0.1338 -0.6559
 4453SOL     OW24820   0.008   4.346   5.352  0.5063  0.2654  0.2279
 4453SOL    HW124821   0.086   4.327   5.300  2.3762  0.7942  2.8547
 4453SOL    HW224822   0.054   4.367   5.433  0.1343 -0.3720  0.5961
 4454SOL     OW24823   0.894   2.797   0.999 -0.2599 -0.3884  0.4033
 4454SOL    HW124824   0.966   2.826   0.943 -1.1536  1.9234  0.4161
 4454SOL    HW224825   0.878   2.879   1.046  1.8766 -0.6049  1.4818
 4455SOL     OW24826   1.567   1.647   2.044 -0.4540 -0.3146  0.4005
 4455SOL    HW124827   1.578   1.562   2.086 -2.6421 -0.8839 -0.1856
 4455SOL    HW224828   1.518   1.613   1.969  1.3036 -0.8905 -0.4949
 4456SOL     OW24829   2.315   4.650   6.536 -0.0060  0.6998  0.2022
 4456SOL    HW124830   2.359   4.709   6.598 -0.3093  1.7425 -0.5754
 4456SOL    HW224831   2.224   4.676   6.549 -0.3359  0.2435 -1.2144
 4457SOL     OW24832   2.224   0.209   6.256  0.1194  0.3669 -1.2246
 4457SOL    HW124833   2.237   0.118   6.230 -2.2602 -0.5950  0.8727
 4457SOL    HW224834   2.130   0.216   6.235 -0.0959  0.8062 -0.1334
 4458SOL     OW24835   3.704   0.006   5.538  0.8461 -0.4777 -0.2847
 4458SOL    HW124836   3.739   0.088   5.574  1.1735  0.0420 -1.7861
 4458SOL    HW224837   3.673   4.697   5.621  1.8311 -2.7303 -0.8530
 4459SOL     OW24838   3.272   3.897   2.656  0.0836 -0.7181  0.2630
 4459SOL    HW124839   3.252   3.836   2.585  1.3390 -1.4772  0.5511
 4459SOL    HW224840   3.272   3.972   2.597 -0.5229 -0.3844  0.6866
 4460SOL     OW24841   1.665   1.241   9.288 -0.2596 -0.1068 -0.1097
 4460SOL    HW124842   1.636   1.181   9.356  0.0362 -0.0903  0.0312
 4460SOL    HW224843   1.646   1.330   9.319  1.0602  0.1137  0.1002
 4461SOL     OW24844   1.044   4.037   4.796 -0.0412  0.1500  0.2449
 4461SOL    HW124845   1.066   4.125   4.766 -1.9964 -0.1001 -1.9519
 4461SOL    HW224846   0.971   4.022   4.736  0.1930  1.7376 -0.4346
 4462SOL     OW24847   1.900   0.019   6.458  0.0570  0.1358  1.0244
 4462SOL    HW124848   1.892   4.653   6.486  0.5235  0.8337  3.3902
 4462SOL    HW224849   1.921   4.719   6.368  1.8758 -1.1836  1.7990
 4463SOL     OW24850   0.397   3.587   6.498 -0.2634  0.1902 -0.6112
 4463SOL    HW124851   0.472   3.587   6.556 -1.2631  0.3887  0.6766
 4463SOL    HW224852   0.334   3.539   6.551  0.6648 -0.8867 -0.4933
 4464SOL     OW24853   1.008   1.726   5.003 -0.2215  0.2345 -0.6787
 4464SOL    HW124854   1.080   1.684   4.956 -0.1795  1.6782 -1.9413
 4464SOL    HW224855   1.014   1.674   5.083 -1.6477  0.8538 -0.1702
 4465SOL     OW24856   4.613   2.878   3.427  0.2966 -0.2503 -0.2757
 4465SOL    HW124857   4.551   2.902   3.496 -2.7154 -1.9404 -2.3872
 4465SOL    HW224858   4.664   2.813   3.474 -0.4344 -0.5409  0.1007
 4466SOL     OW24859   3.714   1.009   9.984 -0.2456  0.2678  0.5066
 4466SOL    HW124860   3.671   1.009   9.899  5.0089  1.4420 -2.1959
 4466SOL    HW224861   3.788   0.949   9.972  1.2077  2.5818 -2.1425
 4467SOL     OW24862   2.809   4.022   6.921 -0.2945 -0.2145 -0.6992
 4467SOL    HW124863   2.809   3.959   6.993 -1.7156  1.0759  0.4129
 4467SOL    HW224864   2.889   4.067   6.949 -0.6344 -1.2271  1.8003
 4468SOL     OW24865   2.490   1.824   4.968 -0.5953 -0.2872  0.1803
 4468SOL    HW124866   2.514   1.891   5.032 -2.0727  1.1148 -0.7345
 4468SOL    HW224867   2.569   1.816   4.915 -1.7278 -0.0434 -1.5504
 4469SOL     OW24868   3.049   3.094   8.161  0.1614  0.1120  0.3114
 4469SOL    HW124869   3.079   3.004   8.174 -0.5256 -0.0739  0.5609
 4469SOL    HW224870   3.122   3.129   8.110 -0.9719  1.8490 -0.1101
 4470SOL     OW24871   3.482   1.028   6.224  0.5581 -0.2457  0.4485
 4470SOL    HW124872   3.413   1.092   6.243 -0.3053 -2.1153  3.4640
 4470SOL    HW224873   3.549   1.065   6.281  1.1323 -0.4327 -0.0968
 4471SOL     OW24874   1.762   4.397  17.031 -0.0008  0.0888  0.2729
 4471SOL    HW124875   1.669   4.404  17.013  0.1436  1.4183  0.0279
 4471SOL    HW224876   1.775   4.304  17.046  0.3114  0.0372 -0.2976
 4472SOL     OW24877   1.877   2.684   2.028  0.4278  0.0051 -0.7927
 4472SOL    HW124878   1.899   2.609   2.082 -0.5892  0.9277  0.9000
 4472SOL    HW224879   1.840   2.742   2.095  2.3870 -0.7938  0.9659
 4473SOL     OW24880   0.579   2.003   5.920 -0.1735  0.1600 -0.3378
 4473SOL    HW124881   0.510   2.005   5.853  0.7438 -1.5835 -1.3323
 4473SOL    HW224882   0.621   2.089   5.911  1.2784 -0.4263  0.9365
 4474SOL     OW24883   1.900   2.983   5.985 -0.1969 -0.1301 -0.3804
 4474SOL    HW124884   1.810   2.956   5.970  0.4588 -2.0382 -0.9793
 4474SOL    HW224885   1.893   2.992   6.080  0.7280  2.3136 -0.5520
 4475SOL     OW24886   3.728   0.653  16.495  0.7826  0.7873 -0.2562
 4475SOL    HW124887   3.699   0.733  16.452 -0.7091  1.4075  1.8850
 4475SOL    HW224888   3.745   0.673  16.587 -0.0933 -2.1907  0.5878
 4476SOL     OW24889   2.695   4.285   5.480  0.1070 -0.3678 -0.2409
 4476SOL    HW124890   2.782   4.320   5.498 -1.0282  1.2761  2.0049
 4476SOL    HW224891   2.688   4.234   5.561  0.6574  0.7207  0.4956
 4477SOL     OW24892   3.901   1.457   2.355 -0.0201 -0.0228 -0.7580
 4477SOL    HW124893   3.925   1.372   2.392  2.1341  1.8484  2.1460
 4477SOL    HW224894   3.985   1.478   2.315  0.4073 -0.5955 -0.1757
 4478SOL     OW24895   1.381   2.392  15.785  0.1049 -0.5649 -0.0924
 4478SOL    HW124896   1.338   2.478  15.779  0.6765 -0.2611  0.1182
 4478SOL    HW224897   1.474   2.413  15.772  0.5480 -0.8405  2.5613
 4479SOL     OW24898   0.853   4.208   2.714 -0.0819 -0.1899 -0.1105
 4479SOL    HW124899   0.883   4.121   2.741 -1.1343 -0.6700 -0.4866
 4479SOL    HW224900   0.832   4.189   2.623 -1.2375  2.6801 -0.4391
 4480SOL     OW24901   0.714   4.611   8.072  0.1298  0.1066  0.2429
 4480SOL    HW124902   0.644   4.587   8.011  0.1763  0.3062  0.1084
 4480SOL    HW224903   0.731   4.530   8.120 -2.3582 -1.1925 -1.0427
 4481SOL     OW24904   4.603   1.731  10.597 -0.0973  0.3502 -0.1415
 4481SOL    HW124905   4.686   1.712  10.641  0.4164  0.5250 -1.0205
 4481SOL    HW224906   4.618   1.817  10.557 -0.0318  0.1239 -0.6061
 4482SOL     OW24907   2.857   3.814   8.637  0.2468 -0.4857  0.1256
 4482SOL    HW124908   2.810   3.732   8.651 -0.7773  0.4715  2.3592
 4482SOL    HW224909   2.919   3.786   8.569 -3.4956 -1.5428 -2.7988
 4483SOL     OW24910   2.901   2.512   0.173  0.8572 -0.1921  0.0456
 4483SOL    HW124911   2.887   2.539   0.264 -0.3549  0.8972 -0.4583
 4483SOL    HW224912   2.874   2.420   0.168 -0.2731  0.0075  2.3229
 4484SOL     OW24913   0.561   0.498   8.874  0.0930  0.1845  0.1873
 4484SOL    HW124914   0.604   0.412   8.876 -0.0684  0.1364  1.9645
 4484SOL    HW224915   0.492   0.492   8.940  0.3394 -0.2394  0.4120
 4485SOL     OW24916   4.219   1.440   6.181  0.2090 -0.1003  0.2289
 4485SOL    HW124917   4.288   1.394   6.228  0.9390 -0.3580 -1.0785
 4485SOL    HW224918   4.277   1.492   6.125 -1.2524  1.2732 -0.0336
 4486SOL     OW24919   3.212   0.649   7.022 -0.5927  0.1538 -0.4634
 4486SOL    HW124920   3.160   0.702   6.961 -0.3108  2.4808  1.3464
 4486SOL    HW224921   3.146   0.617   7.084  0.5988 -1.0504  0.1850
 4487SOL     OW24922   0.990   3.139  11.953  0.1832  0.3940  0.3800
 4487SOL    HW124923   1.054   3.083  11.908 -0.8066 -0.8585  0.5158
 4487SOL    HW224924   1.043   3.191  12.013 -1.6141 -0.7915  3.0085
 4488SOL     OW24925   3.307   0.235   2.586 -0.1592  0.6973 -0.4687
 4488SOL    HW124926   3.302   0.182   2.507  0.0804  0.7850 -0.5452
 4488SOL    HW224927   3.342   0.172   2.650 -1.2853  2.7249  2.1479
 4489SOL     OW24928   3.541   3.135   3.183  0.1434  0.2593  0.2731
 4489SOL    HW124929   3.517   3.132   3.276 -0.4427 -0.6882  0.0896
 4489SOL    HW224930   3.492   3.060   3.149 -1.0111 -0.1901  2.9123
 4490SOL     OW24931   1.337   1.088   7.779 -0.0947  0.6908 -0.0334
 4490SOL    HW124932   1.367   1.019   7.719 -3.2133 -2.4987  2.0720
 4490SOL    HW224933   1.326   1.036   7.858 -1.4973 -1.4418 -1.6150
 4491SOL     OW24934   3.033   0.656   2.444 -0.4783  0.0082  0.1399
 4491SOL    HW124935   3.031   0.572   2.489  0.2111 -1.6345 -2.8790
 4491SOL    HW224936   3.046   0.641   2.350 -2.9936 -0.6732 -0.1103
 4492SOL     OW24937   2.051   4.484   8.033  0.4421  0.3381  0.4533
 4492SOL    HW124938   2.052   4.534   7.952  0.4770 -0.7153 -0.1969
 4492SOL    HW224939   2.125   4.527   8.076  0.3574  0.3663  0.5707
 4493SOL     OW24940   1.385   4.204   8.830 -0.2289  0.2684 -0.2428
 4493SOL    HW124941   1.359   4.217   8.739 -1.8610  0.3876  0.2396
 4493SOL    HW224942   1.324   4.249   8.889 -0.8447 -0.4011 -0.3613
 4494SOL     OW24943   4.241   3.730   5.763 -0.2489  0.4236 -0.0051
 4494SOL    HW124944   4.181   3.680   5.706 -1.8666  2.0608  0.2687
 4494SOL    HW224945   4.330   3.716   5.732 -0.9132 -0.9286 -1.3749
 4495SOL     OW24946   0.078   2.813   8.483  0.1073 -0.1223  0.0630
 4495SOL    HW124947   0.120   2.861   8.412  0.6535  0.7861  0.9917
 4495SOL    HW224948   0.160   2.766   8.503  1.1394  1.1463 -1.2121
 4496SOL     OW24949   4.033   4.647   2.259 -0.7115 -0.2297 -0.0270
 4496SOL    HW124950   4.105   4.618   2.316  0.2141 -1.6006 -1.9012
 4496SOL    HW224951   4.093   4.676   2.190 -1.3722  0.3283 -0.3606
 4497SOL     OW24952   2.866   4.630   6.330 -0.4797 -0.4727  0.2212
 4497SOL    HW124953   2.865   4.678   6.413  1.6550 -0.6140  0.3346
 4497SOL    HW224954   2.959   4.643   6.310 -0.2433 -1.7855  0.4771
 4498SOL     OW24955   3.038   1.953   6.146  0.2045  0.0967  0.4798
 4498SOL    HW124956   2.955   2.000   6.152  0.0459  0.0737 -1.3832
 4498SOL    HW224957   3.085   2.018   6.197 -2.3186  0.6936  2.0043
 4499SOL     OW24958   2.530   2.292   7.761 -0.1125 -0.7588  1.0976
 4499SOL    HW124959   2.557   2.359   7.699 -0.3448 -1.4102  0.3045
 4499SOL    HW224960   2.565   2.216   7.716  0.1458 -0.0541  0.1173
 4500SOL     OW24961   0.502   4.483   6.377 -0.3383 -0.7937  0.1535
 4500SOL    HW124962   0.476   4.538   6.303 -1.1749 -0.8587  0.3961
 4500SOL    HW224963   0.465   4.534   6.450  3.3933  1.4311  0.5364
 4501SOL     OW24964   1.286   3.147   8.164 -0.2426 -0.4551 -0.2084
 4501SOL    HW124965   1.361   3.087   8.175 -0.4697 -0.9897 -1.5583
 4501SOL    HW224966   1.212   3.093   8.135 -2.4282  2.3695  0.2213
 4502SOL     OW24967   4.179   1.574   4.600 -0.4103  0.0236  0.4483
 4502SOL    HW124968   4.125   1.595   4.676 -0.6372 -0.2088  0.3494
 4502SOL    HW224969   4.140   1.625   4.529  1.3138 -0.3583 -0.7698
 4503SOL     OW24970   3.738   0.108  14.809  0.2835  0.2276  0.2481
 4503SOL    HW124971   3.646   0.102  14.783  0.7280 -1.1530 -1.0168
 4503SOL    HW224972   3.776   0.163  14.739 -1.2598 -0.1959 -0.9080
 4504SOL     OW24973   2.705   3.241   7.142  0.6407  0.4052  0.5472
 4504SOL    HW124974   2.697   3.149   7.169 -1.8911  0.8588  1.3500
 4504SOL    HW224975   2.652   3.290   7.204 -2.0197 -2.6177  0.6855
 4505SOL     OW24976   2.734   4.262   0.706  0.6091  0.1167  0.8551
 4505SOL    HW124977   2.724   4.244   0.799  0.1302 -0.0497  0.7675
 4505SOL    HW224978   2.662   4.320   0.682  3.1051  2.2677 -1.4229
 4506SOL     OW24979   3.538   3.649   5.843  0.3455  0.0424  0.4782
 4506SOL    HW124980   3.474   3.578   5.847  1.7699 -1.1428  2.1290
 4506SOL    HW224981   3.596   3.622   5.915 -1.0519 -2.8973  0.4878
 4507SOL     OW24982   0.558   1.817  16.213  0.0209 -0.0734 -0.1290
 4507SOL    HW124983   0.625   1.750  16.202 -0.7191 -0.8559  0.0706
 4507SOL    HW224984   0.526   1.821  16.123 -0.9054  1.2334  0.2469
 4508SOL     OW24985   4.698   0.957   7.274 -0.4989  0.0145 -0.2039
 4508SOL    HW124986   0.034   1.011   7.324 -0.0556 -1.8841  1.2864
 4508SOL    HW224987   4.723   0.980   7.184  1.3989  2.8043  1.0341
 4509SOL     OW24988   3.669   4.278   7.365  0.0983 -0.2717  0.3315
 4509SOL    HW124989   3.606   4.205   7.361  1.0530 -1.1911  2.0675
 4509SOL    HW224990   3.690   4.275   7.272 -2.3038  0.9647 -0.2299
 4510SOL     OW24991   0.375   2.072  17.441  0.5823  0.2823  0.8083
 4510SOL    HW124992   0.342   2.162  17.447 -1.9340 -0.6122  0.4167
 4510SOL    HW224993   0.298   2.037  17.485  0.2350 -0.4312 -0.3663
 4511SOL     OW24994   3.883   2.654   5.301 -0.0279 -0.2041 -0.2025
 4511SOL    HW124995   3.906   2.734   5.254  0.6069  0.0785  0.5707
 4511SOL    HW224996   3.971   2.635   5.332 -0.1799 -2.1815 -0.9871
 4512SOL     OW24997   1.168   0.985   8.286  0.8362 -0.4443 -0.0394
 4512SOL    HW124998   1.125   1.061   8.247  0.9256 -0.1578  0.4101
 4512SOL    HW224999   1.146   0.919   8.221  0.7241 -1.0914  0.6562
 4513SOL     OW25000   1.970   1.781   6.360  0.5039  0.0747  0.2469
 4513SOL    HW125001   2.004   1.723   6.292  0.2653 -0.6172  0.7200
 4513SOL    HW225002   1.876   1.785   6.340  0.3577 -0.3412  0.8365
 4514SOL     OW25003   2.188   0.593   9.620  0.1220  0.3476  0.0721
 4514SOL    HW125004   2.229   0.509   9.600 -2.3111 -0.1775 -2.5749
 4514SOL    HW225005   2.203   0.654   9.548  2.8024 -0.5964 -0.1676
 4515SOL     OW25006   4.572   2.243   2.427 -0.1520  0.2118 -0.3701
 4515SOL    HW125007   4.499   2.232   2.367 -0.7472 -0.0339  0.4036
 4515SOL    HW225008   4.546   2.191   2.503  2.8620 -0.4514  0.1970
 4516SOL     OW25009   1.089   2.782   5.397 -0.0315 -1.0903  0.1939
 4516SOL    HW125010   0.993   2.779   5.398 -0.1475  3.0463  2.3281
 4516SOL    HW225011   1.104   2.709   5.456 -2.7634 -0.9849  1.0099
 4517SOL     OW25012   0.801   2.226   9.725  0.3825  0.0965  0.2647
 4517SOL    HW125013   0.833   2.136   9.725 -0.6006 -0.2600 -0.0338
 4517SOL    HW225014   0.872   2.269   9.678 -0.5067 -0.6409 -1.7455
 4518SOL     OW25015   2.569   4.539   6.844  0.4385 -0.0583  0.1744
 4518SOL    HW125016   2.599   4.475   6.908 -3.6442  0.0472  2.1655
 4518SOL    HW225017   2.653   4.568   6.807 -0.2179 -1.3459 -2.3675
 4519SOL     OW25018   1.305   4.204   2.200  0.3621 -0.4747 -0.1064
 4519SOL    HW125019   1.393   4.168   2.186 -0.2355 -2.0635  0.3242
 4519SOL    HW225020   1.311   4.224   2.293  2.2647  2.8114 -0.9355
 4520SOL     OW25021   0.745   2.883  10.334  0.5225 -0.2619  0.1860
 4520SOL    HW125022   0.728   2.805  10.283 -2.1673  0.4929 -0.0712
 4520SOL    HW225023   0.744   2.837  10.418  1.3878 -1.3464 -0.3976
 4521SOL     OW25024   0.402   2.141  11.858 -0.0236  0.1029 -0.2441
 4521SOL    HW125025   0.422   2.234  11.854 -1.1161  0.1799 -4.0020
 4521SOL    HW225026   0.481   2.105  11.898 -0.8147 -1.5656 -0.1687
 4522SOL     OW25027   2.917   1.013   8.861 -0.3584 -0.1218 -0.1872
 4522SOL    HW125028   2.950   1.094   8.899 -1.5809 -0.5640  1.8369
 4522SOL    HW225029   2.830   1.037   8.827 -0.4389 -1.4616 -0.9203
 4523SOL     OW25030   4.288   3.237   8.313 -0.3252  0.5534  0.7554
 4523SOL    HW125031   4.301   3.317   8.364  1.1246  0.8117  0.0030
 4523SOL    HW225032   4.222   3.190   8.363 -0.6943 -1.5314 -1.6889
 4524SOL     OW25033   3.144   3.886  14.524  0.3431 -0.1044  0.0603
 4524SOL    HW125034   3.156   3.791  14.531 -0.9596 -0.1326  2.0789
 4524SOL    HW225035   3.233   3.918  14.516  0.2413  0.0173 -0.5720
 4525SOL     OW25036   4.601   0.420   3.741  0.2933  0.7686 -0.1400
 4525SOL    HW125037   4.620   0.385   3.828  0.3307 -0.7744 -0.7794
 4525SOL    HW225038   4.674   0.377   3.697  0.0687  0.5610 -0.3073
 4526SOL     OW25039   3.295   0.210   1.559  0.2452  0.1007  0.0095
 4526SOL    HW125040   3.309   0.186   1.468 -0.1064  2.3957 -0.6676
 4526SOL    HW225041   3.380   0.192   1.599 -0.4643 -1.0784  0.9686
 4527SOL     OW25042   4.698   2.601  12.287 -0.0349  0.7719 -0.8426
 4527SOL    HW125043   4.623   2.602  12.346 -0.7022 -1.5365 -1.6603
 4527SOL    HW225044   4.668   2.529  12.233  0.8241 -0.3098  0.1280
 4528SOL     OW25045   2.728   1.923   2.724 -0.1184  0.9445 -0.1488
 4528SOL    HW125046   2.726   2.014   2.753  0.2828  1.8614 -3.0313
 4528SOL    HW225047   2.734   1.924   2.629  1.4670  0.1436 -0.0714
 4529SOL     OW25048   1.743   4.632  15.755  0.1796  0.5671  0.1769
 4529SOL    HW125049   1.811   4.593  15.700 -0.3927 -0.3969  0.1406
 4529SOL    HW225050   1.687   4.674  15.690 -0.9928 -1.5738 -0.1974
 4530SOL     OW25051   0.883   3.690   7.167  0.4646  0.1757 -0.3753
 4530SOL    HW125052   0.959   3.737   7.201 -0.2488  0.5796  0.6446
 4530SOL    HW225053   0.812   3.753   7.168  0.3118 -0.0443  1.4595
 4531SOL     OW25054   1.179   3.040   5.279  0.3618 -0.4060 -0.1319
 4531SOL    HW125055   1.164   2.967   5.338 -0.6627  0.9183  1.2668
 4531SOL    HW225056   1.249   3.094   5.318  0.3050  2.2098 -3.6177
 4532SOL     OW25057   2.424   3.844   8.643  0.0766  0.3127  0.2302
 4532SOL    HW125058   2.393   3.812   8.558  0.4499  0.0681  0.1878
 4532SOL    HW225059   2.413   3.770   8.702  0.9054  0.7976  0.9952
 4533SOL     OW25060   2.384   0.905   4.750  0.4558  0.2734 -0.2616
 4533SOL    HW125061   2.441   0.828   4.754 -1.6036 -1.3098 -1.2771
 4533SOL    HW225062   2.301   0.856   4.756 -0.3341  1.5288 -0.9367
 4534SOL     OW25063   0.116   0.145   1.310  0.2951  0.1851  0.9640
 4534SOL    HW125064   0.070   0.190   1.381  0.5117 -0.7393  1.6860
 4534SOL    HW225065   0.054   0.078   1.282  1.0563 -0.9161  1.9238
 4535SOL     OW25066   3.348   0.963  11.516  0.2415  0.2343  0.0328
 4535SOL    HW125067   3.304   0.957  11.600  0.1978  0.6361  0.0373
 4535SOL    HW225068   3.440   0.946  11.539  0.7889  1.4137 -1.2410
 4536SOL     OW25069   2.563   3.984  13.235 -0.6363  0.4876  0.2313
 4536SOL    HW125070   2.505   4.054  13.206 -2.4485 -1.3321 -0.5221
 4536SOL    HW225071   2.551   3.917  13.167  1.0989 -0.5173  0.8905
 4537SOL     OW25072   1.804   2.224   2.573  0.0169  0.1552 -0.0507
 4537SOL    HW125073   1.741   2.155   2.589 -0.0410  0.2696  0.2202
 4537SOL    HW225074   1.751   2.302   2.555 -0.2869  0.2516  1.2115
 4538SOL     OW25075   4.450   0.720   7.761  0.6753 -0.1275  0.0253
 4538SOL    HW125076   4.518   0.768   7.715 -0.3036  1.3888  0.1607
 4538SOL    HW225077   4.481   0.634   7.730  1.6039  0.3440 -0.3454
 4539SOL     OW25078   1.980   2.635   3.268 -0.4553  0.0727 -0.6810
 4539SOL    HW125079   1.924   2.653   3.193 -0.2216  2.3284 -0.3191
 4539SOL    HW225080   1.920   2.604   3.336  1.3866 -1.5011  0.2139
 4540SOL     OW25081   3.627   2.928   8.877 -0.1998  0.1125 -0.3718
 4540SOL    HW125082   3.659   2.995   8.816  0.1386  0.1926 -0.1087
 4540SOL    HW225083   3.535   2.917   8.854 -0.1580  0.0920 -0.5225
 4541SOL     OW25084   2.284   4.308  14.514 -0.0737 -0.2025  0.2254
 4541SOL    HW125085   2.374   4.294  14.545 -0.0295  1.0174  0.6632
 4541SOL    HW225086   2.272   4.395  14.552 -0.9667 -0.0861 -0.3232
 4542SOL     OW25087   3.872   4.509   9.729 -0.3055  0.0370  0.2033
 4542SOL    HW125088   3.937   4.440   9.741  1.1892  1.6398  1.3168
 4542SOL    HW225089   3.833   4.512   9.817  1.0959 -0.3812  0.8354
 4543SOL     OW25090   3.625   3.136   5.150  0.4583  0.0712  0.8099
 4543SOL    HW125091   3.556   3.079   5.117  0.8868  0.4282 -0.7003
 4543SOL    HW225092   3.573   3.193   5.207  1.5090  0.0763  1.7597
 4544SOL     OW25093   1.634   1.278   8.569 -0.3703 -0.2297 -0.5185
 4544SOL    HW125094   1.629   1.224   8.490 -2.9277 -0.0418 -0.4665
 4544SOL    HW225095   1.617   1.214   8.638  2.3076 -0.0364  0.3576
 4545SOL     OW25096   2.810   1.561   6.741  0.0685  0.1149  0.4401
 4545SOL    HW125097   2.791   1.492   6.804 -2.5758  2.4913  2.2379
 4545SOL    HW225098   2.880   1.511   6.698  0.1664  1.2539 -0.7171
 4546SOL     OW25099   1.342   2.315   9.883  0.0405  0.2898  0.1041
 4546SOL    HW125100   1.404   2.284   9.816  0.6735 -0.1049  0.8687
 4546SOL    HW225101   1.379   2.261   9.953  1.2947  0.6561 -0.2732
 4547SOL     OW25102   3.753   4.207   9.812 -0.1141 -0.0660  0.2701
 4547SOL    HW125103   3.705   4.138   9.858 -2.7278  1.0734 -0.6994
 4547SOL    HW225104   3.841   4.208   9.850 -0.1365  1.0307  0.3205
 4548SOL     OW25105   4.148   4.034   4.138  0.1730 -0.1173  0.1565
 4548SOL    HW125106   4.122   3.970   4.071  0.5758 -1.1400  0.9716
 4548SOL    HW225107   4.158   4.115   4.088 -0.2169 -0.9418 -1.2423
 4549SOL     OW25108   0.932   0.312   1.157 -0.3996  0.1873 -0.4013
 4549SOL    HW125109   0.856   0.317   1.215  1.8506  2.0494  2.4137
 4549SOL    HW225110   0.900   0.248   1.094  0.7669 -0.9185  0.1281
 4550SOL     OW25111   3.870   2.250   6.324 -0.4147 -0.0627 -0.4805
 4550SOL    HW125112   3.795   2.299   6.290  0.5909  0.5609 -1.8338
 4550SOL    HW225113   3.872   2.168   6.274  0.5005  1.1479 -2.4665
 4551SOL     OW25114   2.622   1.775   6.656 -0.7117  0.2220 -0.1370
 4551SOL    HW125115   2.592   1.788   6.746  1.6580 -0.5837  0.7826
 4551SOL    HW225116   2.693   1.713   6.673 -1.9882 -0.9251  1.0024
 4552SOL     OW25117   3.921   4.142  13.766 -0.7140 -0.1385  0.2800
 4552SOL    HW125118   3.891   4.113  13.680 -2.8534 -0.4968  1.1276
 4552SOL    HW225119   3.836   4.168  13.803 -1.2854 -1.9810  0.2901
 4553SOL     OW25120   0.968   4.558  13.021  0.6607  0.6902  0.3759
 4553SOL    HW125121   1.060   4.576  13.040  0.3776  0.1477  2.2917
 4553SOL    HW225122   0.983   4.466  13.002  1.7571  1.5761 -3.1247
 4554SOL     OW25123   4.485   3.106   6.277 -0.3250 -0.0562  0.3069
 4554SOL    HW125124   4.531   3.133   6.197 -0.7934 -0.9818 -0.2744
 4554SOL    HW225125   4.523   3.020   6.294 -0.1651 -0.4195 -1.8445
 4555SOL     OW25126   0.403   4.288   5.895 -0.0900  0.1794  0.2755
 4555SOL    HW125127   0.459   4.212   5.880 -0.2630  0.1359 -0.1481
 4555SOL    HW225128   0.335   4.278   5.829  0.5314  0.2574 -0.3740
 4556SOL     OW25129   2.081   1.949   7.806  0.8228 -0.0204  0.1538
 4556SOL    HW125130   2.105   2.033   7.766 -1.0649  0.0275 -0.9041
 4556SOL    HW225131   2.102   1.887   7.736  0.5772 -1.2277  1.1635
 4557SOL     OW25132   2.303   0.152   7.229 -0.1661  0.0770 -0.5088
 4557SOL    HW125133   2.262   0.175   7.312  0.2787  1.0481 -0.5621
 4557SOL    HW225134   2.349   0.073   7.257  1.5193  0.5339 -2.0212
 4558SOL     OW25135   1.121   3.258   9.067  0.0765  0.1702 -0.0294
 4558SOL    HW125136   1.203   3.278   9.112  0.2383  3.9594 -2.0480
 4558SOL    HW225137   1.146   3.290   8.980  1.6774 -0.2341  0.2784
 4559SOL     OW25138   2.874   4.114   5.812 -0.3971 -0.2503 -0.7424
 4559SOL    HW125139   2.958   4.147   5.842 -0.8134  0.6349 -0.5569
 4559SOL    HW225140   2.834   4.085   5.894  0.3791 -1.9905 -0.9713
 4560SOL     OW25141   2.387   1.716   7.911 -0.5373 -0.0786 -0.0319
 4560SOL    HW125142   2.372   1.624   7.888  0.3494 -0.0049 -0.8947
 4560SOL    HW225143   2.418   1.739   7.824 -0.4216 -0.0608  0.0152
 4561SOL     OW25144   0.376   0.507  16.777  0.5740  0.4450 -0.0948
 4561SOL    HW125145   0.427   0.524  16.856 -0.0766 -0.3432  0.4980
 4561SOL    HW225146   0.292   0.550  16.792 -0.4306 -1.9400  1.2218
 4562SOL     OW25147   0.346   3.524  13.569 -0.1194  0.2520  0.1898
 4562SOL    HW125148   0.420   3.584  13.578 -2.0921  2.6106  0.8005
 4562SOL    HW225149   0.274   3.584  13.551 -1.3662 -0.8344  1.5464
 4563SOL     OW25150   4.232   4.571   7.133 -0.1723  0.2851 -0.3078
 4563SOL    HW125151   4.317   4.527   7.131 -0.1247  0.2766  1.8300
 4563SOL    HW225152   4.249   4.645   7.192 -0.1447  0.6171 -0.7320
 4564SOL     OW25153   1.986   1.094   8.948  0.6837  0.2158  0.1837
 4564SOL    HW125154   1.909   1.134   8.988 -1.0050 -0.8972 -1.9336
 4564SOL    HW225155   2.058   1.129   9.000  1.3290  0.3142 -0.7708
 4565SOL     OW25156   2.996   2.747   2.643 -0.4546  0.0304 -0.7416
 4565SOL    HW125157   2.934   2.678   2.666 -0.3688  0.5401  1.0284
 4565SOL    HW225158   2.925   2.811   2.634 -0.5527 -0.0841 -0.7932
 4566SOL     OW25159   1.933   2.681  13.529 -0.3538  0.2222 -0.3419
 4566SOL    HW125160   2.013   2.637  13.558 -0.3393  0.4892  0.0166
 4566SOL    HW225161   1.948   2.774  13.540  0.7576  0.2281 -1.8794
 4567SOL     OW25162   1.180   4.143   7.028  0.2890  0.3569  0.2467
 4567SOL    HW125163   1.190   4.064   6.975  3.3753  0.8412  0.1121
 4567SOL    HW225164   1.085   4.154   7.024  0.2196 -0.7948 -1.1574
 4568SOL     OW25165   0.017   0.378   2.613  0.2925  0.1194  0.1093
 4568SOL    HW125166   4.678   0.367   2.543  0.8314  1.9616 -0.6830
 4568SOL    HW225167   0.047   0.468   2.598  0.0121  0.0449 -0.8687
 4569SOL     OW25168   2.914   1.731   4.000  0.3559 -0.4334 -0.3741
 4569SOL    HW125169   2.859   1.653   3.999 -0.2673 -0.0382  2.3092
 4569SOL    HW225170   2.879   1.769   3.919 -1.7285 -0.0557  0.6937
 4570SOL     OW25171   3.786   3.988  17.696  0.0112  0.1435  0.3936
 4570SOL    HW125172   3.795   3.923   0.063  0.5622 -0.9394 -0.7004
 4570SOL    HW225173   3.722   4.046   0.037 -0.2544 -1.1104  1.6638
 4571SOL     OW25174   0.802   2.065   2.878  0.0735 -0.8629  0.4942
 4571SOL    HW125175   0.865   1.996   2.898 -0.4941 -1.8245 -1.0312
 4571SOL    HW225176   0.857   2.116   2.818 -0.3986 -1.4715 -0.4538
 4572SOL     OW25177   0.585   3.039   3.409  0.4016  0.2234  0.4055
 4572SOL    HW125178   0.544   3.118   3.373  1.5369 -0.0609 -1.5088
 4572SOL    HW225179   0.522   3.003   3.471 -0.1311  1.5684  0.6462
 4573SOL     OW25180   0.597   4.635   5.508  0.4725  0.1898 -0.1260
 4573SOL    HW125181   0.514   4.632   5.461 -0.1351 -0.9071  1.0068
 4573SOL    HW225182   0.658   4.595   5.446  0.3856 -1.1517  0.6611
 4574SOL     OW25183   3.309   4.582   1.427  0.1464  0.2606  0.2669
 4574SOL    HW125184   3.338   4.664   1.465  2.3502  0.6120 -2.1435
 4574SOL    HW225185   3.289   4.604   1.336 -0.5734  0.0070  0.3657
 4575SOL     OW25186   1.079   3.469  11.751  0.3186 -0.0800  0.3481
 4575SOL    HW125187   1.164   3.430  11.734  0.1619  0.8979 -2.5597
 4575SOL    HW225188   1.019   3.397  11.734  1.7227 -0.7599 -1.6626
 4576SOL     OW25189   3.368   2.400   5.515 -0.3971  0.8302  0.0036
 4576SOL    HW125190   3.333   2.474   5.565 -0.9583  0.8906 -0.4757
 4576SOL    HW225191   3.388   2.455   5.439 -1.5035 -0.0300 -0.9123
 4577SOL     OW25192   0.808   1.292  12.785 -0.2926 -0.0185 -0.1580
 4577SOL    HW125193   0.757   1.313  12.863 -0.8168  0.6955 -0.6903
 4577SOL    HW225194   0.880   1.254  12.834  0.6512 -0.3661 -1.8123
 4578SOL     OW25195   3.507   1.319   0.915 -0.0097 -0.7181 -0.3146
 4578SOL    HW125196   3.501   1.271   0.832  0.5762  0.9038 -1.2895
 4578SOL    HW225197   3.600   1.306   0.934 -0.0230  0.1903  0.3594
 4579SOL     OW25198   2.553   2.706   0.478 -0.0451  0.0237  0.3753
 4579SOL    HW125199   2.467   2.741   0.456  0.5345  0.3348 -1.3943
 4579SOL    HW225200   2.581   2.672   0.394 -3.0237 -0.4993 -0.3823
 4580SOL     OW25201   4.081   3.521   7.876 -0.2081  0.8128  0.0602
 4580SOL    HW125202   4.158   3.486   7.921 -0.3178  0.5938  0.0776
 4580SOL    HW225203   4.120   3.531   7.790 -1.4209  0.9073 -0.4752
 4581SOL     OW25204   4.191   3.018   5.340  0.4735  0.1277 -0.2521
 4581SOL    HW125205   4.177   3.108   5.310 -3.4972 -0.0841  0.8567
 4581SOL    HW225206   4.133   3.005   5.415 -0.4726 -0.0690 -1.0183
 4582SOL     OW25207   0.573   1.057   3.049  0.2936 -0.5779 -0.1756
 4582SOL    HW125208   0.531   1.050   3.134  0.4501 -2.5444 -0.2586
 4582SOL    HW225209   0.496   1.049   2.993  0.2144 -1.1527  0.0103
 4583SOL     OW25210   4.570   1.558   3.150  0.0226 -0.3439  0.0495
 4583SOL    HW125211   4.634   1.629   3.144  0.0343 -0.3905 -0.3692
 4583SOL    HW225212   4.486   1.603   3.156  0.2807  0.1047  0.3135
 4584SOL     OW25213   4.707   3.074   6.860 -0.0226 -0.2867 -0.0531
 4584SOL    HW125214   4.660   2.994   6.884 -0.9586  0.3288  0.1493
 4584SOL    HW225215   4.635   3.136   6.848  0.8042  0.8504  0.8382
 4585SOL     OW25216   4.490   0.735   2.973 -0.0255 -0.2266 -0.4650
 4585SOL    HW125217   4.425   0.752   3.041 -2.5209  0.4489 -3.0176
 4585SOL    HW225218   4.434   0.713   2.899  0.9491  0.6790 -1.4543
 4586SOL     OW25219   1.107   4.164  11.978 -0.0747  0.0687 -0.2736
 4586SOL    HW125220   1.038   4.193  11.918 -2.0503  1.9572  2.9406
 4586SOL    HW225221   1.136   4.093  11.920  0.3458  1.5816 -1.9076
 4587SOL     OW25222   0.998   1.051  12.816  0.2679 -0.2662 -0.1333
 4587SOL    HW125223   1.093   1.052  12.821  0.3501  0.1354 -1.6772
 4587SOL    HW225224   0.964   1.073  12.903 -1.1858 -3.1610  0.0270
 4588SOL     OW25225   0.504   2.125   1.385  0.5129  1.1894  0.0317
 4588SOL    HW125226   0.410   2.129   1.402  0.4105  0.5516 -0.3923
 4588SOL    HW225227   0.529   2.033   1.375 -1.5016  0.9808 -3.1133
 4589SOL     OW25228   2.927   0.612   4.672  0.1715 -0.2192 -0.0759
 4589SOL    HW125229   2.975   0.532   4.693 -4.2155 -3.0436 -0.8314
 4589SOL    HW225230   3.001   0.672   4.667  0.1141 -0.3471 -2.3213
 4590SOL     OW25231   4.216   2.537  11.579 -0.2082  0.0409 -0.2064
 4590SOL    HW125232   4.272   2.519  11.503  0.4358  1.0759  0.0148
 4590SOL    HW225233   4.281   2.564  11.644  1.3307 -2.1436 -0.8383
 4591SOL     OW25234   0.679   3.717   5.818  0.4923 -0.0209  0.1136
 4591SOL    HW125235   0.610   3.769   5.859  0.4665  0.1172 -0.1077
 4591SOL    HW225236   0.754   3.773   5.838  0.2466  0.2712  0.2183
 4592SOL     OW25237   0.457   3.339  15.400  0.3982 -0.6334 -0.4335
 4592SOL    HW125238   0.361   3.340  15.399  0.3841  0.8532  1.4644
 4592SOL    HW225239   0.470   3.403  15.330  2.9520 -1.0826 -0.3657
 4593SOL     OW25240   1.502   4.021  14.489  0.4883  0.3422  0.2259
 4593SOL    HW125241   1.564   4.094  14.494  1.3036 -0.3914  0.7642
 4593SOL    HW225242   1.489   3.995  14.580  0.7761  0.3559  0.2712
 4594SOL     OW25243   2.136   1.292   9.541 -0.3775  0.5474 -0.1196
 4594SOL    HW125244   2.068   1.232   9.573 -1.9881  2.2128 -0.4193
 4594SOL    HW225245   2.212   1.255   9.585  0.4268  0.5925 -1.4848
 4595SOL     OW25246   3.203   4.002  14.030  0.0015  0.2192 -0.0095
 4595SOL    HW125247   3.199   3.925  13.973 -1.6482 -0.0466  0.4889
 4595SOL    HW225248   3.110   4.010  14.049  0.6197 -1.3134  3.5149
 4596SOL     OW25249   1.187   4.619   5.750 -0.1569 -0.5147  0.0311
 4596SOL    HW125250   1.108   4.667   5.774 -0.3366 -0.1177 -1.3591
 4596SOL    HW225251   1.143   4.564   5.685 -1.8141  1.1310 -0.2129
 4597SOL     OW25252   1.901   4.682   8.634 -0.3752 -0.0340  0.1202
 4597SOL    HW125253   1.863   4.629   8.704 -0.3825  0.5604  0.5576
 4597SOL    HW225254   1.993   4.667   8.652 -0.5584 -0.3981  0.7718
 4598SOL     OW25255   0.639   2.336   2.884 -0.5731 -0.3125  0.4147
 4598SOL    HW125256   0.642   2.380   2.969  0.8231  2.7443 -1.2397
 4598SOL    HW225257   0.676   2.251   2.909  1.5165  1.2678  2.7173
 4599SOL     OW25258   4.403   2.318   5.016 -0.2165 -0.0560 -0.4867
 4599SOL    HW125259   4.482   2.348   5.060 -0.8985  1.7488 -0.5198
 4599SOL    HW225260   4.439   2.274   4.939  1.2028  0.6024 -0.1877
 4600SOL     OW25261   0.763   0.863   8.436 -0.0669 -0.0463 -0.1026
 4600SOL    HW125262   0.688   0.877   8.493  0.1831 -1.0421  0.4667
 4600SOL    HW225263   0.808   0.944   8.461  0.6277  0.2471 -2.2640
 4601SOL     OW25264   2.195   1.194   5.471  0.6800  0.7493  0.6704
 4601SOL    HW125265   2.105   1.207   5.443 -0.0899 -0.1135  2.7651
 4601SOL    HW225266   2.180   1.193   5.565 -1.5658  1.0434  0.3172
 4602SOL     OW25267   2.616   1.645   8.622  0.1038 -0.3233  0.2471
 4602SOL    HW125268   2.678   1.574   8.602  1.6956  1.3156 -0.6763
 4602SOL    HW225269   2.609   1.634   8.717 -0.2292 -0.4496  0.2090
 4603SOL     OW25270   3.506   1.339  15.611  0.1297  0.1962 -0.3182
 4603SOL    HW125271   3.477   1.249  15.593  0.8491  0.0177 -0.5531
 4603SOL    HW225272   3.559   1.334  15.691 -2.7779  3.0441  1.7887
 4604SOL     OW25273   4.396   0.019   3.341  0.0140 -0.3990  0.3240
 4604SOL    HW125274   4.384   0.113   3.353 -1.2720 -0.6543  1.0088
 4604SOL    HW225275   4.313   4.714   3.302 -0.5666  0.6338  0.7452
 4605SOL     OW25276   2.018   1.377   4.411  0.1248  0.0688  0.5289
 4605SOL    HW125277   1.997   1.470   4.419 -1.0469  0.0554 -2.2293
 4605SOL    HW225278   2.084   1.368   4.479 -1.2855 -3.9964  1.3855
 4606SOL     OW25279   4.612   2.841   6.342 -0.2772 -0.2952 -0.5930
 4606SOL    HW125280   4.652   2.836   6.429 -1.0491  1.1876 -0.1654
 4606SOL    HW225281   4.585   2.750   6.330 -2.3431 -0.0212  2.0347
 4607SOL     OW25282   1.393   2.237   8.425 -0.1419 -0.1638  0.0390
 4607SOL    HW125283   1.371   2.217   8.516  1.3930  2.2410  0.9343
 4607SOL    HW225284   1.488   2.226   8.422 -0.2445 -1.1011  0.2394
 4608SOL     OW25285   0.514   4.387   2.058  0.2681 -0.7290  0.1337
 4608SOL    HW125286   0.455   4.312   2.067 -1.6093  0.5836 -1.0580
 4608SOL    HW225287   0.463   4.441   2.119 -0.0308 -1.2081  0.3072
 4609SOL     OW25288   1.980   1.457   8.287 -0.0404 -0.5039  0.2534
 4609SOL    HW125289   1.942   1.421   8.207  0.0137 -0.3367  0.1522
 4609SOL    HW225290   2.072   1.450   8.261  0.2245  1.8055  0.5665
 4610SOL     OW25291   2.424   1.729   7.629 -0.0133 -0.1954  0.3564
 4610SOL    HW125292   2.420   1.647   7.580  0.6951 -0.3370  0.5349
 4610SOL    HW225293   2.388   1.794   7.569  0.0626  0.2012  0.7445
 4611SOL     OW25294   0.375   2.547  12.843  0.4050  0.3881 -0.5292
 4611SOL    HW125295   0.410   2.631  12.875 -0.6701  0.7996 -0.4253
 4611SOL    HW225296   0.316   2.533  12.918 -1.3554  2.1329 -1.5688
 4612SOL     OW25297   1.724   2.659   2.852  0.5198 -0.3507 -0.3938
 4612SOL    HW125298   1.706   2.744   2.813  1.9233 -0.3116 -0.9784
 4612SOL    HW225299   1.819   2.649   2.838  0.8062  0.6741  0.8061
 4613SOL     OW25300   2.934   4.026  14.043  0.5290  0.3051 -0.2313
 4613SOL    HW125301   2.891   4.056  14.123  1.0868 -2.0038  0.9216
 4613SOL    HW225302   2.860   4.011  13.984  0.3154  1.1719 -0.1896
 4614SOL     OW25303   0.839   3.343  12.036 -0.4845  0.1205 -0.1682
 4614SOL    HW125304   0.882   3.270  11.992  0.6844 -0.0390  1.2147
 4614SOL    HW225305   0.909   3.405  12.055  1.0187 -1.3852 -0.7392
 4615SOL     OW25306   0.424   0.730   7.357  0.2013 -0.1793  0.4026
 4615SOL    HW125307   0.330   0.740   7.348  0.3719 -0.0116 -1.2923
 4615SOL    HW225308   0.422   0.653   7.414 -4.4966  0.2512  0.8007
 4616SOL     OW25309   3.470   3.090   0.834  0.2305 -0.0125  0.1791
 4616SOL    HW125310   3.377   3.114   0.837  0.1008 -0.0540 -3.1993
 4616SOL    HW225311   3.491   3.087   0.741 -0.7308 -1.1551  0.0003
 4617SOL     OW25312   0.446   2.514   4.308 -0.1314 -0.5188  0.4013
 4617SOL    HW125313   0.517   2.450   4.297 -0.1001 -0.8153  2.2642
 4617SOL    HW225314   0.468   2.560   4.389 -0.3350  1.0736 -0.4414
 4618SOL     OW25315   2.973   3.689   5.627 -0.5560 -0.1857 -0.0626
 4618SOL    HW125316   2.889   3.712   5.585 -0.3810  0.1343 -0.2357
 4618SOL    HW225317   2.945   3.696   5.718  1.3598  0.2419  0.4869
 4619SOL     OW25318   4.716   4.132  10.572 -0.3324  0.6304  0.1409
 4619SOL    HW125319   4.658   4.079  10.627 -0.7770  0.2994 -0.6486
 4619SOL    HW225320   0.070   4.079  10.567 -1.0359 -0.3160 -0.9900
 4620SOL     OW25321   4.511   4.212   6.810  0.4009  0.2862 -0.1087
 4620SOL    HW125322   4.562   4.172   6.740  2.2925 -1.7020  2.4338
 4620SOL    HW225323   4.532   4.164   6.890 -0.3532 -0.8139 -0.5786
 4621SOL     OW25324   0.272   1.335   3.500  0.1825 -0.1467  0.2103
 4621SOL    HW125325   0.299   1.421   3.532  0.6236  0.7097 -2.4604
 4621SOL    HW225326   0.257   1.284   3.579  2.7326  1.9671  2.0490
 4622SOL     OW25327   3.238   1.710   9.723  0.3437  0.1967  0.0250
 4622SOL    HW125328   3.325   1.737   9.753  0.7405  0.0596 -0.9861
 4622SOL    HW225329   3.196   1.671   9.799 -0.3463 -1.1319 -1.0395
 4623SOL     OW25330   0.350   2.947  15.856 -0.3764 -0.1030  0.5038
 4623SOL    HW125331   0.265   2.905  15.864 -0.9165  0.4899 -2.0465
 4623SOL    HW225332   0.380   2.944  15.947  0.2004 -0.4761  0.2970
 4624SOL     OW25333   1.196   1.718   5.873 -0.0977  0.2697 -0.4798
 4624SOL    HW125334   1.185   1.706   5.778  3.4636 -0.2961 -0.7934
 4624SOL    HW225335   1.291   1.709   5.874 -0.0718  0.4061 -1.7396
 4625SOL     OW25336   1.713   1.479  13.571 -0.0079  0.3309 -0.6130
 4625SOL    HW125337   1.742   1.570  13.568  0.3208  0.2667  0.5262
 4625SOL    HW225338   1.713   1.463  13.477 -1.4035  0.1295 -0.5817
 4626SOL     OW25339   2.595   4.225  14.147 -0.1845 -0.8656 -0.0208
 4626SOL    HW125340   2.499   4.232  14.146 -0.0704  0.5506  0.1918
 4626SOL    HW225341   2.616   4.252  14.057  0.4125  0.5164  0.5444
 4627SOL     OW25342   0.030   0.088   2.993 -0.7478 -0.3866  0.2904
 4627SOL    HW125343   0.082   0.099   3.073  2.1110 -3.0063 -1.2064
 4627SOL    HW225344   4.686   0.036   3.033 -1.3328 -0.0476 -0.2734
 4628SOL     OW25345   0.448   0.746   2.337  0.7901  0.0904 -0.3236
 4628SOL    HW125346   0.423   0.809   2.405  0.3336 -1.5073  0.9982
 4628SOL    HW225347   0.502   0.684   2.387  0.5089  0.0383 -0.0834
 4629SOL     OW25348   0.514   0.836  17.420 -0.0680  0.2063  0.4869
 4629SOL    HW125349   0.578   0.838  17.491  0.9539  0.8269 -0.4490
 4629SOL    HW225350   0.481   0.926  17.429  0.0811  0.3995 -0.8999
 4630SOL     OW25351   3.047   2.848  12.349 -0.0333 -0.5271  0.0542
 4630SOL    HW125352   3.101   2.805  12.282  0.1197 -0.0694 -0.1183
 4630SOL    HW225353   3.102   2.859  12.426 -1.5410 -0.4894  1.1153
 4631SOL     OW25354   1.251   0.630   2.638  0.0126 -0.2365  0.1365
 4631SOL    HW125355   1.189   0.647   2.568  0.4220 -1.5411 -0.5380
 4631SOL    HW225356   1.266   0.718   2.671  2.1623  0.1366 -1.8263
 4632SOL     OW25357   0.751   1.627   7.887  0.2007  0.1489 -0.0453
 4632SOL    HW125358   0.796   1.711   7.881  1.5770 -0.6564 -1.0054
 4632SOL    HW225359   0.659   1.651   7.872  0.6614  1.8394 -0.2031
 4633SOL     OW25360   3.395   3.111   6.050 -0.1968 -0.0584  0.0327
 4633SOL    HW125361   3.414   3.062   5.970  1.3197  0.9380 -0.2162
 4633SOL    HW225362   3.405   3.037   6.109  0.6107  0.9066  1.1013
 4634SOL     OW25363   2.099   4.247   7.210 -0.3757  0.2433 -0.4129
 4634SOL    HW125364   2.132   4.223   7.123 -1.5733 -1.0562 -0.5113
 4634SOL    HW225365   2.109   4.165   7.258  2.1437  0.1942 -1.0489
 4635SOL     OW25366   4.636   4.069  10.330  0.3221 -0.1151 -0.1020
 4635SOL    HW125367   4.669   4.076  10.420  0.8435 -0.4968 -0.2617
 4635SOL    HW225368   4.706   4.116  10.285  1.8398  1.0466  3.4508
 4636SOL     OW25369   1.665   2.186   8.422 -0.2604 -0.5778  0.0571
 4636SOL    HW125370   1.721   2.207   8.498 -0.9318  0.9663  0.1211
 4636SOL    HW225371   1.722   2.144   8.358  0.2531  1.0250 -0.5204
 4637SOL     OW25372   3.235   1.555   3.592 -0.2161 -0.5736  0.4767
 4637SOL    HW125373   3.253   1.506   3.672  2.2821  2.1178  1.5644
 4637SOL    HW225374   3.221   1.645   3.623 -2.0266 -0.3973 -0.8711
 4638SOL     OW25375   3.039   3.024  11.104 -0.4722  0.5290  0.1345
 4638SOL    HW125376   3.035   2.931  11.125 -1.4257  0.6974  0.6745
 4638SOL    HW225377   3.128   3.054  11.122 -0.4349  0.1866  0.5212
 4639SOL     OW25378   1.261   2.350   1.038 -0.5290 -0.2225  0.4132
 4639SOL    HW125379   1.196   2.418   1.022  0.2827  0.7783  1.3386
 4639SOL    HW225380   1.312   2.361   0.958 -0.5820 -2.5833  0.0661
 4640SOL     OW25381   4.079   3.888  10.048 -0.0971 -0.1128 -0.4415
 4640SOL    HW125382   4.124   3.952   9.993  0.6766  0.9120  1.3994
 4640SOL    HW225383   4.148   3.881  10.114 -1.8079 -0.0036  1.3961
 4641SOL     OW25384   3.572   0.147   9.934  0.0475  0.2269  0.4447
 4641SOL    HW125385   3.617   0.183   9.857 -1.8604  0.3168 -0.6306
 4641SOL    HW225386   3.516   0.075   9.904 -0.8357  0.8355  0.6265
 4642SOL     OW25387   3.848   2.215   3.194 -0.2632 -0.5559 -0.3320
 4642SOL    HW125388   3.840   2.280   3.125 -0.9645 -0.2937 -0.0010
 4642SOL    HW225389   3.931   2.173   3.171 -0.0713  0.1844 -0.9721
 4643SOL     OW25390   2.633   0.457   6.253  0.0500  0.0994  0.3882
 4643SOL    HW125391   2.637   0.364   6.272 -2.4849  0.1141  0.9092
 4643SOL    HW225392   2.563   0.457   6.188 -0.4888 -0.5386  0.9840
 4644SOL     OW25393   1.381   0.519  15.816  0.2546 -0.1030  0.2825
 4644SOL    HW125394   1.443   0.458  15.857 -0.4201 -0.0589  1.3682
 4644SOL    HW225395   1.434   0.570  15.754 -0.0177  0.2956  0.3819
 4645SOL     OW25396   2.590   2.728   7.411  0.0739  0.4503  0.4471
 4645SOL    HW125397   2.686   2.736   7.412  0.0129  1.8419 -2.7213
 4645SOL    HW225398   2.572   2.710   7.319 -0.3913  0.4357  0.5411
 4646SOL     OW25399   1.598   0.149   6.897 -0.7434 -0.1715 -0.0487
 4646SOL    HW125400   1.594   0.056   6.874  0.2158  0.0518 -1.1429
 4646SOL    HW225401   1.643   0.143   6.981 -0.7555 -0.0965 -0.0372
 4647SOL     OW25402   2.299   0.652   4.557  0.0881 -0.5823  0.3846
 4647SOL    HW125403   2.336   0.581   4.610  0.6830  0.0853  0.8625
 4647SOL    HW225404   2.224   0.617   4.510 -2.0499  0.2202  3.1557
 4648SOL     OW25405   2.073   0.999  12.539 -0.3344  0.0547  0.0055
 4648SOL    HW125406   2.016   1.075  12.545 -0.2615  0.2120 -1.3593
 4648SOL    HW225407   2.133   1.006  12.614 -0.5706  0.6276  0.1363
 4649SOL     OW25408   4.661   1.682   0.477  0.2008  0.4197 -0.1605
 4649SOL    HW125409   0.013   1.725   0.441  2.1333 -0.5061  2.8394
 4649SOL    HW225410   4.591   1.744   0.455 -0.4770 -0.8921 -1.6788
 4650SOL     OW25411   3.596   3.518  12.588 -0.1399  0.2774  0.4367
 4650SOL    HW125412   3.575   3.530  12.496  0.8868 -2.0716 -0.1000
 4650SOL    HW225413   3.642   3.602  12.594 -1.7568  1.1890 -0.0365
 4651SOL     OW25414   3.800   1.418  11.906 -0.7868 -0.0710  0.2265
 4651SOL    HW125415   3.782   1.413  12.000 -0.6999 -0.5035  0.2205
 4651SOL    HW225416   3.891   1.438  11.924  0.4863 -1.9912 -3.9214
 4652SOL     OW25417   1.370   1.029   5.837  0.4542 -0.2394 -0.0890
 4652SOL    HW125418   1.280   1.056   5.822  1.3144  2.4463 -0.3875
 4652SOL    HW225419   1.405   0.990   5.757 -0.5771  0.5361 -0.9096
 4653SOL     OW25420   4.235   1.942   3.033 -0.1495 -0.1517 -0.5804
 4653SOL    HW125421   4.211   1.952   3.125 -2.9617 -1.8645 -1.1033
 4653SOL    HW225422   4.150   1.961   2.993 -0.6610 -0.1860  0.4901
 4654SOL     OW25423   0.619   3.817   2.619  0.9108 -0.0220 -0.8485
 4654SOL    HW125424   0.622   3.885   2.685  0.7533 -0.8660  0.0294
 4654SOL    HW225425   0.589   3.751   2.682  0.8815 -0.0728 -0.9140
 4655SOL     OW25426   0.050   3.742   2.776 -0.4375  0.1654  0.7248
 4655SOL    HW125427   0.103   3.685   2.720  0.5632  2.1274 -0.3242
 4655SOL    HW225428   4.700   3.685   2.789  0.2817 -1.2314 -1.1362
 4656SOL     OW25429   4.068   2.314   9.184  0.3407 -0.1737 -0.2403
 4656SOL    HW125430   4.081   2.376   9.256 -0.1611 -0.5803  0.2017
 4656SOL    HW225431   4.108   2.238   9.225  0.4272 -0.4924 -0.9109
 4657SOL     OW25432   0.561   1.872   9.624  0.8355 -0.4382  0.4867
 4657SOL    HW125433   0.615   1.856   9.546  1.7470 -0.6479  1.1608
 4657SOL    HW225434   0.598   1.819   9.695 -0.4337 -0.5931  1.0214
 4658SOL     OW25435   4.540   1.860   8.907 -0.4139 -0.2163 -0.6317
 4658SOL    HW125436   4.449   1.860   8.876  0.4042  1.0422 -3.1000
 4658SOL    HW225437   4.569   1.951   8.897 -0.1750 -0.2311 -0.0764
 4659SOL     OW25438   4.362   2.547   8.681  0.0495 -0.0345 -0.2779
 4659SOL    HW125439   4.313   2.616   8.727  1.8431  0.9880  0.0862
 4659SOL    HW225440   4.431   2.602   8.644 -0.0669 -0.1258 -0.6286
 4660SOL     OW25441   2.536   4.023   6.133 -0.0357  0.2333  0.2988
 4660SOL    HW125442   2.456   4.065   6.166  1.6599  2.7278  1.2779
 4660SOL    HW225443   2.526   3.944   6.185 -2.3468 -0.3200 -1.0102
 4661SOL     OW25444   2.157   4.408   3.242 -0.5606 -0.3080 -0.1126
 4661SOL    HW125445   2.193   4.346   3.178  1.0677  1.2314 -0.6596
 4661SOL    HW225446   2.234   4.431   3.294 -0.9903  2.6444 -0.8123
 4662SOL     OW25447   1.818   2.610   4.150  0.2127  0.7086 -0.2191
 4662SOL    HW125448   1.771   2.545   4.098 -0.2317  1.6102 -0.9495
 4662SOL    HW225449   1.851   2.547   4.214  1.1589  1.2600 -0.1750
 4663SOL     OW25450   1.897   0.499   2.889 -0.2031 -1.1234 -0.2802
 4663SOL    HW125451   1.824   0.510   2.828  0.5243  0.8373 -0.7922
 4663SOL    HW225452   1.882   0.571   2.951 -0.1978 -1.7408  0.4458
 4664SOL     OW25453   4.307   0.925   8.252  0.0782  0.3976 -0.2518
 4664SOL    HW125454   4.332   0.939   8.161  0.7103 -0.0227 -0.1449
 4664SOL    HW225455   4.355   0.995   8.295  1.5497 -1.7639  1.5925
 4665SOL     OW25456   0.906   4.277   3.952  0.3352 -0.6846  0.4836
 4665SOL    HW125457   0.826   4.230   3.974 -0.6896  1.4234  1.2172
 4665SOL    HW225458   0.903   4.287   3.857  0.7637  2.5307  0.7930
 4666SOL     OW25459   3.607   4.600   3.183 -0.9241  0.2873 -0.1370
 4666SOL    HW125460   3.570   4.583   3.270  0.8646 -0.5573  0.4582
 4666SOL    HW225461   3.543   4.668   3.161  0.8646  1.5612 -1.3734
 4667SOL     OW25462   0.010   0.849   0.881 -0.0473 -0.5383 -0.2979
 4667SOL    HW125463   4.679   0.773   0.866 -1.5531  0.2543  1.3230
 4667SOL    HW225464   0.088   0.800   0.907 -0.5020 -0.4052  1.2866
 4668SOL     OW25465   1.003   2.433   5.189  0.0656  0.4984  0.0495
 4668SOL    HW125466   1.034   2.367   5.252  1.2354  1.3498  0.3833
 4668SOL    HW225467   0.935   2.474   5.243  0.3437  0.9614  0.0509
 4669SOL     OW25468   3.986   4.580  12.983  0.8248 -0.3575 -0.5600
 4669SOL    HW125469   4.063   4.565  13.038  0.5853 -2.3006 -0.7491
 4669SOL    HW225470   3.983   4.505  12.923 -0.3364 -0.7486 -0.0218
 4670SOL     OW25471   2.177   0.702   6.262 -0.2817 -0.3165 -0.1782
 4670SOL    HW125472   2.180   0.613   6.296 -0.1914 -0.4008 -0.4009
 4670SOL    HW225473   2.213   0.685   6.174  0.8702  0.1399  0.2034
 4671SOL     OW25474   1.073   0.998  13.897 -0.7893 -0.0261 -0.1463
 4671SOL    HW125475   1.039   0.942  13.827 -1.2449  0.0860 -0.0179
 4671SOL    HW225476   1.110   1.069  13.845  0.7778 -0.1731  0.7717
 4672SOL     OW25477   3.746   3.356   3.194 -0.3320  0.0529 -0.1939
 4672SOL    HW125478   3.688   3.293   3.151 -0.9200 -0.9918  2.1325
 4672SOL    HW225479   3.762   3.417   3.121 -1.8002  1.8344  0.9721
 4673SOL     OW25480   0.634   3.689   3.653  0.0193  0.0613 -0.2968
 4673SOL    HW125481   0.621   3.705   3.560  0.2246 -1.8366 -0.6354
 4673SOL    HW225482   0.654   3.781   3.671  0.3819 -0.1018  0.1362
 4674SOL     OW25483   1.127   1.923   6.242  0.5303 -0.0692  0.5077
 4674SOL    HW125484   1.076   1.995   6.279 -0.7275  0.9008 -3.1448
 4674SOL    HW225485   1.106   1.845   6.294  1.2439  0.2984  1.3586
 4675SOL     OW25486   4.699   0.249   9.791 -0.4129 -0.5780 -0.0680
 4675SOL    HW125487   0.024   0.283   9.716  1.0135  0.1923  1.2509
 4675SOL    HW225488   4.684   0.157   9.770  1.8998 -1.3583  1.7030
 4676SOL     OW25489   1.012   2.540   3.781  0.2250  0.3912  0.3253
 4676SOL    HW125490   1.019   2.487   3.860  0.5264  0.3684  0.2830
 4676SOL    HW225491   0.980   2.623   3.816 -1.7285 -0.0324 -0.4566
 4677SOL     OW25492   0.891   1.068   8.544  0.0538  0.0384  0.3525
 4677SOL    HW125493   0.959   1.072   8.611  2.0874 -2.3780 -1.5741
 4677SOL    HW225494   0.913   1.146   8.494 -3.0855  0.8821  0.2805
 4678SOL     OW25495   4.544   0.221  15.130 -0.2089 -0.4294 -0.1171
 4678SOL    HW125496   4.512   0.306  15.099 -2.0670 -1.3381 -0.7094
 4678SOL    HW225497   4.581   0.240  15.216 -0.9042 -0.8565  0.2765
 4679SOL     OW25498   4.193   1.460  12.360  0.2445  0.5355  0.0743
 4679SOL    HW125499   4.131   1.433  12.294  1.2931 -1.7452  0.0287
 4679SOL    HW225500   4.275   1.473  12.311 -0.6816 -0.6903 -1.7746
 4680SOL     OW25501   1.203   3.101  16.295 -0.1089  0.4516 -0.0245
 4680SOL    HW125502   1.222   3.185  16.254  0.7247 -0.2961 -1.1940
 4680SOL    HW225503   1.135   3.114  16.362  1.2909 -0.5137  1.5807
 4681SOL     OW25504   3.726   2.323   4.671 -0.0277  0.0523  0.4774
 4681SOL    HW125505   3.737   2.409   4.631 -1.5365 -0.0922 -0.2574
 4681SOL    HW225506   3.638   2.329   4.709 -0.3805  2.3205 -0.7067
 4682SOL     OW25507   1.017   2.290   0.642  0.6210 -0.1461  0.2072
 4682SOL    HW125508   1.092   2.237   0.669  0.4843 -0.9510 -0.9777
 4682SOL    HW225509   1.012   2.260   0.551  2.6298 -0.7454  0.3022
 4683SOL     OW25510   2.640   0.622  13.314 -0.3193  0.5655  0.2519
 4683SOL    HW125511   2.567   0.619  13.376  1.6363 -0.6172  2.4579
 4683SOL    HW225512   2.690   0.548  13.346  1.3511  1.4021 -0.4112
 4684SOL     OW25513   3.489   0.328   7.332 -0.2516 -0.0935  0.6813
 4684SOL    HW125514   3.578   0.300   7.351  0.5526  2.5880  0.8762
 4684SOL    HW225515   3.470   0.260   7.267 -1.1670 -0.3645  1.2300
 4685SOL     OW25516   3.714   2.773  14.762 -0.6578 -0.2079 -0.2257
 4685SOL    HW125517   3.771   2.716  14.710 -2.9335 -2.6341 -0.1002
 4685SOL    HW225518   3.756   2.857  14.746  0.4440 -0.8536 -0.6951
 4686SOL     OW25519   3.035   2.100  13.866  0.0570 -0.0959 -0.1693
 4686SOL    HW125520   2.976   2.026  13.848 -0.1805  0.1028 -0.2079
 4686SOL    HW225521   3.064   2.077  13.955 -0.0684 -0.9095 -0.3427
 4687SOL     OW25522   2.870   4.434   0.987  0.5997 -0.6782  0.2681
 4687SOL    HW125523   2.821   4.353   0.970 -2.6049  2.0377 -3.4518
 4687SOL    HW225524   2.817   4.505   0.953  1.3201  0.9502  2.5661
 4688SOL     OW25525   4.233   2.577   3.276  0.0485 -0.8323 -0.0995
 4688SOL    HW125526   4.265   2.648   3.220 -0.7737 -0.4714 -0.1151
 4688SOL    HW225527   4.158   2.550   3.223 -0.3525 -0.3110  0.1955
 4689SOL     OW25528   3.616   2.407   2.752  0.5630 -0.1341 -0.2814
 4689SOL    HW125529   3.535   2.439   2.792 -0.5048 -2.2443 -0.7973
 4689SOL    HW225530   3.587   2.322   2.718 -1.0503  0.6412 -0.8525
 4690SOL     OW25531   1.991   0.738   7.813 -0.2744 -0.1145 -0.3540
 4690SOL    HW125532   2.000   0.662   7.756 -0.1307  0.5906 -1.2783
 4690SOL    HW225533   2.018   0.693   7.893  0.2617 -0.1009 -0.5307
 4691SOL     OW25534   4.017   1.346   8.725  0.2953 -0.2999  0.0952
 4691SOL    HW125535   4.030   1.253   8.707 -1.4523 -0.5648  0.2047
 4691SOL    HW225536   4.034   1.349   8.820  0.2480  2.4912  0.0139
 4692SOL     OW25537   0.270   0.072   2.349 -0.6346  0.4864  0.3155
 4692SOL    HW125538   0.192   0.037   2.393 -0.3647  0.6698  0.9456
 4692SOL    HW225539   0.255   0.159   2.386 -0.1291  0.9406 -0.5471
 4693SOL     OW25540   2.703   2.382  11.668 -0.2028 -0.5241  0.0019
 4693SOL    HW125541   2.615   2.349  11.651  0.7114 -1.2057 -3.3017
 4693SOL    HW225542   2.702   2.342  11.755  1.3197  1.4439  0.9241
 4694SOL     OW25543   3.423   3.022   6.603 -0.1203 -0.3279  0.2174
 4694SOL    HW125544   3.362   2.973   6.658  1.0126 -0.2721  1.5321
 4694SOL    HW225545   3.515   2.995   6.610  0.0068  0.0989  0.2290
 4695SOL     OW25546   1.237   2.027  17.042 -0.6130 -0.2928  0.4268
 4695SOL    HW125547   1.169   1.988  16.986 -0.3255  1.3421 -1.0701
 4695SOL    HW225548   1.263   1.953  17.096  1.9046 -1.9822 -3.1625
 4696SOL     OW25549   0.704   2.338   2.308 -0.0771 -0.4275 -0.7603
 4696SOL    HW125550   0.702   2.391   2.387  0.2491 -0.4857 -0.7117
 4696SOL    HW225551   0.610   2.324   2.296 -0.1302 -2.2923  2.0163
 4697SOL     OW25552   4.613   3.881   4.213  0.0169  0.5457 -0.0792
 4697SOL    HW125553   4.670   3.819   4.168  2.0298 -0.5693  4.0387
 4697SOL    HW225554   4.597   3.939   4.138 -0.5879  1.1883  0.5518
 4698SOL     OW25555   2.032   2.454   9.229 -0.0868 -0.0437 -0.2937
 4698SOL    HW125556   2.044   2.529   9.171 -0.7086  0.6814  0.5170
 4698SOL    HW225557   1.962   2.418   9.175 -0.3375 -1.9453  1.3026
 4699SOL     OW25558   2.340   4.677   9.111  0.0474 -0.1073 -0.5760
 4699SOL    HW125559   2.423   4.698   9.068  0.9421  1.3282  1.8610
 4699SOL    HW225560   2.379   4.684   9.199 -0.6012 -0.2332 -0.2795
 4700SOL     OW25561   3.714   1.626   4.687 -0.4578  0.1355 -0.1846
 4700SOL    HW125562   3.673   1.639   4.773  0.7058  2.4053  0.0247
 4700SOL    HW225563   3.631   1.640   4.642 -0.5775 -3.2624 -1.0195
 4701SOL     OW25564   4.530   1.633  11.883 -0.7575 -0.1948 -0.1842
 4701SOL    HW125565   4.572   1.697  11.825  2.4574 -0.6719  1.6757
 4701SOL    HW225566   4.473   1.690  11.934  0.6714  1.9831 -1.0317
 4702SOL     OW25567   1.001   1.999   2.072  0.7148  0.1050 -0.1536
 4702SOL    HW125568   0.982   2.056   1.998 -0.0649 -0.0717 -0.0878
 4702SOL    HW225569   0.913   2.003   2.109  1.0980  0.3231  0.7340
 4703SOL     OW25570   1.481   1.496   0.017 -0.2114 -0.2678  0.3034
 4703SOL    HW125571   1.574   1.502  17.696 -0.7271  1.2977 -1.3204
 4703SOL    HW225572   1.471   1.404  17.696  0.3990 -0.6402  1.5219
 4704SOL     OW25573   0.962   4.345   7.106 -0.0321 -0.1377  0.3334
 4704SOL    HW125574   0.989   4.346   7.014  0.1122 -2.0156  0.3645
 4704SOL    HW225575   0.870   4.370   7.098  0.1448  0.9769  1.8425
 4705SOL     OW25576   3.618   0.559   9.113 -0.2234 -0.0874 -0.7057
 4705SOL    HW125577   3.629   0.603   9.029  1.8566 -0.8176 -0.8245
 4705SOL    HW225578   3.554   0.615   9.157  2.4316  1.8732  0.6614
 4706SOL     OW25579   0.541   1.982  15.548  0.0885  0.2882 -0.4562
 4706SOL    HW125580   0.603   1.982  15.476  0.0764  0.9607 -0.4716
 4706SOL    HW225581   0.463   1.939  15.512 -0.4408 -0.2394  1.2755
 4707SOL     OW25582   3.154   2.393   2.311  0.0942  0.1248  0.1485
 4707SOL    HW125583   3.169   2.458   2.380 -0.3490  3.1448 -2.5783
 4707SOL    HW225584   3.114   2.449   2.244  0.4127 -0.1588 -0.2730
 4708SOL     OW25585   1.279   1.687   7.939  0.6749 -0.3019  0.7089
 4708SOL    HW125586   1.254   1.743   7.866 -1.2029  0.9870  2.3296
 4708SOL    HW225587   1.214   1.617   7.935 -0.6496  0.9606  0.4543
 4709SOL     OW25588   4.529   4.217   9.539  0.3813 -0.6314 -0.2445
 4709SOL    HW125589   4.597   4.227   9.471  0.4699  0.5606  0.0221
 4709SOL    HW225590   4.555   4.261   9.620 -2.0316  1.1507 -0.4178
 4710SOL     OW25591   1.847   2.697  14.544 -0.1566 -0.1692 -0.3322
 4710SOL    HW125592   1.824   2.631  14.479 -0.6498 -0.4814  0.1552
 4710SOL    HW225593   1.762   2.700  14.588 -0.2177 -1.4183 -0.3743
 4711SOL     OW25594   2.323   4.222  16.873  0.0853 -0.1214  0.8312
 4711SOL    HW125595   2.324   4.202  16.779  0.6165  5.0946 -0.2749
 4711SOL    HW225596   2.299   4.314  16.865  0.4645 -0.2999 -2.5545
 4712SOL     OW25597   1.697   3.157   2.708  0.0940 -0.6206  0.0377
 4712SOL    HW125598   1.782   3.165   2.665 -0.3465  1.8475 -0.3513
 4712SOL    HW225599   1.689   3.239   2.757  1.5848 -1.7038  2.0758
 4713SOL     OW25600   1.575   4.005   5.309 -0.2466 -0.0089 -0.1267
 4713SOL    HW125601   1.634   3.929   5.310  1.4311  1.3059  3.4583
 4713SOL    HW225602   1.636   4.071   5.344  0.7258 -1.1905  0.4169
 4714SOL     OW25603   0.275   0.401   3.541 -0.7831 -0.0520 -0.6835
 4714SOL    HW125604   0.364   0.389   3.509 -0.9348  2.0296 -1.9033
 4714SOL    HW225605   0.282   0.489   3.578 -0.4444 -0.9124  1.2915
 4715SOL     OW25606   1.133   2.213  13.459  0.6397 -0.6774  0.3190
 4715SOL    HW125607   1.147   2.122  13.483 -1.2239 -1.1557 -0.3621
 4715SOL    HW225608   1.156   2.261  13.538  0.7416  1.6290 -1.0749
 4716SOL     OW25609   3.831   0.716  10.457  0.0857  0.2426 -0.6077
 4716SOL    HW125610   3.843   0.790  10.397 -0.6967 -0.6372 -1.8263
 4716SOL    HW225611   3.879   0.759  10.529 -0.5967  0.5484 -0.3391
 4717SOL     OW25612   1.751   0.193  11.219  0.3434 -0.9174  0.3279
 4717SOL    HW125613   1.702   0.275  11.213 -1.0532 -1.8792 -1.5828
 4717SOL    HW225614   1.727   0.164  11.307 -0.4233 -4.7082 -1.1371
 4718SOL     OW25615   1.056   1.315   7.740  0.2683 -0.3504  0.4542
 4718SOL    HW125616   1.143   1.280   7.758  2.3473  1.6890 -5.4463
 4718SOL    HW225617   1.019   1.236   7.700  0.1052  0.2621 -0.6169
 4719SOL     OW25618   4.489   2.660  10.780  0.1302 -0.1030  0.7871
 4719SOL    HW125619   4.549   2.734  10.787  0.5502 -0.2846 -0.8458
 4719SOL    HW225620   4.403   2.696  10.799 -0.8493 -1.1576 -1.6538
 4720SOL     OW25621   0.247   4.723   4.766 -0.1640  0.6312  0.3669
 4720SOL    HW125622   0.164   4.682   4.789 -0.0540  0.9653  1.3471
 4720SOL    HW225623   0.310   4.658   4.796 -0.8687 -1.4018 -2.5273
 4721SOL     OW25624   1.684   2.163   1.316 -0.2344  0.0266  0.6772
 4721SOL    HW125625   1.730   2.175   1.399 -0.8917 -0.0452  1.0513
 4721SOL    HW225626   1.594   2.146   1.344 -1.3142  0.7752 -2.3554
 4722SOL     OW25627   4.527   4.541   2.077  0.3713  0.6000 -0.1768
 4722SOL    HW125628   4.561   4.470   2.131 -0.3452  0.4387  0.0566
 4722SOL    HW225629   4.449   4.498   2.043  1.1306 -2.2150  1.7346
 4723SOL     OW25630   0.391   3.858   2.497  0.3677 -0.0372  0.2112
 4723SOL    HW125631   0.391   3.938   2.446  1.9554 -0.0597  0.1730
 4723SOL    HW225632   0.473   3.871   2.546  1.1730 -1.2257 -0.8253
 4724SOL     OW25633   2.278   3.783   7.622 -0.7418 -0.0620 -0.3326
 4724SOL    HW125634   2.186   3.762   7.602 -0.6238 -0.3350 -0.5892
 4724SOL    HW225635   2.316   3.697   7.642 -3.2495 -1.1143 -0.0317
 4725SOL     OW25636   1.011   0.640  17.412 -0.1723  0.4624 -0.0499
 4725SOL    HW125637   1.096   0.645  17.369 -0.8960  1.6889 -1.3445
 4725SOL    HW225638   1.026   0.560  17.462 -1.3212  1.0736  1.2659
 4726SOL     OW25639   3.029   0.208   9.272  0.0895  0.3241  0.4552
 4726SOL    HW125640   3.071   0.294   9.265  0.6456  0.0620  0.6097
 4726SOL    HW225641   3.091   0.155   9.322  0.3499  1.4919  1.3778
 4727SOL     OW25642   0.220   3.433  14.006 -0.5342 -1.0172 -0.2300
 4727SOL    HW125643   0.216   3.509  14.063 -3.3867 -0.4556 -1.1912
 4727SOL    HW225644   0.139   3.385  14.022 -0.4283 -0.6898  1.2457
 4728SOL     OW25645   0.930   2.898   5.953  0.0680 -0.0388 -0.2270
 4728SOL    HW125646   0.945   2.863   5.865  0.1595  1.4994 -0.8266
 4728SOL    HW225647   0.976   2.982   5.957 -2.3935  1.2543  0.8824
 4729SOL     OW25648   1.979   1.194   7.350 -0.4572  0.7106  0.3923
 4729SOL    HW125649   2.051   1.138   7.321 -1.8042 -0.2156 -1.1675
 4729SOL    HW225650   2.032   1.273   7.360  2.5236 -1.1811 -0.5002
 4730SOL     OW25651   2.697   2.626   2.537 -0.0623  0.3862  0.0165
 4730SOL    HW125652   2.675   2.562   2.604  0.1318  0.1142 -0.1792
 4730SOL    HW225653   2.643   2.595   2.464  0.1692  0.6448 -0.2683
 4731SOL     OW25654   0.367   4.608   9.150 -0.3373 -0.0534 -0.7398
 4731SOL    HW125655   0.308   4.659   9.206  0.4548 -0.1423  0.1748
 4731SOL    HW225656   0.327   4.534   9.104 -0.8184 -0.5383  0.4439
 4732SOL     OW25657   0.725   3.467   4.030  0.6248  0.4102 -0.9070
 4732SOL    HW125658   0.707   3.517   4.110  2.4986 -0.8617  0.2924
 4732SOL    HW225659   0.655   3.495   3.970 -1.6613 -0.8043  1.1839
 4733SOL     OW25660   3.078   1.418   4.361 -0.3167 -0.0403  0.2723
 4733SOL    HW125661   3.134   1.407   4.283 -2.1502 -1.5237 -0.8451
 4733SOL    HW225662   3.134   1.428   4.437  2.0550  2.2794 -1.7796
 4734SOL     OW25663   1.537   2.733   4.151  0.4065  0.2076  0.6101
 4734SOL    HW125664   1.582   2.659   4.192  2.8805 -0.1000 -2.6810
 4734SOL    HW225665   1.565   2.803   4.209 -0.7320  0.5927  0.6967
 4735SOL     OW25666   3.092   0.116   3.329 -0.0058  0.2075 -0.1947
 4735SOL    HW125667   3.084   0.055   3.402  1.3795  1.8134  1.2968
 4735SOL    HW225668   3.023   0.078   3.275 -1.8645  0.2475  2.1407
 4736SOL     OW25669   4.080   1.263  11.640  0.1582 -0.1795 -0.1463
 4736SOL    HW125670   4.046   1.308  11.717 -2.0608 -0.5644 -0.8793
 4736SOL    HW225671   4.000   1.242  11.592  0.1002 -2.0441  0.7731
 4737SOL     OW25672   4.635   2.248  13.966  0.0897 -0.0538  0.1021
 4737SOL    HW125673   4.678   2.257  14.051 -1.7031 -1.2011  1.1215
 4737SOL    HW225674   4.589   2.330  13.952  0.3968  0.4928  2.3825
 4738SOL     OW25675   0.580   1.812   7.580 -0.0523 -0.2283 -0.1704
 4738SOL    HW125676   0.596   1.750   7.509 -1.1511 -1.3889  0.5860
 4738SOL    HW225677   0.490   1.841   7.567  0.0112  0.0213 -0.0530
 4739SOL     OW25678   1.033   3.663   8.977  0.1272 -0.0490 -0.2349
 4739SOL    HW125679   0.960   3.621   8.932 -0.0835 -0.5213  0.5634
 4739SOL    HW225680   0.980   3.722   9.032  0.3488 -1.1869  1.1900
 4740SOL     OW25681   4.307   3.737   8.432 -0.0043  0.2468  0.1797
 4740SOL    HW125682   4.278   3.646   8.425  1.2606  0.1812 -4.3520
 4740SOL    HW225683   4.222   3.773   8.454 -1.2908  0.1933 -4.6265
 4741SOL     OW25684   1.829   3.389  16.626  0.1066 -0.3503  0.3449
 4741SOL    HW125685   1.769   3.454  16.663  0.2276  0.1808 -0.4061
 4741SOL    HW225686   1.812   3.405  16.534 -0.0581 -0.4558  0.3574
 4742SOL     OW25687   3.262   2.082   4.923 -0.8308 -0.1283 -0.1041
 4742SOL    HW125688   3.265   1.987   4.931 -1.0033  0.1437  3.3443
 4742SOL    HW225689   3.176   2.104   4.961  0.1362  2.1063  0.8075
 4743SOL     OW25690   2.791   3.874   3.489 -0.0063  0.2590 -0.9211
 4743SOL    HW125691   2.795   3.832   3.403 -1.6008 -2.0559  0.1444
 4743SOL    HW225692   2.696   3.865   3.499  0.5143 -2.6747  1.2405
 4744SOL     OW25693   0.374   3.025   3.907  0.1841  0.2966  0.2650
 4744SOL    HW125694   0.369   3.121   3.901 -0.6920  0.2733  0.5076
 4744SOL    HW225695   0.324   3.011   3.988 -0.0671  0.3036  0.1105
 4745SOL     OW25696   4.558   1.117   7.581 -0.1334  0.3568  0.2373
 4745SOL    HW125697   4.653   1.119   7.596 -0.2847  1.2553  1.1001
 4745SOL    HW225698   4.542   1.039   7.636 -0.7737 -1.9154 -3.1943
 4746SOL     OW25699   1.020   3.214  16.546 -0.5153  0.1773  0.5047
 4746SOL    HW125700   0.958   3.231  16.476 -2.2294 -1.6869  1.5475
 4746SOL    HW225701   0.965   3.162  16.605 -0.6105 -0.4934 -0.1754
 4747SOL     OW25702   2.777   1.462   3.883 -0.0001  0.1203  0.0734
 4747SOL    HW125703   2.834   1.446   3.808 -0.9106  0.3638 -0.6815
 4747SOL    HW225704   2.690   1.458   3.842 -0.1568 -1.7128  0.5937
 4748SOL     OW25705   1.876   3.749  11.697  0.3843 -0.2952 -0.1366
 4748SOL    HW125706   1.815   3.785  11.761  0.0729 -0.0943 -0.5499
 4748SOL    HW225707   1.960   3.789  11.720  0.3295  0.0773 -0.5939
 4749SOL     OW25708   0.324   1.546  17.622 -0.4309 -0.1922  0.5484
 4749SOL    HW125709   0.380   1.615  17.586 -0.8320 -0.5443 -0.7645
 4749SOL    HW225710   0.332   1.559   0.014 -1.0187 -1.8199  0.8240
 4750SOL     OW25711   0.700   2.728   7.245 -0.0619 -0.3948  0.3207
 4750SOL    HW125712   0.717   2.702   7.336 -2.0605  1.2451  1.1748
 4750SOL    HW225713   0.647   2.651   7.223 -1.3409  0.7091 -0.4629
 4751SOL     OW25714   0.927   4.725   5.828  0.4042 -0.1461 -0.1059
 4751SOL    HW125715   0.836   4.704   5.852 -0.0732  3.5727  1.3525
 4751SOL    HW225716   0.950   0.058   5.901  1.1148 -0.6351  0.0630
 4752SOL     OW25717   1.037   1.394   6.145 -0.2552 -0.2590 -0.0843
 4752SOL    HW125718   0.966   1.355   6.197 -1.4177 -0.4787 -1.8158
 4752SOL    HW225719   1.013   1.486   6.155  2.1608  0.1870  1.5143
 4753SOL     OW25720   1.744   2.225  16.295  0.4062  0.3510 -0.6965
 4753SOL    HW125721   1.793   2.150  16.329 -1.4114 -1.2296 -1.5752
 4753SOL    HW225722   1.738   2.212  16.201  0.4038  1.6340 -0.8780
 4754SOL     OW25723   3.874   3.599   1.658  0.4683  0.6975 -0.5868
 4754SOL    HW125724   3.911   3.523   1.702 -0.3847  1.6363  1.7674
 4754SOL    HW225725   3.826   3.539   1.601 -1.8130  1.5414  0.4311
 4755SOL     OW25726   1.688   3.524  14.690 -0.0668 -0.0877  0.1651
 4755SOL    HW125727   1.722   3.613  14.683  1.1581 -0.6846 -1.4075
 4755SOL    HW225728   1.769   3.475  14.707 -0.0229  0.1297  0.5844
 4756SOL     OW25729   3.548   1.078  13.546 -0.4156 -0.1105  0.7350
 4756SOL    HW125730   3.615   1.010  13.558 -0.9176 -0.8289 -0.5649
 4756SOL    HW225731   3.600   1.158  13.544 -0.8545  0.1740  0.7067
 4757SOL     OW25732   4.207   4.724   8.006  0.1647  0.5369  0.1593
 4757SOL    HW125733   4.297   4.698   8.029  0.3317  0.5433 -0.4591
 4757SOL    HW225734   4.173   4.641   7.972 -1.2004  1.4654 -0.7445
 4758SOL     OW25735   1.728   0.744   6.444  0.4255 -0.1932 -0.2331
 4758SOL    HW125736   1.667   0.755   6.518 -2.0376 -0.6018 -2.2068
 4758SOL    HW225737   1.772   0.665   6.476 -1.5329 -0.6327  1.3641
 4759SOL     OW25738   0.360   0.433   5.258 -0.3252 -0.6325  0.1162
 4759SOL    HW125739   0.405   0.417   5.341  0.3537 -2.0410 -0.5046
 4759SOL    HW225740   0.438   0.451   5.204 -1.2746 -2.7021 -1.9427
 4760SOL     OW25741   0.914   3.814  12.119  0.0058  0.1604  0.0655
 4760SOL    HW125742   0.859   3.880  12.077  0.4446 -1.8974 -3.7243
 4760SOL    HW225743   0.981   3.804  12.051 -0.5343  0.8157 -0.5732
 4761SOL     OW25744   3.745   1.872   0.368 -0.1951  0.0480 -0.1636
 4761SOL    HW125745   3.767   1.958   0.331 -2.2449  1.9824  3.1097
 4761SOL    HW225746   3.832   1.833   0.375 -0.3373 -0.3464 -0.6291
 4762SOL     OW25747   0.803   2.144   5.357  0.4105  0.0635 -0.5758
 4762SOL    HW125748   0.866   2.211   5.382  0.6605 -0.4466  0.1712
 4762SOL    HW225749   0.859   2.072   5.327 -1.2980 -1.1267 -0.9598
 4763SOL     OW25750   1.574   2.926  17.406 -0.4388 -0.8951  0.3289
 4763SOL    HW125751   1.638   2.896  17.470  2.3301  1.3491 -1.4091
 4763SOL    HW225752   1.527   2.995  17.454 -1.2549 -1.7197  0.7164
 4764SOL     OW25753   0.270   1.868   9.258  0.3749 -0.2289  0.1786
 4764SOL    HW125754   0.298   1.890   9.347  1.2597 -2.7948  0.5340
 4764SOL    HW225755   0.358   1.858   9.222 -0.9488  0.4095 -3.2422
 4765SOL     OW25756   3.301   1.761   6.860  0.2598  0.1114  0.8470
 4765SOL    HW125757   3.387   1.799   6.844 -0.7656  1.1551 -2.3040
 4765SOL    HW225758   3.320   1.670   6.837 -1.6310 -0.2922  0.8202
 4766SOL     OW25759   3.905   3.461   1.883 -0.1006 -0.5319 -0.4191
 4766SOL    HW125760   3.832   3.522   1.886 -0.2247 -0.7338  1.1379
 4766SOL    HW225761   3.948   3.476   1.967  0.2956  0.3665 -0.7891
 4767SOL     OW25762   3.024   4.651   3.538 -0.4304 -0.7568 -0.0441
 4767SOL    HW125763   2.960   4.584   3.561 -2.0470  0.9191  0.3426
 4767SOL    HW225764   3.102   4.596   3.529 -0.0087 -0.1618 -0.1017
 4768SOL     OW25765   4.041   0.418   4.692  0.0650  0.1790  0.1190
 4768SOL    HW125766   3.946   0.428   4.703  0.0568  0.8399 -0.5666
 4768SOL    HW225767   4.060   0.461   4.776  0.0219 -1.0500  0.7627
 4769SOL     OW25768   2.592   0.388   6.515 -0.0585 -0.1430 -0.4478
 4769SOL    HW125769   2.503   0.418   6.533 -0.7466 -0.3975 -3.3928
 4769SOL    HW225770   2.619   0.429   6.432 -1.4221 -1.5602 -1.5819
 4770SOL     OW25771   2.872   0.270   8.644  0.3232  0.0484  0.1098
 4770SOL    HW125772   2.794   0.272   8.588 -0.3283 -1.0819  0.9962
 4770SOL    HW225773   2.839   0.233   8.726 -3.3344 -1.4327 -2.0422
 4771SOL     OW25774   1.022   2.492  13.072 -0.0595 -0.1423  0.3788
 4771SOL    HW125775   0.997   2.401  13.063 -0.8633  0.0915  0.2415
 4771SOL    HW225776   1.097   2.482  13.130 -0.8704 -0.4421  1.3668
 4772SOL     OW25777   3.460   0.333  10.432  0.2570  0.1051 -0.3692
 4772SOL    HW125778   3.547   0.353  10.469  0.3418 -0.3763 -0.3129
 4772SOL    HW225779   3.407   0.359  10.507  1.3379  0.1832  0.3750
 4773SOL     OW25780   0.447   1.888  12.545  0.0598 -0.4200 -0.0075
 4773SOL    HW125781   0.526   1.899  12.493  0.6953 -0.7590  0.8955
 4773SOL    HW225782   0.435   1.793  12.542  0.5528 -0.5825  3.4516
 4774SOL     OW25783   1.064   4.620  14.105 -1.0534  0.3817  0.4417
 4774SOL    HW125784   1.154   4.594  14.124 -0.8849  0.8145  0.2205
 4774SOL    HW225785   1.080   4.708  14.071  1.0110  0.1626  0.8400
 4775SOL     OW25786   0.492   3.153   5.658  0.0882  0.0178  0.1579
 4775SOL    HW125787   0.399   3.148   5.681 -0.0839  0.4400 -0.4511
 4775SOL    HW225788   0.513   3.199   5.739  2.0401  0.0995 -0.3946
 4776SOL     OW25789   1.251   1.181   2.573  0.1592 -0.2974 -0.3259
 4776SOL    HW125790   1.212   1.268   2.562 -0.0246 -0.4265 -0.6949
 4776SOL    HW225791   1.227   1.147   2.487  1.0874 -2.1330  0.1420
 4777SOL     OW25792   4.095   0.551  16.148 -0.2561 -0.0087 -0.1967
 4777SOL    HW125793   4.031   0.514  16.208  0.9663 -2.7027 -0.5606
 4777SOL    HW225794   4.042   0.612  16.097 -0.3132 -1.6048 -2.0491
 4778SOL     OW25795   2.993   0.938   5.357  0.1496 -0.5376 -0.3185
 4778SOL    HW125796   2.915   0.956   5.305  0.5081  0.9487 -0.3626
 4778SOL    HW225797   2.950   0.937   5.442 -0.9889 -1.6319 -0.9211
 4779SOL     OW25798   4.079   1.418   7.265 -0.4337  0.1003  0.4040
 4779SOL    HW125799   4.171   1.396   7.249 -1.1102 -1.2706 -1.6334
 4779SOL    HW225800   4.073   1.398   7.358 -1.0312  0.2688  0.4012
 4780SOL     OW25801   2.514   2.044   9.220 -0.8888 -0.0924  0.2662
 4780SOL    HW125802   2.502   2.137   9.204 -1.8915 -0.3390 -0.3953
 4780SOL    HW225803   2.607   2.034   9.243 -0.7447 -1.3419 -0.8526
 4781SOL     OW25804   1.112   1.137   0.906  0.4374  0.0780 -0.3465
 4781SOL    HW125805   1.078   1.047   0.905  0.1299  0.1720  1.7934
 4781SOL    HW225806   1.206   1.122   0.917  0.2664 -0.1663  0.7781
 4782SOL     OW25807   2.885   3.414   3.050 -0.0708 -0.0604 -0.1462
 4782SOL    HW125808   2.906   3.427   2.957 -0.3765  0.2096 -0.1779
 4782SOL    HW225809   2.898   3.502   3.087 -1.5567 -0.3464  1.0432
 4783SOL     OW25810   3.924   3.769   2.990  0.1847 -0.0599  0.1097
 4783SOL    HW125811   3.876   3.851   2.978 -0.3906 -0.5067 -0.6584
 4783SOL    HW225812   3.926   3.736   2.900 -2.1529 -0.4742  0.2294
 4784SOL     OW25813   4.363   2.363   7.536 -0.3457 -0.1911  0.9864
 4784SOL    HW125814   4.357   2.421   7.461 -0.4231  0.0663  1.1900
 4784SOL    HW225815   4.452   2.375   7.568  0.1008 -0.4332 -0.1634
 4785SOL     OW25816   1.739   3.325   5.403  0.1391  0.1548  0.3330
 4785SOL    HW125817   1.744   3.307   5.497  1.0108  2.4005  0.7339
 4785SOL    HW225818   1.693   3.247   5.372 -0.4045  0.8579 -0.6231
 4786SOL     OW25819   3.403   2.172   1.912 -0.1924 -0.3952  0.0860
 4786SOL    HW125820   3.487   2.126   1.909  0.9584  1.6504  0.7572
 4786SOL    HW225821   3.368   2.163   2.001 -0.2996  1.8938  0.2675
 4787SOL     OW25822   2.022   1.251  17.151  0.0660  0.1307 -0.0018
 4787SOL    HW125823   2.012   1.282  17.062  3.1661 -0.0670 -0.3996
 4787SOL    HW225824   1.952   1.292  17.202 -0.9205 -2.6901  0.9575
 4788SOL     OW25825   3.085   3.604  13.661 -0.1898  0.3453  0.2850
 4788SOL    HW125826   3.029   3.667  13.707  1.1492  3.1808 -1.9622
 4788SOL    HW225827   3.031   3.526  13.673 -1.0755  1.0223  0.7446
 4789SOL     OW25828   1.386   1.926   4.499  0.8316 -0.4247 -0.4542
 4789SOL    HW125829   1.368   1.836   4.473  2.1137 -0.8168  0.0669
 4789SOL    HW225830   1.345   1.924   4.586  0.9186 -0.3537 -0.4115
 4790SOL     OW25831   4.404   1.730  11.222 -0.1120 -0.3959  0.0095
 4790SOL    HW125832   4.450   1.793  11.165 -1.2088  1.7451  1.5220
 4790SOL    HW225833   4.472   1.665  11.240 -1.2298 -1.6418 -0.2935
 4791SOL     OW25834   0.898   4.463   8.987  0.5741  0.3349 -0.3222
 4791SOL    HW125835   0.914   4.556   8.971 -1.6616  0.2747 -2.8883
 4791SOL    HW225836   0.845   4.457   9.067 -0.2518 -1.1779 -0.9879
 4792SOL     OW25837   0.722   0.828   6.301  0.3675 -0.5190  0.2106
 4792SOL    HW125838   0.762   0.879   6.231 -0.5894 -0.3914 -0.2341
 4792SOL    HW225839   0.628   0.832   6.288  0.0009 -0.2259  2.8700
 4793SOL     OW25840   3.126   0.578   3.086  0.4680  0.2498 -0.0463
 4793SOL    HW125841   3.123   0.510   3.019 -0.4639  0.0469  0.2026
 4793SOL    HW225842   3.045   0.625   3.065 -0.3717 -1.0656  0.2303
 4794SOL     OW25843   4.634   4.512  15.497  0.3422  0.1247 -0.2143
 4794SOL    HW125844   4.724   4.530  15.524  0.5814 -0.5454 -0.5704
 4794SOL    HW225845   4.603   4.477  15.581 -1.7412  0.1311 -0.9714
 4795SOL     OW25846   3.931   4.064   8.675  0.1513 -0.3161 -0.2941
 4795SOL    HW125847   3.849   4.076   8.723 -2.1344 -2.3899 -3.7035
 4795SOL    HW225848   3.996   4.077   8.744 -0.7060  2.2382  0.0326
 4796SOL     OW25849   3.653   0.737  12.843  0.3908 -0.7046 -0.2442
 4796SOL    HW125850   3.663   0.814  12.787 -1.1350  1.9394  3.0982
 4796SOL    HW225851   3.605   0.777  12.915  0.9731  0.3377 -0.4279
 4797SOL     OW25852   1.142   2.793  16.371  0.5230 -0.2017 -0.4118
 4797SOL    HW125853   1.120   2.703  16.347  0.7315 -0.5396  0.6337
 4797SOL    HW225854   1.080   2.819  16.439 -0.0743 -0.4102 -0.8691
 4798SOL     OW25855   3.733   0.172   7.654  0.1230  0.0751 -0.1214
 4798SOL    HW125856   3.792   0.096   7.655 -3.2561 -2.5348  0.8300
 4798SOL    HW225857   3.716   0.173   7.560  0.7907  1.0702 -0.2254
 4799SOL     OW25858   0.288   3.600   2.570  0.4208  0.4446 -0.1956
 4799SOL    HW125859   0.318   3.683   2.533  2.0470  0.3641  0.9150
 4799SOL    HW225860   0.267   3.556   2.487 -1.7628  1.4922 -0.1988
 4800SOL     OW25861   2.142   0.466   7.167  0.3037 -0.0754  0.3369
 4800SOL    HW125862   2.167   0.551   7.130 -2.0635  0.5647  0.2345
 4800SOL    HW225863   2.047   0.468   7.161  0.3202 -0.9805 -0.1296
 4801SOL     OW25864   3.153   2.091   6.376 -0.1748 -0.0827  0.1475
 4801SOL    HW125865   3.156   2.187   6.378 -0.1711 -0.0571 -1.2102
 4801SOL    HW225866   3.159   2.079   6.471  0.2387  1.0523  0.2690
 4802SOL     OW25867   0.679   0.040   1.622 -0.1172  0.3922  0.1633
 4802SOL    HW125868   0.671   0.056   1.716 -0.3757  0.7657  0.0799
 4802SOL    HW225869   0.596   0.056   1.576  1.6143  1.8842 -2.4708
 4803SOL     OW25870   4.718   3.691   4.049 -0.0592 -0.2073  0.0080
 4803SOL    HW125871   4.675   3.613   4.085 -0.1691 -0.2424 -0.2022
 4803SOL    HW225872   0.039   3.649   3.977  1.0001 -1.5539  1.4757
 4804SOL     OW25873   0.217   2.139  14.379 -0.6226  0.4477  0.0371
 4804SOL    HW125874   0.152   2.207  14.359 -2.1591 -2.0191 -3.2847
 4804SOL    HW225875   0.294   2.196  14.380 -2.1463  2.5072  1.4560
 4805SOL     OW25876   4.206   3.980   8.009 -0.0517  0.0074  0.1156
 4805SOL    HW125877   4.118   3.997   8.044  0.3117 -1.3155  1.6599
 4805SOL    HW225878   4.250   3.943   8.085 -0.0923 -1.1521 -0.4135
 4806SOL     OW25879   4.286   3.253   9.646 -0.1448 -0.1731  0.0239
 4806SOL    HW125880   4.327   3.328   9.690 -0.9592 -0.0441  0.5634
 4806SOL    HW225881   4.303   3.197   9.721 -2.7844  2.4544  2.5775
 4807SOL     OW25882   2.453   3.806   3.680  0.2928 -0.1380  0.2903
 4807SOL    HW125883   2.366   3.840   3.659 -0.5360 -0.5432  3.1165
 4807SOL    HW225884   2.501   3.824   3.599  2.0723  3.4615  2.1425
 4808SOL     OW25885   1.074   2.459  17.242  0.2400  0.5143  0.2855
 4808SOL    HW125886   1.075   2.411  17.325 -0.7991 -0.5029 -0.2843
 4808SOL    HW225887   1.077   2.391  17.174  0.4811  0.7259  0.0841
 4809SOL     OW25888   0.731   1.778   0.285 -1.2779  0.1458  0.0034
 4809SOL    HW125889   0.789   1.833   0.231  0.2748 -1.2944  0.2184
 4809SOL    HW225890   0.742   1.818   0.371  0.3025 -2.3656  0.9639
 4810SOL     OW25891   0.260   1.822  11.802 -0.0512 -0.1491 -0.0712
 4810SOL    HW125892   0.345   1.845  11.838  0.0842 -1.6092  0.5746
 4810SOL    HW225893   0.223   1.907  11.778 -1.8364 -0.9682 -0.2406
 4811SOL     OW25894   3.412   3.409   6.447  0.6159  0.1562  0.0736
 4811SOL    HW125895   3.421   3.389   6.354  1.2219  0.7284  0.0019
 4811SOL    HW225896   3.456   3.494   6.458 -0.2866  0.4919  1.0726
 4812SOL     OW25897   1.146   3.530   8.758 -0.2486 -0.1109  0.3241
 4812SOL    HW125898   1.112   3.546   8.846  0.7886  1.6173  0.4275
 4812SOL    HW225899   1.112   3.442   8.743 -1.6649  0.3444  0.9261
 4813SOL     OW25900   2.235   4.328   6.145 -0.2421  0.9209  0.3001
 4813SOL    HW125901   2.165   4.382   6.109  0.5700  1.2868 -0.7401
 4813SOL    HW225902   2.222   4.357   6.235  2.4605  1.1143  0.6466
 4814SOL     OW25903   4.081   3.207  15.825  0.1702  0.3240  0.1037
 4814SOL    HW125904   4.123   3.202  15.739 -3.2495  0.2840 -1.5916
 4814SOL    HW225905   4.045   3.119  15.839  2.7400 -0.5843  0.9994
 4815SOL     OW25906   2.615   0.202   1.150  0.1949  0.4541  0.2723
 4815SOL    HW125907   2.534   0.152   1.166  1.0022 -1.0400 -0.2297
 4815SOL    HW225908   2.672   0.154   1.210  0.1894  0.6469  0.4291
 4816SOL     OW25909   3.592   2.299   1.667 -0.1391 -0.5722 -0.3663
 4816SOL    HW125910   3.607   2.304   1.572  0.3033  0.4904 -0.2411
 4816SOL    HW225911   3.664   2.242   1.696 -0.4567 -1.3908 -1.1626
 4817SOL     OW25912   2.222   3.491   4.467 -0.3739  0.2190 -0.0322
 4817SOL    HW125913   2.199   3.531   4.551  0.4736 -0.5945  0.5907
 4817SOL    HW225914   2.248   3.401   4.490 -0.3122  0.0029 -0.9491
 4818SOL     OW25915   1.459   0.457   2.515  0.0983  0.1218  0.3857
 4818SOL    HW125916   1.535   0.475   2.569  0.2614 -0.7418  0.4399
 4818SOL    HW225917   1.387   0.508   2.553 -1.2420 -1.5318  0.0424
 4819SOL     OW25918   1.202   4.008  17.409 -0.3758  0.2398  0.8098
 4819SOL    HW125919   1.117   3.969  17.430 -0.7064  0.4635 -0.1168
 4819SOL    HW225920   1.260   3.932  17.418  0.2783  0.5178 -1.0621
 4820SOL     OW25921   1.587   0.637  16.069 -0.2881 -0.6417  0.0594
 4820SOL    HW125922   1.647   0.677  16.132 -1.5922  2.1498 -0.4396
 4820SOL    HW225923   1.525   0.608  16.136 -3.9629  1.3988 -2.4168
 4821SOL     OW25924   2.627   2.941   4.820 -0.0827  0.2208  0.2044
 4821SOL    HW125925   2.684   3.014   4.843  0.0880  0.4539 -0.9326
 4821SOL    HW225926   2.628   2.890   4.901  0.9166 -1.2095 -0.7097
 4822SOL     OW25927   0.883   0.776   4.492  0.5221  0.3649 -0.1273
 4822SOL    HW125928   0.955   0.838   4.505  1.1731 -0.9882  2.8586
 4822SOL    HW225929   0.919   0.708   4.435  1.6056 -0.4257  1.4809
 4823SOL     OW25930   3.647   3.242   8.912 -0.1286  0.7190 -0.0439
 4823SOL    HW125931   3.665   3.212   9.001 -0.9620  0.3646  0.0017
 4823SOL    HW225932   3.620   3.334   8.921 -2.6726  0.1112 -1.6214
 4824SOL     OW25933   1.446   2.313   7.006  0.1088 -0.2103  0.1046
 4824SOL    HW125934   1.406   2.231   6.979 -0.9479  0.3733 -0.1091
 4824SOL    HW225935   1.537   2.286   7.020  0.4410  0.0921 -1.4138
 4825SOL     OW25936   2.442   1.435  12.386 -0.3501  0.2518 -0.1311
 4825SOL    HW125937   2.415   1.521  12.418 -1.2019  0.7659 -2.2465
 4825SOL    HW225938   2.499   1.459  12.313  0.4320  0.2707  0.4843
 4826SOL     OW25939   0.674   2.254   3.286  0.1432 -0.3640 -0.1944
 4826SOL    HW125940   0.621   2.329   3.257  1.9473  0.3499 -1.7046
 4826SOL    HW225941   0.745   2.255   3.222  0.7057  2.1742  0.4525
 4827SOL     OW25942   2.453   1.290   2.778  0.5002 -0.5537  0.2980
 4827SOL    HW125943   2.451   1.195   2.793 -3.2627 -0.4650  0.3432
 4827SOL    HW225944   2.538   1.324   2.809  2.0275 -1.8290 -2.5133
 4828SOL     OW25945   1.651   2.501  15.809  0.0862  0.4365  0.2375
 4828SOL    HW125946   1.733   2.495  15.760  0.8964 -0.6130  1.7597
 4828SOL    HW225947   1.633   2.594  15.790 -0.5842  0.1149 -0.7078
 4829SOL     OW25948   3.108   0.624   8.296 -0.2683  0.1665  0.1742
 4829SOL    HW125949   3.167   0.554   8.326 -0.7945  0.0146  0.8410
 4829SOL    HW225950   3.028   0.606   8.346  0.9596  1.7090  2.7109
 4830SOL     OW25951   3.993   2.923   7.805 -0.1914  0.0798 -0.1909
 4830SOL    HW125952   3.970   2.842   7.849 -1.1904  0.1371 -0.6119
 4830SOL    HW225953   4.089   2.913   7.806 -0.2470 -0.5936 -1.4618
 4831SOL     OW25954   1.185   2.264   2.578  0.3058 -0.0140  0.0438
 4831SOL    HW125955   1.228   2.350   2.587  0.0290  0.0324  0.9792
 4831SOL    HW225956   1.177   2.279   2.484  0.4754 -0.1777  0.0026
 4832SOL     OW25957   3.809   2.915   5.723 -0.6631 -0.3338  0.3309
 4832SOL    HW125958   3.721   2.889   5.694 -0.7974  0.3767  0.0853
 4832SOL    HW225959   3.841   2.828   5.747  0.9248  1.2958  4.0186
 4833SOL     OW25960   4.610   1.823  14.037 -0.7440 -0.0755 -0.4860
 4833SOL    HW125961   4.699   1.787  14.031 -0.9046 -0.8079  1.4921
 4833SOL    HW225962   4.571   1.759  14.096  0.8473  0.0116  0.6769
 4834SOL     OW25963   3.134   2.119   8.317 -0.0586 -0.5410  0.0862
 4834SOL    HW125964   3.196   2.047   8.307 -0.1080 -0.8464  1.9298
 4834SOL    HW225965   3.156   2.190   8.257 -0.7889  0.8798  1.5194
 4835SOL     OW25966   1.353   0.990  13.975  0.8109 -0.6059 -0.4513
 4835SOL    HW125967   1.260   0.987  13.950  0.0966 -2.1584  2.3137
 4835SOL    HW225968   1.359   0.898  14.002 -3.2996 -1.2370 -1.5465
 4836SOL     OW25969   1.074   2.242   5.372  0.3000 -0.2264 -0.1194
 4836SOL    HW125970   1.147   2.297   5.399  0.4820  0.5675 -2.1945
 4836SOL    HW225971   1.088   2.169   5.432 -3.1540 -0.4723  0.3761
 4837SOL     OW25972   2.266   4.114   9.412  0.1749  0.3860 -0.7337
 4837SOL    HW125973   2.233   4.025   9.421 -2.7782  1.4784 -0.7691
 4837SOL    HW225974   2.359   4.098   9.430  0.1250  0.5211 -0.3522
 4838SOL     OW25975   4.175   0.033   4.568 -0.2653 -0.2159 -0.0843
 4838SOL    HW125976   4.172   4.667   4.541 -0.7835  0.2850 -1.6784
 4838SOL    HW225977   4.270   0.042   4.568 -0.4497  1.7763  0.9817
 4839SOL     OW25978   3.094   3.415   4.656  0.6531 -0.0228 -0.0273
 4839SOL    HW125979   3.154   3.385   4.724  1.7949 -0.6747 -1.3149
 4839SOL    HW225980   3.128   3.364   4.582  0.9626 -1.6621  1.2509
 4840SOL     OW25981   2.453   1.569   0.864 -0.0314  0.0023 -0.3384
 4840SOL    HW125982   2.366   1.609   0.864  0.2367  0.5750  1.8052
 4840SOL    HW225983   2.492   1.632   0.924 -0.3494 -0.3541  0.2359
 4841SOL     OW25984   2.623   3.765  10.196 -0.7953 -0.0352 -0.4068
 4841SOL    HW125985   2.604   3.792  10.286  0.6834 -0.1067 -0.0732
 4841SOL    HW225986   2.593   3.675  10.204 -0.7221 -0.0630 -0.4463
 4842SOL     OW25987   2.719   0.817   5.376  0.1080  0.0452 -0.5110
 4842SOL    HW125988   2.764   0.736   5.401  1.2532  0.0906 -2.4285
 4842SOL    HW225989   2.711   0.800   5.282 -0.9836 -0.4125 -0.3328
 4843SOL     OW25990   0.290   0.780   7.089  0.7031  0.0864 -0.2583
 4843SOL    HW125991   0.267   0.755   7.178  0.7047  2.2896  0.3682
 4843SOL    HW225992   0.357   0.849   7.090  1.6447 -0.8131 -1.8179
 4844SOL     OW25993   2.602   4.534   7.448 -0.4998 -0.6887 -0.2423
 4844SOL    HW125994   2.639   4.456   7.489 -1.7337 -0.5117  1.2276
 4844SOL    HW225995   2.514   4.535   7.485  0.4170 -0.4242  1.9604
 4845SOL     OW25996   1.999   0.657  10.080 -0.5092  0.0224  0.0231
 4845SOL    HW125997   2.024   0.611  10.000  1.5153 -2.3343  2.0333
 4845SOL    HW225998   1.906   0.633  10.077 -0.1124 -1.3725 -0.6616
 4846SOL     OW25999   0.714   0.699   8.771  0.0537  0.5792 -0.6341
 4846SOL    HW126000   0.782   0.632   8.761 -1.2029 -0.9214  0.7863
 4846SOL    HW226001   0.652   0.643   8.818 -1.0723  1.1584 -1.4031
 4847SOL     OW26002   0.784   3.659   9.418  0.1648 -0.0019 -0.5020
 4847SOL    HW126003   0.717   3.592   9.405 -0.0129 -0.2321  1.5111
 4847SOL    HW226004   0.738   3.743   9.416 -0.0079 -0.0674  0.6932
 4848SOL     OW26005   2.709   2.023  16.722  0.0478  0.0026  0.6063
 4848SOL    HW126006   2.742   1.933  16.713 -1.2921 -0.2942 -1.2939
 4848SOL    HW226007   2.642   2.014  16.791 -1.2997  0.3932 -0.6588
 4849SOL     OW26008   2.554   1.311   6.085 -0.8126  0.3147  0.2071
 4849SOL    HW126009   2.477   1.283   6.135  0.0526 -1.9946  0.2343
 4849SOL    HW226010   2.626   1.273   6.135  0.4344  2.4685  0.0098
 4850SOL     OW26011   2.066   4.597  16.603 -0.0830  0.3566  0.2497
 4850SOL    HW126012   2.034   4.510  16.577  0.7253 -0.1241  0.8739
 4850SOL    HW226013   1.989   4.651  16.584 -0.0291  0.2657 -0.2289
 4851SOL     OW26014   1.622   3.452   4.289  0.4610 -0.2544 -0.5628
 4851SOL    HW126015   1.635   3.498   4.206  0.9564 -0.5710 -0.6619
 4851SOL    HW226016   1.527   3.437   4.290  0.1059  1.9254 -1.5508
 4852SOL     OW26017   1.054   4.469   6.369  0.4987  0.2519  0.0324
 4852SOL    HW126018   0.964   4.439   6.356  0.3309 -0.0421  1.8968
 4852SOL    HW226019   1.098   4.383   6.371  1.8332  0.9104 -0.6676
 4853SOL     OW26020   1.596   4.024   2.953 -0.3646  0.3591 -0.1614
 4853SOL    HW126021   1.521   4.023   2.893  0.6683 -0.0501 -1.4414
 4853SOL    HW226022   1.612   4.118   2.943  1.0410  0.2886  1.4632
 4854SOL     OW26023   2.757   0.338   3.039  0.8244 -0.3326 -0.6146
 4854SOL    HW126024   2.834   0.326   2.983  1.5966  2.0185 -0.0617
 4854SOL    HW226025   2.687   0.330   2.974  1.5697  0.5975 -1.5405
 4855SOL     OW26026   2.869   3.945  15.249 -0.4163  0.7998  0.5025
 4855SOL    HW126027   2.797   3.918  15.192  1.0106 -0.6478 -0.6332
 4855SOL    HW226028   2.860   3.888  15.325  2.8772  0.4192  0.5988
 4856SOL     OW26029   2.181   2.911  13.595  0.1087  0.0379 -0.0515
 4856SOL    HW126030   2.242   2.864  13.652 -0.4978  1.3280  1.6284
 4856SOL    HW226031   2.217   2.916  13.506 -1.5359 -3.0439 -0.8688
 4857SOL     OW26032   3.821   0.736   4.751  0.2631  0.1627  0.0312
 4857SOL    HW126033   3.796   0.685   4.829  1.1498  1.5435  1.2309
 4857SOL    HW226034   3.916   0.727   4.743  0.5552  4.3097 -1.2650
 4858SOL     OW26035   1.010   3.326   9.668 -0.1318  0.5058 -0.3028
 4858SOL    HW126036   1.065   3.273   9.610  0.2262  1.2164 -0.6039
 4858SOL    HW226037   1.013   3.408   9.620  3.6186 -0.3744 -1.5574
 4859SOL     OW26038   2.151   3.264  11.487 -0.3304 -0.2715  0.4404
 4859SOL    HW126039   2.185   3.264  11.398 -0.6462 -0.6197  0.3201
 4859SOL    HW226040   2.205   3.195  11.527  0.9641  1.5473  1.8066
 4860SOL     OW26041   0.719   1.404   5.418  0.0792  0.1596  0.7048
 4860SOL    HW126042   0.737   1.496   5.436 -2.6405  0.4267  2.0139
 4860SOL    HW226043   0.804   1.370   5.446 -0.9610 -1.8308  1.4040
 4861SOL     OW26044   0.868   0.984   7.238  0.5127  0.1428 -0.1006
 4861SOL    HW126045   0.802   0.923   7.270  2.3444 -2.0877 -0.5669
 4861SOL    HW226046   0.946   0.929   7.237  0.3355 -0.1201  1.1243
 4862SOL     OW26047   3.178   2.985   3.459 -0.1245 -0.1327  0.1641
 4862SOL    HW126048   3.235   2.926   3.509  1.4250  2.0852  0.9704
 4862SOL    HW226049   3.229   3.066   3.457 -0.3885  0.0338  0.1717
 4863SOL     OW26050   2.798   1.989  15.465 -0.2161 -0.6083  0.2310
 4863SOL    HW126051   2.804   1.975  15.559 -2.5408  0.4863  0.5331
 4863SOL    HW226052   2.748   2.069  15.477  1.3458  0.6600 -1.7455
 4864SOL     OW26053   1.879   1.036   3.318  0.1332 -0.2859 -0.1028
 4864SOL    HW126054   1.951   0.979   3.291 -0.8851 -1.1811 -0.8834
 4864SOL    HW226055   1.914   1.123   3.298 -0.7287  0.3092  0.9736
 4865SOL     OW26056   1.257   1.266   6.590 -0.1250  0.0466 -0.7270
 4865SOL    HW126057   1.342   1.230   6.618 -0.1874 -1.1047 -2.0265
 4865SOL    HW226058   1.211   1.189   6.556  0.0856 -0.4684  0.1385
 4866SOL     OW26059   2.553   4.645   6.285  0.1014  1.0597  0.0994
 4866SOL    HW126060   2.531   4.678   6.372 -0.1986 -0.0931  0.4664
 4866SOL    HW226061   2.645   4.621   6.297 -0.1181 -0.1834 -0.7803
 4867SOL     OW26062   2.352   0.303  13.711 -0.1256  0.3676  0.3544
 4867SOL    HW126063   2.420   0.293  13.644  1.1634  0.0652  1.7170
 4867SOL    HW226064   2.383   0.385  13.750  0.1770 -0.2351  1.3810
 4868SOL     OW26065   4.096   2.033   2.675  0.4131 -0.5827  0.6109
 4868SOL    HW126066   4.067   2.015   2.585  0.1889  0.3413  0.5048
 4868SOL    HW226067   4.170   1.973   2.675 -0.8141 -2.1084  1.0079
 4869SOL     OW26068   0.676   1.464   3.378 -0.5314 -0.6640  0.1065
 4869SOL    HW126069   0.589   1.505   3.377 -1.3682 -2.4303  0.8403
 4869SOL    HW226070   0.676   1.460   3.282 -2.2650 -3.9457  0.2384
 4870SOL     OW26071   3.078   4.725   4.767  0.3503 -0.3253  0.1364
 4870SOL    HW126072   3.164   0.032   4.795 -0.6007  2.2055  0.1272
 4870SOL    HW226073   3.024   0.078   4.756 -1.0458 -0.9968  2.2695
 4871SOL     OW26074   4.419   0.795   5.807  0.4970  0.4708 -0.1113
 4871SOL    HW126075   4.510   0.817   5.822  1.7138 -3.1204 -2.3112
 4871SOL    HW226076   4.411   0.701   5.824 -1.1716  0.5479 -0.4013
 4872SOL     OW26077   0.669   3.641   4.263 -0.1267 -0.3776 -0.0049
 4872SOL    HW126078   0.711   3.715   4.308 -0.7595  0.2714 -0.4689
 4872SOL    HW226079   0.578   3.651   4.291 -0.8809 -2.3063 -1.7764
 4873SOL     OW26080   2.698   3.311   3.494 -0.2022 -0.1585  0.2304
 4873SOL    HW126081   2.768   3.253   3.522 -0.5839 -1.0044 -0.5908
 4873SOL    HW226082   2.711   3.384   3.554 -1.1111  0.6992 -0.6111
 4874SOL     OW26083   4.082   3.659   6.856 -0.1250 -0.2364  0.0896
 4874SOL    HW126084   4.025   3.735   6.870  0.5551  0.2235  0.3528
 4874SOL    HW226085   4.031   3.606   6.794 -0.4154 -2.0999  1.9327
 4875SOL     OW26086   4.478   4.372  13.291  0.4225 -0.6949 -0.5719
 4875SOL    HW126087   4.434   4.457  13.277  0.0142 -1.0304 -1.3384
 4875SOL    HW226088   4.477   4.349  13.198  1.7442  0.4096 -0.8539
 4876SOL     OW26089   4.583   3.345   2.350  0.5337 -0.0936  0.3731
 4876SOL    HW126090   4.576   3.437   2.324  1.8201 -0.1661 -0.2499
 4876SOL    HW226091   4.577   3.343   2.445  1.0621 -0.2170  0.4099
 4877SOL     OW26092   1.008   3.863   9.557 -0.4428  0.1461 -0.1762
 4877SOL    HW126093   1.026   3.953   9.586  1.4745 -0.3916  0.3486
 4877SOL    HW226094   0.942   3.843   9.623 -1.7146  1.3494 -1.0879
 4878SOL     OW26095   4.670   1.342   3.265  0.3736 -0.1712  0.2416
 4878SOL    HW126096   4.632   1.418   3.221 -1.0762 -0.0697  1.6482
 4878SOL    HW226097   0.036   1.367   3.255  0.7647 -2.7252 -2.5589
 4879SOL     OW26098   2.786   4.388  11.603 -0.5145  0.5092 -0.8564
 4879SOL    HW126099   2.749   4.437  11.529 -1.8512  0.2455 -0.3480
 4879SOL    HW226100   2.781   4.446  11.679  1.2129 -2.2694  1.4013
 4880SOL     OW26101   2.049   3.280   4.640  0.2444 -0.3163  0.6366
 4880SOL    HW126102   2.007   3.359   4.607  3.0493  1.1580  0.6392
 4880SOL    HW226103   1.993   3.209   4.610 -0.9274  1.4479 -1.3225
 4881SOL     OW26104   4.099   1.083   8.689 -0.1963 -0.1918  0.9216
 4881SOL    HW126105   4.013   1.047   8.710  0.6524 -2.5919  0.3112
 4881SOL    HW226106   4.156   1.016   8.726 -0.2276 -0.3430  0.6925
 4882SOL     OW26107   0.605   4.581  13.760 -0.3951  0.3133  0.3255
 4882SOL    HW126108   0.673   4.629  13.808 -1.3340  2.4997 -0.5641
 4882SOL    HW226109   0.630   4.489  13.771 -1.4489 -0.1877 -1.5181
 4883SOL     OW26110   4.006   0.412   2.273  0.1431  0.0452 -0.0039
 4883SOL    HW126111   4.000   0.323   2.237  0.7835 -0.5146  1.2579
 4883SOL    HW226112   3.966   0.395   2.358  2.2266 -0.1077  0.9445
 4884SOL     OW26113   0.834   0.244   5.707  0.5383  0.0977 -0.0439
 4884SOL    HW126114   0.887   0.182   5.757  1.4461  1.8313  1.1682
 4884SOL    HW226115   0.762   0.272   5.764 -0.4661  0.5545 -1.5422
 4885SOL     OW26116   0.124   2.927  12.302 -0.2998 -0.2109 -0.1938
 4885SOL    HW126117   0.167   2.998  12.254  1.0566 -0.8994  0.0109
 4885SOL    HW226118   0.050   2.968  12.348 -1.5319 -2.0852 -0.5076
 4886SOL     OW26119   1.047   0.193   9.108 -0.3456  0.4582 -0.3727
 4886SOL    HW126120   1.004   0.145   9.178 -0.5144  2.3878  0.8532
 4886SOL    HW226121   1.121   0.133   9.103 -0.3858  0.4519 -0.8741
 4887SOL     OW26122   3.667   4.014   7.869  0.0741 -0.0196 -0.3739
 4887SOL    HW126123   3.732   4.071   7.910 -1.0689  0.6371  0.5331
 4887SOL    HW226124   3.729   3.969   7.812  0.9169 -0.9373  1.2519
 4888SOL     OW26125   1.775   3.142   4.635  0.6989 -0.5855  0.1738
 4888SOL    HW126126   1.759   3.051   4.661 -0.1197 -0.4989 -0.0140
 4888SOL    HW226127   1.726   3.194   4.698  0.5756 -0.9242  0.3578
 4889SOL     OW26128   0.536   0.467   0.054  0.2209 -0.4865 -0.5577
 4889SOL    HW126129   0.523   0.561   0.039  0.6373 -0.4445 -0.6525
 4889SOL    HW226130   0.604   0.443  17.693 -0.8510 -0.6692 -1.6578
 4890SOL     OW26131   1.987   3.764   3.133 -0.1055 -0.1763 -0.1989
 4890SOL    HW126132   2.076   3.796   3.145 -1.1062  1.9775  1.6010
 4890SOL    HW226133   1.964   3.787   3.043 -0.5469  1.9335  0.4345
 4891SOL     OW26134   0.658   2.864   6.917  0.3934 -0.0430 -0.2024
 4891SOL    HW126135   0.670   2.856   6.823 -0.5763  0.6863 -0.3892
 4891SOL    HW226136   0.681   2.957   6.927 -2.1024  0.3859  1.6239
 4892SOL     OW26137   3.235   2.871   2.098 -0.6454  0.3999 -0.0221
 4892SOL    HW126138   3.299   2.917   2.044 -0.9955  0.2704 -0.5504
 4892SOL    HW226139   3.189   2.946   2.134  1.5460  1.4195  0.6480
 4893SOL     OW26140   4.256   1.409  14.178 -0.5276  0.2578  0.2271
 4893SOL    HW126141   4.345   1.403  14.212 -0.1651 -0.2413 -0.8379
 4893SOL    HW226142   4.211   1.409  14.263 -0.0991  0.7807  0.4485
 4894SOL     OW26143   4.594   4.054   2.793  0.0663 -0.8625 -0.6911
 4894SOL    HW126144   4.683   4.022   2.807 -0.2527 -1.1538  0.6714
 4894SOL    HW226145   4.601   4.092   2.705  0.4205  0.2666 -0.1746
 4895SOL     OW26146   3.226   3.942   8.315 -0.1643  0.2406  0.3537
 4895SOL    HW126147   3.240   4.019   8.370 -0.0454  0.7437 -0.3825
 4895SOL    HW226148   3.144   3.969   8.273  0.9451  0.0192 -1.9351
 4896SOL     OW26149   1.690   3.761  10.183 -0.5813 -0.2569  0.3307
 4896SOL    HW126150   1.617   3.790  10.129  0.2097 -1.1388 -1.1891
 4896SOL    HW226151   1.766   3.782  10.129 -0.7384  0.9537  0.5782
 4897SOL     OW26152   3.555   0.653   6.485 -0.3574 -0.0550  0.1221
 4897SOL    HW126153   3.503   0.585   6.442 -1.1556 -0.5311  1.8430
 4897SOL    HW226154   3.633   0.667   6.432 -0.6025  1.3172  0.1235
 4898SOL     OW26155   3.726   4.499   8.385  0.0210 -0.3655  0.4524
 4898SOL    HW126156   3.795   4.537   8.330 -0.1125  1.3089  1.4554
 4898SOL    HW226157   3.781   4.437   8.433  0.3440 -0.1330  0.3877
 4899SOL     OW26158   2.610   3.632   3.250  0.1115 -0.2850  0.2457
 4899SOL    HW126159   2.556   3.704   3.217 -0.6335 -0.7072  0.5248
 4899SOL    HW226160   2.587   3.628   3.343  0.2583  2.0564  0.4058
 4900SOL     OW26161   2.402   2.368   7.184 -0.1632  0.5794 -0.4573
 4900SOL    HW126162   2.468   2.330   7.126 -0.5610 -1.4425  0.3865
 4900SOL    HW226163   2.423   2.313   7.259 -2.3181 -1.8666 -1.6183
 4901SOL     OW26164   3.193   3.510   0.577 -0.3600  0.4353  0.4381
 4901SOL    HW126165   3.224   3.595   0.544 -2.0209  1.7404  2.1937
 4901SOL    HW226166   3.107   3.519   0.536 -0.0751  1.6060  0.0681
 4902SOL     OW26167   1.347   0.740  16.466 -0.5725 -0.0087  0.9130
 4902SOL    HW126168   1.266   0.783  16.440  0.7034  0.8507 -1.6406
 4902SOL    HW226169   1.344   0.649  16.436  0.6112 -0.2246  1.4234
 4903SOL     OW26170   1.783   0.405   8.088  0.3860 -0.5181 -0.6056
 4903SOL    HW126171   1.793   0.318   8.127 -0.6115  0.2667  1.3778
 4903SOL    HW226172   1.697   0.431   8.120 -0.6075 -2.6794 -1.4907
 4904SOL     OW26173   3.219   0.741   5.318  0.1207 -0.0044 -0.3640
 4904SOL    HW126174   3.147   0.803   5.307 -1.0533 -1.4097 -0.5490
 4904SOL    HW226175   3.175   0.661   5.289 -0.9204 -0.0973  1.4309
 4905SOL     OW26176   2.843   1.386   8.156 -0.3143  0.4579 -0.0652
 4905SOL    HW126177   2.780   1.316   8.139 -1.6829  1.3783  1.2018
 4905SOL    HW226178   2.883   1.347   8.234  0.1196  2.3167  0.6494
 4906SOL     OW26179   2.561   3.638   6.953  0.2319 -0.1268  0.1313
 4906SOL    HW126180   2.592   3.657   7.041  0.2705  0.1208  0.0641
 4906SOL    HW226181   2.650   3.625   6.920  0.8381  2.3243  0.8699
 4907SOL     OW26182   3.965   4.222   7.849 -0.1184 -0.2386  0.0626
 4907SOL    HW126183   3.983   4.136   7.811  0.4710 -0.7597  1.5344
 4907SOL    HW226184   4.057   4.239   7.867  0.1709 -0.1563 -1.4860
 4908SOL     OW26185   2.795   3.435   8.872  0.1205 -0.0135  0.1159
 4908SOL    HW126186   2.748   3.427   8.956 -2.4468 -0.9038 -1.3914
 4908SOL    HW226187   2.726   3.466   8.813 -1.0904 -0.6713  1.1793
 4909SOL     OW26188   3.487   3.947   4.890  0.0696  0.3878  0.4456
 4909SOL    HW126189   3.505   3.857   4.864  0.4610  0.2463  1.2387
 4909SOL    HW226190   3.415   3.933   4.952 -0.4009 -0.6060 -0.3050
 4910SOL     OW26191   3.896   1.742   2.460 -0.1519 -0.4709 -0.0813
 4910SOL    HW126192   3.843   1.700   2.527 -1.1115 -0.2278 -0.6958
 4910SOL    HW226193   3.849   1.714   2.382  0.9197 -1.9585 -0.2100
 4911SOL     OW26194   3.284   3.127  11.195  0.2635 -0.1902  0.0073
 4911SOL    HW126195   3.296   3.154  11.286  0.2612 -1.6592  0.4321
 4911SOL    HW226196   3.360   3.167  11.152  0.5396 -0.7767 -0.0535
 4912SOL     OW26197   1.873   2.411   8.978 -0.0096  0.4568  0.0173
 4912SOL    HW126198   1.961   2.405   8.939  0.5245  2.4170  0.9246
 4912SOL    HW226199   1.873   2.506   8.986  0.5829  0.6530 -2.1399
 4913SOL     OW26200   2.693   4.312   7.590  0.3608 -0.2146 -0.5802
 4913SOL    HW126201   2.752   4.289   7.662 -1.7583  0.0224  1.2213
 4913SOL    HW226202   2.619   4.251   7.596 -0.8760  1.3014 -0.4190
 4914SOL     OW26203   2.704   3.568   5.022 -1.1789  0.1790  0.0060
 4914SOL    HW126204   2.790   3.535   4.994 -0.8390 -0.2317  1.5621
 4914SOL    HW226205   2.697   3.650   4.973 -2.0317 -0.6312 -1.2544
 4915SOL     OW26206   3.446   1.399   4.891 -0.1869  0.1265  0.5132
 4915SOL    HW126207   3.464   1.343   4.815  1.7739  0.7589  0.5233
 4915SOL    HW226208   3.471   1.339   4.961  0.8786 -0.0593 -0.0239
 4916SOL     OW26209   0.576   2.311   8.721  0.2455  0.0439  0.1709
 4916SOL    HW126210   0.581   2.397   8.678  3.6597  0.5777  1.6273
 4916SOL    HW226211   0.653   2.267   8.685 -0.5803 -2.2312  1.1622
 4917SOL     OW26212   1.199   4.494   5.331 -0.8567 -0.3827 -0.1136
 4917SOL    HW126213   1.243   4.411   5.311 -0.2798  0.0624 -0.6758
 4917SOL    HW226214   1.275   4.544   5.362 -1.4527  0.3394  0.1598
 4918SOL     OW26215   0.680   1.142   2.196 -0.1983 -0.4201 -0.1980
 4918SOL    HW126216   0.647   1.086   2.125 -1.4085  0.0078  0.0270
 4918SOL    HW226217   0.706   1.216   2.141  0.5702 -1.2414 -0.9444
 4919SOL     OW26218   4.547   1.365   9.906 -0.2033  0.2865 -0.6234
 4919SOL    HW126219   4.626   1.400   9.946 -1.0089  0.3292  0.9333
 4919SOL    HW226220   4.482   1.362   9.976  1.9310 -4.0083  1.1769
 4920SOL     OW26221   3.855   3.971  12.543 -0.2482  0.1093 -0.5528
 4920SOL    HW126222   3.879   4.032  12.613 -0.7483  1.1626 -1.3064
 4920SOL    HW226223   3.829   3.899  12.600  0.6968  1.7648  1.9921
 4921SOL     OW26224   2.100   2.883   2.834 -0.3804  0.4839 -0.2889
 4921SOL    HW126225   2.096   2.948   2.904 -0.9714  0.6708 -0.4956
 4921SOL    HW226226   2.193   2.891   2.815  0.2493  0.9725  3.1338
 4922SOL     OW26227   0.600   4.589  15.753  0.0618  0.2001  0.0185
 4922SOL    HW126228   0.673   4.648  15.731 -0.0872  0.4648  0.2316
 4922SOL    HW226229   0.626   4.583  15.845 -2.1260  0.5661  0.6613
 4923SOL     OW26230   3.062   0.445   8.721 -0.3373  0.1502  0.7019
 4923SOL    HW126231   3.104   0.375   8.770 -0.1701 -0.4257 -0.2740
 4923SOL    HW226232   2.982   0.395   8.705 -0.1665 -0.2576  1.1233
 4924SOL     OW26233   0.553   4.377  12.394  0.0452  0.2336  0.1780
 4924SOL    HW126234   0.617   4.344  12.456  0.9241  0.3529 -0.6685
 4924SOL    HW226235   0.588   4.362  12.306  0.8410  2.5978  0.0981
 4925SOL     OW26236   1.768   3.536   3.533  0.2176 -0.0768  0.3934
 4925SOL    HW126237   1.826   3.540   3.609  0.9462  0.8835 -0.2254
 4925SOL    HW226238   1.771   3.448   3.495  2.2503 -0.0331  0.4936
 4926SOL     OW26239   0.298   3.117   6.602 -0.6323 -0.0359  0.3351
 4926SOL    HW126240   0.277   3.030   6.637  0.8020  0.0644  1.4762
 4926SOL    HW226241   0.293   3.089   6.511 -2.3134  0.7119  0.2100
 4927SOL     OW26242   0.708   1.044   3.525 -0.1331 -0.1899 -0.3902
 4927SOL    HW126243   0.724   1.126   3.572  1.1745 -0.4265 -0.4205
 4927SOL    HW226244   0.651   1.002   3.589  0.1534  0.8108  0.5258
 4928SOL     OW26245   0.659   0.847   1.192 -0.0016  0.0994 -0.3131
 4928SOL    HW126246   0.688   0.936   1.215  0.7651 -0.5878  1.3487
 4928SOL    HW226247   0.576   0.876   1.152  1.6981  3.3745 -1.5160
 4929SOL     OW26248   2.783   2.894  13.365 -0.6043 -0.1822 -0.6807
 4929SOL    HW126249   2.691   2.867  13.362 -0.9384  0.6859  2.4167
 4929SOL    HW226250   2.774   2.980  13.404  0.2795 -0.5889  0.4259
 4930SOL     OW26251   3.702   0.998   6.742  0.0957  0.6215  0.6971
 4930SOL    HW126252   3.620   0.980   6.696  0.5648  0.8950 -0.2456
 4930SOL    HW226253   3.694   1.093   6.748  0.6825  0.7581 -0.8213
 4931SOL     OW26254   2.191   4.708   3.198  0.1099  0.0007  0.2983
 4931SOL    HW126255   2.244   4.631   3.178  0.6428  0.2088  0.8873
 4931SOL    HW226256   2.210   0.028   3.116  0.3310  1.6212  1.2497
 4932SOL     OW26257   3.438   2.102  14.112  0.5427  0.3848 -0.6720
 4932SOL    HW126258   3.511   2.117  14.053  0.5198 -0.4209 -0.8992
 4932SOL    HW226259   3.458   2.138  14.199 -1.4030  0.5811 -0.3007
 4933SOL     OW26260   1.415   1.000  16.582  0.2664 -0.3632 -0.0477
 4933SOL    HW126261   1.429   0.911  16.615 -2.2173 -1.2146 -1.2970
 4933SOL    HW226262   1.460   1.004  16.498 -0.3772  1.1322 -0.3186
 4934SOL     OW26263   2.932   1.984   0.326  0.1870 -0.0520 -0.2564
 4934SOL    HW126264   2.927   2.074   0.360 -0.8381 -0.5864  0.9788
 4934SOL    HW226265   2.999   1.948   0.385 -0.6726 -0.5035  0.4344
 4935SOL     OW26266   3.519   3.640   2.575 -0.5147  0.0886 -0.6160
 4935SOL    HW126267   3.517   3.713   2.514 -2.1773 -0.9610 -1.8417
 4935SOL    HW226268   3.611   3.619   2.560 -0.9585 -2.8303  0.6193
 4936SOL     OW26269   0.328   4.358   5.052 -0.0517 -0.4903  0.4016
 4936SOL    HW126270   0.388   4.422   5.014 -0.2259 -1.7773 -2.0216
 4936SOL    HW226271   0.271   4.334   4.978 -0.8729  1.1114  0.5037
 4937SOL     OW26272   1.082   1.416   0.918  0.5606 -0.5850 -0.4131
 4937SOL    HW126273   1.017   1.431   0.850  1.4060 -0.4986 -1.2020
 4937SOL    HW226274   1.110   1.335   0.876 -1.2819 -0.2121 -2.3325
 4938SOL     OW26275   0.931   1.394  16.612 -0.2647 -0.5039 -0.5288
 4938SOL    HW126276   0.911   1.302  16.596  1.1457 -0.4851 -2.4836
 4938SOL    HW226277   0.953   1.419  16.522 -2.0371  1.0073 -0.5272
 4939SOL     OW26278   4.000   3.081   3.421 -0.0797 -0.3756  0.4668
 4939SOL    HW126279   4.060   3.046   3.486 -0.4516  2.0906  2.1491
 4939SOL    HW226280   3.913   3.062   3.454  0.3233 -0.3718  1.5529
 4940SOL     OW26281   1.951   2.667   8.404 -0.2615 -0.1776  0.2641
 4940SOL    HW126282   1.998   2.726   8.344  0.6103 -1.7733 -0.6071
 4940SOL    HW226283   2.008   2.590   8.406  2.8207  2.0708  0.1629
 4941SOL     OW26284   1.073   0.052   4.813 -0.6249  0.4542 -0.3800
 4941SOL    HW126285   1.133   0.126   4.813 -0.2653  0.1644 -0.0929
 4941SOL    HW226286   1.085   0.015   4.725  1.1467  2.8658 -1.1475
 4942SOL     OW26287   3.460   1.378   5.169  0.7575 -0.3577 -0.0362
 4942SOL    HW126288   3.377   1.338   5.143  0.7179 -1.2849  1.5272
 4942SOL    HW226289   3.436   1.470   5.174  1.4715 -0.2433  1.2318
 4943SOL     OW26290   1.663   0.351  14.504  0.1560  0.0934  0.1483
 4943SOL    HW126291   1.576   0.390  14.508  0.5393  1.2170 -2.2496
 4943SOL    HW226292   1.695   0.355  14.594  0.2495 -0.3840  0.1347
 4944SOL     OW26293   0.221   1.842  12.243  0.7351  0.4539 -0.5543
 4944SOL    HW126294   0.143   1.836  12.188  0.0345  0.4877  0.4457
 4944SOL    HW226295   0.191   1.874  12.328 -0.5867  1.3654 -1.3644
 4945SOL     OW26296   2.805   2.184   5.022 -0.4594 -0.6369 -0.2920
 4945SOL    HW126297   2.860   2.236   4.963 -0.3823  1.1161  1.3056
 4945SOL    HW226298   2.729   2.164   4.967 -0.0332 -0.9758 -0.7479
 4946SOL     OW26299   2.887   3.417   0.588  0.1883 -0.0021  0.5584
 4946SOL    HW126300   2.844   3.472   0.653  1.1306  0.1172  1.0765
 4946SOL    HW226301   2.873   3.457   0.502  1.7805 -1.1563 -0.2365
 4947SOL     OW26302   3.065   3.120   3.878  0.5473 -0.1219  0.2970
 4947SOL    HW126303   3.147   3.164   3.899 -0.6529  2.7758 -1.1259
 4947SOL    HW226304   3.030   3.163   3.800 -1.2235 -0.4096  0.9443
 4948SOL     OW26305   4.594   0.812   8.999 -0.0703 -0.0251 -0.2166
 4948SOL    HW126306   4.591   0.717   9.012 -0.8294  0.3896  2.6295
 4948SOL    HW226307   4.500   0.825   9.004 -0.0933 -1.1082  2.1885
 4949SOL     OW26308   2.038   3.040  12.385  0.5663 -0.2598 -0.1916
 4949SOL    HW126309   2.090   2.960  12.400  1.6926  0.1056 -2.0925
 4949SOL    HW226310   2.045   3.047  12.290  2.0695 -0.3728 -0.1015
 4950SOL     OW26311   4.194   1.156   9.015  0.2207  0.0166  0.2328
 4950SOL    HW126312   4.135   1.104   9.069  1.2990  0.0654  1.4414
 4950SOL    HW226313   4.276   1.108   9.025  0.4764 -0.0880 -2.3578
 4951SOL     OW26314   0.123   4.602   6.257 -0.6470  0.8345 -0.7171
 4951SOL    HW126315   0.160   4.516   6.276 -2.2951  0.3568  0.2967
 4951SOL    HW226316   0.190   4.629   6.194  2.1381  1.4718  2.5268
 4952SOL     OW26317   1.485   0.290   6.365 -0.6205 -0.1116 -0.5062
 4952SOL    HW126318   1.458   0.199   6.349 -1.0056  0.3249 -2.3531
 4952SOL    HW226319   1.569   0.291   6.320  0.7151 -0.2682  2.0161
 4953SOL     OW26320   3.106   1.199   5.742  0.3794  0.2151  0.1465
 4953SOL    HW126321   3.154   1.273   5.706 -0.6005  0.7058 -0.1628
 4953SOL    HW226322   3.088   1.240   5.827 -2.6012  1.4729 -1.1008
 4954SOL     OW26323   2.856   1.511   3.116 -1.0425  0.0875 -0.4056
 4954SOL    HW126324   2.939   1.558   3.131 -0.9918  0.2030 -1.0524
 4954SOL    HW226325   2.807   1.582   3.074  0.6763  0.7679 -1.2640
 4955SOL     OW26326   0.126   1.802   9.581 -0.0044 -0.6040  0.2867
 4955SOL    HW126327   0.177   1.880   9.561 -1.5230  0.5733  1.0316
 4955SOL    HW226328   0.200   1.743   9.594 -0.0277 -0.1015  2.5547
 4956SOL     OW26329   3.988   2.877  14.940  0.4321  0.0587  0.6980
 4956SOL    HW126330   3.920   2.920  14.991 -0.6694 -0.8312 -0.0057
 4956SOL    HW226331   3.973   2.918  14.854 -0.0361  0.4079  0.9474
 4957SOL     OW26332   4.662   0.998   0.653 -0.0012 -0.1433  0.2032
 4957SOL    HW126333   0.021   1.003   0.608 -1.0800 -0.8676 -1.8682
 4957SOL    HW226334   4.688   0.976   0.743  0.1179  0.1854  0.2503
 4958SOL     OW26335   2.618   2.741  10.708 -0.0263 -0.1408  0.2662
 4958SOL    HW126336   2.681   2.698  10.766  1.2490 -0.2922 -1.2070
 4958SOL    HW226337   2.612   2.825  10.753 -0.0509  0.9580 -1.7873
 4959SOL     OW26338   1.305   1.307   8.064 -0.5866 -0.1056 -0.2335
 4959SOL    HW126339   1.383   1.257   8.087 -0.4301  0.5284  0.6314
 4959SOL    HW226340   1.243   1.235   8.054 -0.1129 -0.4538 -0.6419
 4960SOL     OW26341   3.654   0.332  12.600 -0.2149 -0.0463 -0.6414
 4960SOL    HW126342   3.585   0.306  12.662  0.2757 -0.8639 -0.4420
 4960SOL    HW226343   3.681   0.417  12.635 -1.2361  0.7656 -1.8060
 4961SOL     OW26344   2.102   1.871  11.538 -0.5172  0.3120 -0.2003
 4961SOL    HW126345   2.150   1.921  11.604  2.8831 -1.3844 -1.3776
 4961SOL    HW226346   2.104   1.784  11.576 -1.5190 -1.0245 -3.2095
 4962SOL     OW26347   0.873   1.799   6.257  0.4375 -0.5958 -0.5068
 4962SOL    HW126348   0.841   1.844   6.178 -1.8660 -2.5318 -0.6748
 4962SOL    HW226349   0.946   1.758   6.211 -0.2447 -2.2253 -0.1282
 4963SOL     OW26350   1.180   3.471   7.056 -0.4134 -0.5064  0.1594
 4963SOL    HW126351   1.094   3.443   7.089  0.6397 -2.8624  0.8653
 4963SOL    HW226352   1.232   3.399   7.091 -0.6896 -0.6491  0.2741
 4964SOL     OW26353   3.239   4.697   2.992 -0.1718 -0.1634  0.0583
 4964SOL    HW126354   3.275   4.625   2.940 -0.1103  0.0942 -0.2567
 4964SOL    HW226355   3.319   0.006   3.031 -1.0075  0.6466  1.0581
 4965SOL     OW26356   3.158   0.183  12.122  0.7728  0.2304  0.0907
 4965SOL    HW126357   3.221   0.164  12.192  1.1019  1.8707  0.2436
 4965SOL    HW226358   3.168   0.107  12.065  0.8830  0.8239 -0.6839
 4966SOL     OW26359   4.031   3.405   3.250 -0.6544 -0.6857  0.0341
 4966SOL    HW126360   3.949   3.364   3.277 -0.2726 -1.2591  0.3130
 4966SOL    HW226361   4.081   3.330   3.218  1.0103  0.4412 -0.0217
 4967SOL     OW26362   1.557   2.481  16.737 -0.3020  0.5882  0.0119
 4967SOL    HW126363   1.505   2.438  16.805 -0.9882 -2.0215 -2.1385
 4967SOL    HW226364   1.498   2.473  16.662  0.1312  0.6563 -0.3359
 4968SOL     OW26365   3.237   4.119   2.484 -0.9420 -0.1109 -0.0741
 4968SOL    HW126366   3.218   4.127   2.391 -2.5855  1.2021  0.3730
 4968SOL    HW226367   3.161   4.168   2.516 -1.1269  0.5382 -1.5244
 4969SOL     OW26368   0.053   3.787  12.255 -0.7721 -0.1864 -0.4462
 4969SOL    HW126369   0.069   3.779  12.349  2.4315  0.1488 -0.9481
 4969SOL    HW226370   4.689   3.752  12.252 -0.6091 -0.7174  0.9123
 4970SOL     OW26371   0.039   1.903  16.028 -0.0722 -0.1745 -0.2154
 4970SOL    HW126372   4.704   1.976  16.039  0.5300  0.6876 -2.6550
 4970SOL    HW226373   0.115   1.947  15.989 -0.1430  1.4205  1.4657
 4971SOL     OW26374   1.895   2.402   3.006  0.3669  0.1140 -0.1736
 4971SOL    HW126375   1.818   2.411   2.949  0.8788  1.4721 -0.6475
 4971SOL    HW226376   1.940   2.484   2.986  1.4732 -0.4298  0.0865
 4972SOL     OW26377   3.457   4.395   1.677 -0.0728  0.1803  0.1993
 4972SOL    HW126378   3.536   4.405   1.624  1.1996  1.6777  2.3627
 4972SOL    HW226379   3.384   4.407   1.617 -0.0788 -2.5701 -0.3590
 4973SOL     OW26380   4.007   0.302   8.649  0.1344  0.6616  0.2174
 4973SOL    HW126381   4.058   0.373   8.609 -1.9505  1.8788 -0.2941
 4973SOL    HW226382   3.939   0.303   8.581 -0.2256  1.8746  0.5865
 4974SOL     OW26383   1.757   3.832  11.930 -0.4868 -0.1208 -0.5806
 4974SOL    HW126384   1.778   3.897  11.997  1.2424 -0.1528 -1.0942
 4974SOL    HW226385   1.803   3.756  11.966  1.1018  0.8032 -0.6251
 4975SOL     OW26386   3.285   2.616   5.658 -0.1214  0.4624 -0.0745
 4975SOL    HW126387   3.258   2.708   5.666  2.3330  0.8889  2.9623
 4975SOL    HW226388   3.335   2.610   5.739 -0.1150 -0.8091 -0.1786
 4976SOL     OW26389   3.798   0.445   6.422  0.0207  0.5898 -0.0861
 4976SOL    HW126390   3.765   0.532   6.397  0.3757  0.3353 -1.4468
 4976SOL    HW226391   3.892   0.459   6.405  0.4555 -1.2542  0.8144
 4977SOL     OW26392   3.937   1.674  14.087  0.1894  0.1013 -0.2095
 4977SOL    HW126393   3.908   1.590  14.123  1.0283 -0.1256 -0.0606
 4977SOL    HW226394   4.027   1.665  14.058  1.0916  1.8822  2.0646
 4978SOL     OW26395   4.168   2.804   5.599  0.2073  0.3499 -0.0564
 4978SOL    HW126396   4.171   2.897   5.580 -1.4417  0.0963 -1.6134
 4978SOL    HW226397   4.177   2.792   5.694 -4.4906 -0.8676  0.2523
 4979SOL     OW26398   2.224   4.526   5.209  0.4362 -0.5428 -0.4840
 4979SOL    HW126399   2.183   4.588   5.148 -0.9993  0.1681  1.1747
 4979SOL    HW226400   2.315   4.549   5.191  0.2963  1.4656  1.3800
 4980SOL     OW26401   1.649   0.234   2.748  0.0310 -0.2569  0.1859
 4980SOL    HW126402   1.708   0.301   2.714  0.7353  0.3697  2.6543
 4980SOL    HW226403   1.567   0.274   2.778  0.6941 -0.0025  1.6734
 4981SOL     OW26404   4.645   3.935   3.603  0.6467  0.0761 -0.1165
 4981SOL    HW126405   4.651   3.843   3.576  0.1541 -0.1045  0.3853
 4981SOL    HW226406   4.629   3.970   3.516  0.8193 -2.7315 -1.2599
 4982SOL     OW26407   2.580   0.017  10.994 -0.6458  0.7041  0.0020
 4982SOL    HW126408   2.499   0.052  11.030 -0.9832 -2.1631  2.0505
 4982SOL    HW226409   2.560   4.652  11.020  1.3230  0.1927 -0.2866
 4983SOL     OW26410   0.756   1.613  16.142 -0.1562 -0.3966 -0.0803
 4983SOL    HW126411   0.839   1.622  16.094  0.4837  1.7324  1.4381
 4983SOL    HW226412   0.726   1.525  16.121 -1.2517 -0.4165  1.6018
 4984SOL     OW26413   2.436   2.877   1.666  0.1340  0.1713 -0.2050
 4984SOL    HW126414   2.441   2.787   1.632 -1.2599  0.6461 -1.6612
 4984SOL    HW226415   2.528   2.901   1.656  0.0941  0.3126 -0.2227
 4985SOL     OW26416   0.572   1.286   3.769  0.0965 -0.1767  0.1843
 4985SOL    HW126417   0.510   1.350   3.804 -0.8690 -2.8335  3.2546
 4985SOL    HW226418   0.596   1.242   3.851  1.6337  0.1929 -0.0577
 4986SOL     OW26419   1.665   0.139   5.195 -0.0995 -0.2730 -0.1258
 4986SOL    HW126420   1.734   0.103   5.139  1.5646  0.0974  1.7010
 4986SOL    HW226421   1.710   0.142   5.279  0.9073 -0.0676 -0.6634
 4987SOL     OW26422   3.331   1.492   6.465 -0.0620  1.1131 -0.3265
 4987SOL    HW126423   3.398   1.559   6.453  0.6554  0.4556  0.0514
 4987SOL    HW226424   3.277   1.535   6.532 -0.6883  3.3440 -2.2864
 4988SOL     OW26425   2.899   4.461   9.980 -0.2979 -0.3913 -0.5522
 4988SOL    HW126426   2.898   4.414  10.063  1.3943  1.5711  0.6023
 4988SOL    HW226427   2.846   4.537  10.002  1.4907  0.6861  0.0811
 4989SOL     OW26428   1.293   3.076  15.284  0.1092 -0.6651 -0.2421
 4989SOL    HW126429   1.305   2.996  15.232  3.2751 -0.0447 -0.4564
 4989SOL    HW226430   1.202   3.104  15.285  0.5570  0.8441 -2.3402
 4990SOL     OW26431   1.749   4.304  15.895  0.8422  0.0356  0.4178
 4990SOL    HW126432   1.829   4.287  15.944  2.2857 -0.7827 -2.1960
 4990SOL    HW226433   1.709   4.360  15.962 -0.8178 -0.1920 -0.3759
 4991SOL     OW26434   1.527   1.497  14.470 -0.1301 -0.0275 -0.1831
 4991SOL    HW126435   1.531   1.591  14.456 -1.2178 -0.2602 -2.0084
 4991SOL    HW226436   1.574   1.460  14.396  2.0882 -1.3781  1.9054
 4992SOL     OW26437   3.300   3.433   9.203 -0.3137  0.3846  0.4222
 4992SOL    HW126438   3.268   3.463   9.289 -2.2346  0.0070 -0.1655
 4992SOL    HW226439   3.226   3.410   9.146  0.0785 -0.0897  0.1114
 4993SOL     OW26440   1.965   3.035   7.607 -1.1479  0.4976 -0.0393
 4993SOL    HW126441   1.995   3.062   7.520 -0.4030 -1.6777 -0.4621
 4993SOL    HW226442   2.004   3.104   7.660 -0.7292  1.4610 -1.5975
 4994SOL     OW26443   4.296   3.932   9.065 -0.6440  0.6171 -0.0774
 4994SOL    HW126444   4.257   3.930   8.978 -0.6829 -2.6187  0.0132
 4994SOL    HW226445   4.356   3.858   9.064 -1.3883  0.0072  0.0306
 4995SOL     OW26446   4.269   2.996   7.010  0.1130  0.6185 -0.1179
 4995SOL    HW126447   4.355   2.963   6.984 -0.1061  1.2207 -1.5911
 4995SOL    HW226448   4.222   3.017   6.929  0.4920  0.2971 -0.4199
 4996SOL     OW26449   0.664   1.255  17.335  0.5843 -0.0605  0.1406
 4996SOL    HW126450   0.595   1.312  17.370  2.4432  3.3374 -1.7018
 4996SOL    HW226451   0.613   1.197  17.279  0.9948 -0.4858  0.2156
 4997SOL     OW26452   3.854   2.758   6.453 -0.0633 -0.3454 -0.0288
 4997SOL    HW126453   3.939   2.802   6.450 -0.8744  1.4826  3.2848
 4997SOL    HW226454   3.880   2.667   6.467 -1.6762 -0.8313 -0.2200
 4998SOL     OW26455   0.717   3.479  12.708 -0.0910  0.0515 -0.5337
 4998SOL    HW126456   0.730   3.451  12.798  2.6749 -0.1368 -0.9801
 4998SOL    HW226457   0.696   3.572  12.715  1.9581  0.6491 -2.1623
 4999SOL     OW26458   2.822   4.213   7.341  0.1843 -0.2659  0.2449
 4999SOL    HW126459   2.776   4.265   7.408  2.0729  0.5335  0.9226
 4999SOL    HW226460   2.901   4.187   7.389  0.0778 -3.1510 -1.1547
 5000SOL     OW26461   2.068   2.033   9.911 -0.1827 -0.1978  0.1342
 5000SOL    HW126462   2.093   2.120   9.942 -0.4902  0.4417 -1.4214
 5000SOL    HW226463   2.094   2.041   9.819  0.1164 -1.1396  0.1403
 5001SOL     OW26464   3.923   2.870   3.655  0.1664 -0.1686 -0.6478
 5001SOL    HW126465   4.005   2.844   3.697 -0.2351  0.9748  0.8897
 5001SOL    HW226466   3.872   2.887   3.735  2.8772 -0.5590  1.1738
 5002SOL     OW26467   1.369   1.483   6.457 -0.1444 -0.3338  0.0897
 5002SOL    HW126468   1.380   1.504   6.550  0.0307 -0.6452  0.1391
 5002SOL    HW226469   1.335   1.394   6.459 -1.8378  0.3029 -0.0188
 5003SOL     OW26470   2.104   4.415   7.444  0.3190 -0.2180  0.1366
 5003SOL    HW126471   2.063   4.482   7.390 -1.6076  0.3572  2.3179
 5003SOL    HW226472   2.104   4.347   7.377  1.1542 -0.0825  0.0036
 5004SOL     OW26473   0.207   0.543   4.475 -0.1633  0.0592 -0.0182
 5004SOL    HW126474   0.236   0.565   4.387  0.3215  1.0666  0.3943
 5004SOL    HW226475   0.198   0.628   4.518 -2.2598 -1.2289  2.1409
 5005SOL     OW26476   0.186   0.421   6.072  0.2879 -0.5000 -0.5975
 5005SOL    HW126477   0.111   0.362   6.064  0.6560 -0.9029 -1.0294
 5005SOL    HW226478   0.138   0.492   6.116  0.6946  0.0438 -1.0338
 5006SOL     OW26479   0.663   0.639   0.821  0.1759 -0.2861  0.4692
 5006SOL    HW126480   0.741   0.587   0.842  1.1920  0.9182 -0.3962
 5006SOL    HW226481   0.677   0.673   0.733 -0.3164 -1.3967 -0.0423
 5007SOL     OW26482   4.614   0.828   2.555  0.3140  0.6015  0.1288
 5007SOL    HW126483   4.587   0.738   2.568  1.2710  0.5122  1.5451
 5007SOL    HW226484   4.528   0.869   2.546  0.0899  0.2396  0.6721
 5008SOL     OW26485   1.643   2.252   6.344  0.2927  0.3132 -0.2258
 5008SOL    HW126486   1.738   2.246   6.347  0.4200  2.1861 -0.1233
 5008SOL    HW226487   1.630   2.158   6.331 -0.1124  0.8559 -3.8587
 5009SOL     OW26488   0.156   3.057  11.615 -0.3354 -0.4147 -0.1798
 5009SOL    HW126489   0.191   3.146  11.616  0.7839 -0.8703  1.2817
 5009SOL    HW226490   0.125   3.046  11.525 -0.3614 -0.2106 -0.1963
 5010SOL     OW26491   4.582   3.987   6.154  0.3115  0.0142 -0.3715
 5010SOL    HW126492   4.630   4.051   6.205  0.4739  1.9456 -2.9824
 5010SOL    HW226493   4.519   4.049   6.118  0.3684  0.6673  0.6784
 5011SOL     OW26494   1.338   4.194   8.576  0.0049 -0.2250 -0.1067
 5011SOL    HW126495   1.390   4.253   8.522 -1.4952  1.6974  0.5291
 5011SOL    HW226496   1.249   4.227   8.568  0.9050  2.1605 -0.4071
 5012SOL     OW26497   0.242   2.834   8.184 -0.4878 -0.5311  0.3717
 5012SOL    HW126498   0.237   2.786   8.102  1.3637  1.7473 -1.0979
 5012SOL    HW226499   0.154   2.872   8.187  0.4678  1.8128 -1.1018
 5013SOL     OW26500   3.549   4.202   4.786 -0.4242 -0.5109  0.4089
 5013SOL    HW126501   3.550   4.106   4.782  2.6158 -0.4810  0.0167
 5013SOL    HW226502   3.464   4.222   4.825 -0.5824  1.0282 -0.7242
 5014SOL     OW26503   0.132   3.991   7.854  0.1941 -0.4915  0.6988
 5014SOL    HW126504   0.155   3.977   7.763 -1.1867 -0.2495  0.3057
 5014SOL    HW226505   0.125   3.902   7.891  0.3149 -0.3318  1.1121
 5015SOL     OW26506   3.669   2.540   3.483 -0.1273  0.0765 -0.4815
 5015SOL    HW126507   3.747   2.596   3.483  0.1583 -0.3300 -0.0808
 5015SOL    HW226508   3.710   2.455   3.494 -0.8325 -0.4427 -1.8932
 5016SOL     OW26509   3.171   0.890   6.805  0.0487  0.1903  0.1518
 5016SOL    HW126510   3.082   0.858   6.791  0.0879  0.5233 -0.8221
 5016SOL    HW226511   3.208   0.907   6.719 -0.1382  1.5646  0.3281
 5017SOL     OW26512   2.167   4.113   3.272  0.5727  0.3453  0.1227
 5017SOL    HW126513   2.224   4.156   3.209  0.6596 -0.5558 -0.4058
 5017SOL    HW226514   2.175   4.025   3.236 -1.4979 -0.8025  2.3838
 5018SOL     OW26515   2.012   3.059   6.888 -0.3421  0.2821 -0.5391
 5018SOL    HW126516   2.051   3.091   6.806  0.9390 -2.1012 -0.8677
 5018SOL    HW226517   1.945   2.999   6.855 -1.8963  1.2194  0.9123
 5019SOL     OW26518   0.963   2.753   3.073 -0.2861  0.3629  1.0549
 5019SOL    HW126519   0.938   2.717   3.158 -0.9871 -0.8827  0.3224
 5019SOL    HW226520   1.058   2.765   3.079 -0.2088  0.0349  0.5157
 5020SOL     OW26521   2.287   1.721   3.391  0.6975 -0.5387 -0.5691
 5020SOL    HW126522   2.347   1.647   3.384  3.2634  1.5171 -0.0011
 5020SOL    HW226523   2.220   1.704   3.325 -1.3473  0.9905  1.1116
 5021SOL     OW26524   0.474   1.273   4.857 -0.0907 -0.0763  0.3014
 5021SOL    HW126525   0.425   1.289   4.937 -1.1464 -3.0759  0.2649
 5021SOL    HW226526   0.530   1.206   4.898  1.6873  0.9785 -0.3993
 5022SOL     OW26527   4.057   1.785  17.172  0.2482 -0.0615 -0.2643
 5022SOL    HW126528   4.146   1.795  17.207  0.0020  0.0408  0.3324
 5022SOL    HW226529   4.074   1.709  17.117  0.4318  0.1412 -0.4844
 5023SOL     OW26530   3.094   3.150  13.859 -0.2232  0.2278 -0.2647
 5023SOL    HW126531   3.004   3.125  13.839  0.1743  0.4272 -2.3474
 5023SOL    HW226532   3.119   3.168  13.768  1.2884  0.3473  0.1802
 5024SOL     OW26533   0.273   4.692   3.856  0.3512  0.0817  0.5040
 5024SOL    HW126534   0.225   4.610   3.844 -1.1568  0.7348  2.1003
 5024SOL    HW226535   0.293   4.715   3.765  2.9242 -0.2786  0.9747
 5025SOL     OW26536   0.056   0.700   3.014 -0.0708  0.4056 -0.4330
 5025SOL    HW126537   0.031   0.610   3.035 -2.4141  0.9133 -1.0519
 5025SOL    HW226538   4.704   0.718   2.959 -1.0526 -1.6280  0.2613
 5026SOL     OW26539   2.108   0.527   5.401 -0.6666  0.1630 -0.0027
 5026SOL    HW126540   2.109   0.588   5.327 -1.3364 -2.0442 -1.8096
 5026SOL    HW226541   2.138   0.575   5.479  0.4908 -2.1691  0.9682
 5027SOL     OW26542   2.661   4.371   4.747 -0.3053  0.4708 -0.1654
 5027SOL    HW126543   2.672   4.338   4.836  1.2237  0.8887 -0.1987
 5027SOL    HW226544   2.589   4.314   4.723 -0.3931  0.3908  0.2869
 5028SOL     OW26545   2.516   4.232   4.247  0.1124 -0.1323  0.3426
 5028SOL    HW126546   2.611   4.226   4.236  0.0205  2.0168 -1.6510
 5028SOL    HW226547   2.508   4.302   4.311  1.2291 -0.2697  0.6345
 5029SOL     OW26548   3.874   4.117   4.257  0.2234 -0.1955 -0.5653
 5029SOL    HW126549   3.835   4.165   4.183 -0.8215  2.6002  1.7914
 5029SOL    HW226550   3.968   4.107   4.241  0.5276  0.8944  0.5214
 5030SOL     OW26551   0.538   1.821   9.256 -0.8300  0.0386  0.3217
 5030SOL    HW126552   0.613   1.870   9.221 -3.8896  1.2443 -4.5111
 5030SOL    HW226553   0.578   1.774   9.330  0.6591  1.6233  0.5341
 5031SOL     OW26554   1.074   0.807   2.150 -0.5226  0.0250 -0.3405
 5031SOL    HW126555   1.150   0.801   2.092 -0.5923 -1.7360 -0.2716
 5031SOL    HW226556   1.046   0.897   2.133 -1.1737  0.3455  2.3976
 5032SOL     OW26557   0.044   0.516   8.039  0.1427 -0.2295 -0.0568
 5032SOL    HW126558   0.107   0.449   8.065  0.8233 -0.1458 -1.4931
 5032SOL    HW226559   0.005   0.529   8.126 -2.1502 -0.4606 -1.0548
 5033SOL     OW26560   2.239   3.908   4.834  0.6526 -0.0490  0.3780
 5033SOL    HW126561   2.164   3.867   4.792  0.4695 -0.7137  1.3551
 5033SOL    HW226562   2.197   3.907   4.920  1.6413  2.8081  0.8888
 5034SOL     OW26563   0.634   2.543   8.545  0.1314  0.7081  0.3514
 5034SOL    HW126564   0.568   2.609   8.525 -0.9780  0.0719  1.9088
 5034SOL    HW226565   0.619   2.480   8.475 -0.4159  2.7852 -1.3710
 5035SOL     OW26566   2.478   3.825   7.411  0.5465  0.1387  0.3052
 5035SOL    HW126567   2.401   3.836   7.467  0.4093 -1.9755  0.5344
 5035SOL    HW226568   2.429   3.794   7.335 -0.0024 -2.0882  1.5825
 5036SOL     OW26569   4.085   3.532   0.448 -0.4554 -0.1470 -0.3361
 5036SOL    HW126570   4.080   3.485   0.364  0.0553  0.1406 -0.5321
 5036SOL    HW226571   4.064   3.462   0.509  1.4247  0.3624  0.8881
 5037SOL     OW26572   4.582   0.096   0.157  0.2817  0.7533  0.1944
 5037SOL    HW126573   4.651   0.092   0.223  0.4519 -0.8700 -0.0891
 5037SOL    HW226574   4.627   0.114   0.074  2.2126  0.2662  1.1494
 5038SOL     OW26575   0.186   3.768  10.384  0.4521  0.1602 -0.9663
 5038SOL    HW126576   0.187   3.677  10.356 -0.3186  0.0884 -0.7624
 5038SOL    HW226577   0.099   3.775  10.423  0.7763  1.5658 -0.4689
 5039SOL     OW26578   0.312   3.477   1.312 -0.0451 -0.1390  0.0716
 5039SOL    HW126579   0.352   3.480   1.399 -1.3680  1.7172  0.6162
 5039SOL    HW226580   0.224   3.450   1.339  0.3780  0.3084  1.8991
 5040SOL     OW26581   2.285   0.096  17.464 -0.0726  0.3987  0.4214
 5040SOL    HW126582   2.251   0.011  17.438 -3.7007  2.1580 -0.6252
 5040SOL    HW226583   2.292   0.077  17.558  2.0986  0.6651  0.3111
 5041SOL     OW26584   3.822   1.156  15.736 -0.2790 -0.3288 -0.5135
 5041SOL    HW126585   3.899   1.123  15.783 -0.5494 -0.1885  0.0373
 5041SOL    HW226586   3.769   1.205  15.800  0.6317 -0.3427  0.2515
 5042SOL     OW26587   0.836   1.853   9.136  0.0984 -0.3322 -0.0047
 5042SOL    HW126588   0.895   1.862   9.060  0.2868  1.1833  0.3090
 5042SOL    HW226589   0.870   1.921   9.195  0.6389 -0.6269  0.0206
 5043SOL     OW26590   0.885   0.694   1.321 -0.2013 -0.0529  0.4672
 5043SOL    HW126591   0.824   0.725   1.388 -1.2250 -0.8941 -0.0564
 5043SOL    HW226592   0.843   0.739   1.247 -0.3937 -1.1613 -0.0987
 5044SOL     OW26593   2.078   1.888   8.933  0.6304  0.7271  0.0509
 5044SOL    HW126594   2.153   1.888   8.874  0.9164 -1.9530  0.4035
 5044SOL    HW226595   2.057   1.795   8.941  0.3447  0.7866  0.0164
 5045SOL     OW26596   0.390   4.024   5.598 -0.0490  0.1242  0.1109
 5045SOL    HW126597   0.464   4.043   5.656  0.1151 -1.4553  0.4096
 5045SOL    HW226598   0.397   3.929   5.603 -0.8487 -0.0921 -2.7663
 5046SOL     OW26599   3.320   0.793   8.497  0.2324 -0.0243  0.0202
 5046SOL    HW126600   3.299   0.875   8.452  0.0486 -0.2419 -0.2965
 5046SOL    HW226601   3.238   0.746   8.482 -0.6975  1.5414  0.2634
 5047SOL     OW26602   0.097   2.436   0.780  0.1829 -0.4904 -0.6172
 5047SOL    HW126603   0.162   2.435   0.709  1.9769 -0.3496  1.0292
 5047SOL    HW226604   0.096   2.527   0.811 -0.4865 -0.7375  0.0937
 5048SOL     OW26605   0.952   4.688   1.526 -0.0456  0.3595 -0.2410
 5048SOL    HW126606   0.870   0.010   1.539  0.1954  0.4362  0.9662
 5048SOL    HW226607   0.986   4.666   1.613 -3.1994  1.5421  1.2866
 5049SOL     OW26608   1.615   4.479   5.671  0.2085  0.5424  0.1949
 5049SOL    HW126609   1.559   4.536   5.618  0.2779  1.1644  0.7867
 5049SOL    HW226610   1.670   4.549   5.705  0.2797  1.0998 -1.0522
 5050SOL     OW26611   2.728   2.751   3.239 -0.4562 -0.2663 -0.6261
 5050SOL    HW126612   2.771   2.737   3.155 -3.1191  1.4458 -2.3013
 5050SOL    HW226613   2.664   2.681   3.253 -1.3314  0.4631 -0.9401
 5051SOL     OW26614   3.396   1.603  12.359 -0.2713 -0.1648  0.6837
 5051SOL    HW126615   3.403   1.651  12.441 -1.2168 -1.9990  1.8283
 5051SOL    HW226616   3.305   1.587  12.337  0.1474 -0.8921 -0.5371
 5052SOL     OW26617   1.372   3.905   8.572  0.0241  0.0931  0.0706
 5052SOL    HW126618   1.336   3.914   8.483  0.0846  0.2959  0.0672
 5052SOL    HW226619   1.396   3.995   8.593  0.4555 -0.2084  0.8650
 5053SOL     OW26620   2.081   4.280  13.843 -0.1767 -0.2504  0.0576
 5053SOL    HW126621   2.055   4.306  13.931  1.4688  2.5612 -0.2730
 5053SOL    HW226622   2.064   4.186  13.836  1.7372 -0.6939  1.5507
 5054SOL     OW26623   3.595   2.264   6.270 -0.2048  0.8407  0.2327
 5054SOL    HW126624   3.551   2.182   6.249 -2.4337  1.8501  1.0489
 5054SOL    HW226625   3.609   2.262   6.365  0.7814 -0.4453  0.0726
 5055SOL     OW26626   3.439   0.769  13.739  0.6469  0.1615 -0.4661
 5055SOL    HW126627   3.530   0.795  13.724  0.8852  0.4129  1.4873
 5055SOL    HW226628   3.410   0.834  13.802 -1.0565 -1.8200  0.8110
 5056SOL     OW26629   3.033   3.412  13.412  0.7855 -0.0962  0.0949
 5056SOL    HW126630   3.080   3.368  13.341 -0.0047 -0.0047 -0.4840
 5056SOL    HW226631   3.055   3.502  13.391 -2.0712  0.5479 -0.1274
 5057SOL     OW26632   2.695   3.526   4.512 -0.0060  0.6229 -0.3522
 5057SOL    HW126633   2.764   3.545   4.575  0.6334 -1.4629 -0.4380
 5057SOL    HW226634   2.728   3.562   4.430  1.6472 -0.3386 -0.1053
 5058SOL     OW26635   3.025   1.110   5.069 -0.4090  0.5288 -0.1324
 5058SOL    HW126636   2.949   1.160   5.043 -1.4406 -0.5383  0.8117
 5058SOL    HW226637   3.010   1.109   5.164  2.7978  2.1218  0.3950
 5059SOL     OW26638   4.428   4.180   7.460 -0.0484  0.2934 -0.3236
 5059SOL    HW126639   4.505   4.162   7.407  0.7055  2.3152  0.0746
 5059SOL    HW226640   4.387   4.094   7.469 -1.7777  1.3207  1.7562
 5060SOL     OW26641   2.060   0.789   7.164 -0.2044  0.1185 -1.0596
 5060SOL    HW126642   2.013   0.779   7.247  3.1974 -0.2496  0.8169
 5060SOL    HW226643   2.011   0.861   7.125  0.2252  1.2720  0.5536
 5061SOL     OW26644   0.552   4.015   9.939 -0.2786  0.2369 -0.2720
 5061SOL    HW126645   0.527   3.925   9.959 -1.3036  0.6341  0.2475
 5061SOL    HW226646   0.509   4.019   9.854  0.1714  1.1056 -0.4609
 5062SOL     OW26647   1.332   1.875  11.764  0.3868 -0.4984  0.1681
 5062SOL    HW126648   1.344   1.969  11.748  0.6708 -0.7977 -1.4495
 5062SOL    HW226649   1.248   1.855  11.723  0.6806  3.6078 -2.4415
 5063SOL     OW26650   1.900   0.639   8.274 -0.0042  0.4743 -0.7520
 5063SOL    HW126651   1.861   0.694   8.207 -0.1254 -1.2898 -2.1153
 5063SOL    HW226652   1.906   0.555   8.228 -0.4822  1.2361 -2.1906
 5064SOL     OW26653   2.409   2.736  14.066 -0.5479  0.0906  0.2311
 5064SOL    HW126654   2.451   2.801  14.123  0.0510  1.9303 -2.3026
 5064SOL    HW226655   2.454   2.659  14.101 -0.6215  0.2936  0.7684
 5065SOL     OW26656   1.539   0.970   1.420  0.0671 -0.2874  0.2479
 5065SOL    HW126657   1.582   0.890   1.452  3.0214  1.3234  0.3073
 5065SOL    HW226658   1.547   0.954   1.326 -2.3539  2.0141 -0.3253
 5066SOL     OW26659   2.728   1.749   5.864  0.3293 -1.2939  0.2376
 5066SOL    HW126660   2.728   1.687   5.791 -1.5382  0.0533 -0.9107
 5066SOL    HW226661   2.673   1.698   5.924 -0.0118  0.3058  1.2793
 5067SOL     OW26662   1.308   2.860  16.106 -0.2462 -0.1312 -0.4814
 5067SOL    HW126663   1.219   2.828  16.093 -0.1945 -0.6521  0.4603
 5067SOL    HW226664   1.330   2.869  16.013  0.4610  0.7180 -0.2324
 5068SOL     OW26665   3.000   2.503   2.126 -0.4814  0.6231 -0.1134
 5068SOL    HW126666   2.999   2.423   2.072  0.9567  0.9411 -0.6031
 5068SOL    HW226667   3.004   2.575   2.064 -0.7877  1.0575  0.3664
 5069SOL     OW26668   2.631   4.709  14.500  0.0438 -0.5745 -0.3121
 5069SOL    HW126669   2.565   0.013  14.437  2.1290 -1.3218 -2.8485
 5069SOL    HW226670   2.712   4.717  14.449 -1.1886  2.2357 -1.8180
 5070SOL     OW26671   1.884   1.986   8.758 -0.2462  0.5937  0.3584
 5070SOL    HW126672   1.938   1.936   8.697 -0.8744 -2.4025  2.2508
 5070SOL    HW226673   1.924   1.959   8.841 -1.8385 -2.8321 -0.0092
 5071SOL     OW26674   1.579   1.495   0.655 -0.4254  0.5277  0.3852
 5071SOL    HW126675   1.591   1.508   0.749  0.5750  0.5317  0.2610
 5071SOL    HW226676   1.586   1.400   0.648  0.5439  0.5934  0.3647
 5072SOL     OW26677   1.206   3.352  12.899 -0.1916 -0.2787 -0.8965
 5072SOL    HW126678   1.150   3.334  12.975 -0.3510  1.8286 -0.5197
 5072SOL    HW226679   1.143   3.409  12.854 -0.8532 -0.8346 -0.6805
 5073SOL     OW26680   1.566   0.286  14.918 -0.4597 -0.0124 -0.3512
 5073SOL    HW126681   1.610   0.329  14.845 -2.1376  0.2832 -1.1629
 5073SOL    HW226682   1.535   0.206  14.877 -0.5821 -0.1986  0.1045
 5074SOL     OW26683   4.595   3.563   6.259  0.4636 -0.2393 -0.1694
 5074SOL    HW126684   4.521   3.623   6.269  1.3579  0.8785 -0.1419
 5074SOL    HW226685   4.554   3.488   6.301  0.6823 -0.0002  0.4790
 5075SOL     OW26686   3.766   1.234  17.635 -0.6583  0.2593 -0.8226
 5075SOL    HW126687   3.742   1.284   0.010  3.1962  0.2317  0.3703
 5075SOL    HW226688   3.822   1.291  17.583  1.8840 -1.9575 -0.5055
 5076SOL     OW26689   3.423   3.841   7.117 -0.2029 -0.1027 -0.0029
 5076SOL    HW126690   3.465   3.896   7.183 -1.8800  1.2620 -0.0724
 5076SOL    HW226691   3.354   3.794   7.163 -0.4930 -1.9353 -2.2636
 5077SOL     OW26692   1.999   1.190   6.703  0.2979 -0.2237 -0.0195
 5077SOL    HW126693   2.029   1.275   6.733 -0.9230 -0.1741  1.1216
 5077SOL    HW226694   2.073   1.134   6.681 -0.8671 -2.0762  0.6652
 5078SOL     OW26695   4.146   3.832   2.059  0.0407  0.7916  0.3709
 5078SOL    HW126696   4.080   3.770   2.090  1.8780 -1.2955  0.0883
 5078SOL    HW226697   4.170   3.869   2.144  3.5268  0.2190 -0.3517
 5079SOL     OW26698   1.082   1.841   8.078 -0.1515 -0.0466 -0.2126
 5079SOL    HW126699   1.099   1.904   8.148  0.3300 -0.7655  0.3237
 5079SOL    HW226700   1.169   1.805   8.058 -0.1251 -1.2422  1.9955
 5080SOL     OW26701   0.771   3.873  10.426 -0.7969 -0.5484  0.6547
 5080SOL    HW126702   0.787   3.785  10.391 -1.5511  0.3210 -1.8885
 5080SOL    HW226703   0.780   3.855  10.519 -0.2052 -0.8034  0.5508
 5081SOL     OW26704   0.328   1.053   7.818 -0.1370 -0.5038 -0.4076
 5081SOL    HW126705   0.291   1.014   7.739  1.9280 -0.1340 -1.5676
 5081SOL    HW226706   0.253   1.110   7.834 -0.2717 -0.7317 -0.2329
 5082SOL     OW26707   2.228   2.901   6.796 -0.5085  0.5552 -0.2701
 5082SOL    HW126708   2.284   2.926   6.869  0.6010 -1.1481 -0.5185
 5082SOL    HW226709   2.138   2.895   6.827 -0.9903 -1.2170 -1.9552
 5083SOL     OW26710   1.268   3.013   7.794  0.4954  0.2257  0.2834
 5083SOL    HW126711   1.346   3.068   7.800  0.5911  0.3039 -1.6268
 5083SOL    HW226712   1.307   2.926   7.788  0.2534  0.0289  1.4857
 5084SOL     OW26713   2.330   3.061  11.631 -0.6800  0.3779  0.2173
 5084SOL    HW126714   2.364   2.973  11.612  0.6885  1.1485 -0.8615
 5084SOL    HW226715   2.395   3.122  11.597  0.5383 -2.1705 -2.0386
 5085SOL     OW26716   2.590   4.289   5.057  0.0385 -0.0822 -0.0488
 5085SOL    HW126717   2.570   4.298   5.150 -0.9989  1.7365 -0.4411
 5085SOL    HW226718   2.516   4.238   5.025  0.8729  0.0233 -2.1601
 5086SOL     OW26719   3.264   3.711   3.910  0.5330  0.8114 -0.0093
 5086SOL    HW126720   3.178   3.742   3.937 -1.2461 -3.4299 -0.7860
 5086SOL    HW226721   3.297   3.675   3.992 -0.3427  2.5605  1.0867
 5087SOL     OW26722   0.940   2.773   8.372  0.3763  0.1802  0.1465
 5087SOL    HW126723   0.998   2.726   8.431 -0.8250  0.2424  1.3836
 5087SOL    HW226724   0.854   2.757   8.412  0.5657 -1.4213 -0.0960
 5088SOL     OW26725   2.719   2.302   5.597  0.5191 -0.5554  0.4560
 5088SOL    HW126726   2.716   2.275   5.505  0.3038  0.9558  0.0126
 5088SOL    HW226727   2.681   2.222   5.633 -0.7669  0.2047  0.7922
 5089SOL     OW26728   2.103   2.482   8.040  0.2596 -0.3155 -0.1848
 5089SOL    HW126729   2.025   2.462   7.987  1.1109 -1.1037 -1.1312
 5089SOL    HW226730   2.115   2.577   8.036  1.4479 -0.5047 -0.8398
 5090SOL     OW26731   4.598   0.414   0.010 -0.1866  0.4099 -0.1836
 5090SOL    HW126732   4.638   0.499  17.697 -1.6199  0.9260 -0.9948
 5090SOL    HW226733   4.513   0.429  17.672 -0.7434 -0.9602  0.4723
 5091SOL     OW26734   1.826   3.720   8.774 -0.1654 -0.3021  0.1918
 5091SOL    HW126735   1.829   3.664   8.851 -2.4332 -0.5392  0.1173
 5091SOL    HW226736   1.915   3.752   8.760 -0.2504 -0.5683 -1.0153
 5092SOL     OW26737   3.330   0.603   8.883 -0.2951 -0.2236  0.2288
 5092SOL    HW126738   3.272   0.671   8.917 -2.3402 -1.3192 -1.0434
 5092SOL    HW226739   3.289   0.522   8.913  2.4348 -1.4085  0.7847
 5093SOL     OW26740   3.380   1.233  16.054  0.5564  0.2383  0.0503
 5093SOL    HW126741   3.371   1.172  15.981 -0.8718 -1.5598  1.7075
 5093SOL    HW226742   3.331   1.309  16.023  0.2456  0.2993  0.6730
 5094SOL     OW26743   3.131   1.329   7.456  0.3683  0.3280 -0.2859
 5094SOL    HW126744   3.091   1.242   7.465  2.5546 -0.4893  1.7295
 5094SOL    HW226745   3.134   1.344   7.551  0.6958  1.6310 -0.4998
 5095SOL     OW26746   4.130   1.050   4.465  0.1205  0.2032 -0.4111
 5095SOL    HW126747   4.181   0.998   4.403  1.9850  1.6687 -0.1171
 5095SOL    HW226748   4.185   1.046   4.543  1.5885  0.7297 -1.4217
 5096SOL     OW26749   0.901   0.042   7.929  0.2727 -0.2371  0.2034
 5096SOL    HW126750   0.926   4.725   7.848 -1.9565  0.1698 -0.6963
 5096SOL    HW226751   0.826   4.718   7.962 -0.1259  0.8097  0.8530
 5097SOL     OW26752   2.058   0.511   8.046  0.1864 -0.1719  0.1583
 5097SOL    HW126753   2.120   0.473   7.983 -0.8881 -1.0361 -0.3772
 5097SOL    HW226754   1.970   0.478   8.030 -0.3157  1.4134 -0.3032
 5098SOL     OW26755   3.807   2.512   4.503 -0.0578 -0.1627  0.1098
 5098SOL    HW126756   3.869   2.452   4.546  0.5112  0.8379  0.6969
 5098SOL    HW226757   3.855   2.594   4.495 -0.7499  0.2411  0.1366
 5099SOL     OW26758   0.553   3.480   3.797 -0.3847  0.3167  0.0707
 5099SOL    HW126759   0.586   3.562   3.760  1.6492 -0.1972  0.7634
 5099SOL    HW226760   0.581   3.420   3.728  0.2950  1.0283 -0.2826
 5100SOL     OW26761   0.258   1.460   4.470  0.1234 -0.0960  0.4512
 5100SOL    HW126762   0.192   1.522   4.501 -1.4327 -1.2857 -0.4740
 5100SOL    HW226763   0.201   1.411   4.411  0.7461 -0.4815  0.1740
 5101SOL     OW26764   3.580   0.681   3.683  0.3774  0.2826  0.1423
 5101SOL    HW126765   3.575   0.651   3.774  1.8043  0.9270  0.4204
 5101SOL    HW226766   3.664   0.727   3.678 -0.6267  1.9110 -1.7424
 5102SOL     OW26767   3.358   3.851   1.570  0.0321 -0.6242 -0.1100
 5102SOL    HW126768   3.334   3.936   1.532 -0.1517  0.1674  1.8152
 5102SOL    HW226769   3.383   3.880   1.657 -1.0241  3.1000 -1.0525
 5103SOL     OW26770   3.735   2.792   9.093  0.8712 -0.4585 -0.0776
 5103SOL    HW126771   3.775   2.845   9.162  0.7161  1.1614 -1.2169
 5103SOL    HW226772   3.692   2.845   9.026 -0.9691 -0.0637  1.4094
 5104SOL     OW26773   0.676   2.025   1.917 -1.2142  0.0620  0.0286
 5104SOL    HW126774   0.607   2.075   1.872 -2.0805 -1.2144 -0.0474
 5104SOL    HW226775   0.645   1.977   1.994  1.3463 -2.2488 -0.4028
 5105SOL     OW26776   1.686   4.036   1.081 -0.0473  0.7976  0.1542
 5105SOL    HW126777   1.743   3.974   1.127 -0.2566  0.8701  0.5116
 5105SOL    HW226778   1.707   4.121   1.120  1.3519 -0.5254  2.2944
 5106SOL     OW26779   0.888   0.002  16.139  0.1563  0.2169  0.7713
 5106SOL    HW126780   0.968   4.710  16.189  1.0014  0.6579 -0.4247
 5106SOL    HW226781   0.840   0.060  16.197 -0.6594  0.5025 -0.1926
 5107SOL     OW26782   2.817   2.332   6.269 -0.1951 -0.1024  0.2400
 5107SOL    HW126783   2.728   2.350   6.300 -1.1017 -3.0093 -0.6670
 5107SOL    HW226784   2.812   2.385   6.189 -0.2200  1.3574  1.1988
 5108SOL     OW26785   1.205   2.514  14.346  0.1971 -0.5705 -0.2517
 5108SOL    HW126786   1.153   2.594  14.359 -0.7782 -0.8482 -2.4553
 5108SOL    HW226787   1.159   2.482  14.268 -0.8018  2.4793 -0.9246
 5109SOL     OW26788   3.651   2.945   3.616 -0.7870  0.6967 -0.0726
 5109SOL    HW126789   3.628   2.869   3.670  1.7399 -0.0121  0.0170
 5109SOL    HW226790   3.733   2.921   3.572 -1.3193 -1.4158  0.0712
 5110SOL     OW26791   2.205   1.465   7.159  0.6479 -0.0801  0.0463
 5110SOL    HW126792   2.272   1.531   7.141  0.9092  0.1860  2.0587
 5110SOL    HW226793   2.139   1.508   7.104  0.2496  0.4595  0.9510
 5111SOL     OW26794   3.487   3.979  16.999  1.3263  0.1613  0.3520
 5111SOL    HW126795   3.482   4.049  16.933  3.0364 -0.7345 -0.7276
 5111SOL    HW226796   3.462   4.031  17.076 -0.7793 -0.8915  0.3612
 5112SOL     OW26797   3.481   1.039   5.927 -0.6722 -0.1557 -0.7409
 5112SOL    HW126798   3.409   0.976   5.925 -0.3030 -0.6108  0.3864
 5112SOL    HW226799   3.512   1.039   6.017 -2.3992 -1.6403 -0.1342
 5113SOL     OW26800   2.545   0.512  17.076  0.2049 -0.2680  0.4136
 5113SOL    HW126801   2.535   0.423  17.112  2.6907 -0.9487 -0.5460
 5113SOL    HW226802   2.603   0.491  17.002  1.8095  0.3573  1.4880
 5114SOL     OW26803   4.234   3.406   7.355  0.2445  0.6526  0.1610
 5114SOL    HW126804   4.218   3.385   7.263  0.5201 -2.1579  0.7482
 5114SOL    HW226805   4.146   3.384   7.387  0.8371 -2.4654 -0.3625
 5115SOL     OW26806   3.908   4.617  12.134 -0.2518 -0.7113 -0.7055
 5115SOL    HW126807   3.999   4.640  12.149 -0.7192  0.8030 -0.1659
 5115SOL    HW226808   3.877   4.705  12.113  0.4979 -0.4384 -0.6663
 5116SOL     OW26809   1.369   4.119   7.964  0.2758  0.1968 -0.0180
 5116SOL    HW126810   1.292   4.110   8.021 -1.1934  2.5823 -1.6300
 5116SOL    HW226811   1.361   4.033   7.923  0.6085  0.6874 -1.1137
 5117SOL     OW26812   0.766   2.392   4.770  0.2917 -0.1486  0.3842
 5117SOL    HW126813   0.850   2.379   4.814  0.1057  0.5700  0.9544
 5117SOL    HW226814   0.744   2.305   4.736 -0.7001 -0.9174  3.0006
 5118SOL     OW26815   2.405   4.138   3.412  0.1465 -0.1669  0.1125
 5118SOL    HW126816   2.405   4.232   3.393 -0.6865  0.1242  1.5704
 5118SOL    HW226817   2.318   4.113   3.382  0.5801 -2.5162  0.8288
 5119SOL     OW26818   4.157   0.710   8.307  0.2864  0.0006 -0.3135
 5119SOL    HW126819   4.209   0.790   8.304 -1.5967  1.2238 -0.2118
 5119SOL    HW226820   4.069   0.742   8.287 -0.2124 -1.0463  0.2345
 5120SOL     OW26821   3.077   2.401   3.647 -0.4311  0.2366  0.2404
 5120SOL    HW126822   3.075   2.492   3.678 -0.3542  0.5760 -0.7531
 5120SOL    HW226823   3.076   2.348   3.726  2.0666  0.1501  0.1849
 5121SOL     OW26824   1.696   4.612   1.985  0.4693 -0.0522 -0.3837
 5121SOL    HW126825   1.619   4.581   2.032 -0.4040  3.5121  0.4815
 5121SOL    HW226826   1.763   4.545   2.000  1.8875  1.3934 -0.2767
 5122SOL     OW26827   2.027   0.902   1.795  0.2186  0.1153 -0.3327
 5122SOL    HW126828   1.954   0.964   1.801  0.7579  0.6661  0.4800
 5122SOL    HW226829   2.049   0.893   1.888  0.2230 -0.5247 -0.3900
 5123SOL     OW26830   3.491   1.592   4.241  0.1841  0.3648  0.6581
 5123SOL    HW126831   3.437   1.653   4.292 -3.3769 -1.7325 -0.5872
 5123SOL    HW226832   3.573   1.597   4.289 -0.2366  2.1569  1.1723
 5124SOL     OW26833   2.204   3.061   4.931 -0.2039 -0.0330 -0.1675
 5124SOL    HW126834   2.137   3.082   4.997 -0.8614 -0.8379 -0.5683
 5124SOL    HW226835   2.256   3.012   4.995 -0.4424 -0.8988 -0.6408
 5125SOL     OW26836   4.601   0.082   2.730 -0.5141 -0.2312 -0.5326
 5125SOL    HW126837   4.616   0.174   2.751 -1.3703  0.2884 -2.2248
 5125SOL    HW226838   4.623   0.046   2.816  0.3103  0.7144 -0.3382
 5126SOL     OW26839   0.023   2.694   4.570  0.0377 -0.3163 -0.1668
 5126SOL    HW126840   0.023   2.725   4.479  1.9195 -0.3948 -0.1900
 5126SOL    HW226841   0.064   2.772   4.607  0.3233 -0.2050 -0.7057
 5127SOL     OW26842   1.392   1.921   6.246  0.3168 -0.2001 -0.0974
 5127SOL    HW126843   1.400   1.825   6.245  0.6249 -0.1558 -1.4609
 5127SOL    HW226844   1.302   1.926   6.276  1.4449  0.2834  3.2188
 5128SOL     OW26845   1.249   1.280   3.436 -0.1173 -0.0864  0.0695
 5128SOL    HW126846   1.294   1.200   3.408  2.2608  1.6241 -0.9888
 5128SOL    HW226847   1.184   1.243   3.497  0.4395  0.4778  1.0056
 5129SOL     OW26848   0.189   0.394   0.558  0.0199  0.3410 -0.2352
 5129SOL    HW126849   0.256   0.399   0.626 -1.0245  0.0050  0.8264
 5129SOL    HW226850   0.218   0.333   0.491 -2.5224  0.8055 -1.7536
 5130SOL     OW26851   0.215   2.195   2.430  0.1810 -0.0568 -0.1969
 5130SOL    HW126852   0.143   2.140   2.461 -0.8410  0.8002 -1.0245
 5130SOL    HW226853   0.162   2.261   2.385 -1.3293 -0.4200  1.0687
 5131SOL     OW26854   0.317   1.085   6.278 -0.0711 -0.0109 -0.2113
 5131SOL    HW126855   0.305   1.141   6.202 -2.6878 -0.5984 -0.2461
 5131SOL    HW226856   0.308   1.149   6.349 -0.3855  0.7162 -0.9121
 5132SOL     OW26857   0.882   1.429  15.121 -0.7015  0.0021  0.2384
 5132SOL    HW126858   0.916   1.399  15.037 -1.1118  0.1298  0.0276
 5132SOL    HW226859   0.928   1.512  15.128 -1.0490  0.2051  0.1345
 5133SOL     OW26860   1.275   0.166   3.802  0.8730 -0.1800  0.0499
 5133SOL    HW126861   1.194   0.154   3.852 -0.3769 -2.1773 -2.4230
 5133SOL    HW226862   1.315   0.086   3.837 -1.0986 -1.4918 -0.7109
 5134SOL     OW26863   2.282   0.661   6.016  0.0582 -0.7512 -0.2707
 5134SOL    HW126864   2.226   0.620   5.950 -0.0235 -2.1705  0.6907
 5134SOL    HW226865   2.344   0.591   6.037  2.8846  1.4503 -1.2205
 5135SOL     OW26866   2.548   3.255   4.787 -0.1822 -0.3412 -0.4856
 5135SOL    HW126867   2.456   3.246   4.762 -0.5157  0.5152  0.4017
 5135SOL    HW226868   2.593   3.203   4.721 -2.4960 -1.7527 -0.9437
 5136SOL     OW26869   3.204   3.049  12.064  0.3900 -0.3464  0.4417
 5136SOL    HW126870   3.237   2.984  12.126  2.0892  1.8946  1.8749
 5136SOL    HW226871   3.285   3.080  12.024 -0.8485 -0.1905 -1.9811
 5137SOL     OW26872   1.150   1.960  13.806 -0.4501 -0.2941  0.4406
 5137SOL    HW126873   1.133   1.894  13.739  0.2000  1.2829 -1.2374
 5137SOL    HW226874   1.126   1.924  13.892 -1.3202 -1.7895 -0.4375
 5138SOL     OW26875   1.972   0.337   6.889 -0.3263 -0.4601  0.3211
 5138SOL    HW126876   2.016   0.280   6.951  2.1003 -0.5366 -1.5024
 5138SOL    HW226877   1.932   0.275   6.828 -0.7024  1.2676 -1.2030
 5139SOL     OW26878   2.873   3.856   7.796  0.3157 -0.0096  0.2980
 5139SOL    HW126879   2.849   3.881   7.885  0.0228 -1.0371  0.5068
 5139SOL    HW226880   2.968   3.869   7.793  0.1646  1.5341  2.5884
 5140SOL     OW26881   0.057   2.413   1.885  0.3733 -0.5523  0.0514
 5140SOL    HW126882   0.004   2.419   1.964  0.0722  1.0703 -0.2868
 5140SOL    HW226883   0.100   2.497   1.872 -0.7550  0.4797  3.0777
 5141SOL     OW26884   0.069   2.755   2.320 -0.5353  0.8916 -0.4087
 5141SOL    HW126885   4.706   2.793   2.326 -0.1569  1.4548  1.5763
 5141SOL    HW226886   0.122   2.830   2.293  2.4589 -0.6597  1.1428
 5142SOL     OW26887   1.706   4.509   6.086 -0.5993  0.6668  0.2814
 5142SOL    HW126888   1.620   4.507   6.127 -0.7529 -1.3651 -0.1648
 5142SOL    HW226889   1.732   4.427   6.127  0.7424  1.1274  0.3554
 5143SOL     OW26890   3.159   4.086  13.202 -0.5174  0.7130 -0.0910
 5143SOL    HW126891   3.129   4.072  13.291  3.6176 -0.3212  1.1274
 5143SOL    HW226892   3.072   4.107  13.167  0.3550  2.0809 -1.4515
 5144SOL     OW26893   3.370   2.930  10.467 -0.0459  0.3459 -0.0634
 5144SOL    HW126894   3.309   2.931  10.541  1.2398  3.3268  0.9344
 5144SOL    HW226895   3.413   2.845  10.474  0.3464  0.7058  1.9208
 5145SOL     OW26896   0.491   0.150   7.597  0.1495  0.2846  0.4503
 5145SOL    HW126897   0.415   0.203   7.621  1.3601  2.2869 -0.1882
 5145SOL    HW226898   0.535   0.221   7.551  2.3955 -0.6698  1.1187
 5146SOL     OW26899   2.102   4.069   5.447  0.6218  0.0062  0.2073
 5146SOL    HW126900   2.022   4.105   5.409  1.2819  0.5429 -0.6638
 5146SOL    HW226901   2.150   4.144   5.483 -2.7175  2.0969  0.3396
 5147SOL     OW26902   0.426   3.764  10.469 -0.0964 -0.1259  0.3624
 5147SOL    HW126903   0.417   3.829  10.538  1.1753  0.4867 -0.0352
 5147SOL    HW226904   0.353   3.767  10.407  1.6813  0.6966 -1.7027
 5148SOL     OW26905   1.902   1.905   5.960  0.0028 -0.6735 -0.0793
 5148SOL    HW126906   1.860   1.987   5.987 -0.4858 -0.6569 -0.9183
 5148SOL    HW226907   1.909   1.918   5.866 -0.2845  1.3696  0.1775
 5149SOL     OW26908   1.746   4.057   8.386 -0.0131 -0.0063 -0.7541
 5149SOL    HW126909   1.731   3.970   8.423 -1.6386  0.2903 -0.7347
 5149SOL    HW226910   1.657   4.062   8.351 -0.5259 -1.7580  0.2970
 5150SOL     OW26911   1.873   4.670  11.125 -0.7569 -0.0111  0.1969
 5150SOL    HW126912   1.940   4.645  11.189 -0.4559  1.4494  0.4568
 5150SOL    HW226913   1.836   0.030  11.149  0.9178  0.3640  1.5059
 5151SOL     OW26914   2.676   1.785   7.873 -0.1328  0.4975  0.7541
 5151SOL    HW126915   2.631   1.779   7.957 -1.3133 -0.2512  0.0725
 5151SOL    HW226916   2.738   1.857   7.885  1.0618 -0.7507  2.0303
 5152SOL     OW26917   4.470   3.174  12.963  0.0806 -0.1213  0.2877
 5152SOL    HW126918   4.418   3.137  12.891  0.9930 -0.7759 -0.0353
 5152SOL    HW226919   4.513   3.093  12.991  1.8051 -0.9173 -4.6336
 5153SOL     OW26920   3.161   4.535   8.228 -0.7039  0.3407 -0.0802
 5153SOL    HW126921   3.093   4.579   8.178  0.5281  1.1287 -1.0736
 5153SOL    HW226922   3.184   4.613   8.279 -0.8872  0.9446 -0.9338
 5154SOL     OW26923   2.800   0.828  10.351 -0.0887  0.3173 -0.3909
 5154SOL    HW126924   2.774   0.873  10.270 -0.2739 -0.0729 -0.5466
 5154SOL    HW226925   2.821   0.739  10.323  0.0332 -0.2463  1.5140
 5155SOL     OW26926   4.465   0.581   5.247  0.2238 -0.2198  0.0509
 5155SOL    HW126927   4.465   0.616   5.158 -0.9624 -1.7799 -0.5444
 5155SOL    HW226928   4.473   0.486   5.241  0.8702 -0.0985 -0.9192
 5156SOL     OW26929   2.438   2.547   0.960  0.4394 -0.1128  0.2905
 5156SOL    HW126930   2.419   2.640   0.966 -1.3678 -0.3358 -1.8682
 5156SOL    HW226931   2.481   2.540   0.875  1.0143 -0.6080  0.6218
 5157SOL     OW26932   3.029   2.380   3.088 -0.2762  0.3893 -0.0947
 5157SOL    HW126933   3.096   2.313   3.099 -0.7677  0.0385  0.6960
 5157SOL    HW226934   3.080   2.453   3.054 -0.5865 -0.5369 -2.6083
 5158SOL     OW26935   3.392   3.433   4.666  0.1309 -0.2572  0.6349
 5158SOL    HW126936   3.475   3.476   4.645 -0.2168 -0.3015 -0.8042
 5158SOL    HW226937   3.389   3.425   4.761 -0.5366  1.0262  0.7208
 5159SOL     OW26938   3.110   2.438   5.754 -0.3601  0.7230  0.6385
 5159SOL    HW126939   3.157   2.513   5.719 -0.6025  1.5456  2.0417
 5159SOL    HW226940   3.173   2.389   5.806 -2.4741 -0.5163  2.0483
 5160SOL     OW26941   2.425   1.245   7.688 -0.5060  0.6011 -0.2305
 5160SOL    HW126942   2.376   1.321   7.656 -1.7175 -0.0343  0.1069
 5160SOL    HW226943   2.434   1.197   7.605 -0.4029 -0.2478  0.2686
 5161SOL     OW26944   0.345   0.807   0.663 -1.1333  0.3025 -0.6686
 5161SOL    HW126945   0.311   0.748   0.731 -0.6129  1.9043  0.9676
 5161SOL    HW226946   0.438   0.784   0.663 -0.4451  3.1522 -0.7118
 5162SOL     OW26947   1.462   0.851   7.674 -0.2341 -0.0994 -0.3500
 5162SOL    HW126948   1.537   0.838   7.732 -1.2154 -1.1026  0.7083
 5162SOL    HW226949   1.479   0.787   7.604 -0.2580  0.9400 -1.3082
 5163SOL     OW26950   2.742   3.069   6.375  0.2506  0.3022  0.2679
 5163SOL    HW126951   2.738   3.033   6.287 -1.1422 -1.5504  1.0869
 5163SOL    HW226952   2.836   3.085   6.387  0.0673 -1.1050  3.5924
 5164SOL     OW26953   0.235   3.172   6.879 -0.3234  0.2289  0.4334
 5164SOL    HW126954   0.148   3.133   6.892 -0.4489 -0.3652 -2.2588
 5164SOL    HW226955   0.244   3.179   6.784  1.2316  1.6651  0.6802
 5165SOL     OW26956   2.476   2.875  13.682  0.0993  0.1167 -0.8988
 5165SOL    HW126957   2.452   2.823  13.758  3.8563  0.6920  0.6609
 5165SOL    HW226958   2.463   2.964  13.714  0.9829  0.8966 -2.6776
 5166SOL     OW26959   3.397   4.601   6.976  0.0298 -0.0949  0.1181
 5166SOL    HW126960   3.477   4.587   7.026  0.4586 -1.6717 -1.0168
 5166SOL    HW226961   3.349   4.522   6.998  0.1946 -0.4630 -0.8519
 5167SOL     OW26962   3.853   3.621   6.385 -0.3724  0.0142  0.5491
 5167SOL    HW126963   3.882   3.702   6.343 -0.4312 -0.0027  0.4761
 5167SOL    HW226964   3.864   3.554   6.318  1.5147  0.5960  0.2579
 5168SOL     OW26965   3.210   3.101   0.898 -0.3808  0.0851  0.6113
 5168SOL    HW126966   3.164   3.176   0.860  2.0294  0.7686 -0.9228
 5168SOL    HW226967   3.176   3.031   0.842  0.7641  0.3569 -0.4147
 5169SOL     OW26968   2.291   2.100   2.438 -0.0546  0.2766 -0.0269
 5169SOL    HW126969   2.344   2.064   2.367  0.4651 -0.7939  0.8931
 5169SOL    HW226970   2.316   2.050   2.516  1.8821 -0.3256 -1.0288
 5170SOL     OW26971   2.115   0.728  14.338 -0.1280 -0.1707  0.0512
 5170SOL    HW126972   2.205   0.697  14.333 -0.2374 -0.3415 -0.8887
 5170SOL    HW226973   2.113   0.779  14.419  3.6013  0.6324 -0.3618
 5171SOL     OW26974   0.425   4.147   4.461 -0.7362  0.2833 -0.2074
 5171SOL    HW126975   0.506   4.197   4.450 -0.4889 -0.2238 -0.7187
 5171SOL    HW226976   0.368   4.222   4.449 -0.0013  0.6564 -1.4430
 5172SOL     OW26977   0.877   1.966  17.407 -0.4045  0.1804  0.2978
 5172SOL    HW126978   0.836   1.880  17.403  0.7077 -0.3601  0.5895
 5172SOL    HW226979   0.805   2.023  17.380  1.4174  1.6126 -1.5739
 5173SOL     OW26980   2.956   2.336   4.832 -0.3352  0.3412  0.1680
 5173SOL    HW126981   2.996   2.422   4.823  0.9099 -0.4416 -1.6906
 5173SOL    HW226982   2.883   2.339   4.771  1.4567 -0.0744 -1.9755
 5174SOL     OW26983   3.802   0.812   8.988 -0.2595  0.2744 -0.0949
 5174SOL    HW126984   3.724   0.776   8.946 -0.5874 -0.9048  1.5669
 5174SOL    HW226985   3.839   0.857   8.912  1.1632 -0.2049  0.3167
 5175SOL     OW26986   0.863   0.786   7.768  0.3862 -0.4762  0.5572
 5175SOL    HW126987   0.924   0.716   7.742 -0.8744 -0.7223 -1.6974
 5175SOL    HW226988   0.805   0.791   7.692  2.9019 -1.5199 -1.4290
 5176SOL     OW26989   3.839   2.175  12.961  0.1224  0.8873 -0.6309
 5176SOL    HW126990   3.877   2.210  13.041 -0.5332  0.8579 -0.3077
 5176SOL    HW226991   3.790   2.098  12.991  3.2190 -0.0682  2.0036
 5177SOL     OW26992   1.510   1.309   4.435 -0.3600 -0.3473  0.1157
 5177SOL    HW126993   1.533   1.385   4.488  0.3820 -0.5434  0.0866
 5177SOL    HW226994   1.555   1.320   4.351  0.4875 -0.9458  0.4924
 5178SOL     OW26995   3.439   2.348   5.009  0.0179  0.5406 -0.5819
 5178SOL    HW126996   3.500   2.275   5.014  0.4892  0.9279 -0.5898
 5178SOL    HW226997   3.362   2.313   5.055 -1.5091  1.7763 -2.2087
 5179SOL     OW26998   2.204   0.926  14.506 -0.5651 -0.5353 -0.1762
 5179SOL    HW126999   2.133   0.887  14.557 -1.3466  0.3792 -0.5774
 5179SOL    HW227000   2.220   1.009  14.551  0.6046 -0.5358 -0.5959
 5180SOL     OW27001   1.495   0.888   9.133  0.0594  0.3718  0.1513
 5180SOL    HW127002   1.574   0.868   9.183 -0.2513  2.8955  1.6293
 5180SOL    HW227003   1.507   0.825   9.061  0.0057  0.5892 -0.0485
 5181SOL     OW27004   0.816   0.688   0.072 -0.2689 -0.1147 -0.8928
 5181SOL    HW127005   0.835   0.623   0.005  0.2281  0.6202 -1.4680
 5181SOL    HW227006   0.823   0.771   0.024 -0.9972  0.1180 -0.6087
 5182SOL     OW27007   2.059   0.306  10.593  0.1663 -0.8593 -0.5469
 5182SOL    HW127008   2.012   0.238  10.642  1.7960 -1.1657  0.5757
 5182SOL    HW227009   2.065   0.378  10.656  2.6014 -2.2999  0.8497
 5183SOL     OW27010   1.626   2.940   3.057 -0.0977 -0.1476 -0.0603
 5183SOL    HW127011   1.531   2.947   3.055 -0.0115  0.7942 -0.8171
 5183SOL    HW227012   1.655   3.029   3.037  0.1724 -0.1508  0.2926
 5184SOL     OW27013   2.278   3.457  17.011 -0.1819  0.3345 -0.4520
 5184SOL    HW127014   2.367   3.488  16.995  0.5939 -2.1053 -0.8254
 5184SOL    HW227015   2.295   3.392  17.080 -1.6043  1.4509  0.9497
 5185SOL     OW27016   1.722   0.886   3.776  0.6223  0.6090  0.0214
 5185SOL    HW127017   1.682   0.882   3.690 -1.4660 -0.1972  1.0337
 5185SOL    HW227018   1.707   0.796   3.806 -1.3361  0.2694 -2.0202
 5186SOL     OW27019   1.751   0.804   8.115  0.6269 -0.3258 -0.3474
 5186SOL    HW127020   1.681   0.813   8.179  1.6610  0.1241  0.7300
 5186SOL    HW227021   1.781   0.895   8.120 -0.0049 -0.0601 -1.3045
 5187SOL     OW27022   4.318   0.375   5.981 -0.4700 -0.6190  0.2829
 5187SOL    HW127023   4.248   0.318   5.948 -0.0815  0.9516 -3.2433
 5187SOL    HW227024   4.360   0.409   5.902 -1.7696 -0.1062 -0.1792
 5188SOL     OW27025   3.197   1.824   5.617 -0.3323 -0.1388  0.3193
 5188SOL    HW127026   3.139   1.765   5.667 -2.1324  3.0055  1.9150
 5188SOL    HW227027   3.269   1.833   5.679 -2.2512 -0.5775  2.6384
 5189SOL     OW27028   1.887   3.980   5.798 -0.1853  0.5548  0.0848
 5189SOL    HW127029   1.943   3.953   5.726  1.8404  0.5461  1.6833
 5189SOL    HW227030   1.941   3.965   5.876  1.0972  2.8661 -0.3512
 5190SOL     OW27031   3.332   1.929   2.623  0.2448 -0.2637 -0.1084
 5190SOL    HW127032   3.425   1.908   2.616  0.0561 -0.5658 -1.9189
 5190SOL    HW227033   3.302   1.861   2.683 -1.4288 -0.5384 -1.2539
 5191SOL     OW27034   1.661   1.410  13.053  0.0457  0.3417 -0.0337
 5191SOL    HW127035   1.610   1.483  13.019 -0.3795  0.0907  0.0676
 5191SOL    HW227036   1.752   1.435  13.036 -0.0415  0.9376  0.3962
 5192SOL     OW27037   1.319   4.349   6.163 -0.1423 -0.4632  0.1569
 5192SOL    HW127038   1.274   4.302   6.232 -3.2620  2.3960  0.0869
 5192SOL    HW227039   1.361   4.275   6.118 -0.2643  0.0295 -0.7742
 5193SOL     OW27040   2.071   0.990   1.048  0.0509  0.1917 -0.7221
 5193SOL    HW127041   2.029   0.917   1.003  0.4838  0.2181 -1.1579
 5193SOL    HW227042   1.990   1.014   1.095  0.2129 -2.4542  0.9013
 5194SOL     OW27043   3.550   1.021   1.061 -0.4109  0.3222 -0.3168
 5194SOL    HW127044   3.472   1.031   1.007  0.4988  1.2402 -1.4832
 5194SOL    HW227045   3.610   1.077   1.011  0.2862  0.9237  1.1909
 5195SOL     OW27046   0.234   2.130   7.029 -0.8052 -0.4175 -0.3000
 5195SOL    HW127047   0.324   2.097   7.035 -0.7291 -0.5490 -2.2379
 5195SOL    HW227048   0.194   2.062   7.083 -2.1295  1.7888  1.4564
 5196SOL     OW27049   2.989   1.489   6.432 -0.5499  0.0591 -0.8529
 5196SOL    HW127050   2.924   1.435   6.477 -0.4330 -0.0238 -0.7831
 5196SOL    HW227051   2.952   1.498   6.344 -1.0231  0.6267 -0.5989
 5197SOL     OW27052   4.660   3.896   5.369 -0.2604 -0.6807  0.0556
 5197SOL    HW127053   4.608   3.975   5.357  0.0103 -0.8244 -1.9711
 5197SOL    HW227054   0.012   3.934   5.413  0.7011 -1.1733 -1.2184
 5198SOL     OW27055   1.383   4.509   2.397 -0.1557  0.4217 -0.4857
 5198SOL    HW127056   1.377   4.552   2.482 -1.3546 -0.5609 -0.0892
 5198SOL    HW227057   1.390   4.419   2.428 -0.9147  0.9348  1.1369
 5199SOL     OW27058   4.294   3.063  12.802 -0.8060  0.1705 -0.1440
 5199SOL    HW127059   4.286   2.971  12.775 -1.2000  0.3226 -0.5352
 5199SOL    HW227060   4.270   3.110  12.722 -0.2828 -0.2714 -0.5613
 5200SOL     OW27061   3.358   1.833   5.389  0.0215  0.6038  0.0674
 5200SOL    HW127062   3.331   1.918   5.353  1.7431  0.0545 -2.4485
 5200SOL    HW227063   3.297   1.829   5.463 -0.1936  2.8647  0.0258
 5201SOL     OW27064   3.314   3.583  12.385 -0.1019 -0.2952 -0.3704
 5201SOL    HW127065   3.299   3.493  12.415 -0.3372  0.1008  0.7200
 5201SOL    HW227066   3.397   3.575  12.340 -0.2901  0.8712 -0.9163
 5202SOL     OW27067   1.064   1.409  15.451 -0.2784  0.8493  0.2052
 5202SOL    HW127068   0.998   1.473  15.477 -0.3028  0.6959  0.5323
 5202SOL    HW227069   1.053   1.344  15.521 -1.6041 -0.3905 -1.1571
 5203SOL     OW27070   3.101   0.690  12.989 -0.2404  0.4151  0.1986
 5203SOL    HW127071   3.046   0.701  13.066  0.0594  0.5055  0.4002
 5203SOL    HW227072   3.090   0.601  12.956 -2.6477 -0.0037  2.1249
 5204SOL     OW27073   3.541   2.011   7.063 -0.4130  0.2802  0.2236
 5204SOL    HW127074   3.591   2.036   7.141  0.4942 -0.2247 -0.1909
 5204SOL    HW227075   3.569   2.083   7.006  2.1708  0.1168  1.2613
 5205SOL     OW27076   3.830   0.365   0.650 -0.2975  0.2140 -0.5187
 5205SOL    HW127077   3.780   0.424   0.707 -0.2197 -1.3044  1.1325
 5205SOL    HW227078   3.869   0.414   0.577 -0.0067 -0.2918 -0.6997
 5206SOL     OW27079   1.707   1.530  16.753 -0.5425 -0.1187 -0.3832
 5206SOL    HW127080   1.783   1.585  16.735  1.1604 -2.2951  0.2142
 5206SOL    HW227081   1.652   1.566  16.684  0.2216 -0.9207 -1.4219
 5207SOL     OW27082   4.311   1.326  15.418  0.0171  0.4677 -0.2612
 5207SOL    HW127083   4.252   1.260  15.455 -0.5475  0.5716 -0.9802
 5207SOL    HW227084   4.271   1.362  15.339  0.4224  1.6190  0.0616
 5208SOL     OW27085   1.913   2.372   8.551  0.0308 -0.1287 -0.2184
 5208SOL    HW127086   1.994   2.378   8.501  0.0460  0.1002 -0.1648
 5208SOL    HW227087   1.934   2.321   8.630 -0.9393 -1.2751 -0.6956
 5209SOL     OW27088   4.472   1.942   7.172  0.5928 -0.1862  0.4403
 5209SOL    HW127089   4.436   1.988   7.248  0.3472 -1.0140  0.8267
 5209SOL    HW227090   4.565   1.961   7.177  0.2704  1.5080  0.0822
 5210SOL     OW27091   0.760   3.745   8.654  0.0434  0.5221 -0.2855
 5210SOL    HW127092   0.834   3.783   8.608  1.0797 -1.0647  0.0749
 5210SOL    HW227093   0.698   3.816   8.672 -0.9292 -0.2082 -0.7618
 5211SOL     OW27094   2.732   3.317   6.889  0.1008  0.0086 -0.0980
 5211SOL    HW127095   2.727   3.292   6.982 -0.7255  1.6774  0.3068
 5211SOL    HW227096   2.801   3.383   6.897 -0.2539  0.3889 -0.1785
 5212SOL     OW27097   2.331   0.432  12.910 -0.2095 -0.2520  0.0097
 5212SOL    HW127098   2.309   0.506  12.967  0.2911  0.0285 -0.1600
 5212SOL    HW227099   2.249   0.415  12.865 -1.3007 -0.0503  1.9091
 5213SOL     OW27100   1.390   2.247   3.161 -0.2074  0.0124 -0.4014
 5213SOL    HW127101   1.356   2.193   3.089  0.1649 -0.6909 -0.0375
 5213SOL    HW227102   1.471   2.201   3.179 -0.1561  0.3165  0.1387
 5214SOL     OW27103   3.684   2.586   8.446  0.1415 -0.0517  0.0895
 5214SOL    HW127104   3.745   2.659   8.459 -1.4544  1.5030 -1.2137
 5214SOL    HW227105   3.693   2.577   8.351 -2.2733 -0.1225 -0.1423
 5215SOL     OW27106   3.602   2.756  10.623 -0.2262 -0.2741  0.1075
 5215SOL    HW127107   3.684   2.793  10.590 -1.1973  0.8079 -1.0891
 5215SOL    HW227108   3.584   2.710  10.541  1.4307  1.9031 -1.4731
 5216SOL     OW27109   2.009   3.774   4.641  0.0404 -0.0472 -0.0904
 5216SOL    HW127110   2.029   3.692   4.688 -0.6317 -1.5311 -2.3965
 5216SOL    HW227111   1.962   3.813   4.715  1.1308 -0.6498  0.9196
 5217SOL     OW27112   0.938   1.438   2.734  0.2103 -0.3433  0.4460
 5217SOL    HW127113   0.996   1.471   2.802  0.8678 -0.7413  0.0782
 5217SOL    HW227114   1.001   1.423   2.663  0.0118 -2.9140  0.8175
 5218SOL     OW27115   3.992   4.664   1.410 -0.2379  0.1262  0.1425
 5218SOL    HW127116   3.900   4.684   1.397  0.1550  0.8375 -1.5702
 5218SOL    HW227117   4.026   4.636   1.325 -0.1796  0.0872  0.1783
 5219SOL     OW27118   1.447   3.349   8.055 -0.2468  0.5208  0.5673
 5219SOL    HW127119   1.376   3.291   8.083 -0.0419  0.9203  1.9186
 5219SOL    HW227120   1.438   3.427   8.109 -1.8329  0.0507  0.9871
 5220SOL     OW27121   1.368   4.350   7.812  0.1462  0.6896 -0.3038
 5220SOL    HW127122   1.367   4.273   7.868 -1.8357  2.5024  2.1340
 5220SOL    HW227123   1.354   4.310   7.726 -0.3520 -1.2468  0.6767
 5221SOL     OW27124   0.332   2.515   7.407  0.3417  0.0074  0.5618
 5221SOL    HW127125   0.347   2.603   7.370  0.5166 -0.5828 -0.7628
 5221SOL    HW227126   0.415   2.508   7.454  0.2400 -1.9349  0.4250
 5222SOL     OW27127   1.965   1.094   8.378 -0.8664 -0.2781  0.3841
 5222SOL    HW127128   1.871   1.075   8.387 -1.5685  2.6710 -0.7697
 5222SOL    HW227129   1.978   1.154   8.451 -0.4722 -2.2866  1.9558
 5223SOL     OW27130   3.224   2.100   2.451 -0.2803 -0.4642 -0.0051
 5223SOL    HW127131   3.268   2.047   2.517 -1.3645  0.5362  1.5587
 5223SOL    HW227132   3.134   2.094   2.485 -0.4433 -1.4079 -0.6243
 5224SOL     OW27133   0.486   0.468  12.432 -0.5283 -0.2726 -0.1201
 5224SOL    HW127134   0.435   0.437  12.357  0.3220 -2.3259  0.1543
 5224SOL    HW227135   0.536   0.541  12.394  0.4720  0.5626  2.7558
 5225SOL     OW27136   3.090   2.099  11.428 -0.0693  0.0096  0.0958
 5225SOL    HW127137   3.123   2.188  11.421  0.0176  0.0409  0.9225
 5225SOL    HW227138   2.996   2.113  11.437  0.3366  2.9686 -0.3427
 5226SOL     OW27139   3.374   3.698   3.337  0.1702 -0.0115  0.5037
 5226SOL    HW127140   3.446   3.635   3.346 -0.6154 -1.0189 -0.2166
 5226SOL    HW227141   3.308   3.639   3.301  0.8693 -0.6069  0.1975
 5227SOL     OW27142   4.219   1.606  13.970 -0.5912  0.0883  0.1991
 5227SOL    HW127143   4.243   1.542  14.038  1.7674  0.7441 -0.0184
 5227SOL    HW227144   4.281   1.573  13.905 -2.3275 -0.2857 -1.2424
 5228SOL     OW27145   1.721   3.652   4.606 -0.2999  0.0503 -0.0356
 5228SOL    HW127146   1.711   3.559   4.625  0.3517  0.5626  2.8650
 5228SOL    HW227147   1.722   3.684   4.696 -4.7637 -0.1460  0.0496
 5229SOL     OW27148   1.506   2.100   2.347  0.1568 -0.1743  0.0252
 5229SOL    HW127149   1.578   2.098   2.284  0.3117 -2.0119  0.2717
 5229SOL    HW227150   1.435   2.114   2.284  0.7828  1.3223 -0.3643
 5230SOL     OW27151   0.886   2.885   7.104 -0.1471 -0.5830 -0.3834
 5230SOL    HW127152   0.835   2.889   7.023  0.7733 -0.5927 -0.9556
 5230SOL    HW227153   0.836   2.818   7.151 -1.7643  0.6793 -0.2848
 5231SOL     OW27154   4.709   0.488  15.074 -0.2035  0.1636  0.1329
 5231SOL    HW127155   4.712   0.461  15.165  2.3894  1.7934  0.5498
 5231SOL    HW227156   0.067   0.445  15.051 -0.2729  1.7344 -3.0928
 5232SOL     OW27157   3.705   0.563   3.086  0.0943  0.4186  0.1621
 5232SOL    HW127158   3.743   0.595   3.168  2.4840  0.7399 -1.0592
 5232SOL    HW227159   3.616   0.590   3.109 -0.0462  1.4381 -1.6305
 5233SOL     OW27160   0.505   3.326   4.939 -0.7616  0.1710  0.2742
 5233SOL    HW127161   0.582   3.291   4.984 -0.6015 -1.7260 -1.4700
 5233SOL    HW227162   0.485   3.407   4.986  1.3296  1.7260 -1.5459
 5234SOL     OW27163   4.371   4.416  10.829 -0.5043  0.6605  0.4295
 5234SOL    HW127164   4.433   4.477  10.790  0.7399 -1.8991 -1.5717
 5234SOL    HW227165   4.343   4.468  10.904  0.4605 -1.7617  2.4632
 5235SOL     OW27166   1.675   2.150  11.453  0.4306  0.3122 -0.1582
 5235SOL    HW127167   1.581   2.168  11.447  0.4324  0.6385  0.7860
 5235SOL    HW227168   1.716   2.216  11.397 -1.5678  0.9563 -0.8623
 5236SOL     OW27169   4.533   0.429   7.684  0.0698 -0.1612  0.8350
 5236SOL    HW127170   4.461   0.400   7.739 -0.9278 -2.7589 -1.8218
 5236SOL    HW227171   4.488   0.425   7.599  1.9195  0.0031 -0.1650
 5237SOL     OW27172   0.879   1.897   5.251  0.2603  0.0912 -0.1288
 5237SOL    HW127173   0.879   1.920   5.158 -0.4353 -1.2441 -0.4554
 5237SOL    HW227174   0.936   1.821   5.253  0.1077 -0.0290 -0.3407
 5238SOL     OW27175   0.713   3.099   8.633 -0.3561 -0.4442 -0.0176
 5238SOL    HW127176   0.693   3.066   8.720 -2.2598  0.7668  0.0066
 5238SOL    HW227177   0.804   3.068   8.637 -0.0810  0.5877  1.5381
 5239SOL     OW27178   2.028   2.855   0.178 -0.9430  0.4073 -0.6064
 5239SOL    HW127179   2.013   2.772   0.222 -0.8779 -0.2004 -1.7233
 5239SOL    HW227180   2.067   2.900   0.253  0.0284 -0.3726 -0.6447
 5240SOL     OW27181   0.666   3.143  14.239  0.1318  0.8590 -0.3679
 5240SOL    HW127182   0.679   3.237  14.255 -1.2799  0.9073  0.5531
 5240SOL    HW227183   0.583   3.126  14.284 -0.4006  0.7661 -1.3840
 5241SOL     OW27184   4.510   3.004   1.488 -0.2819 -0.2923  0.8243
 5241SOL    HW127185   4.540   3.084   1.446 -1.9694 -0.4835 -0.7550
 5241SOL    HW227186   4.476   3.036   1.571 -1.9222  0.1338 -0.0062
 5242SOL     OW27187   3.346   4.721   5.726 -0.0554 -0.7561  0.0268
 5242SOL    HW127188   3.395   0.073   5.697  1.8291 -2.0800 -0.2907
 5242SOL    HW227189   3.255   0.026   5.736 -1.1293 -4.5332  1.6416
 5243SOL     OW27190   4.520   0.969  12.971 -0.1198  0.0784  0.0268
 5243SOL    HW127191   4.528   0.960  12.876 -1.2516  0.7640 -0.1188
 5243SOL    HW227192   4.446   0.915  13.000 -1.0116 -0.5880 -3.5404
 5244SOL     OW27193   1.977   3.150  14.630 -0.1359 -0.0501 -0.5480
 5244SOL    HW127194   1.950   3.086  14.696  0.7776 -1.0247 -1.1307
 5244SOL    HW227195   2.047   3.108  14.580 -0.4706 -1.6922  0.3511
 5245SOL     OW27196   0.549   1.672   6.397  0.6112 -0.2305  0.0129
 5245SOL    HW127197   0.548   1.708   6.309  0.6227  1.2018  0.5856
 5245SOL    HW227198   0.632   1.705   6.431  0.8277 -0.7106 -0.0558
 5246SOL     OW27199   3.077   1.542   8.905 -0.7093  0.8353  0.5354
 5246SOL    HW127200   3.167   1.569   8.922  0.0763 -0.0819 -2.0900
 5246SOL    HW227201   3.057   1.613   8.843  2.2915  1.3700  0.1914
 5247SOL     OW27202   0.666   1.252   0.969 -0.2572 -0.3683 -0.0152
 5247SOL    HW127203   0.619   1.305   0.905 -0.2701 -0.2468  0.0954
 5247SOL    HW227204   0.666   1.309   1.046 -1.4492  1.5342 -1.4166
 5248SOL     OW27205   3.658   2.173   3.399 -0.5217 -0.1772  0.3412
 5248SOL    HW127206   3.684   2.182   3.491 -0.2346  1.4293  0.0937
 5248SOL    HW227207   3.731   2.210   3.349  0.5134 -2.3315  0.2402
 5249SOL     OW27208   1.923   0.459  10.397  0.2049 -0.7199  0.2193
 5249SOL    HW127209   1.842   0.449  10.446 -0.1576  1.4679  0.0816
 5249SOL    HW227210   1.989   0.410  10.446 -0.4199  0.8951  2.6884
 5250SOL     OW27211   0.933   1.760  13.686  0.3672 -0.2199  0.8621
 5250SOL    HW127212   0.935   1.741  13.593 -1.4211  0.2821  0.7298
 5250SOL    HW227213   0.851   1.808  13.682  1.0579  0.7277 -1.6449
 5251SOL     OW27214   4.092   0.849   2.762 -0.4045 -0.1467 -0.1958
 5251SOL    HW127215   4.009   0.841   2.714 -0.6313  0.1914  0.1448
 5251SOL    HW227216   4.127   0.932   2.731  0.3937 -0.8146 -1.0893
 5252SOL     OW27217   3.990   1.215  12.238  0.1156  0.4162 -0.5140
 5252SOL    HW127218   4.084   1.207  12.253  0.0148 -0.3983 -0.3351
 5252SOL    HW227219   3.980   1.154  12.164 -1.8155 -0.4884  0.5089
 5253SOL     OW27220   0.812   4.028  13.121 -0.1494 -0.6870 -0.2253
 5253SOL    HW127221   0.786   4.028  13.028 -0.5227 -0.8404 -0.1199
 5253SOL    HW227222   0.762   4.106  13.144  1.5037  0.2150  0.3364
 5254SOL     OW27223   0.500   2.256   5.554 -0.4220  0.0965  0.1693
 5254SOL    HW127224   0.454   2.216   5.480  0.1427  1.0860 -0.7244
 5254SOL    HW227225   0.456   2.339   5.572  0.4074  0.0637  2.2968
 5255SOL     OW27226   0.831   0.300  14.998 -0.0803  0.1976  0.6233
 5255SOL    HW127227   0.829   0.255  14.914 -1.4605  1.3182  0.0510
 5255SOL    HW227228   0.924   0.308  15.017  0.3049  0.1793 -1.3179
 5256SOL     OW27229   3.073   0.209   1.935 -0.2189 -0.1549 -0.3538
 5256SOL    HW127230   2.983   0.177   1.935 -0.5319  0.7013 -0.0861
 5256SOL    HW227231   3.121   0.148   1.880 -1.2396 -3.2976  2.2320
 5257SOL     OW27232   1.792   2.006   4.444 -0.0209  1.1576 -0.3043
 5257SOL    HW127233   1.884   1.981   4.456 -0.3263  0.0776 -0.2603
 5257SOL    HW227234   1.768   1.975   4.357 -2.8936 -0.3815  1.0509
 5258SOL     OW27235   2.344   0.211   8.287  0.6639  0.2992  0.0381
 5258SOL    HW127236   2.329   0.296   8.327  1.7047 -0.0992  1.2819
 5258SOL    HW227237   2.322   0.155   8.361  0.8868  2.2793  1.5906
 5259SOL     OW27238   1.015   3.501  12.753  0.1062  0.3746 -0.5268
 5259SOL    HW127239   0.928   3.541  12.759 -0.3670 -0.8289  0.7061
 5259SOL    HW227240   1.006   3.440  12.679 -2.1675  1.7415 -1.3769
 5260SOL     OW27241   4.235   1.975   8.170  0.0113  0.3438  0.1104
 5260SOL    HW127242   4.312   1.927   8.199 -1.1008 -1.5730 -0.0772
 5260SOL    HW227243   4.274   2.024   8.098  1.7185 -0.4637  0.4775
 5261SOL     OW27244   4.190   2.803   8.530 -0.4119 -0.0209 -0.0729
 5261SOL    HW127245   4.140   2.722   8.535  0.7821 -0.6279  1.6596
 5261SOL    HW227246   4.118   2.860   8.555 -0.9710 -1.2413  1.0606
 5262SOL     OW27247   0.407   0.849   4.296  0.4981  0.1782  0.1385
 5262SOL    HW127248   0.498   0.819   4.295  0.6976  0.7943 -0.0800
 5262SOL    HW227249   0.413   0.937   4.334  0.0042 -0.0918  0.8517
 5263SOL     OW27250   3.986   2.533  11.444  0.3453 -0.3734  0.0327
 5263SOL    HW127251   4.061   2.527  11.503  0.3911 -1.0657 -0.0987
 5263SOL    HW227252   4.000   2.620  11.406 -0.8920 -0.5337 -0.7792
 5264SOL     OW27253   2.784   4.356   5.724 -0.7146  0.6893  0.0733
 5264SOL    HW127254   2.822   4.431   5.768  0.4414  0.9147 -1.3105
 5264SOL    HW227255   2.840   4.279   5.737  0.5837  1.3900 -1.4090
 5265SOL     OW27256   0.848   2.192  12.414  0.0508 -0.7808 -0.2295
 5265SOL    HW127257   0.818   2.160  12.329  0.7496 -0.3452 -0.6404
 5265SOL    HW227258   0.897   2.116  12.444 -0.7896 -1.9849 -1.9371
 5266SOL     OW27259   2.808   1.039   1.824  0.3666  0.1677  0.0664
 5266SOL    HW127260   2.770   1.112   1.872 -1.9541 -0.0911 -1.3751
 5266SOL    HW227261   2.729   0.984   1.821  0.8442 -0.4730 -0.8319
 5267SOL     OW27262   2.292   4.053  11.901 -0.2654  0.0675 -0.2571
 5267SOL    HW127263   2.363   4.062  11.964  0.9348  3.3807 -2.0859
 5267SOL    HW227264   2.303   4.135  11.853  0.5693 -0.5357 -1.0833
 5268SOL     OW27265   3.170   4.265   8.180  0.5951 -0.4619 -0.3966
 5268SOL    HW127266   3.230   4.249   8.253  0.5965  0.5786 -0.1736
 5268SOL    HW227267   3.178   4.360   8.177 -0.6329 -0.3459 -0.0377
 5269SOL     OW27268   2.297   4.060  15.979  0.9041  0.4789 -0.2082
 5269SOL    HW127269   2.354   4.136  15.997 -1.6178  1.9738  1.4078
 5269SOL    HW227270   2.357   3.999  15.936  0.3953 -0.3553  0.2949
 5270SOL     OW27271   0.614   2.758  10.818  0.1328 -0.2716  0.5469
 5270SOL    HW127272   0.545   2.823  10.833 -0.3795 -0.2748 -1.7643
 5270SOL    HW227273   0.581   2.676  10.855 -2.7055  0.7441  0.2914
 5271SOL     OW27274   2.819   4.146  14.265 -0.3385  0.0844  0.6990
 5271SOL    HW127275   2.732   4.167  14.232  0.3691 -0.2021 -1.3207
 5271SOL    HW227276   2.822   4.173  14.357 -1.7123  1.4658  0.3360
 5272SOL     OW27277   0.989   1.813  11.321  0.4805 -0.2436  0.0311
 5272SOL    HW127278   0.963   1.838  11.410 -0.5333  0.6026 -0.4925
 5272SOL    HW227279   0.903   1.804  11.279  0.8075  0.9962 -0.9180
 5273SOL     OW27280   3.194   0.794  14.358  0.0731 -0.1063 -0.1532
 5273SOL    HW127281   3.112   0.747  14.371  1.2614 -3.1554 -3.8422
 5273SOL    HW227282   3.208   0.843  14.439  1.1001  1.7946 -1.4905
 5274SOL     OW27283   0.619   4.111   5.805 -0.2412 -0.4156  0.2122
 5274SOL    HW127284   0.603   4.029   5.852 -0.6119 -1.9189 -2.5759
 5274SOL    HW227285   0.711   4.125   5.826  0.0838  0.4444 -1.7857
 5275SOL     OW27286   2.651   4.170  13.626 -0.0790  0.2247  0.1541
 5275SOL    HW127287   2.671   4.242  13.567  1.0078  0.1194  0.3882
 5275SOL    HW227288   2.557   4.157  13.613 -0.1206  1.4839 -0.8398
 5276SOL     OW27289   0.902   0.320  12.205  0.0374  0.3638  0.3811
 5276SOL    HW127290   0.979   0.343  12.153  0.3122 -0.9373  0.1950
 5276SOL    HW227291   0.951   0.330  12.287  2.0013 -0.9351 -0.6253
 5277SOL     OW27292   0.297   1.804   2.811  0.2922  0.0414  0.1251
 5277SOL    HW127293   0.325   1.722   2.771  1.0225  0.5253 -0.3433
 5277SOL    HW227294   0.216   1.769   2.848  0.8793  0.0754  1.4511
 5278SOL     OW27295   0.661   0.198   5.218  0.2306  0.0589 -0.2843
 5278SOL    HW127296   0.664   0.199   5.314  0.2701  0.9397 -0.2998
 5278SOL    HW227297   0.710   0.120   5.191 -0.3024  0.2334 -1.7670
 5279SOL     OW27298   2.529   4.448   6.031  0.2505  0.2350 -0.0679
 5279SOL    HW127299   2.533   4.506   6.107 -3.4012 -1.1172  1.1673
 5279SOL    HW227300   2.615   4.407   6.044  0.5862  1.0395  0.2493
 5280SOL     OW27301   4.050   0.715  12.711  0.2220  0.2366 -0.7490
 5280SOL    HW127302   4.133   0.669  12.713 -0.5217 -1.0764 -0.5312
 5280SOL    HW227303   4.064   0.788  12.650 -0.6693  1.1486  0.1450
 5281SOL     OW27304   4.713   0.470   3.183  0.0502 -0.6186  0.4631
 5281SOL    HW127305   4.649   0.409   3.221 -0.7814  1.0891  1.7794
 5281SOL    HW227306   4.721   0.433   3.095 -0.0646 -3.1694  1.5218
 5282SOL     OW27307   3.019   0.872   3.717 -0.3234  0.3108  0.6715
 5282SOL    HW127308   3.098   0.918   3.745  0.0065  1.0367 -1.4309
 5282SOL    HW227309   2.953   0.913   3.772  1.1446  2.6113  0.7029
 5283SOL     OW27310   2.370   3.402  13.630 -0.1595 -0.0687  0.3306
 5283SOL    HW127311   2.387   3.496  13.639  1.5614 -0.3949  0.3567
 5283SOL    HW227312   2.278   3.413  13.605  0.5050  2.5794 -1.0131
 5284SOL     OW27313   3.583   2.692   7.480 -0.7272  0.1012 -0.2081
 5284SOL    HW127314   3.558   2.601   7.463 -0.7606 -0.0891  0.8355
 5284SOL    HW227315   3.670   2.691   7.441  0.3754 -0.7540  2.2543
 5285SOL     OW27316   4.476   0.921  14.620  0.1466  0.1882 -0.0672
 5285SOL    HW127317   4.454   0.829  14.603  0.5968 -0.1852  1.3365
 5285SOL    HW227318   4.466   0.941  14.527 -0.3159  2.4363  0.4836
 5286SOL     OW27319   3.665   1.194  17.397 -0.5245  0.0857  0.4696
 5286SOL    HW127320   3.713   1.211  17.479 -0.8545 -1.2776  0.9470
 5286SOL    HW227321   3.647   1.104  17.423  0.4242 -1.0996 -2.9844
 5287SOL     OW27322   3.496   0.511  16.839 -0.1735  1.1524  0.2836
 5287SOL    HW127323   3.412   0.473  16.814  0.5153 -0.6721  0.7271
 5287SOL    HW227324   3.477   0.508  16.933 -0.4357  0.2388  0.1939
 5288SOL     OW27325   1.838   4.378   5.457 -0.5870  0.7083  0.5141
 5288SOL    HW127326   1.784   4.390   5.535 -2.0990  1.3481 -0.6140
 5288SOL    HW227327   1.818   4.288   5.434  2.1187  0.4245 -0.7753
 5289SOL     OW27328   1.707   3.591   4.045 -0.3543 -0.2184 -0.3802
 5289SOL    HW127329   1.732   3.504   4.015  0.4096  0.4403 -1.6623
 5289SOL    HW227330   1.650   3.613   3.971 -0.6154  1.7628  0.3957
 5290SOL     OW27331   3.396   4.285   9.055  0.2526  0.1465  0.3452
 5290SOL    HW127332   3.466   4.263   8.994 -1.8472  0.0733 -2.0909
 5290SOL    HW227333   3.445   4.304   9.134  2.2249 -0.8895 -0.6348
 5291SOL     OW27334   0.524   1.198   2.731 -0.1131  0.5449  0.1566
 5291SOL    HW127335   0.437   1.238   2.732 -0.9750 -1.3270  0.1091
 5291SOL    HW227336   0.580   1.268   2.763 -0.0483  0.4114  0.3350
 5292SOL     OW27337   0.151   4.146  10.159  0.3490 -0.6942 -0.0188
 5292SOL    HW127338   0.169   4.240  10.169 -1.8334 -0.4946  2.1433
 5292SOL    HW227339   0.107   4.136  10.075  1.4399 -1.6623 -0.4823
 5293SOL     OW27340   4.257   1.479   5.856 -0.7301 -0.2717  0.1242
 5293SOL    HW127341   4.292   1.390   5.861  1.1531  0.5948  2.0913
 5293SOL    HW227342   4.319   1.537   5.901  2.1871 -1.1285 -2.8277
 5294SOL     OW27343   1.668   2.425   1.135 -0.6938 -0.0339 -0.3363
 5294SOL    HW127344   1.587   2.392   1.174 -1.1591  0.5289 -0.8174
 5294SOL    HW227345   1.686   2.490   1.202  1.0499  0.3138 -1.1435
 5295SOL     OW27346   0.979   4.011   4.310  0.0810  0.5949  0.7279
 5295SOL    HW127347   1.011   3.979   4.225  0.6664 -1.0272  1.5551
 5295SOL    HW227348   1.049   4.073   4.330 -0.4254  1.6748 -0.8666
 5296SOL     OW27349   3.071   1.245   8.908  0.1786  0.0135 -0.7644
 5296SOL    HW127350   3.138   1.243   8.977  0.9735  2.1576 -1.4867
 5296SOL    HW227351   3.043   1.335   8.921 -2.3707 -1.0183  0.8980
 5297SOL     OW27352   4.159   0.548  13.396 -0.3462 -0.0974 -0.7690
 5297SOL    HW127353   4.202   0.511  13.474 -1.6650 -2.4103 -1.1248
 5297SOL    HW227354   4.215   0.623  13.378  1.5458 -1.0631  1.0314
 5298SOL     OW27355   4.251   2.057  16.770  0.0235 -0.1241  0.1705
 5298SOL    HW127356   4.249   2.125  16.702  3.8863  0.4725  0.6513
 5298SOL    HW227357   4.291   2.091  16.850 -0.9161 -1.0260  1.0160
 5299SOL     OW27358   3.805   3.816   3.853  0.1231 -0.1322 -0.2873
 5299SOL    HW127359   3.857   3.806   3.773  0.3163  1.9828 -0.4286
 5299SOL    HW227360   3.804   3.721   3.863 -0.4527 -0.3506 -2.3696
 5300SOL     OW27361   0.174   1.855  14.016  0.3720 -0.0637 -0.1105
 5300SOL    HW127362   0.175   1.942  13.975  1.3808 -0.0195  0.0100
 5300SOL    HW227363   0.248   1.867  14.075  0.7233  0.9844 -0.7428
 5301SOL     OW27364   3.248   3.201   5.619 -0.1478 -0.3525  0.0633
 5301SOL    HW127365   3.193   3.173   5.692 -0.1331 -1.2046 -0.2614
 5301SOL    HW227366   3.188   3.261   5.574 -2.2888 -0.5830  2.5693
 5302SOL     OW27367   1.935   1.254   6.079 -0.0644  0.3934 -0.2829
 5302SOL    HW127368   1.879   1.259   6.157 -0.5292  0.3104 -0.6138
 5302SOL    HW227369   1.876   1.267   6.005 -2.3277 -0.9398  1.2805
 5303SOL     OW27370   3.623   4.700   6.279 -0.0254 -0.1977 -0.1617
 5303SOL    HW127371   3.591   4.696   6.190 -0.6364  0.7600  0.0188
 5303SOL    HW227372   3.554   4.646   6.318  1.7822 -1.1862  1.7165
 5304SOL     OW27373   2.051   1.576   5.511  0.3738 -0.0497  0.3954
 5304SOL    HW127374   1.987   1.614   5.451  1.3880  0.0741 -0.5963
 5304SOL    HW227375   2.137   1.594   5.473  0.2868  1.5965  0.9463
 5305SOL     OW27376   4.510   0.625   0.203 -1.1074 -0.2147  0.3880
 5305SOL    HW127377   4.521   0.677   0.124 -1.3805 -0.3039  0.2888
 5305SOL    HW227378   4.577   0.669   0.254 -1.9267  1.1596  0.2888
 5306SOL     OW27379   2.635   2.979  10.813 -0.2386  0.5686 -0.1571
 5306SOL    HW127380   2.730   2.981  10.822 -0.1541 -0.0145 -0.8683
 5306SOL    HW227381   2.604   3.055  10.863  0.6184  0.8359 -0.0411
 5307SOL     OW27382   0.957   3.853   3.838  0.2278  0.3121 -0.7129
 5307SOL    HW127383   0.952   3.758   3.847 -0.1645  0.7934  3.9809
 5307SOL    HW227384   1.022   3.875   3.905 -1.6001 -0.0311  1.1542
 5308SOL     OW27385   3.865   2.619  11.660  0.1518 -0.1380  0.0087
 5308SOL    HW127386   3.877   2.548  11.597 -0.0965 -1.9544  2.0242
 5308SOL    HW227387   3.889   2.699  11.612  2.9341 -0.7403  0.4153
 5309SOL     OW27388   4.456   2.058  14.098 -0.3348 -0.2155 -0.1417
 5309SOL    HW127389   4.518   1.987  14.079 -1.1924 -0.6145 -1.4621
 5309SOL    HW227390   4.485   2.134  14.047  0.0747 -0.1540  0.1828
 5310SOL     OW27391   2.858   2.633   0.403  0.0812 -0.6976  0.2711
 5310SOL    HW127392   2.833   2.711   0.453 -0.4568  0.6472 -2.1161
 5310SOL    HW227393   2.923   2.591   0.460 -1.0296 -0.5904  1.6114
 5311SOL     OW27394   4.418   1.255  10.443 -1.2772 -0.2017 -0.6407
 5311SOL    HW127395   4.366   1.303  10.379 -2.5394 -0.3146  0.2977
 5311SOL    HW227396   4.353   1.213  10.499  0.1235 -0.7485  0.5811
 5312SOL     OW27397   0.023   3.039   7.513 -0.0197  0.0457  0.5362
 5312SOL    HW127398   0.072   3.103   7.462 -0.0634 -1.1189 -0.9475
 5312SOL    HW227399   0.070   3.037   7.597  0.1611 -2.7664  0.3719
 5313SOL     OW27400   4.242   2.523   6.309 -0.0292  0.4782 -0.1757
 5313SOL    HW127401   4.301   2.508   6.236 -1.0653  1.1480 -1.1403
 5313SOL    HW227402   4.203   2.435   6.318 -0.6471  0.4008 -3.7931
 5314SOL     OW27403   2.706   0.554  11.003  0.2191 -0.2675  0.1319
 5314SOL    HW127404   2.659   0.471  11.001 -2.3244  1.1539 -0.0298
 5314SOL    HW227405   2.710   0.563  11.098  0.6875  3.5438 -0.2439
 5315SOL     OW27406   2.224   1.751   1.734 -0.3423  0.2465 -0.6072
 5315SOL    HW127407   2.244   1.687   1.802  0.0349 -0.3736 -1.2975
 5315SOL    HW227408   2.284   1.706   1.674 -1.7433 -1.6799 -0.5490
 5316SOL     OW27409   0.366   2.860   5.178 -0.2301  0.0292  0.1104
 5316SOL    HW127410   0.310   2.875   5.102 -0.6814 -2.4300 -0.0553
 5316SOL    HW227411   0.395   2.949   5.197  0.4042  0.2027 -1.7126
 5317SOL     OW27412   3.177   0.206   8.859 -0.1865  0.4517  0.6395
 5317SOL    HW127413   3.255   0.166   8.897 -1.3461 -0.1376  2.3852
 5317SOL    HW227414   3.122   0.190   8.936 -1.7932  0.2740 -0.5439
 5318SOL     OW27415   2.492   2.308   4.214  0.1840  0.1206  0.2591
 5318SOL    HW127416   2.534   2.241   4.160  0.2911 -1.4613  2.2682
 5318SOL    HW227417   2.476   2.381   4.154  0.6585 -1.4175 -1.7456
 5319SOL     OW27418   3.900   0.676   5.412 -0.1625  0.3313 -0.0983
 5319SOL    HW127419   3.882   0.629   5.331 -0.1921 -0.6360  0.4743
 5319SOL    HW227420   3.812   0.706   5.437 -0.2277 -0.1409  0.2342
 5320SOL     OW27421   2.325   0.002   5.703 -0.0262 -0.0266 -0.4199
 5320SOL    HW127422   2.330   4.680   5.619 -0.4780 -0.0817 -0.4130
 5320SOL    HW227423   2.323   4.653   5.764  0.5034 -0.5642 -1.0482
 5321SOL     OW27424   3.895   4.456   3.361 -0.3527  0.0241 -0.8665
 5321SOL    HW127425   3.894   4.385   3.425 -1.2150 -0.5037 -1.4725
 5321SOL    HW227426   3.807   4.490   3.377 -0.8841 -1.3235 -0.9145
 5322SOL     OW27427   4.714   1.675   9.004  0.4674  0.3385 -1.0787
 5322SOL    HW127428   4.643   1.731   8.972 -1.2100 -1.5870 -0.6876
 5322SOL    HW227429   4.665   1.593   8.999 -1.6599  1.6543 -1.6707
 5323SOL     OW27430   2.679   0.769   9.081 -0.1644  0.5120 -0.0841
 5323SOL    HW127431   2.652   0.677   9.081 -0.8172  0.6982  1.4308
 5323SOL    HW227432   2.599   0.809   9.115  0.4033  1.5029  0.0681
 5324SOL     OW27433   1.329   1.141   8.894  0.4542  0.7825 -0.1381
 5324SOL    HW127434   1.288   1.054   8.886  0.7384  0.6087  0.2984
 5324SOL    HW227435   1.347   1.137   8.988 -0.3315  2.7443  0.0928
 5325SOL     OW27436   1.275   4.280  17.508  0.1066 -0.0044 -0.4201
 5325SOL    HW127437   1.289   4.198  17.460 -1.4415 -1.5175  1.7099
 5325SOL    HW227438   1.193   4.314  17.472 -0.3768 -1.0935 -0.3449
 5326SOL     OW27439   0.867   2.161   8.053  0.1640  0.4155 -0.2583
 5326SOL    HW127440   0.840   2.113   8.131 -0.0098  0.5038 -0.2653
 5326SOL    HW227441   0.810   2.238   8.059 -0.3853  0.0356 -0.6489
 5327SOL     OW27442   4.062   2.574   8.523  0.1472  0.3286  0.0238
 5327SOL    HW127443   4.082   2.489   8.564  1.4518  1.2460  1.3132
 5327SOL    HW227444   3.969   2.565   8.504 -0.0094  1.6803  0.1868
 5328SOL     OW27445   4.121   3.302   0.633  0.7596  0.4135 -0.4619
 5328SOL    HW127446   4.125   3.208   0.612 -2.9224  0.0748  0.3477
 5328SOL    HW227447   4.198   3.312   0.688 -0.8794 -0.4049  1.9719
 5329SOL     OW27448   0.058   1.113  12.202 -0.8175 -0.2821 -0.5258
 5329SOL    HW127449   0.124   1.182  12.204 -0.3193 -0.7447 -0.9644
 5329SOL    HW227450   0.025   1.129  12.113  1.5126 -0.0668 -1.3486
 5330SOL     OW27451   2.398   0.805   5.141 -0.3401  0.2997  0.2772
 5330SOL    HW127452   2.459   0.879   5.136 -0.2247  0.0379 -2.1303
 5330SOL    HW227453   2.324   0.844   5.189  0.1645  0.0451  1.2589
 5331SOL     OW27454   4.592   1.821   7.613 -0.4302 -0.2593 -0.2844
 5331SOL    HW127455   4.501   1.806   7.589  0.0796 -0.7407 -1.9447
 5331SOL    HW227456   4.588   1.880   7.689 -1.5041  1.2537 -1.4954
 5332SOL     OW27457   2.310   1.947   4.413 -0.1217 -0.4520  0.2109
 5332SOL    HW127458   2.382   1.932   4.352 -0.1400  1.1903 -0.2010
 5332SOL    HW227459   2.352   2.007   4.474 -1.1905  1.4795 -0.9801
 5333SOL     OW27460   2.530   1.957   5.805 -0.2239 -0.2104  0.7143
 5333SOL    HW127461   2.574   2.030   5.849  0.3397  0.3033 -0.7299
 5333SOL    HW227462   2.577   1.882   5.842 -1.7587 -0.9784  1.1139
 5334SOL     OW27463   4.541   2.481  11.793 -0.2158 -0.0730 -0.0116
 5334SOL    HW127464   4.501   2.553  11.743 -0.3726 -1.6883 -2.2347
 5334SOL    HW227465   4.566   2.526  11.873 -0.4770  0.8925 -0.4720
 5335SOL     OW27466   0.110   0.414  14.421  0.3735 -0.5435  0.5318
 5335SOL    HW127467   0.108   0.370  14.507  3.7571 -0.8450  0.4679
 5335SOL    HW227468   0.055   0.366  14.359  0.4329 -2.3264  1.8610
 5336SOL     OW27469   1.946   2.317   9.451 -0.2694 -0.4140  0.2451
 5336SOL    HW127470   1.950   2.379   9.524  0.4737  1.9129 -1.7432
 5336SOL    HW227471   1.947   2.373   9.373  0.3994  1.9896  1.9540
 5337SOL     OW27472   1.348   3.465   4.189  0.0046 -0.6792 -0.6328
 5337SOL    HW127473   1.277   3.527   4.204 -0.3386 -0.8267 -1.6902
 5337SOL    HW227474   1.318   3.428   4.106  0.2989  0.5774 -1.3017
 5338SOL     OW27475   0.357   3.604   8.408 -0.4916 -0.3887  0.1204
 5338SOL    HW127476   0.420   3.546   8.449  0.9064  1.3680  0.4562
 5338SOL    HW227477   0.410   3.673   8.369  0.0399 -0.2646  1.0618
 5339SOL     OW27478   0.546   4.243   5.503 -0.8962  0.3866  0.8624
 5339SOL    HW127479   0.461   4.200   5.504 -0.1091 -1.1601  1.2242
 5339SOL    HW227480   0.575   4.242   5.595 -0.7072  1.3374  0.8217
 5340SOL     OW27481   3.430   4.059   8.588 -0.4554 -0.3924 -0.0540
 5340SOL    HW127482   3.489   4.124   8.626  0.5892  0.9424 -3.8926
 5340SOL    HW227483   3.397   4.021   8.669 -0.8097 -0.3742 -0.1893
 5341SOL     OW27484   3.232   4.529   4.008 -0.1964  0.3286 -0.2652
 5341SOL    HW127485   3.140   4.526   3.980  0.0092  2.2649 -1.1765
 5341SOL    HW227486   3.248   4.619   4.036 -0.4588  0.1079  0.5978
 5342SOL     OW27487   4.677   3.258   4.512 -0.4401 -0.0781 -0.7917
 5342SOL    HW127488   4.654   3.167   4.531 -0.5344  0.6301  2.5355
 5342SOL    HW227489   0.041   3.271   4.544 -0.9148 -1.2274  0.9846
 5343SOL     OW27490   2.379   4.167  13.591  0.0035 -0.0181  0.3434
 5343SOL    HW127491   2.366   4.154  13.497 -1.4138 -1.9152  0.7910
 5343SOL    HW227492   2.296   4.133  13.626 -0.2837 -1.0971 -1.3767
 5344SOL     OW27493   2.662   3.502   3.981 -0.3256  0.0782 -0.2225
 5344SOL    HW127494   2.619   3.555   4.048  1.3947 -1.6200  2.2121
 5344SOL    HW227495   2.584   3.459   3.947 -0.4894  0.4186 -0.2814
 5345SOL     OW27496   2.471   3.549   7.649 -0.3791  0.1297 -0.3959
 5345SOL    HW127497   2.428   3.513   7.726  1.3493 -0.4611  0.2728
 5345SOL    HW227498   2.546   3.490   7.649 -0.1155  0.4662 -1.1834
 5346SOL     OW27499   1.609   1.028   1.103 -0.3641 -0.6353  0.4406
 5346SOL    HW127500   1.696   1.063   1.121 -0.2728 -0.6593  0.0516
 5346SOL    HW227501   1.634   0.944   1.066  4.0358  0.5284  0.7627
 5347SOL     OW27502   3.913   1.522  12.171 -0.3699 -0.4102  0.6773
 5347SOL    HW127503   3.907   1.426  12.170 -0.0399 -0.4133 -0.9879
 5347SOL    HW227504   3.821   1.549  12.165  0.4616  1.8338 -1.4928
 5348SOL     OW27505   1.676   1.482   4.262 -0.3906 -0.0683 -0.0419
 5348SOL    HW127506   1.764   1.519   4.264 -0.8391  0.8606  2.2485
 5348SOL    HW227507   1.621   1.542   4.211 -1.3403  0.4349  1.5623
 5349SOL     OW27508   0.454   3.237  13.713 -0.1026  0.4004 -0.3632
 5349SOL    HW127509   0.467   3.321  13.756  1.3368 -0.0812  0.1229
 5349SOL    HW227510   0.452   3.187  13.795 -1.0304 -1.6127 -1.6091
 5350SOL     OW27511   1.983   2.738   9.459  0.0257 -0.1021  0.2164
 5350SOL    HW127512   2.049   2.669   9.452  0.8396  0.9049 -1.9032
 5350SOL    HW227513   1.987   2.777   9.372  0.1552 -1.7600 -0.5163
 5351SOL     OW27514   3.337   2.968  12.292 -0.0314 -0.4268 -0.4993
 5351SOL    HW127515   3.409   3.013  12.247  0.3711 -1.4014 -0.8330
 5351SOL    HW227516   3.380   2.899  12.343 -1.4068 -1.9409 -1.3591
 5352SOL     OW27517   2.564   1.739   4.043 -0.4256 -0.2146 -0.2388
 5352SOL    HW127518   2.497   1.712   4.106 -0.1191  0.0306  0.1927
 5352SOL    HW227519   2.505   1.744   3.968 -0.2859  0.9957 -0.2626
 5353SOL     OW27520   1.630   1.577   9.300  0.4457  0.2478 -0.0220
 5353SOL    HW127521   1.546   1.608   9.335  0.7632 -0.4095  1.3240
 5353SOL    HW227522   1.679   1.658   9.314  1.0963 -0.0481 -0.5404
 5354SOL     OW27523   4.147   4.651   3.214 -0.3793 -0.3062 -0.1227
 5354SOL    HW127524   4.061   4.633   3.177 -0.8721  2.8328 -0.4939
 5354SOL    HW227525   4.205   4.602   3.156 -0.3597  0.6100 -0.8840
 5355SOL     OW27526   1.346   0.727  12.579 -0.3370 -0.8012 -0.1838
 5355SOL    HW127527   1.277   0.742  12.515  0.3685  0.0416 -0.7506
 5355SOL    HW227528   1.398   0.807  12.565  0.4799 -1.1788  0.6497
 5356SOL     OW27529   3.319   1.710   8.951  0.7128 -0.3960 -0.4271
 5356SOL    HW127530   3.386   1.770   8.984 -0.3557 -0.4843  1.8837
 5356SOL    HW227531   3.333   1.716   8.856 -0.4101  1.4743 -0.4779
 5357SOL     OW27532   3.648   3.714   4.251  0.6396 -0.9037  0.1520
 5357SOL    HW127533   3.567   3.732   4.204  1.4903 -1.2386 -1.4111
 5357SOL    HW227534   3.666   3.807   4.269  0.9079 -0.7673 -0.8326
 5358SOL     OW27535   3.993   2.070   8.746  0.5584  0.1289 -0.1232
 5358SOL    HW127536   4.056   2.127   8.789 -1.3603  0.9089  1.6693
 5358SOL    HW227537   3.940   2.125   8.690 -1.4707  0.5504  2.1996
 5359SOL     OW27538   3.538   4.003  17.443  0.3122  0.6619  0.2925
 5359SOL    HW127539   3.457   3.952  17.437  0.9046 -0.1496 -0.9302
 5359SOL    HW227540   3.600   3.941  17.405  0.2432  1.3290 -0.9015
 5360SOL     OW27541   1.076   0.648   7.668 -0.8004 -0.2155 -0.1691
 5360SOL    HW127542   1.055   0.600   7.587 -0.6318  0.2087 -0.4659
 5360SOL    HW227543   1.144   0.592   7.705  0.6640  0.1030 -2.3646
 5361SOL     OW27544   3.905   3.049   6.934  0.0349  0.6418  0.2048
 5361SOL    HW127545   3.810   3.036   6.934 -0.0444  1.2043  1.3314
 5361SOL    HW227546   3.929   3.012   6.849 -0.0909  1.1371 -0.0450
 5362SOL     OW27547   2.540   1.739   8.132  0.0244 -0.1780 -0.1109
 5362SOL    HW127548   2.471   1.708   8.073 -1.1252 -0.9074  1.5753
 5362SOL    HW227549   2.519   1.678   8.203  0.6741 -0.5910 -0.2767
 5363SOL     OW27550   2.143   3.636   6.320  0.6551  0.0141  0.1105
 5363SOL    HW127551   2.201   3.633   6.396  0.7014  2.4505  0.1572
 5363SOL    HW227552   2.062   3.666   6.361 -0.2521  0.1572 -1.8089
 5364SOL     OW27553   3.231   1.268   1.939 -0.0239  0.4881 -0.3588
 5364SOL    HW127554   3.178   1.194   1.909 -0.8551  1.1574 -0.5282
 5364SOL    HW227555   3.166   1.337   1.946  0.0183  0.5636 -0.6981
 5365SOL     OW27556   2.215   2.438   8.696  0.0268 -0.1631 -0.3210
 5365SOL    HW127557   2.284   2.411   8.636  0.4086 -0.9223  0.4592
 5365SOL    HW227558   2.178   2.352   8.717  0.9306 -0.5827 -0.4427
 5366SOL     OW27559   3.018   3.039  13.598 -0.0736 -0.4118  0.2109
 5366SOL    HW127560   3.045   2.949  13.578  0.2106 -0.1237 -0.6710
 5366SOL    HW227561   2.925   3.035  13.575  0.1031 -0.0389 -0.5654
 5367SOL     OW27562   4.516   0.344   5.155  0.6781  0.2036  0.6095
 5367SOL    HW127563   4.537   0.281   5.223 -1.4479  1.1677  2.1767
 5367SOL    HW227564   4.601   0.358   5.114  1.4602 -2.4782  1.3045
 5368SOL     OW27565   3.392   1.383   1.220  0.0263  0.1439 -0.1709
 5368SOL    HW127566   3.410   1.411   1.310 -0.3996  0.5010 -0.2013
 5368SOL    HW227567   3.467   1.325   1.203 -2.0929 -2.3801 -0.8918
 5369SOL     OW27568   4.481   2.689   9.661  0.3473  0.2414 -0.0033
 5369SOL    HW127569   4.416   2.684   9.591  1.6226 -0.7282 -1.1194
 5369SOL    HW227570   4.497   2.783   9.665 -0.0575  0.2411  1.5404
 5370SOL     OW27571   4.169   2.839   1.297 -0.6902  0.2650 -0.6701
 5370SOL    HW127572   4.200   2.909   1.239  0.1340 -0.0808 -0.6397
 5370SOL    HW227573   4.095   2.823   1.238  1.3141 -3.3898 -2.1628
 5371SOL     OW27574   3.345   4.161   3.453 -0.2942 -0.1004  0.1538
 5371SOL    HW127575   3.411   4.160   3.523 -1.6381 -3.2800  1.3741
 5371SOL    HW227576   3.268   4.176   3.507 -1.7265  3.1296 -2.7987
 5372SOL     OW27577   0.835   1.986   7.638 -0.5834 -0.3606 -0.2362
 5372SOL    HW127578   0.847   1.954   7.728  1.2921 -0.4918 -0.5374
 5372SOL    HW227579   0.752   1.938   7.635 -1.1137  0.5519 -0.3039
 5373SOL     OW27580   4.361   1.645   3.540  1.0462  0.3715 -0.4444
 5373SOL    HW127581   4.386   1.619   3.629 -1.3100  0.1008  0.1279
 5373SOL    HW227582   4.332   1.561   3.504  1.1912  0.7437 -1.4118
 5374SOL     OW27583   1.754   1.898  17.500 -0.4020 -0.1948  0.4466
 5374SOL    HW127584   1.675   1.898  17.553 -0.5723  2.3465  0.2080
 5374SOL    HW227585   1.799   1.973  17.538  2.8787 -0.2580 -3.2721
 5375SOL     OW27586   4.560   3.872   9.035  0.1484 -0.5721  0.2232
 5375SOL    HW127587   4.601   3.920   9.107  0.0778  1.8304 -1.3241
 5375SOL    HW227588   4.605   3.788   9.042  0.9874 -0.1027  0.4417
 5376SOL     OW27589   0.579   1.277   1.590 -0.0111 -0.5568  0.6805
 5376SOL    HW127590   0.640   1.337   1.633  2.1260 -0.6620 -2.1683
 5376SOL    HW227591   0.531   1.253   1.670 -1.4698  0.7079  0.1834
 5377SOL     OW27592   3.526   0.452  11.905 -0.0458 -0.1585  0.4633
 5377SOL    HW127593   3.609   0.458  11.858  0.9572 -0.3081  2.2427
 5377SOL    HW227594   3.511   0.357  11.906 -2.4703  0.1873 -1.0530
 5378SOL     OW27595   3.053   4.119   7.056  0.1861  0.6243 -0.2513
 5378SOL    HW127596   3.149   4.126   7.061  0.2595  0.1453 -0.9330
 5378SOL    HW227597   3.057   4.034   7.100 -0.0789  1.1670  0.8170
 5379SOL     OW27598   3.538   4.043   9.991  0.5638 -0.0434  0.2211
 5379SOL    HW127599   3.565   3.955   9.964  0.6841  0.4207 -1.1649
 5379SOL    HW227600   3.592   4.061  10.068  0.4783  0.8608  0.0702
 5380SOL     OW27601   1.820   0.334   9.855  0.6808 -0.1652  0.5626
 5380SOL    HW127602   1.759   0.312   9.926  0.4147 -3.2753 -0.6114
 5380SOL    HW227603   1.765   0.381   9.792  0.5021  0.1328  0.9454
 5381SOL     OW27604   0.237   4.175   8.406 -0.2600  0.2722 -0.3334
 5381SOL    HW127605   0.254   4.082   8.394 -2.5107 -0.0799 -0.7612
 5381SOL    HW227606   0.145   4.172   8.431 -0.1056  1.4703  0.4235
 5382SOL     OW27607   0.705   4.644   6.601  0.3279 -0.1024 -0.1872
 5382SOL    HW127608   0.614   4.669   6.587  0.0905 -0.7906  0.0810
 5382SOL    HW227609   0.746   4.697   6.533 -1.3785  1.0098 -0.3420
 5383SOL     OW27610   3.844   2.066   8.992  0.1100 -0.2739 -0.2055
 5383SOL    HW127611   3.912   2.085   8.928 -0.2865  1.4141 -0.1487
 5383SOL    HW227612   3.805   2.151   9.013  1.6604  0.0738  1.2763
 5384SOL     OW27613   3.530   1.335   5.982  0.7757 -0.1823 -0.3689
 5384SOL    HW127614   3.467   1.369   6.046 -0.2051  0.1117 -1.4814
 5384SOL    HW227615   3.491   1.253   5.951  0.6399 -0.5657  0.8368
 5385SOL     OW27616   1.694   1.264   6.201  0.1440 -0.1431 -0.2940
 5385SOL    HW127617   1.622   1.275   6.263  0.1246  0.8127 -0.4851
 5385SOL    HW227618   1.686   1.170   6.185  0.7751 -0.3740  0.7388
 5386SOL     OW27619   2.201   2.111   9.662 -0.4823  0.1416  0.3968
 5386SOL    HW127620   2.275   2.136   9.607  0.3518  0.4450  1.6648
 5386SOL    HW227621   2.135   2.098   9.594 -0.0664  0.1648 -0.0136
 5387SOL     OW27622   2.320   1.690   5.885  0.3918  0.1650  0.2883
 5387SOL    HW127623   2.326   1.781   5.854  2.3199  0.1460  0.6216
 5387SOL    HW227624   2.257   1.639   5.835 -0.1429  1.4181 -0.3185
 5388SOL     OW27625   2.620   0.746  15.029 -0.8607  0.1467  0.1884
 5388SOL    HW127626   2.554   0.815  15.029 -2.7685 -1.6671  0.9487
 5388SOL    HW227627   2.591   0.689  15.100 -1.5355  2.7495  1.9959
 5389SOL     OW27628   2.501   0.463   2.068  0.3000 -0.9576  0.0779
 5389SOL    HW127629   2.495   0.510   1.985 -0.8483 -2.1209 -0.5082
 5389SOL    HW227630   2.448   0.390   2.037 -2.3496  0.8735  0.2554
 5390SOL     OW27631   2.137   0.897   2.892 -0.2241  0.5313  0.3707
 5390SOL    HW127632   2.223   0.892   2.933 -0.9819 -3.3550  1.5638
 5390SOL    HW227633   2.164   0.854   2.811 -0.4668 -1.1466  1.1799
 5391SOL     OW27634   1.262   4.724   7.649 -0.0929 -0.0142 -0.1052
 5391SOL    HW127635   1.172   4.703   7.675 -0.3722  1.3427  0.0540
 5391SOL    HW227636   1.254   0.082   7.602 -1.3164 -0.3038 -0.4162
 5392SOL     OW27637   1.601   3.618  15.475  0.1526  0.8199 -0.0141
 5392SOL    HW127638   1.571   3.614  15.384 -0.1049  0.4958  0.0841
 5392SOL    HW227639   1.633   3.706  15.494 -0.9247  0.6711  2.5539
 5393SOL     OW27640   1.349   0.968   6.765  0.0720  0.6387  0.7316
 5393SOL    HW127641   1.413   1.025   6.722  0.8444  0.5669  1.7950
 5393SOL    HW227642   1.384   0.880   6.751 -0.2127  1.0776 -2.8786
 5394SOL     OW27643   4.116   3.280   5.203  0.7036  0.7021  0.0793
 5394SOL    HW127644   4.144   3.349   5.263  1.2969  0.2939  0.2666
 5394SOL    HW227645   4.113   3.327   5.119  1.7320 -1.1470 -1.0067
 5395SOL     OW27646   1.535   0.956   5.133  0.2180  1.0356 -0.1399
 5395SOL    HW127647   1.443   0.929   5.123  0.6471 -0.2698 -0.6015
 5395SOL    HW227648   1.567   0.959   5.043 -0.4233 -0.7060 -0.4236
 5396SOL     OW27649   4.012   3.613   7.270  0.4784  0.5352  0.1006
 5396SOL    HW127650   4.006   3.524   7.235  0.8199 -0.3406  2.2607
 5396SOL    HW227651   4.080   3.649   7.212  0.6792 -3.3324 -2.0437
 5397SOL     OW27652   4.040   1.752  11.557  0.1515  0.0982 -0.1067
 5397SOL    HW127653   3.960   1.714  11.593 -0.3957  1.9421  0.6195
 5397SOL    HW227654   4.012   1.803  11.481 -4.1118 -2.0457  0.0371
 5398SOL     OW27655   2.605   2.154   4.022  0.1117 -0.1786  0.5225
 5398SOL    HW127656   2.562   2.129   3.940 -1.0219 -2.6140  1.8359
 5398SOL    HW227657   2.682   2.193   3.981  1.5597 -0.8659  2.6103
 5399SOL     OW27658   1.345   0.694  17.550 -0.0334 -1.1873  0.4810
 5399SOL    HW127659   1.311   0.617  17.504 -2.4225  1.1740 -1.7079
 5399SOL    HW227660   1.430   0.708  17.510  0.3555  1.2456  2.1636
 5400SOL     OW27661   1.728   0.406  15.242 -0.0491 -0.6414  0.2640
 5400SOL    HW127662   1.721   0.324  15.194 -1.1984 -0.0607 -0.5944
 5400SOL    HW227663   1.707   0.476  15.179  1.7547  0.1072  0.5031
 5401SOL     OW27664   0.734   4.409   6.733 -0.2934 -0.1631  0.0096
 5401SOL    HW127665   0.734   4.492   6.685  0.3328  0.0515  0.3783
 5401SOL    HW227666   0.828   4.404   6.748 -0.4437  0.0173  1.0464
 5402SOL     OW27667   4.477   2.021   4.982  0.0894  0.3515 -0.1140
 5402SOL    HW127668   4.389   2.016   4.943 -0.8700  0.5187  2.0342
 5402SOL    HW227669   4.457   2.044   5.073  0.1755 -1.6888  0.4161
 5403SOL     OW27670   3.384   0.486   2.322  0.2171 -0.2706 -0.4978
 5403SOL    HW127671   3.343   0.572   2.310  4.0074  1.0211 -4.2738
 5403SOL    HW227672   3.339   0.428   2.260 -1.7526  0.8180 -0.0854
 5404SOL     OW27673   1.279   0.467  17.458  0.6298 -0.1335 -0.2364
 5404SOL    HW127674   1.221   0.429  17.524  0.6991  0.0066 -0.0964
 5404SOL    HW227675   1.240   0.424  17.382 -1.3829  3.6000 -1.3199
 5405SOL     OW27676   4.430   1.634  11.576  0.0407  0.2996  0.0511
 5405SOL    HW127677   4.466   1.685  11.504 -0.2609  1.4978  0.7562
 5405SOL    HW227678   4.503   1.658  11.633  0.3928 -1.5959  0.4188
 5406SOL     OW27679   3.850   0.496   1.896  1.1541 -0.0516  0.1964
 5406SOL    HW127680   3.910   0.450   1.836  0.6948 -1.1509  0.5795
 5406SOL    HW227681   3.771   0.492   1.844  1.6094 -1.9843 -0.3519
 5407SOL     OW27682   1.555   0.844   8.340 -0.4796  0.4637  0.4552
 5407SOL    HW127683   1.513   0.875   8.420  0.8909  3.1105  0.1444
 5407SOL    HW227684   1.485   0.792   8.299  0.4701 -0.3179 -0.1822
 5408SOL     OW27685   3.026   3.454   7.839 -0.2096 -0.2710  0.2071
 5408SOL    HW127686   3.024   3.416   7.751 -1.6604  0.6954 -0.1727
 5408SOL    HW227687   3.116   3.438   7.867  0.3264  1.9429 -0.2633
 5409SOL     OW27688   1.408   3.379   6.845  0.0824 -0.0367  0.2982
 5409SOL    HW127689   1.414   3.377   6.941  0.3330  1.1927  0.3075
 5409SOL    HW227690   1.494   3.342   6.823  0.4183  0.5349  0.6450
 5410SOL     OW27691   0.499   2.771   6.502 -0.3426 -0.0753  0.5895
 5410SOL    HW127692   0.415   2.749   6.463  0.4441 -0.6341 -0.8055
 5410SOL    HW227693   0.555   2.739   6.432 -2.8658 -0.9430 -1.0066
 5411SOL     OW27694   0.797   2.898   5.372  0.3836 -0.6335 -0.6929
 5411SOL    HW127695   0.794   2.875   5.279  1.2825 -1.6753 -0.4552
 5411SOL    HW227696   0.706   2.900   5.401  0.3933  0.1831 -0.7155
 5412SOL     OW27697   0.227   3.678   5.198 -0.3865 -0.6594 -0.5127
 5412SOL    HW127698   0.273   3.645   5.275 -1.6221  1.7101  1.2219
 5412SOL    HW227699   0.179   3.601   5.166 -0.8873  0.9108 -3.5751
 5413SOL     OW27700   2.747   0.243   7.308  0.4539 -0.2984  0.0601
 5413SOL    HW127701   2.713   0.181   7.243  0.5541 -1.1149  0.7841
 5413SOL    HW227702   2.832   0.201   7.323  1.1858  1.1387 -0.1050
 5414SOL     OW27703   0.055   0.823   3.860  0.4083 -0.3220 -0.6772
 5414SOL    HW127704   0.141   0.811   3.901 -0.0819  1.2494  0.8113
 5414SOL    HW227705   0.056   0.914   3.832  2.2962  0.0531  0.5806
 5415SOL     OW27706   3.241   0.817   7.847  0.1141  0.0404  0.1733
 5415SOL    HW127707   3.217   0.750   7.783  0.3250  1.2263 -1.1391
 5415SOL    HW227708   3.179   0.797   7.917 -0.4224  0.5618 -0.1587
 5416SOL     OW27709   3.065   0.978  17.585  0.4308 -0.5947  0.1505
 5416SOL    HW127710   3.042   1.061  17.627  0.3462 -1.0296  0.9649
 5416SOL    HW227711   2.972   0.955  17.574 -0.1759  0.7904  2.3121
 5417SOL     OW27712   4.474   2.008   6.652 -0.3297 -0.5206  0.0972
 5417SOL    HW127713   4.451   1.988   6.561 -2.5940 -1.1309  0.8028
 5417SOL    HW227714   4.562   1.971   6.658 -0.2887 -0.5229 -0.4596
 5418SOL     OW27715   2.227   0.280   5.528 -0.5685  0.1148  0.5140
 5418SOL    HW127716   2.256   0.366   5.498  0.3165  1.1106  4.2870
 5418SOL    HW227717   2.233   0.306   5.620  0.2703  2.1549 -0.1338
 5419SOL     OW27718   4.245   3.471  11.834  0.2804  0.3013  0.2227
 5419SOL    HW127719   4.225   3.407  11.902  0.2313  0.6029  0.4908
 5419SOL    HW227720   4.163   3.487  11.788  0.6519  0.4334 -0.3905
 5420SOL     OW27721   1.259   2.030   4.286 -0.1190 -0.0783  0.2355
 5420SOL    HW127722   1.187   2.068   4.335  0.4534 -1.7691  2.3748
 5420SOL    HW227723   1.326   2.018   4.353 -0.8752  0.1374  1.0296
 5421SOL     OW27724   0.687   1.877   6.913  0.3575  0.0747  0.5530
 5421SOL    HW127725   0.781   1.871   6.896  0.3259 -1.2591  0.8179
 5421SOL    HW227726   0.662   1.793   6.952 -0.8252 -0.1495 -0.6700
 5422SOL     OW27727   1.677   1.680   6.369  0.3488  0.3303 -0.5654
 5422SOL    HW127728   1.706   1.610   6.427  0.8285  0.4315 -0.6796
 5422SOL    HW227729   1.628   1.644   6.295 -0.5041  1.0365 -0.3414
 5423SOL     OW27730   1.666   1.980   4.935  0.0653  0.2657  0.3508
 5423SOL    HW127731   1.752   1.940   4.945 -0.1767  0.4254  2.9753
 5423SOL    HW227732   1.690   2.058   4.886  0.1140  0.4350  0.6424
 5424SOL     OW27733   1.079   4.190   0.948  0.0002  0.6650 -0.3104
 5424SOL    HW127734   1.003   4.132   0.952 -1.1852  2.4896  3.0343
 5424SOL    HW227735   1.048   4.269   0.990 -3.2474 -1.0994  0.5643
 5425SOL     OW27736   0.165   2.269   5.498  0.4569  0.6757  0.0483
 5425SOL    HW127737   0.177   2.301   5.587 -1.3205  0.5627  0.3287
 5425SOL    HW227738   0.074   2.242   5.509 -0.0304  2.0177 -0.6879
 5426SOL     OW27739   2.006   4.658   6.876  0.6885  0.1842  0.6430
 5426SOL    HW127740   1.911   4.672   6.868  1.0966  2.3353 -0.4657
 5426SOL    HW227741   2.031   0.004   6.935 -1.8193 -0.8975  3.0400
 5427SOL     OW27742   1.551   3.424  12.699  1.1343 -0.3322 -0.1822
 5427SOL    HW127743   1.556   3.335  12.665 -1.4096  0.8881 -3.7068
 5427SOL    HW227744   1.460   3.441  12.672  1.5509  1.8173 -0.2673
 5428SOL     OW27745   1.692   0.393  11.488 -0.6309 -0.3058  0.2794
 5428SOL    HW127746   1.600   0.370  11.503 -0.6236 -0.0932  0.6524
 5428SOL    HW227747   1.723   0.302  11.488  0.9825  0.2501 -2.3090
 5429SOL     OW27748   0.397   2.063   5.739  0.3773  0.3625  0.2736
 5429SOL    HW127749   0.313   2.086   5.699  0.3955 -0.1046 -0.0400
 5429SOL    HW227750   0.441   2.147   5.727 -0.4521  1.0018  1.7531
 5430SOL     OW27751   3.968   2.958   4.638 -0.1034 -0.6093 -0.4529
 5430SOL    HW127752   3.992   3.049   4.621  0.5910 -0.5294  1.0082
 5430SOL    HW227753   4.017   2.949   4.719 -1.3626 -2.2471  0.1362
 5431SOL     OW27754   2.071   3.290   2.691  0.3506 -0.2723 -0.0132
 5431SOL    HW127755   2.030   3.206   2.669 -0.5357 -0.1181  1.0336
 5431SOL    HW227756   2.088   3.332   2.607 -0.5185 -0.2661 -0.1878
 5432SOL     OW27757   0.384   1.664   4.684  0.3363 -0.0348  0.5985
 5432SOL    HW127758   0.341   1.618   4.755 -2.5152  1.7372  0.0329
 5432SOL    HW227759   0.307   1.716   4.659 -0.6425  0.4622  4.6890
 5433SOL     OW27760   2.846   4.532   6.748 -0.0562  0.3737 -0.4884
 5433SOL    HW127761   2.916   4.552   6.810 -1.4100 -0.5682  1.3424
 5433SOL    HW227762   2.868   4.439   6.738  1.5656  0.6000  1.0846
 5434SOL     OW27763   0.689   1.003  15.182  0.4724  0.4757 -0.3041
 5434SOL    HW127764   0.745   1.007  15.104  0.3307  1.5580 -0.3431
 5434SOL    HW227765   0.742   1.057  15.241  0.3130  0.0278  0.2473
 5435SOL     OW27766   2.652   3.683   8.012 -0.1179  0.1627 -0.5629
 5435SOL    HW127767   2.705   3.760   8.033 -0.6211  0.2316  0.4898
 5435SOL    HW227768   2.717   3.616   8.033  0.8501  0.2012 -3.4419
 5436SOL     OW27769   3.061   1.535   6.972 -0.5001 -0.2457  0.2939
 5436SOL    HW127770   3.114   1.459   6.946 -0.5558 -0.5169  0.9658
 5436SOL    HW227771   3.105   1.558   7.054 -1.0342 -0.1184  0.5499
 5437SOL     OW27772   2.528   0.201   5.799  0.1098  0.1535 -0.1111
 5437SOL    HW127773   2.465   0.134   5.772  1.0098 -0.8963  0.3847
 5437SOL    HW227774   2.505   0.262   5.729 -1.4852  1.4014  1.5206
 5438SOL     OW27775   3.286   2.199   4.643  0.0509 -0.4259  0.2998
 5438SOL    HW127776   3.255   2.211   4.733  1.2017  0.5426  0.5616
 5438SOL    HW227777   3.335   2.280   4.634 -0.8489  0.1707  0.6905
 5439SOL     OW27778   1.839   1.892   6.695 -0.5971 -0.2714  0.5358
 5439SOL    HW127779   1.840   1.797   6.686  0.8235 -0.1789 -0.1384
 5439SOL    HW227780   1.744   1.905   6.694 -0.1092  3.2327  0.2216
 5440SOL     OW27781   4.478   1.626   9.741  0.1700 -0.2106  0.0046
 5440SOL    HW127782   4.430   1.642   9.822  1.4755 -1.1495  0.9796
 5440SOL    HW227783   4.410   1.611   9.675 -1.0814 -1.3163  1.5345
 5441SOL     OW27784   2.374   2.762   5.732 -0.0153 -0.2274  0.1513
 5441SOL    HW127785   2.418   2.677   5.731  0.7005  0.1296  2.0911
 5441SOL    HW227786   2.439   2.831   5.718 -1.2113  0.4152 -2.2730
 5442SOL     OW27787   0.068   3.287   5.901  0.4063 -0.4039 -0.6219
 5442SOL    HW127788   0.088   3.235   5.823 -0.6833  0.8191 -1.7103
 5442SOL    HW227789   0.129   3.361   5.903  1.1071 -0.9884 -0.3157
 5443SOL     OW27790   3.513   2.923   4.092 -0.2920 -0.0047 -0.3205
 5443SOL    HW127791   3.439   2.864   4.105 -0.6072  0.3422 -0.5316
 5443SOL    HW227792   3.585   2.863   4.108  0.1500  0.6566  0.1655
 5444SOL     OW27793   3.749   3.137   2.992  0.3051 -0.0738 -0.0301
 5444SOL    HW127794   3.709   3.075   2.932  0.0613 -0.3594  0.4244
 5444SOL    HW227795   3.719   3.114   3.080 -0.5454 -2.0489 -0.8360
 5445SOL     OW27796   1.589   3.572  11.834  0.2879 -0.0290 -0.6320
 5445SOL    HW127797   1.577   3.530  11.749 -1.6234 -0.0410 -0.3530
 5445SOL    HW227798   1.564   3.662  11.812  1.8275  0.5481  0.0093
 5446SOL     OW27799   0.066   0.518  11.228  0.5677  0.3233  0.1666
 5446SOL    HW127800   0.136   0.516  11.293  1.0908 -0.5604 -0.4141
 5446SOL    HW227801   0.028   0.605  11.238  0.9625  0.3910  1.0719
 5447SOL     OW27802   2.025   4.046   9.046  0.0813 -0.4686  0.2298
 5447SOL    HW127803   2.010   4.068   9.138  0.5408  0.2135  0.1442
 5447SOL    HW227804   2.114   4.010   9.049 -1.1476 -3.4849  0.8118
 5448SOL     OW27805   0.667   1.417   2.827  0.2628 -0.0137  0.2107
 5448SOL    HW127806   0.699   1.451   2.910  1.2313  4.5130 -2.0075
 5448SOL    HW227807   0.742   1.430   2.769 -0.7298  2.0364 -0.6204
 5449SOL     OW27808   1.816   2.050   7.924  0.1105 -0.3196  0.0951
 5449SOL    HW127809   1.889   2.032   7.866 -0.7156 -1.2929 -0.6397
 5449SOL    HW227810   1.816   2.146   7.924  0.1515 -0.3197  2.2421
 5450SOL     OW27811   1.833   3.533  13.947  0.5800  0.2905 -0.2878
 5450SOL    HW127812   1.809   3.623  13.971 -1.5682  0.0601 -1.6008
 5450SOL    HW227813   1.862   3.539  13.856  1.9265 -3.7481 -0.1366
 5451SOL     OW27814   2.159   1.442   6.767  0.2908 -0.3434  0.3239
 5451SOL    HW127815   2.181   1.467   6.677 -1.1366  2.7580  0.8205
 5451SOL    HW227816   2.241   1.469   6.807  0.6042  0.6014 -0.9430
 5452SOL     OW27817   3.040   0.252  11.362 -0.6505  0.4723 -0.2637
 5452SOL    HW127818   3.132   0.275  11.347 -1.1045  2.1512 -0.5245
 5452SOL    HW227819   3.046   0.163  11.327 -1.9566  0.4047 -0.3032
 5453SOL     OW27820   0.299   2.582  12.234 -0.2842 -0.0374  0.2644
 5453SOL    HW127821   0.288   2.511  12.171  0.9150  0.3426 -0.3717
 5453SOL    HW227822   0.394   2.583  12.246 -0.4527  0.7449  1.6118
 5454SOL     OW27823   0.940   2.882  16.896 -0.2182  0.1115 -0.3236
 5454SOL    HW127824   0.908   2.854  16.982  1.8457  2.7245  1.2857
 5454SOL    HW227825   1.015   2.823  16.889  1.9245  2.8678 -0.3784
 5455SOL     OW27826   3.146   3.332   2.480 -1.0261  0.2693 -0.1691
 5455SOL    HW127827   3.073   3.273   2.496 -0.0766 -0.7142  0.4739
 5455SOL    HW227828   3.171   3.295   2.395 -0.5163  1.7366 -0.6635
 5456SOL     OW27829   1.524   3.274  10.521  0.0069  0.0244 -0.6529
 5456SOL    HW127830   1.454   3.246  10.462 -0.3827  0.8940 -0.6027
 5456SOL    HW227831   1.499   3.227  10.600 -1.6675  1.8803 -0.0843
 5457SOL     OW27832   3.470   0.817   2.895  0.4884 -0.2851  0.2410
 5457SOL    HW127833   3.420   0.782   2.822  0.7980  0.3410 -0.2740
 5457SOL    HW227834   3.414   0.887   2.928  0.3607 -0.2829  0.0203
 5458SOL     OW27835   4.102   0.630   2.161 -0.3828  0.4486 -0.0782
 5458SOL    HW127836   4.053   0.553   2.190 -0.5424  0.0343 -1.4618
 5458SOL    HW227837   4.091   0.688   2.237  0.2054 -2.4827  2.2675
 5459SOL     OW27838   1.571   0.047   4.546 -0.2591 -0.0809  0.0078
 5459SOL    HW127839   1.584   0.116   4.481 -1.9958  0.5076  0.2709
 5459SOL    HW227840   1.648   4.721   4.523 -1.5953 -0.5061 -3.6666
 5460SOL     OW27841   0.959   4.055  10.837  0.2855 -0.2597 -0.1497
 5460SOL    HW127842   0.915   4.078  10.755 -1.7048  0.6344  1.1493
 5460SOL    HW227843   0.900   3.993  10.879  0.2484 -0.8507 -1.0873
 5461SOL     OW27844   2.542   1.002   4.085 -0.2250  0.5944 -0.4822
 5461SOL    HW127845   2.530   0.963   4.172  0.9440 -0.2641 -0.7040
 5461SOL    HW227846   2.621   1.055   4.087 -0.4790  0.9418  0.2642
 5462SOL     OW27847   4.283   4.579  11.040  0.4648  0.5388  0.3935
 5462SOL    HW127848   4.210   4.641  11.035  0.5455  0.6259  0.2838
 5462SOL    HW227849   4.353   4.618  11.093 -0.2134 -0.4346  1.9980
 5463SOL     OW27850   0.377   0.455   9.730 -0.4925 -0.1057  0.5399
 5463SOL    HW127851   0.412   0.543   9.746 -1.2152  0.4400 -0.9837
 5463SOL    HW227852   0.312   0.470   9.662  0.8960 -0.6878 -0.9183
 5464SOL     OW27853   1.845   2.236   9.710 -0.0198  0.2998 -0.0032
 5464SOL    HW127854   1.849   2.233   9.614  2.1606 -0.7112  0.1334
 5464SOL    HW227855   1.881   2.321   9.735 -0.5838  0.3369  0.6858
 5465SOL     OW27856   3.483   1.798   4.709 -0.1019  0.3959  0.4148
 5465SOL    HW127857   3.427   1.871   4.736 -1.2704 -1.0476  1.9077
 5465SOL    HW227858   3.571   1.834   4.712  0.1818 -0.2087 -0.9187
 5466SOL     OW27859   2.430   2.884  12.144  0.3366 -0.1232 -0.2059
 5466SOL    HW127860   2.466   2.825  12.210 -1.7862  1.4349  2.3571
 5466SOL    HW227861   2.385   2.949  12.198  0.9048 -1.1820  1.5401
 5467SOL     OW27862   0.961   1.270   1.395  0.0430  0.1584  0.2418
 5467SOL    HW127863   1.047   1.270   1.354 -0.1794 -1.6779 -0.2297
 5467SOL    HW227864   0.896   1.282   1.326 -0.4705  1.4594  0.9438
 5468SOL     OW27865   2.289   4.257  13.348 -0.0805  0.4366 -0.0893
 5468SOL    HW127866   2.209   4.249  13.297 -0.4696  0.0042  0.5822
 5468SOL    HW227867   2.342   4.235  13.272  0.0564 -1.3333  0.5179
 5469SOL     OW27868   0.605   3.536   7.692  0.3329 -0.7491  0.0166
 5469SOL    HW127869   0.658   3.470   7.648  0.9612 -0.6450  0.6056
 5469SOL    HW227870   0.533   3.476   7.707  0.5678 -0.4896  2.2477
 5470SOL     OW27871   4.677   0.966   5.601 -0.0975 -0.0844  0.0328
 5470SOL    HW127872   4.605   1.025   5.622 -0.3166 -0.8027  1.2711
 5470SOL    HW227873   0.020   1.033   5.591 -0.7216  0.5090 -0.2368
 5471SOL     OW27874   0.860   3.250   3.443  0.8177 -0.8148 -1.1998
 5471SOL    HW127875   0.810   3.305   3.382 -2.3445  1.3493  3.2958
 5471SOL    HW227876   0.850   3.164   3.403 -1.6141 -0.3492 -1.6091
 5472SOL     OW27877   3.795   3.540   9.732  0.2987  0.0884  0.1312
 5472SOL    HW127878   3.786   3.615   9.673  2.0972  0.4244  0.2677
 5472SOL    HW227879   3.720   3.554   9.789  0.0033 -2.2416  0.2963
 5473SOL     OW27880   1.037   3.379  14.888 -0.2044  0.4205 -0.6664
 5473SOL    HW127881   1.093   3.447  14.925 -0.0280 -1.0281  1.8078
 5473SOL    HW227882   1.102   3.319  14.849 -0.7192 -0.8549  0.4133
 5474SOL     OW27883   1.045   3.835  14.982 -1.1806 -0.3189 -0.5251
 5474SOL    HW127884   1.110   3.871  14.922 -0.3355 -0.9653 -0.0046
 5474SOL    HW227885   0.985   3.909  14.981 -0.8215 -0.0151 -0.0275
 5475SOL     OW27886   1.922   4.483   1.130 -0.2110 -0.4186 -0.1983
 5475SOL    HW127887   1.924   4.563   1.182 -0.9807 -0.5924  0.1042
 5475SOL    HW227888   1.972   4.506   1.053 -0.6039  0.7549 -0.0969
 5476SOL     OW27889   1.143   2.535   6.557  0.2710 -0.3898  0.2850
 5476SOL    HW127890   1.191   2.575   6.630 -0.1660 -0.0680  0.4012
 5476SOL    HW227891   1.084   2.607   6.535 -1.2927 -1.6008  0.5063
 5477SOL     OW27892   1.452   0.981   8.567  0.0584  0.3578  0.5275
 5477SOL    HW127893   1.508   1.010   8.639 -0.0874  2.6817 -0.3087
 5477SOL    HW227894   1.384   1.046   8.581  0.4460  0.9820 -0.4763
 5478SOL     OW27895   0.536   2.110   5.004  0.3339 -0.6918 -0.0083
 5478SOL    HW127896   0.533   2.034   5.063 -0.2700  1.8508  3.2241
 5478SOL    HW227897   0.564   2.172   5.072 -2.2049 -0.1884  0.5458
 5479SOL     OW27898   0.798   1.530   1.420 -0.4433 -0.1670 -0.2544
 5479SOL    HW127899   0.873   1.513   1.477  0.7775  0.7645 -1.5922
 5479SOL    HW227900   0.738   1.574   1.481  1.6516  1.2334  0.8017
 5480SOL     OW27901   0.415   3.814   4.209  0.3502 -0.0685  0.3135
 5480SOL    HW127902   0.466   3.835   4.131 -0.3289  0.6785  0.0597
 5480SOL    HW227903   0.465   3.860   4.277 -0.4548  1.4097 -0.0848
 5481SOL     OW27904   0.214   0.335   8.164  0.1037 -0.6613  0.2141
 5481SOL    HW127905   0.300   0.363   8.195  0.4856 -1.8715  0.2429
 5481SOL    HW227906   0.172   0.312   8.246  2.0035 -1.5374  0.9451
 5482SOL     OW27907   2.650   1.306   6.755  0.1093  0.2840 -0.1993
 5482SOL    HW127908   2.688   1.285   6.840  0.6825 -2.3385 -1.0985
 5482SOL    HW227909   2.576   1.245   6.750 -0.3570  0.6147  2.6560
 5483SOL     OW27910   3.286   0.360   3.679  0.1074  0.2180 -0.6443
 5483SOL    HW127911   3.229   0.375   3.603 -1.2087 -0.2572  0.2404
 5483SOL    HW227912   3.360   0.328   3.628  0.9934 -0.2594  0.9631
 5484SOL     OW27913   0.403   1.399  16.485 -0.2491  0.1108 -0.2789
 5484SOL    HW127914   0.369   1.342  16.416  0.6912 -0.3048 -0.4109
 5484SOL    HW227915   0.325   1.442  16.519 -1.0788 -1.2671 -0.4819
 5485SOL     OW27916   0.174   4.621   5.765 -0.2724 -0.4397 -0.1593
 5485SOL    HW127917   0.122   4.570   5.827  1.8359 -1.4189  0.8184
 5485SOL    HW227918   0.146   4.709   5.789  0.1368 -0.2560 -0.3532
 5486SOL     OW27919   1.684   4.043   7.920 -0.3136  0.7100 -0.1199
 5486SOL    HW127920   1.611   4.104   7.930  0.4104  1.2790  1.6956
 5486SOL    HW227921   1.715   4.031   8.010 -0.5155  0.9748 -0.0155
 5487SOL     OW27922   2.646   0.520   5.801 -0.1394  0.0607  0.3084
 5487SOL    HW127923   2.694   0.603   5.799 -0.2588  0.1090 -0.5812
 5487SOL    HW227924   2.723   0.469   5.825 -0.4470  0.2192  1.6232
 5488SOL     OW27925   2.627   0.996   1.445  0.3947  0.2931  0.5345
 5488SOL    HW127926   2.711   0.966   1.410  0.0266 -1.1038  0.8580
 5488SOL    HW227927   2.600   0.910   1.478 -3.4923  0.9758 -0.8115
 5489SOL     OW27928   3.084   3.057   2.199  0.0472 -0.5566 -0.4978
 5489SOL    HW127929   2.991   3.081   2.201 -0.3098 -2.0247  1.0408
 5489SOL    HW227930   3.140   3.134   2.213 -0.2407 -0.7580  1.8386
 5490SOL     OW27931   1.241   2.587  15.335 -0.1316 -0.5654  0.0786
 5490SOL    HW127932   1.185   2.664  15.345  2.1803  0.8733  1.8741
 5490SOL    HW227933   1.293   2.575  15.414 -2.4172 -2.9385  1.2005
 5491SOL     OW27934   4.273   4.010   8.692 -0.5963 -0.3079 -0.2538
 5491SOL    HW127935   4.212   4.046   8.756 -0.3837  1.3970 -1.0229
 5491SOL    HW227936   4.242   4.044   8.608 -2.1328 -1.2325 -0.0607
 5492SOL     OW27937   1.297   0.861  16.064 -0.4466  0.4185 -0.4916
 5492SOL    HW127938   1.261   0.845  16.152 -1.0580 -0.6927 -0.9374
 5492SOL    HW227939   1.369   0.798  16.071 -0.3843  0.4931 -0.4732
 5493SOL     OW27940   4.269   1.342   6.973 -0.1968  0.2661 -0.0394
 5493SOL    HW127941   4.346   1.317   6.923  0.8788 -0.9487  2.2268
 5493SOL    HW227942   4.302   1.355   7.062 -0.4532 -1.1912  0.2707
 5494SOL     OW27943   1.391   0.442   8.699  0.1571  0.7024 -0.0907
 5494SOL    HW127944   1.440   0.360   8.702  2.7430  2.2257 -0.6646
 5494SOL    HW227945   1.333   0.440   8.774 -1.1250  1.2830 -1.0583
 5495SOL     OW27946   0.657   2.644  12.659 -0.4500  0.1578  0.4001
 5495SOL    HW127947   0.749   2.625  12.640 -0.6839  0.3063 -0.8298
 5495SOL    HW227948   0.628   2.700  12.587  0.3558  1.3385  0.9867
 5496SOL     OW27949   1.984   2.019  14.602  0.6536  0.6658 -0.2489
 5496SOL    HW127950   1.967   1.945  14.659  0.8954  2.7400  2.5058
 5496SOL    HW227951   2.073   2.036  14.635  1.1302  2.2923 -2.3152
 5497SOL     OW27952   3.134   2.288   8.560 -0.3566 -0.1133  0.2059
 5497SOL    HW127953   3.129   2.199   8.526 -0.7823  0.7582 -2.0121
 5497SOL    HW227954   3.202   2.335   8.511  0.3582 -0.6131  0.7291
 5498SOL     OW27955   2.648   3.846   5.254  0.0131 -0.3488  0.2693
 5498SOL    HW127956   2.704   3.909   5.208  1.1256  1.1786  3.7313
 5498SOL    HW227957   2.605   3.909   5.313  2.4510 -0.0851  1.7397
 5499SOL     OW27958   2.707   2.282   6.895 -0.0913  0.7708 -0.7049
 5499SOL    HW127959   2.679   2.360   6.847 -0.3794  0.7594 -0.5576
 5499SOL    HW227960   2.654   2.213   6.856  0.2259  0.2926 -0.2820
 5500SOL     OW27961   4.397   4.626   0.038  0.1462 -0.4585 -0.4152
 5500SOL    HW127962   4.466   4.683   0.071 -1.0506  0.2318  0.9382
 5500SOL    HW227963   4.333   4.632   0.110  2.0123 -0.5669  1.2530
 5501SOL     OW27964   2.657   2.919  15.172 -0.1913  0.4650 -0.3784
 5501SOL    HW127965   2.565   2.922  15.197 -0.1305  0.6426 -0.1756
 5501SOL    HW227966   2.636   2.938  15.081  2.3294  0.1208 -1.0511
 5502SOL     OW27967   4.341   0.749  13.005  0.4317 -0.6003 -0.1203
 5502SOL    HW127968   4.252   0.761  12.971  1.1802  2.9477 -0.7987
 5502SOL    HW227969   4.379   0.683  12.946  3.5838  0.5176  0.6642
 5503SOL     OW27970   2.402   1.262   3.501  0.3647  0.5546  0.1031
 5503SOL    HW127971   2.448   1.209   3.436  0.9738  1.1926  0.0134
 5503SOL    HW227972   2.389   1.203   3.576 -0.6185  1.0900  0.3462
 5504SOL     OW27973   0.153   0.899   4.812  0.3402  0.9251  0.1578
 5504SOL    HW127974   0.244   0.920   4.831  0.7739 -0.5595 -0.2580
 5504SOL    HW227975   0.129   0.963   4.745 -0.4653  1.5167  1.0082
 5505SOL     OW27976   2.846   0.888   8.494 -0.1183  0.0595 -0.3745
 5505SOL    HW127977   2.889   0.823   8.550  2.1880 -0.8802 -3.2244
 5505SOL    HW227978   2.752   0.871   8.505 -0.2420  0.3458 -0.9845
 5506SOL     OW27979   4.291   4.010   4.604 -0.2579  0.1418 -0.4785
 5506SOL    HW127980   4.354   3.957   4.651 -0.6661 -0.0704 -0.1682
 5506SOL    HW227981   4.296   3.975   4.515  0.8059  2.7156 -1.4549
 5507SOL     OW27982   1.030   4.171  13.998  0.0560 -0.1442 -0.0055
 5507SOL    HW127983   1.095   4.106  14.023  0.3291  0.1530  0.0608
 5507SOL    HW227984   1.068   4.198  13.915  1.2509  0.9301  0.8853
 5508SOL     OW27985   0.709   3.213   6.614  0.1361 -0.2479 -0.9233
 5508SOL    HW127986   0.684   3.151   6.545 -0.3383  1.8536 -2.6345
 5508SOL    HW227987   0.622   3.237   6.645  0.3036 -0.4937 -0.2799
 5509SOL     OW27988   2.619   1.075  14.175  0.5649 -0.2474 -0.3468
 5509SOL    HW127989   2.567   1.078  14.255 -0.5962  0.5776 -1.1290
 5509SOL    HW227990   2.610   1.166  14.145 -3.1167 -0.8132 -0.9606
 5510SOL     OW27991   2.433   4.648   9.389  0.5498 -0.0818 -0.0010
 5510SOL    HW127992   2.465   0.009   9.414  1.4566 -1.0826  2.3255
 5510SOL    HW227993   2.510   4.592   9.375 -0.9184 -1.7366 -1.4715
 5511SOL     OW27994   3.108   1.778   7.568  0.3248 -0.1578 -0.5331
 5511SOL    HW127995   3.045   1.763   7.638  0.0565 -2.9987 -1.3860
 5511SOL    HW227996   3.052   1.753   7.494 -0.8196 -1.3660  0.7386
 5512SOL     OW27997   1.463   0.263   5.044 -0.4543  0.3462  0.1935
 5512SOL    HW127998   1.474   0.195   4.978 -1.0035 -0.3009  0.7722
 5512SOL    HW227999   1.529   0.242   5.111 -0.6710 -0.2903  0.2106
 5513SOL     OW28000   3.897   0.480  16.366  0.0379 -0.6695 -0.8801
 5513SOL    HW128001   3.834   0.548  16.391  1.4585  0.1637  0.4255
 5513SOL    HW228002   3.966   0.501  16.429 -1.3722  0.1240  0.3937
 5514SOL     OW28003   1.252   1.776   5.368 -0.4886  0.7195  0.4106
 5514SOL    HW128004   1.270   1.683   5.353 -1.1803  0.5856  0.4319
 5514SOL    HW228005   1.300   1.798   5.448 -0.4156 -0.7866  0.7865
 5515SOL     OW28006   3.801   4.641   7.365 -0.6854 -0.1468 -0.3521
 5515SOL    HW128007   3.873   4.685   7.410 -1.2317  0.0460  0.3256
 5515SOL    HW228008   3.852   4.588   7.303  0.6885  2.4032 -1.4022
 5516SOL     OW28009   0.342   3.930   6.581 -0.1412 -0.4635  0.0285
 5516SOL    HW128010   0.304   3.884   6.505  0.0057 -0.7581  0.1322
 5516SOL    HW228011   0.415   3.972   6.535  0.4843 -0.7501  0.7599
 5517SOL     OW28012   4.219   0.024   4.227  0.1862  0.0435  0.4035
 5517SOL    HW128013   4.210   4.659   4.259 -1.8946 -0.1654 -0.7142
 5517SOL    HW228014   4.200   0.017   4.133  1.2221  0.9233  0.1447
 5518SOL     OW28015   2.566   1.941   4.251 -0.0870 -0.0834 -0.0127
 5518SOL    HW128016   2.550   1.974   4.162  0.5682 -0.4504 -0.2634
 5518SOL    HW228017   2.596   1.854   4.226 -1.8662 -0.1900 -1.7742
 5519SOL     OW28018   2.414   0.442   1.608  0.4190  0.1739 -0.3258
 5519SOL    HW128019   2.361   0.368   1.638  0.0101  0.7665  0.4091
 5519SOL    HW228020   2.361   0.467   1.532  0.3310 -0.3595 -0.4420
 5520SOL     OW28021   0.742   1.722  17.392 -0.0094 -0.4520 -0.3069
 5520SOL    HW128022   0.657   1.730  17.349 -0.2832 -3.2119 -0.2358
 5520SOL    HW228023   0.781   1.645  17.353  3.0176  1.2071 -0.5586
 5521SOL     OW28024   2.660   3.432  15.909  0.3887  0.5394  0.0852
 5521SOL    HW128025   2.741   3.446  15.957 -0.9628 -1.1231  2.8006
 5521SOL    HW228026   2.682   3.498  15.843  0.8224 -1.0496 -1.3644
 5522SOL     OW28027   2.478   1.520   3.421 -0.5268  0.6562 -0.0451
 5522SOL    HW128028   2.546   1.493   3.360 -1.3073 -0.4726 -0.4063
 5522SOL    HW228029   2.438   1.437   3.448  0.6082  0.8497  2.3059
 5523SOL     OW28030   1.948   4.281   4.361 -0.0948  0.6912 -0.5013
 5523SOL    HW128031   1.913   4.330   4.287 -0.3151 -0.1219 -0.9331
 5523SOL    HW228032   2.022   4.237   4.319 -0.6139 -1.0468  0.3888
 5524SOL     OW28033   0.372   2.448  17.019  0.1258  0.0193  0.9174
 5524SOL    HW128034   0.324   2.473  16.940 -0.4356 -0.1147  1.2149
 5524SOL    HW228035   0.311   2.484  17.084 -0.0501 -0.3482  0.9582
 5525SOL     OW28036   0.478   1.106   5.741 -0.3654 -0.0794  0.5817
 5525SOL    HW128037   0.570   1.082   5.732 -0.1602  0.3351  1.5467
 5525SOL    HW228038   0.498   1.199   5.732  0.3730 -0.1682  1.2975
 5526SOL     OW28039   0.142   3.997   7.575 -0.4323  0.2741 -0.0808
 5526SOL    HW128040   0.234   3.979   7.557 -0.1087  1.8328  0.0860
 5526SOL    HW228041   0.104   3.909   7.568 -0.4041  0.2626 -0.0894
 5527SOL     OW28042   2.799   4.111   8.881 -0.4141 -0.7718 -0.2729
 5527SOL    HW128043   2.760   4.061   8.809 -2.9436  2.9275 -1.5132
 5527SOL    HW228044   2.726   4.157   8.923 -1.7984 -2.5009 -0.7798
 5528SOL     OW28045   3.461   0.849   7.601  0.4203  0.1630 -0.1701
 5528SOL    HW128046   3.467   0.929   7.653 -0.2707  1.3328 -1.8730
 5528SOL    HW228047   3.377   0.865   7.559  0.4966 -0.6300 -0.6284
 5529SOL     OW28048   3.516   1.078   7.722  0.1097 -0.2161  0.2161
 5529SOL    HW128049   3.496   1.162   7.764 -0.2014  1.6083 -3.5108
 5529SOL    HW228050   3.562   1.102   7.641  0.4750 -0.0743  0.4674
 5530SOL     OW28051   1.226   3.811   9.428  0.2448 -0.5431 -0.2594
 5530SOL    HW128052   1.158   3.821   9.494 -0.4672 -0.8582 -0.9505
 5530SOL    HW228053   1.206   3.722   9.400 -2.3410 -0.3179  0.8826
 5531SOL     OW28054   4.656   2.072   3.542  0.3288 -0.7413 -0.0615
 5531SOL    HW128055   4.712   2.033   3.475 -0.6570 -0.2012 -1.1862
 5531SOL    HW228056   4.698   2.054   3.627 -1.8575 -1.1487  0.9430
 5532SOL     OW28057   1.647   1.452   6.809 -0.1833 -0.0812  0.6574
 5532SOL    HW128058   1.664   1.383   6.873  0.1647 -1.1870 -0.6537
 5532SOL    HW228059   1.678   1.533   6.851  2.0000 -0.6177  0.0427
 5533SOL     OW28060   0.198   1.856   3.713 -0.6876 -0.0686  0.0559
 5533SOL    HW128061   0.252   1.935   3.710  0.0157 -0.5536 -0.2098
 5533SOL    HW228062   0.126   1.897   3.761  0.1846  1.8726 -0.2750
 5534SOL     OW28063   3.776   1.415   7.049 -0.5432  0.5403 -0.3880
 5534SOL    HW128064   3.760   1.324   7.023  0.4000 -0.2049  1.6564
 5534SOL    HW228065   3.836   1.443   6.980 -0.9593  0.6429 -0.7102
 5535SOL     OW28066   1.792   0.995   4.327 -0.6156  0.1419 -0.4859
 5535SOL    HW128067   1.817   1.082   4.298 -0.7377  0.4816  0.4266
 5535SOL    HW228068   1.705   1.000   4.365 -1.0905  0.0820 -1.5900
 5536SOL     OW28069   0.210   2.610   1.799 -0.0195 -0.3384 -0.6125
 5536SOL    HW128070   0.259   2.670   1.743 -0.4314  1.2515  0.7335
 5536SOL    HW228071   0.181   2.663   1.873  0.8172  1.1652 -1.3657
 5537SOL     OW28072   1.497   1.563   4.029  0.2765 -0.3751  0.2973
 5537SOL    HW128073   1.575   1.585   3.980 -0.4750 -1.2176 -1.2776
 5537SOL    HW228074   1.476   1.653   4.056  0.3746 -0.4820  0.7278
 5538SOL     OW28075   4.033   3.911   5.918 -0.1230  0.1212  0.1228
 5538SOL    HW128076   4.115   3.898   5.872  0.6129 -1.1148  1.7789
 5538SOL    HW228077   4.018   4.003   5.896 -0.8762 -0.2784 -1.0576
 5539SOL     OW28078   1.459   0.899  14.761 -0.4366 -0.1793  0.1917
 5539SOL    HW128079   1.483   0.867  14.674  3.3559 -0.7352  1.4420
 5539SOL    HW228080   1.420   0.981  14.732  0.4063 -0.7596 -2.5837
 5540SOL     OW28081   1.578   3.985   1.882 -0.0644 -0.0490  0.1388
 5540SOL    HW128082   1.557   4.004   1.973  0.4134 -0.6815  0.3813
 5540SOL    HW228083   1.532   4.055   1.836 -1.3521  0.4417  2.1808
 5541SOL     OW28084   0.973   0.047   7.388 -0.1024  0.0509  0.1110
 5541SOL    HW128085   1.020   0.048   7.471 -2.1944  0.0307  1.2833
 5541SOL    HW228086   1.042   0.089   7.336  0.9055 -0.4585  1.0517
 5542SOL     OW28087   0.742   1.928   1.643 -0.0657  0.6469 -0.8459
 5542SOL    HW128088   0.822   1.974   1.618 -1.1969  2.8700 -0.4014
 5542SOL    HW228089   0.720   1.959   1.731  1.4152 -1.2927  0.1989
 5543SOL     OW28090   4.457   0.380   2.894  0.4564  0.0240  0.1874
 5543SOL    HW128091   4.550   0.404   2.903  0.1338  1.4763 -0.4203
 5543SOL    HW228092   4.412   0.460   2.866  0.9607  0.3182  0.2076
 5544SOL     OW28093   2.684   0.576   2.730  0.2152 -0.2324  0.2938
 5544SOL    HW128094   2.592   0.564   2.752 -0.5380  0.7936 -2.3054
 5544SOL    HW228095   2.721   0.500   2.776  1.4079  0.2054  0.0651
 5545SOL     OW28096   3.313   1.471   6.120  0.4442 -0.4227 -0.4008
 5545SOL    HW128097   3.385   1.488   6.181  1.2271  0.4984 -1.5686
 5545SOL    HW228098   3.287   1.554   6.081  0.2614  0.5465  1.7440
 5546SOL     OW28099   0.214   3.626   7.301  0.1808  0.2798 -0.1578
 5546SOL    HW128100   0.142   3.563   7.300  0.3912 -0.0185  2.3897
 5546SOL    HW228101   0.260   3.606   7.382 -2.4192  0.9264  1.5097
 5547SOL     OW28102   1.947   0.597   5.921 -0.3728  0.3361 -0.7105
 5547SOL    HW128103   2.018   0.581   5.858 -1.0167  0.3654 -1.4356
 5547SOL    HW228104   1.896   0.516   5.926 -0.7714  0.6103 -0.3156
 5548SOL     OW28105   3.951   2.406   8.743 -0.0646 -0.3248  0.1888
 5548SOL    HW128106   4.033   2.365   8.770  0.7558  0.3876 -1.2307
 5548SOL    HW228107   3.947   2.489   8.790  5.1527 -0.0969  0.2489
 5549SOL     OW28108   2.655   2.199   7.159 -0.3456  0.1801  0.4473
 5549SOL    HW128109   2.694   2.235   7.079  1.3671 -0.6515  0.9090
 5549SOL    HW228110   2.652   2.104   7.143 -1.2330  0.5150 -1.3420
 5550SOL     OW28111   4.024   0.374   1.734  0.3723 -0.0893 -0.1917
 5550SOL    HW128112   4.112   0.398   1.765  0.1272  0.2598  0.2317
 5550SOL    HW228113   4.026   0.403   1.643  0.0093 -0.0754 -0.1932
 5551SOL     OW28114   2.486   0.608   4.272 -0.9316 -0.7497  0.2860
 5551SOL    HW128115   2.541   0.532   4.293  0.5222  0.6622  1.5754
 5551SOL    HW228116   2.410   0.591   4.328 -0.8245  0.5720  0.8127
 5552SOL     OW28117   2.913   0.772   7.802 -0.0643 -0.3607  0.1296
 5552SOL    HW128118   2.946   0.763   7.891  1.0268  2.9863  0.0528
 5552SOL    HW228119   2.942   0.693   7.755  0.0283  0.8023 -1.7861
 5553SOL     OW28120   4.365   1.093  17.282 -0.0257  0.3501 -0.4869
 5553SOL    HW128121   4.374   1.021  17.344  0.1425 -2.0482 -3.3259
 5553SOL    HW228122   4.292   1.143  17.319  0.1993 -0.2005  0.6769
 5554SOL     OW28123   1.529   2.541   1.534  0.2348 -0.4084  0.0768
 5554SOL    HW128124   1.478   2.576   1.607  0.4070 -0.8796  0.4229
 5554SOL    HW228125   1.462   2.548   1.465 -0.2421  0.2975  0.6071
 5555SOL     OW28126   4.005   3.590   6.601 -0.2288 -0.0770 -0.0028
 5555SOL    HW128127   3.947   3.597   6.526  0.4026  1.7525 -0.3152
 5555SOL    HW228128   4.021   3.495   6.606  1.3754  0.1012 -1.4423
 5556SOL     OW28129   2.527   3.231   6.491 -0.2746  0.2577 -0.2878
 5556SOL    HW128130   2.478   3.190   6.420 -0.8085 -0.3742  0.4421
 5556SOL    HW228131   2.590   3.162   6.509 -0.2867  0.1608 -0.6193
 5557SOL     OW28132   0.790   1.298   3.598 -0.4760  0.2678  0.0854
 5557SOL    HW128133   0.703   1.297   3.636 -0.0901  2.6634  0.9831
 5557SOL    HW228134   0.761   1.332   3.513  1.1552  0.7374 -0.2873
 5558SOL     OW28135   2.266   0.354   1.166  0.0904 -0.1841 -0.0216
 5558SOL    HW128136   2.238   0.268   1.136  0.6638  0.7948 -3.3288
 5558SOL    HW228137   2.237   0.417   1.100  0.5280 -0.3092 -0.3287
 5559SOL     OW28138   1.403   1.448   3.783 -0.1943  0.2093 -0.5179
 5559SOL    HW128139   1.315   1.457   3.747 -0.5439  1.0414  0.5102
 5559SOL    HW228140   1.403   1.477   3.875  0.5501  0.8129 -0.7082
 5560SOL     OW28141   2.096   1.321  15.362 -0.0746 -0.0180  0.6367
 5560SOL    HW128142   2.001   1.314  15.371 -0.0864 -0.8238 -0.1096
 5560SOL    HW228143   2.115   1.230  15.338  2.0075  0.3108  1.0425
 5561SOL     OW28144   3.793   3.862   1.637  0.3093 -0.0113 -0.0194
 5561SOL    HW128145   3.765   3.834   1.550  0.8149 -2.6097  0.6727
 5561SOL    HW228146   3.846   3.788   1.664  0.0946 -0.7480 -1.6527
 5562SOL     OW28147   0.533   4.013   3.478 -0.0377  0.1853 -0.3216
 5562SOL    HW128148   0.479   3.940   3.450 -0.8706  1.0824 -1.0475
 5562SOL    HW228149   0.463   4.069   3.513  0.5375 -0.3574  1.6825
 5563SOL     OW28150   4.144   3.455   3.718 -0.4208 -0.2987  0.3959
 5563SOL    HW128151   4.200   3.526   3.751 -0.2957 -0.5436  0.7108
 5563SOL    HW228152   4.210   3.397   3.681  0.2506  1.5216 -1.2856
 5564SOL     OW28153   3.077   0.192   6.586  0.1299 -0.0389  0.1321
 5564SOL    HW128154   3.107   0.154   6.669  0.8762 -1.0079 -0.5781
 5564SOL    HW228155   3.004   0.132   6.569  1.5113 -1.2368 -1.5557
 5565SOL     OW28156   2.291   0.362   6.612 -0.4921  1.2150 -0.0570
 5565SOL    HW128157   2.258   0.276   6.637 -0.0701  1.3025  0.8223
 5565SOL    HW228158   2.258   0.418   6.682 -1.0209  3.7472 -2.3544
 5566SOL     OW28159   4.420   3.275   3.752 -0.6372  0.4134 -0.5529
 5566SOL    HW128160   4.391   3.196   3.706 -0.3714  0.3783 -0.6602
 5566SOL    HW228161   4.438   3.232   3.836 -0.0356  1.9245  0.0829
 5567SOL     OW28162   2.957   1.653  13.401 -0.2063  1.0000  0.2842
 5567SOL    HW128163   3.034   1.686  13.353 -0.3482  1.5555  0.4392
 5567SOL    HW228164   2.897   1.634  13.329 -0.3350 -1.7072  1.1255
 5568SOL     OW28165   2.152   3.986  14.327  0.3264 -0.0911  0.1458
 5568SOL    HW128166   2.153   3.895  14.355 -0.4008  0.6451  2.5006
 5568SOL    HW228167   2.142   3.977  14.232  0.4915 -1.2603  0.2459
 5569SOL     OW28168   4.492   2.194   1.106 -0.3026 -0.4534  0.6680
 5569SOL    HW128169   4.409   2.147   1.111  0.2467 -1.4767  0.2230
 5569SOL    HW228170   4.542   2.147   1.040 -0.9745  0.8792 -0.7678
 5570SOL     OW28171   3.592   2.537  17.204  0.0195  0.4366  0.0144
 5570SOL    HW128172   3.551   2.476  17.143  0.4218  1.8421 -1.6792
 5570SOL    HW228173   3.527   2.607  17.203 -0.3818  0.0381 -1.9033
 5571SOL     OW28174   2.145   3.173   0.636 -0.5732 -0.5033  0.1988
 5571SOL    HW128175   2.098   3.214   0.709  0.3723 -2.6162  2.0133
 5571SOL    HW228176   2.239   3.171   0.655 -0.8077  0.7932  1.5114
 5572SOL     OW28177   0.456   0.414   8.266 -0.3497  0.0531  0.7274
 5572SOL    HW128178   0.526   0.353   8.242  0.4940  1.4748 -0.3978
 5572SOL    HW228179   0.459   0.401   8.361  0.8252  0.3157  0.7165
 5573SOL     OW28180   2.643   2.368   8.211  0.1394  0.0430  0.2676
 5573SOL    HW128181   2.700   2.316   8.155 -0.4197  0.8272 -1.0439
 5573SOL    HW228182   2.608   2.294   8.260 -0.5384  1.6119  2.1861
 5574SOL     OW28183   2.663   4.567  10.100  0.1524  0.1867  0.8649
 5574SOL    HW128184   2.624   4.514  10.030  0.0288  1.1574  0.1893
 5574SOL    HW228185   2.628   4.531  10.181  1.2982 -2.4816  0.1791
 5575SOL     OW28186   1.571   3.723   7.507  0.3737  0.2921  0.2141
 5575SOL    HW128187   1.490   3.691   7.547  1.3344 -1.4373  0.8194
 5575SOL    HW228188   1.576   3.799   7.564  1.4533  0.2468  0.1683
 5576SOL     OW28189   4.123   0.172   1.490  0.5595  0.0052 -0.4642
 5576SOL    HW128190   4.193   0.174   1.556  0.4237  2.8256 -0.4271
 5576SOL    HW228191   4.093   0.081   1.491 -0.2533  0.2958  1.2218
 5577SOL     OW28192   0.263   0.040   8.755  0.1607  0.4254  0.5674
 5577SOL    HW128193   0.348   0.084   8.759 -0.1450  0.9507  1.1763
 5577SOL    HW228194   0.285   4.677   8.786 -1.3392 -1.1395 -2.8248
 5578SOL     OW28195   1.371   4.283   4.823  0.0216  0.6046  0.0712
 5578SOL    HW128196   1.410   4.227   4.890  0.4247  1.1449  0.2897
 5578SOL    HW228197   1.443   4.290   4.761  0.0221  1.9431  0.2168
 5579SOL     OW28198   4.275   2.322   0.177 -0.1934  0.4406 -0.0860
 5579SOL    HW128199   4.188   2.282   0.177  0.0119  0.0004  1.1729
 5579SOL    HW228200   4.260   2.389   0.110  0.1777 -0.8540 -1.4740
 5580SOL     OW28201   1.813   3.379   3.083  0.2315 -0.0801 -0.0940
 5580SOL    HW128202   1.828   3.286   3.098 -1.1186  0.1549  2.8387
 5580SOL    HW228203   1.873   3.395   3.010 -0.7127 -0.5398 -0.9665
 5581SOL     OW28204   3.344   0.481   2.697 -0.5615  0.8114 -0.0930
 5581SOL    HW128205   3.336   0.400   2.647  0.6173  0.3144  0.5168
 5581SOL    HW228206   3.276   0.469   2.763 -1.1688 -1.7190 -1.1813
 5582SOL     OW28207   2.066   1.593   8.954 -0.6035 -0.3037  0.2601
 5582SOL    HW128208   2.068   1.508   8.910 -1.0462  0.2107 -0.7695
 5582SOL    HW228209   2.119   1.568   9.029  1.2136  0.7109 -0.6825
 5583SOL     OW28210   2.245   0.524  13.324 -0.3622  0.0318  0.2769
 5583SOL    HW128211   2.323   0.541  13.377  0.3943 -1.1407 -0.4619
 5583SOL    HW228212   2.185   0.579  13.376 -1.0641 -0.7518  0.3043
 5584SOL     OW28213   1.500   0.161   8.680  0.8040 -0.3183  0.2305
 5584SOL    HW128214   1.443   0.086   8.696 -1.0871  0.8361 -1.2156
 5584SOL    HW228215   1.558   0.162   8.756  1.2716  1.2691 -0.1643
 5585SOL     OW28216   0.866   4.370  11.233 -0.1062  0.0137  0.1267
 5585SOL    HW128217   0.804   4.312  11.188 -0.8876  1.5005 -0.7400
 5585SOL    HW228218   0.950   4.328  11.217 -0.1413 -1.2298  3.2882
 5586SOL     OW28219   4.496   1.601   6.943 -0.2752 -0.0125  0.0497
 5586SOL    HW128220   4.512   1.581   7.036 -0.6116  2.6916  0.6828
 5586SOL    HW228221   4.561   1.670   6.934  1.1366 -1.0294  2.3816
 5587SOL     OW28222   3.806   0.015   5.920 -0.3110 -0.9039 -0.1784
 5587SOL    HW128223   3.865   0.011   5.845  0.8163 -0.2275  0.6713
 5587SOL    HW228224   3.867   0.058   5.979  1.9665 -2.1004 -1.6494
 5588SOL     OW28225   0.205   2.197  15.056  0.6094 -0.0566  0.0997
 5588SOL    HW128226   0.112   2.176  15.048  0.3826  0.9862 -0.0463
 5588SOL    HW228227   0.219   2.117  15.105  0.8229  0.4515  0.8650
 5589SOL     OW28228   0.984   2.559   2.577 -0.0959 -0.1572  0.1373
 5589SOL    HW128229   1.038   2.608   2.639 -0.7561  0.4335  0.2433
 5589SOL    HW228230   1.049   2.532   2.512 -0.1163 -0.9226  0.4288
 5590SOL     OW28231   2.053   2.366   4.712  0.0773  0.2039  0.3417
 5590SOL    HW128232   2.043   2.402   4.624  1.8939 -0.2301 -0.0253
 5590SOL    HW228233   2.091   2.439   4.761  2.4296  0.6748 -2.1978
 5591SOL     OW28234   2.293   1.640  12.706 -0.0385 -0.3015  0.2330
 5591SOL    HW128235   2.371   1.693  12.721 -1.0207  0.9985  0.7706
 5591SOL    HW228236   2.227   1.709  12.703 -1.0961 -1.2101  2.2124
 5592SOL     OW28237   0.966   4.123   5.044 -0.3675 -0.3504 -0.8830
 5592SOL    HW128238   1.033   4.190   5.039 -0.2493 -0.4569 -0.7373
 5592SOL    HW228239   0.974   4.068   4.967 -0.2571 -2.1577  0.4155
 5593SOL     OW28240   1.223   1.090   4.782  0.0806  0.1042 -0.1010
 5593SOL    HW128241   1.284   1.162   4.797 -1.2853  1.5397 -1.4730
 5593SOL    HW228242   1.282   1.017   4.761 -0.6307  0.1397 -2.1985
 5594SOL     OW28243   3.513   2.680  10.341  0.0677 -0.3627  0.1803
 5594SOL    HW128244   3.472   2.713  10.261 -1.9694 -1.4858  0.7629
 5594SOL    HW228245   3.603   2.663  10.315  0.0669  0.6485 -0.4766
 5595SOL     OW28246   4.177   2.065   9.318 -0.0557 -0.5413  0.0464
 5595SOL    HW128247   4.121   1.988   9.320 -0.7570 -0.1131 -2.7250
 5595SOL    HW228248   4.253   2.021   9.354  0.4626  0.8951  0.6947
 5596SOL     OW28249   2.216   0.543   1.444  0.1188 -0.1735  0.2228
 5596SOL    HW128250   2.207   0.459   1.399  3.7245  0.5409 -1.7769
 5596SOL    HW228251   2.132   0.588   1.433  0.1361 -1.0177 -3.3876
 5597SOL     OW28252   3.550   2.073   5.931  0.3952 -0.1289  0.1547
 5597SOL    HW128253   3.570   2.167   5.941 -0.5638 -0.1547  2.2712
 5597SOL    HW228254   3.551   2.044   6.022  2.1550 -1.9017 -0.4320
 5598SOL     OW28255   0.832   0.106   4.924  0.3576 -0.3273  0.3161
 5598SOL    HW128256   0.753   0.078   4.879  0.3756  2.8166 -1.7214
 5598SOL    HW228257   0.898   0.068   4.866 -0.3430  1.1311 -1.4110
 5599SOL     OW28258   0.691   3.156  10.291 -0.0539 -0.1225  0.0380
 5599SOL    HW128259   0.731   3.071  10.311  0.9981  0.5207  0.7099
 5599SOL    HW228260   0.689   3.144  10.196  0.1530 -0.1377  0.0362
 5600SOL     OW28261   3.187   2.085   6.652  0.1294 -0.1772 -0.3750
 5600SOL    HW128262   3.253   2.111   6.716 -0.7660 -0.2395  0.5609
 5600SOL    HW228263   3.106   2.130   6.674 -0.3745  0.1301 -2.8294
 5601SOL     OW28264   1.427   3.539   5.864  0.3291  0.3353 -0.1910
 5601SOL    HW128265   1.501   3.494   5.823 -0.0148 -1.9061  1.6131
 5601SOL    HW228266   1.442   3.633   5.858  1.3174  0.2368  0.7773
 5602SOL     OW28267   4.402   3.420   4.980 -0.2493  0.2956 -0.7908
 5602SOL    HW128268   4.371   3.472   5.053 -1.8020 -2.1472  0.2612
 5602SOL    HW228269   4.348   3.460   4.912 -0.3850  1.0824 -0.2161
 5603SOL     OW28270   4.249   2.549  11.948  0.5797  0.4497  0.1649
 5603SOL    HW128271   4.268   2.468  11.903 -0.4697  1.4060 -2.0024
 5603SOL    HW228272   4.168   2.529  11.995 -0.1396  0.8935 -0.8848
 5604SOL     OW28273   2.490   1.225   8.942 -0.1968 -0.2034 -0.3147
 5604SOL    HW128274   2.435   1.202   9.017 -2.3391  0.1828 -1.7569
 5604SOL    HW228275   2.442   1.304   8.917 -0.4906  0.0950  1.2048
 5605SOL     OW28276   1.698   3.204   6.893 -0.4966 -0.2616  0.2685
 5605SOL    HW128277   1.723   3.168   6.808  0.0433 -1.1220  0.7839
 5605SOL    HW228278   1.682   3.296   6.874 -1.9056 -0.1783  1.8553
 5606SOL     OW28279   1.802   1.643   1.760 -0.4502 -0.3396 -0.1782
 5606SOL    HW128280   1.782   1.732   1.732  2.2674  0.9875  2.0128
 5606SOL    HW228281   1.837   1.620   1.674  0.7077 -0.5847  0.3547
 5607SOL     OW28282   0.345   2.750   2.584  0.1383  0.1344 -0.2001
 5607SOL    HW128283   0.401   2.688   2.539 -0.6724 -1.9820  1.6861
 5607SOL    HW228284   0.297   2.782   2.508  0.9094  2.9701  0.5003
 5608SOL     OW28285   0.977   4.453  10.064 -0.0298 -0.0711  0.0133
 5608SOL    HW128286   1.029   4.476   9.987 -0.6744  0.2908 -0.3155
 5608SOL    HW228287   0.932   4.535  10.086  0.8402  0.6346 -0.8391
 5609SOL     OW28288   1.089   0.145  16.782  0.1957 -0.2054 -0.1455
 5609SOL    HW128289   1.091   0.059  16.823 -0.3593  0.3760  1.0961
 5609SOL    HW228290   1.006   0.180  16.815 -0.3652 -1.3542 -0.3512
 5610SOL     OW28291   3.696   1.316  12.136 -0.1213 -0.3008 -0.5638
 5610SOL    HW128292   3.627   1.383  12.135  1.4067  1.3231  1.6380
 5610SOL    HW228293   3.645   1.241  12.106  0.1120 -0.5008 -0.4609
 5611SOL     OW28294   2.833   3.735   9.006 -0.3549  0.3711  0.4878
 5611SOL    HW128295   2.878   3.786   8.939  1.4760 -0.3216  1.1936
 5611SOL    HW228296   2.900   3.677   9.041 -1.0276 -0.2056  0.8372
 5612SOL     OW28297   3.292   2.483   6.843 -0.6564  0.4173  0.1015
 5612SOL    HW128298   3.223   2.431   6.802 -0.3006 -1.1414  1.5018
 5612SOL    HW228299   3.335   2.415   6.895  0.4486  1.6929  0.8820
 5613SOL     OW28300   0.872   0.152   6.471 -0.4451 -0.4728  0.2427
 5613SOL    HW128301   0.852   0.207   6.546  1.0022 -0.2949  0.5016
 5613SOL    HW228302   0.936   0.093   6.511 -1.0490 -0.7800  0.7430
 5614SOL     OW28303   0.516   3.892   5.963  0.2689 -0.0421  0.1458
 5614SOL    HW128304   0.431   3.874   6.002 -0.9572  1.4938 -1.7917
 5614SOL    HW228305   0.579   3.891   6.035 -0.3720 -1.6068  0.6724
 5615SOL     OW28306   2.202   2.993   6.138 -0.0130  0.4132  0.6604
 5615SOL    HW128307   2.186   2.998   6.043 -0.2450  1.8226  0.7832
 5615SOL    HW228308   2.172   2.907   6.167  1.8677 -0.6563 -0.5564
 5616SOL     OW28309   0.091   0.256   3.660 -0.0300  0.4649 -0.8584
 5616SOL    HW128310   0.151   0.181   3.661 -0.3553  0.2420  0.7886
 5616SOL    HW228311   0.144   0.311   3.602 -0.3030 -0.5413 -2.0566
 5617SOL     OW28312   2.653   4.033  12.840 -0.1543  0.4929  0.0964
 5617SOL    HW128313   2.685   4.035  12.750 -0.5833  1.7542 -0.0332
 5617SOL    HW228314   2.641   3.940  12.856  4.5299  0.2195  1.8285
 5618SOL     OW28315   2.139   4.576   3.710  0.0329 -0.2148  0.3858
 5618SOL    HW128316   2.196   4.652   3.723  0.7868 -0.6587 -0.3580
 5618SOL    HW228317   2.130   4.580   3.615 -0.0040  1.8933  0.4840
 5619SOL     OW28318   1.303   1.343   1.498 -0.4005  0.5684  0.3111
 5619SOL    HW128319   1.291   1.344   1.593  0.3738  1.2516  0.3948
 5619SOL    HW228320   1.290   1.252   1.473 -3.2535  0.7972  0.9091
 5620SOL     OW28321   1.834   2.173   4.734  0.7264 -0.1802  0.2293
 5620SOL    HW128322   1.857   2.113   4.663  2.8531  1.2627 -0.3272
 5620SOL    HW228323   1.919   2.217   4.745 -0.3517  1.8037  0.6869
 5621SOL     OW28324   0.052   4.476  13.256 -0.5597  0.3777 -0.1869
 5621SOL    HW128325   0.127   4.536  13.259  0.4176 -0.8126 -0.9783
 5621SOL    HW228326   0.053   4.439  13.344  0.5241  2.4799  0.6667
 5622SOL     OW28327   2.421   3.557   6.007  0.5911  0.1242 -0.5191
 5622SOL    HW128328   2.509   3.595   6.012  0.9289 -0.5886 -0.9653
 5622SOL    HW228329   2.369   3.618   6.059 -2.5739 -2.6430 -0.4378
 5623SOL     OW28330   0.310   1.786   4.005  0.3944 -0.3615 -0.3859
 5623SOL    HW128331   0.284   1.723   3.938  0.8882 -0.4959 -0.4438
 5623SOL    HW228332   0.309   1.870   3.958  0.7745  0.1062  0.4494
 5624SOL     OW28333   4.604   2.506   4.075 -0.1561  0.9204 -0.0363
 5624SOL    HW128334   4.621   2.429   4.130 -1.0180  1.1995  0.6372
 5624SOL    HW228335   4.525   2.540   4.119 -1.8075 -0.5518 -1.8411
 5625SOL     OW28336   1.489   1.240   1.847 -0.2912 -0.4449  0.5363
 5625SOL    HW128337   1.554   1.285   1.792 -1.6455 -0.7585 -1.3247
 5625SOL    HW228338   1.427   1.311   1.867 -0.1599 -0.1499 -0.0970
 5626SOL     OW28339   4.432   1.132   8.384  0.6521 -0.1566 -0.4591
 5626SOL    HW128340   4.404   1.113   8.474 -0.6389  0.0832 -0.8086
 5626SOL    HW228341   4.471   1.218   8.399 -0.0529 -0.4213  2.8726
 5627SOL     OW28342   4.700   1.672   6.158 -0.0677  0.1376 -0.0606
 5627SOL    HW128343   0.033   1.596   6.161  1.5276  1.4580  1.7790
 5627SOL    HW228344   4.714   1.707   6.245  1.3520  2.1635 -1.1155
 5628SOL     OW28345   4.182   2.806   0.942 -0.3606 -0.1723 -0.0095
 5628SOL    HW128346   4.150   2.719   0.918  0.5131 -1.2513  2.6938
 5628SOL    HW228347   4.261   2.787   0.993  0.7348  1.8536 -0.9771
 5629SOL     OW28348   2.402   0.835   7.667 -0.4682 -0.1142  0.4031
 5629SOL    HW128349   2.393   0.739   7.667 -0.4584 -0.1210 -2.8600
 5629SOL    HW228350   2.314   0.857   7.636  0.0470  3.2430  1.4448
 5630SOL     OW28351   4.236   0.852   1.479  0.0602  0.5891  0.5897
 5630SOL    HW128352   4.271   0.807   1.556 -2.0487  0.2563  1.3640
 5630SOL    HW228353   4.301   0.921   1.468 -0.6643  1.2059  0.1521
 5631SOL     OW28354   4.385   4.222  15.654 -0.3608 -0.6342  0.5064
 5631SOL    HW128355   4.368   4.179  15.737 -1.3832 -0.8472  0.1906
 5631SOL    HW228356   4.301   4.213  15.608  0.4786 -1.7401 -0.8135
 5632SOL     OW28357   1.352   4.328   8.171 -0.2474  0.8833 -0.2763
 5632SOL    HW128358   1.371   4.264   8.102  3.0097  1.6942 -0.1678
 5632SOL    HW228359   1.420   4.388   8.141 -0.9249  1.2788 -0.9968
 5633SOL     OW28360   0.533   2.774  15.087  0.6423  0.1506  0.2518
 5633SOL    HW128361   0.447   2.733  15.085  0.0807  1.4543 -1.8061
 5633SOL    HW228362   0.517   2.852  15.141 -1.2849  0.0574 -0.1769
 5634SOL     OW28363   1.089   2.993  14.655  0.3839  0.0362  0.1688
 5634SOL    HW128364   1.027   2.936  14.611 -0.3972  0.7994  0.2711
 5634SOL    HW228365   1.105   3.062  14.591  1.4385  0.6802  1.1169
 5635SOL     OW28366   3.159   4.399   2.826 -0.1718 -0.3213  0.7888
 5635SOL    HW128367   3.129   4.339   2.758  3.0243 -1.3018  0.2056
 5635SOL    HW228368   3.249   4.371   2.809  0.4021  1.8877  0.2108
 5636SOL     OW28369   1.339   3.396  11.693 -0.6523  0.4774  0.0931
 5636SOL    HW128370   1.431   3.372  11.684 -0.0258  2.1002  2.3023
 5636SOL    HW228371   1.308   3.380  11.604 -1.1594 -0.4163  0.4285
 5637SOL     OW28372   1.220   3.711   6.089 -0.0195  0.3114 -0.4731
 5637SOL    HW128373   1.185   3.623   6.100 -0.2571  0.3089 -1.2274
 5637SOL    HW228374   1.206   3.743   6.179 -1.5198 -1.4613 -0.0753
 5638SOL     OW28375   3.868   0.186   5.320  0.2060  0.4073  0.3318
 5638SOL    HW128376   3.781   0.187   5.358  0.3246  2.9312  0.5595
 5638SOL    HW228377   3.867   0.119   5.252 -1.0539 -2.2411  2.9621
 5639SOL     OW28378   2.246   2.631   3.055  0.0730  0.0198 -0.0546
 5639SOL    HW128379   2.245   2.657   3.147 -1.2210 -1.8482  0.4422
 5639SOL    HW228380   2.303   2.699   3.017  0.8917 -1.8026 -2.0572
 5640SOL     OW28381   1.829   1.909   1.959  0.2030  0.0210  0.1778
 5640SOL    HW128382   1.779   1.897   1.878  1.5073  1.5975 -0.8623
 5640SOL    HW228383   1.914   1.867   1.944 -0.0999 -0.4284 -0.2873
 5641SOL     OW28384   0.042   2.767   1.004  0.3119  0.2349 -1.1216
 5641SOL    HW128385   0.123   2.716   1.013  0.0571 -0.3099 -1.9065
 5641SOL    HW228386   0.058   2.818   0.925 -0.3064  1.7098 -0.2931
 5642SOL     OW28387   2.503   2.514   5.582  0.0790  0.0288  0.2735
 5642SOL    HW128388   2.572   2.453   5.606  0.8646  0.0720 -1.9307
 5642SOL    HW228389   2.425   2.486   5.630 -1.0060  0.3073 -1.3386
 5643SOL     OW28390   2.003   3.164   7.341  0.1814 -0.1312  0.3644
 5643SOL    HW128391   2.008   3.210   7.257  0.7490  0.6573  0.8351
 5643SOL    HW228392   2.056   3.089   7.312 -1.8982 -1.3717 -0.1976
 5644SOL     OW28393   4.223   3.724   7.095 -0.4897  0.0964  0.0512
 5644SOL    HW128394   4.170   3.686   7.025 -0.5047  1.4542 -0.6701
 5644SOL    HW228395   4.272   3.791   7.046  0.7307  0.8380  2.2919
 5645SOL     OW28396   3.810   3.569   2.501  0.5643  0.0910 -0.4799
 5645SOL    HW128397   3.797   3.533   2.413 -1.0345  2.0906 -1.0677
 5645SOL    HW228398   3.801   3.487   2.551 -0.6167  1.2260  1.1689
 5646SOL     OW28399   4.662   3.391   6.620 -0.0737 -0.1482  0.1704
 5646SOL    HW128400   0.015   3.393   6.676  1.0048  0.5161 -1.3685
 5646SOL    HW228401   4.667   3.484   6.596  1.5553 -0.1264  0.5787
 5647SOL     OW28402   0.591   1.090   0.216 -0.2679  0.3676  0.0368
 5647SOL    HW128403   0.666   1.042   0.181 -1.2388 -1.6502  0.7260
 5647SOL    HW228404   0.623   1.172   0.177 -0.6431  1.2635  1.6332
 5648SOL     OW28405   2.064   0.034   9.125  0.4314  0.1335  0.4505
 5648SOL    HW128406   2.153   0.008   9.103  1.1470  2.1612  0.9661
 5648SOL    HW228407   2.027   4.674   9.146  0.7482  0.5593  2.7073
 5649SOL     OW28408   3.735   3.553   3.819  0.2917  0.4605 -0.1178
 5649SOL    HW128409   3.643   3.577   3.815 -0.1360 -1.3695 -1.4182
 5649SOL    HW228410   3.764   3.534   3.730 -0.8209  3.0852 -1.0261
 5650SOL     OW28411   0.183   3.391   4.619 -0.2252  0.1856  0.2011
 5650SOL    HW128412   0.213   3.462   4.677 -1.5771 -0.8950  2.2103
 5650SOL    HW228413   0.184   3.425   4.530 -0.3994  0.0497  0.1492
 5651SOL     OW28414   0.193   0.109   5.433 -0.2519  0.6737  0.4255
 5651SOL    HW128415   0.252   0.039   5.460  1.3600  1.5574 -0.8287
 5651SOL    HW228416   0.242   0.140   5.358 -3.0972  1.7063 -1.0105
 5652SOL     OW28417   1.012   2.069   6.553 -0.2198  0.1695  0.3162
 5652SOL    HW128418   1.018   2.161   6.530  0.8410  0.3902  1.4668
 5652SOL    HW228419   0.917   2.061   6.554 -0.1323 -1.2428 -2.7604
 5653SOL     OW28420   0.191   4.112  16.089 -0.1997  0.8522 -0.1854
 5653SOL    HW128421   0.247   4.164  16.032  2.6159 -0.6889  1.1972
 5653SOL    HW228422   0.226   4.023  16.078 -0.4436  0.9911 -2.1170
 5654SOL     OW28423   1.397   0.559   2.069 -0.3679 -0.2170 -0.2297
 5654SOL    HW128424   1.436   0.472   2.059  0.0093 -0.0442 -0.2866
 5654SOL    HW228425   1.325   0.564   2.006 -0.0211 -0.6278 -0.6602
 5655SOL     OW28426   0.020   0.217  16.596 -0.6128 -0.6820 -0.6504
 5655SOL    HW128427   0.065   0.179  16.672 -0.2738 -1.9939 -1.5022
 5655SOL    HW228428   4.658   0.216  16.636 -1.6453  1.1137 -2.9175
 5656SOL     OW28429   1.892   1.849   3.947  0.0650  0.3976  0.9402
 5656SOL    HW128430   1.942   1.906   3.889 -1.2518  1.3391  0.7388
 5656SOL    HW228431   1.960   1.784   3.964 -1.5040 -1.3996  0.4155
 5657SOL     OW28432   0.284   1.003  14.733 -0.5685 -0.6851 -0.6254
 5657SOL    HW128433   0.215   0.978  14.794  1.7523 -1.9040  1.4917
 5657SOL    HW228434   0.318   1.080  14.777  0.0516 -0.5631 -1.3119
 5658SOL     OW28435   4.181   0.581   7.437  0.1091  0.4332  0.6521
 5658SOL    HW128436   4.150   0.640   7.369 -0.3930  0.2631  0.7394
 5658SOL    HW228437   4.112   0.585   7.503 -0.8498 -1.2960 -0.2686
 5659SOL     OW28438   2.703   3.004  16.889 -0.1772 -0.0818 -0.2073
 5659SOL    HW128439   2.680   2.912  16.901 -0.4904  0.2539  1.8557
 5659SOL    HW228440   2.798   3.004  16.897 -0.2968  0.0779  1.1327
 5660SOL     OW28441   1.414   0.160   1.782 -0.2074 -0.2218 -0.0165
 5660SOL    HW128442   1.335   0.112   1.806 -0.8125  2.1889  2.7439
 5660SOL    HW228443   1.387   0.204   1.701  0.7861  1.2465  0.4683
 5661SOL     OW28444   3.285   0.378   5.030 -0.3793  0.0790  0.2337
 5661SOL    HW128445   3.221   0.390   4.960 -2.7810 -3.4477  1.8106
 5661SOL    HW228446   3.244   0.432   5.097 -0.6068  0.0193  0.1417
 5662SOL     OW28447   1.646   4.500   3.496 -0.4494 -0.3052 -0.3447
 5662SOL    HW128448   1.612   4.439   3.562  1.5448  1.1261  2.0329
 5662SOL    HW228449   1.638   4.459   3.410 -0.3731  3.5726 -2.1754
 5663SOL     OW28450   3.457   0.840   9.101 -0.2151 -0.0398  0.1380
 5663SOL    HW128451   3.367   0.808   9.092  0.1031 -0.8814 -0.0589
 5663SOL    HW228452   3.452   0.907   9.033  0.7494 -0.4051 -0.2969
 5664SOL     OW28453   1.304   2.579   4.861 -0.3761 -0.0116 -0.3427
 5664SOL    HW128454   1.228   2.546   4.814 -0.1243 -2.2182  0.8324
 5664SOL    HW228455   1.322   2.659   4.811  1.5451  0.2811  0.8262
 5665SOL     OW28456   3.141   0.098   3.768 -0.0651 -0.3220  0.3192
 5665SOL    HW128457   3.156   0.177   3.715 -1.5181 -0.7226 -0.6907
 5665SOL    HW228458   3.090   0.044   3.708  0.4646 -1.3415  0.7838
 5666SOL     OW28459   1.479   3.465  14.829 -0.0470  0.5228  0.3368
 5666SOL    HW128460   1.552   3.485  14.771  0.1545  1.0866  0.7829
 5666SOL    HW228461   1.476   3.539  14.890 -2.7094  0.7740 -0.1128
 5667SOL     OW28462   4.630   0.584  14.840  0.2686 -0.5684  0.2489
 5667SOL    HW128463   4.668   0.670  14.859 -1.1450 -0.0364  0.7257
 5667SOL    HW228464   4.628   0.553  14.930 -1.5674 -0.1100  0.3803
 5668SOL     OW28465   4.445   3.022  15.668 -0.6518  0.4547 -0.2718
 5668SOL    HW128466   4.414   3.022  15.578  0.9545  0.5524 -0.8117
 5668SOL    HW228467   4.365   3.009  15.720 -0.9809 -1.5007 -1.2819
 5669SOL     OW28468   4.136   2.300   3.141  0.2046 -0.0662  0.0983
 5669SOL    HW128469   4.228   2.324   3.129  0.1714 -1.7808 -3.3878
 5669SOL    HW228470   4.125   2.241   3.067  2.9935  2.0176 -1.9727
 5670SOL     OW28471   3.247   3.520  15.162 -0.0707 -0.0060 -0.2924
 5670SOL    HW128472   3.171   3.485  15.116  0.8713  0.7784 -2.4152
 5670SOL    HW228473   3.231   3.614  15.150 -0.5396 -0.1697 -0.9085
 5671SOL     OW28474   2.213   4.300   7.752  0.1993  0.3334  0.2909
 5671SOL    HW128475   2.185   4.270   7.665  0.7573 -2.1668  0.9748
 5671SOL    HW228476   2.140   4.275   7.809 -2.5527 -1.0470 -3.8340
 5672SOL     OW28477   1.714   3.882   0.605 -0.2948  0.1508  0.3651
 5672SOL    HW128478   1.702   3.933   0.686  2.1254  0.6336  0.4156
 5672SOL    HW228479   1.628   3.890   0.565 -0.4276  2.0067  1.0153
 5673SOL     OW28480   4.504   2.870   8.216 -0.1211 -0.3432 -0.5278
 5673SOL    HW128481   4.487   2.879   8.309  0.0027  1.8918 -0.7092
 5673SOL    HW228482   4.509   2.774   8.218  0.5324 -0.3144 -0.6540
 5674SOL     OW28483   1.248   0.658   9.108 -0.5489 -0.1631  0.0608
 5674SOL    HW128484   1.259   0.726   9.174 -0.2064  0.8491 -1.0292
 5674SOL    HW228485   1.202   0.596   9.165 -2.6213 -2.0869 -3.6941
 5675SOL     OW28486   0.665   0.128  11.786  0.0647 -0.4499 -0.3437
 5675SOL    HW128487   0.570   0.135  11.780 -0.1860 -4.2165 -0.8026
 5675SOL    HW228488   0.657   0.131  11.882 -2.8279 -1.8133 -0.5338
 5676SOL     OW28489   3.940   3.579  16.686  0.2220  0.1122  0.7017
 5676SOL    HW128490   3.862   3.524  16.687  0.5277 -0.2855  4.7031
 5676SOL    HW228491   4.002   3.515  16.652 -0.7191  0.1778 -1.1435
 5677SOL     OW28492   1.721   2.268   5.155  0.4187  0.3152  0.3632
 5677SOL    HW128493   1.703   2.352   5.112  0.3624 -0.5599 -1.3010
 5677SOL    HW228494   1.640   2.218   5.148  0.5871  0.0856  0.0845
 5678SOL     OW28495   3.083   0.613   7.646 -0.1487  0.4014  0.3280
 5678SOL    HW128496   3.169   0.634   7.611  0.9301  0.9426  3.2580
 5678SOL    HW228497   3.091   0.525   7.683 -1.5135 -0.8857 -2.4329
 5679SOL     OW28498   3.988   1.790  10.698 -0.2569 -0.1690  0.4224
 5679SOL    HW128499   3.947   1.854  10.756 -0.6254  0.4499 -0.5218
 5679SOL    HW228500   3.910   1.735  10.695 -0.5093  0.3474 -3.0239
 5680SOL     OW28501   2.157   3.960   5.128  0.6290 -0.2616 -0.1191
 5680SOL    HW128502   2.110   4.043   5.140  1.4504  0.3771 -1.3065
 5680SOL    HW228503   2.240   3.994   5.163  0.7748  0.4661 -1.1711
 5681SOL     OW28504   3.821   2.617   4.931  0.2936 -0.2170 -0.7708
 5681SOL    HW128505   3.743   2.591   4.881  0.6008 -0.4625 -1.1178
 5681SOL    HW228506   3.787   2.701   4.960 -1.8056 -1.7294  1.1822
 5682SOL     OW28507   2.582   0.761   1.591  0.5000  0.2557  0.2973
 5682SOL    HW128508   2.622   0.681   1.624  1.9479  0.6042 -0.6508
 5682SOL    HW228509   2.539   0.730   1.511  0.5884  0.0403  0.3314
 5683SOL     OW28510   1.583   0.149   3.299 -0.2701  0.6016 -0.2221
 5683SOL    HW128511   1.651   0.211   3.323 -0.0826  0.4706 -0.4141
 5683SOL    HW228512   1.607   0.123   3.210 -0.7083  1.3485 -0.5507
 5684SOL     OW28513   4.534   2.043   5.892 -0.1182  0.7361 -0.6822
 5684SOL    HW128514   4.522   2.004   5.805 -1.1640 -1.5883  0.4976
 5684SOL    HW228515   4.621   2.012   5.916  0.5429  3.9193  1.0607
 5685SOL     OW28516   2.680   2.035  12.813  0.1181 -0.1086  0.0189
 5685SOL    HW128517   2.768   2.036  12.776 -0.9415  0.0386 -2.5115
 5685SOL    HW228518   2.681   2.104  12.879  4.1591 -1.6480  1.5260
 5686SOL     OW28519   0.522   3.880   3.931 -0.1957 -0.3918 -0.3734
 5686SOL    HW128520   0.491   3.967   3.956 -0.1821 -1.0510  1.9669
 5686SOL    HW228521   0.592   3.902   3.870  0.5466 -1.0723  0.2422
 5687SOL     OW28522   0.860   1.137   6.536 -0.3964  0.2533 -0.0258
 5687SOL    HW128523   0.849   1.186   6.617  0.2859  0.9668 -0.3611
 5687SOL    HW228524   0.813   1.059   6.563 -1.5197  1.1069  0.4994
 5688SOL     OW28525   4.695   2.052  10.794  0.2602 -0.6736  0.1934
 5688SOL    HW128526   4.681   2.038  10.700  1.3918 -2.0400  0.2235
 5688SOL    HW228527   0.048   2.003  10.819  0.5484 -0.6618 -0.6779
 5689SOL     OW28528   0.374   1.807   8.897 -0.5341 -0.2208 -0.3246
 5689SOL    HW128529   0.433   1.882   8.900 -0.5275 -0.2330 -0.1586
 5689SOL    HW228530   0.429   1.732   8.875 -0.0105 -0.4986  2.0286
 5690SOL     OW28531   4.038   3.185   7.680  0.0365  0.4997 -0.1105
 5690SOL    HW128532   4.133   3.174   7.686  0.1084  0.7672 -0.7063
 5690SOL    HW228533   4.003   3.096   7.684 -0.2985  0.6656  0.6085
 5691SOL     OW28534   2.624   1.381   9.321  0.0478 -0.5385 -0.1038
 5691SOL    HW128535   2.706   1.426   9.339 -0.6613  1.4604 -1.8878
 5691SOL    HW228536   2.563   1.426   9.380  1.0134  0.9265 -0.2269
 5692SOL     OW28537   3.549   4.010   5.933  0.2175  0.4119 -0.1886
 5692SOL    HW128538   3.522   3.944   5.997 -2.9786  1.0555 -0.9100
 5692SOL    HW228539   3.639   4.026   5.964  0.6607 -0.3520 -1.0948
 5693SOL     OW28540   3.981   1.762   6.326 -0.1514 -0.3124  0.1804
 5693SOL    HW128541   4.065   1.805   6.306 -0.8798  0.4429 -1.3333
 5693SOL    HW228542   4.002   1.669   6.327  1.5874  0.0426 -1.1693
 5694SOL     OW28543   3.325   1.375   7.966 -0.0229 -0.1011  0.3876
 5694SOL    HW128544   3.296   1.333   7.885  1.2771 -0.5670  0.1665
 5694SOL    HW228545   3.313   1.469   7.953 -1.7122 -0.3530  0.1289
 5695SOL     OW28546   3.817   4.181   4.554 -0.3433 -0.3520  0.1013
 5695SOL    HW128547   3.883   4.112   4.562 -1.7993 -1.2362  4.3886
 5695SOL    HW228548   3.839   4.207   4.464  0.2021 -0.6045  0.1590
 5696SOL     OW28549   1.410   1.218   9.476  0.2999  0.2095 -0.3333
 5696SOL    HW128550   1.361   1.298   9.457  1.0856  0.5043 -1.1407
 5696SOL    HW228551   1.340   1.172   9.523  2.8473 -1.4046  1.8836
 5697SOL     OW28552   3.530   4.003   0.357 -0.3078 -0.3782 -0.3915
 5697SOL    HW128553   3.578   4.039   0.283 -0.4463 -2.0049 -1.2784
 5697SOL    HW228554   3.447   4.049   0.342 -0.5099  0.4502  3.2123
 5698SOL     OW28555   4.639   3.648   3.559 -1.1531 -0.1419 -0.7645
 5698SOL    HW128556   4.609   3.617   3.645  2.2393 -0.1761  0.4179
 5698SOL    HW228557   4.576   3.611   3.497  0.1929  0.2808 -2.3826
 5699SOL     OW28558   3.609   0.408   8.628 -0.2123 -0.0704  0.0316
 5699SOL    HW128559   3.621   0.400   8.723  0.1264 -3.2143 -0.2863
 5699SOL    HW228560   3.538   0.472   8.624  1.2177  1.5841  0.7068
 5700SOL     OW28561   2.373   2.191  12.956 -0.3052 -0.0432  0.3086
 5700SOL    HW128562   2.429   2.189  12.878  1.2715 -0.0059  1.4507
 5700SOL    HW228563   2.416   2.267  12.997 -1.2655  1.1658 -0.8970
 5701SOL     OW28564   3.135   1.014   7.261 -0.1420  0.1511  0.5315
 5701SOL    HW128565   3.224   1.011   7.296 -0.6712 -1.1014  1.7959
 5701SOL    HW228566   3.107   0.928   7.291 -0.0875  0.5338  1.6892
 5702SOL     OW28567   0.545   2.469   7.577  0.2034 -0.3682 -0.6429
 5702SOL    HW128568   0.522   2.445   7.667 -2.2403  1.0394 -0.8869
 5702SOL    HW228569   0.574   2.387   7.538 -0.3914 -0.5997 -0.6108
 5703SOL     OW28570   1.609   4.288   9.007 -0.0664 -0.3079  0.1381
 5703SOL    HW128571   1.700   4.313   9.021 -0.2415  0.3032  0.1908
 5703SOL    HW228572   1.582   4.379   8.996  2.3963  0.2557 -1.1816
 5704SOL     OW28573   3.280   0.758   2.363 -0.1639  0.5645  0.1798
 5704SOL    HW128574   3.324   0.824   2.311 -0.6798  1.0303  0.3350
 5704SOL    HW228575   3.187   0.781   2.364 -0.0560  1.1102 -2.8187
 5705SOL     OW28576   4.347   4.029   9.623  1.0809  0.3740  0.1689
 5705SOL    HW128577   4.412   4.099   9.610 -2.1358  3.4436  0.6577
 5705SOL    HW228578   4.310   4.014   9.536  1.4525  0.2485  0.0323
 5706SOL     OW28579   2.122   1.290   1.102  0.3075 -0.2944  0.3833
 5706SOL    HW128580   2.099   1.198   1.112 -0.5016  0.2392  3.3441
 5706SOL    HW228581   2.218   1.288   1.101  0.3533  3.0923 -1.3664
 5707SOL     OW28582   3.501   2.170   9.035  0.5035  0.1085 -0.2060
 5707SOL    HW128583   3.589   2.192   9.064  0.6307 -0.0955 -0.4450
 5707SOL    HW228584   3.505   2.154   8.941 -1.3862 -0.9977 -0.1071
 5708SOL     OW28585   2.119   4.668   7.809  0.1239 -0.6894  0.3413
 5708SOL    HW128586   2.193   4.724   7.785  0.2600 -1.0899 -0.1859
 5708SOL    HW228587   2.044   0.001   7.797 -0.6662 -1.7021  0.3578
 5709SOL     OW28588   0.118   4.587  10.275 -0.0374  0.6941  0.4221
 5709SOL    HW128589   0.115   4.624  10.186 -0.2425 -2.7332 -0.9928
 5709SOL    HW228590   0.098   4.664  10.329 -1.0669 -0.8396  2.1850
 5710SOL     OW28591   3.777   1.272  12.391  1.0642  0.2357 -0.3040
 5710SOL    HW128592   3.747   1.293  12.302  1.7629 -0.0445 -0.6020
 5710SOL    HW228593   3.859   1.232  12.362 -0.0224 -1.2834 -1.2758
 5711SOL     OW28594   4.428   2.953   8.834 -0.0898  0.3972  0.1895
 5711SOL    HW128595   4.440   3.038   8.878  1.0936  1.7777 -2.7861
 5711SOL    HW228596   4.517   2.949   8.798  0.2146  0.5270  0.9146
 5712SOL     OW28597   3.328   3.288   2.683  0.8076  0.8104  0.0311
 5712SOL    HW128598   3.303   3.323   2.769 -2.4769  1.0729 -1.0363
 5712SOL    HW228599   3.253   3.320   2.634  0.9436 -1.7551 -1.8239
 5713SOL     OW28600   1.385   2.018  11.121 -0.5982 -0.2428 -0.0447
 5713SOL    HW128601   1.438   2.097  11.126  1.2365 -1.6801  3.5236
 5713SOL    HW228602   1.447   1.945  11.121 -0.1135  0.1703 -0.3767
 5714SOL     OW28603   1.765   1.520   9.071 -0.1583  0.3343 -0.5028
 5714SOL    HW128604   1.836   1.496   9.130 -1.0906 -2.1825 -0.4350
 5714SOL    HW228605   1.694   1.527   9.135  1.5735 -2.4678  1.7017
 5715SOL     OW28606   0.277   2.187   4.952 -0.4106 -0.4388 -0.3033
 5715SOL    HW128607   0.223   2.157   5.025 -0.0236 -1.1443 -0.3049
 5715SOL    HW228608   0.362   2.159   4.986  0.2670  1.1606 -0.6704
 5716SOL     OW28609   0.361   2.561   8.746 -0.2032  0.2947 -0.0031
 5716SOL    HW128610   0.352   2.628   8.813  0.0245 -1.5633  1.8827
 5716SOL    HW228611   0.399   2.493   8.803  0.9666  1.3892  0.5229
 5717SOL     OW28612   2.197   0.990   6.659 -0.0799 -0.8430 -0.3340
 5717SOL    HW128613   2.273   0.948   6.700  0.7421  1.8391  0.8979
 5717SOL    HW228614   2.136   0.918   6.672  0.9873 -2.0686 -2.0540
 5718SOL     OW28615   4.244   3.600  16.794 -0.0321 -0.3781  0.3194
 5718SOL    HW128616   4.235   3.678  16.739  0.2179  0.1134  0.9626
 5718SOL    HW228617   4.255   3.528  16.732  1.1166  0.9135 -0.9869
 5719SOL     OW28618   0.063   1.615   4.582 -0.1199  0.6754 -0.0085
 5719SOL    HW128619   4.702   1.634   4.543 -0.2317 -2.5007 -1.2826
 5719SOL    HW228620   0.084   1.705   4.607 -1.7995  1.1987 -0.4507
 5720SOL     OW28621   2.014   0.302  11.214 -0.1743  0.3326 -0.9213
 5720SOL    HW128622   1.997   0.325  11.305 -2.7502  0.0645 -1.3393
 5720SOL    HW228623   1.934   0.253  11.193 -0.7047 -0.1856  2.3275
 5721SOL     OW28624   2.056   3.333   5.169 -0.2580 -0.1187  0.3767
 5721SOL    HW128625   1.993   3.262   5.155  1.8999 -1.8305 -0.6063
 5721SOL    HW228626   1.997   3.407   5.184 -1.0582 -0.9520  1.3901
 5722SOL     OW28627   2.690   2.026   6.564  0.2574 -0.1783 -0.2660
 5722SOL    HW128628   2.703   2.014   6.470  1.0493 -0.3690 -0.1320
 5722SOL    HW228629   2.683   1.934   6.590 -0.8186  0.5157  1.9205
 5723SOL     OW28630   3.602   0.879   4.781 -0.8251 -0.0305 -0.2096
 5723SOL    HW128631   3.613   0.917   4.694 -0.0006 -2.5938 -1.2416
 5723SOL    HW228632   3.686   0.833   4.770 -0.9830  0.0793 -1.8907
 5724SOL     OW28633   3.300   2.750   4.146  0.2702 -0.0776  0.6373
 5724SOL    HW128634   3.208   2.763   4.124  0.1898  0.1717  1.1231
 5724SOL    HW228635   3.336   2.720   4.063 -1.5237  0.4623 -0.3249
 5725SOL     OW28636   2.968   0.850   9.709 -0.0655 -0.6384  0.1353
 5725SOL    HW128637   3.059   0.833   9.683  0.4114  0.9042  0.8206
 5725SOL    HW228638   2.973   0.855   9.804 -2.9474 -2.9936  0.4179
 5726SOL     OW28639   3.118   4.171   0.994  0.1065 -0.1538  0.1906
 5726SOL    HW128640   3.105   4.256   1.035  0.4714  0.2200 -0.4793
 5726SOL    HW228641   3.036   4.127   1.014  0.2026 -2.5624 -4.7119
 5727SOL     OW28642   2.715   2.306   4.639 -0.3199 -0.1446  0.5872
 5727SOL    HW128643   2.670   2.374   4.589 -1.1010 -0.0933  1.3718
 5727SOL    HW228644   2.746   2.242   4.575  0.1030  0.9704 -0.3157
 5728SOL     OW28645   2.179   2.124   9.124  0.0403  0.3779  0.3754
 5728SOL    HW128646   2.262   2.128   9.077  1.7328 -1.1202  3.1945
 5728SOL    HW228647   2.141   2.048   9.081 -0.7349  0.8095  0.2914
 5729SOL     OW28648   1.230   0.830   3.594  0.1546  0.0773 -0.1425
 5729SOL    HW128649   1.160   0.792   3.540  1.3647 -0.0993 -1.5774
 5729SOL    HW228650   1.178   0.834   3.675  0.4151 -0.5362  0.0598
 5730SOL     OW28651   2.168   2.693   2.212  0.1329 -0.1566 -0.0241
 5730SOL    HW128652   2.110   2.665   2.283  1.8557 -4.1419 -0.1610
 5730SOL    HW228653   2.224   2.614   2.213  1.8590  1.0541 -2.5876
 5731SOL     OW28654   1.009   0.447   3.844 -0.4442  0.1398 -0.4153
 5731SOL    HW128655   1.094   0.454   3.801 -1.1498  0.4653 -1.7583
 5731SOL    HW228656   0.949   0.434   3.770 -0.0417 -0.8938 -0.5573
 5732SOL     OW28657   2.029   2.208   5.979  0.1211 -0.0063 -0.5757
 5732SOL    HW128658   1.951   2.164   6.014  0.0462 -1.8276 -3.0118
 5732SOL    HW228659   1.994   2.297   5.988 -2.6800 -1.0531 -0.8746
 5733SOL     OW28660   0.678   1.407   7.995 -0.1320  0.3789  0.4718
 5733SOL    HW128661   0.709   1.478   7.939 -0.0221  0.1343  0.2197
 5733SOL    HW228662   0.612   1.363   7.941 -1.0269  0.1905  1.7295
 5734SOL     OW28663   4.369   1.061   7.784 -0.4450  0.1764 -0.5926
 5734SOL    HW128664   4.364   1.150   7.819  0.2805  0.2759 -0.7507
 5734SOL    HW228665   4.295   1.024   7.833 -0.3851  0.3575 -0.3662
 5735SOL     OW28666   3.725   3.973  12.816 -0.4524  0.0474  0.2376
 5735SOL    HW128667   3.731   4.063  12.847  2.3642 -0.2120  0.4838
 5735SOL    HW228668   3.631   3.958  12.824 -0.6055 -0.3423 -2.2974
 5736SOL     OW28669   3.672   1.009  12.434  0.0056 -0.5593 -0.2853
 5736SOL    HW128670   3.686   0.973  12.521 -1.3792  0.1408  0.2237
 5736SOL    HW228671   3.723   1.090  12.427 -0.0960 -0.2333  2.7115
 5737SOL     OW28672   2.752   2.144  16.499  0.1025  0.3455  0.1261
 5737SOL    HW128673   2.734   2.107  16.585 -2.9729  2.7610  0.5180
 5737SOL    HW228674   2.847   2.135  16.503  0.0580  0.6865  1.6555
 5738SOL     OW28675   3.676   3.541   4.725 -0.3463  0.0522 -0.1523
 5738SOL    HW128676   3.636   3.590   4.653 -0.4093 -0.0406 -0.1793
 5738SOL    HW228677   3.730   3.605   4.772  1.5945  0.2583 -2.6206
 5739SOL     OW28678   2.725   2.529   1.629  0.2200 -0.2988 -0.0097
 5739SOL    HW128679   2.647   2.555   1.579  0.0802 -0.8565 -0.0775
 5739SOL    HW228680   2.700   2.545   1.719  0.9185 -2.8105  0.6119
 5740SOL     OW28681   2.590   3.262  16.943 -0.3148 -0.2257 -0.1750
 5740SOL    HW128682   2.629   3.196  16.886  1.6589  0.0741  0.8120
 5740SOL    HW228683   2.547   3.214  17.013  0.2757  0.8867  0.9610
 5741SOL     OW28684   2.639   1.101   3.030  0.0941 -0.0970 -0.7255
 5741SOL    HW128685   2.724   1.143   3.035  0.2321 -0.3420 -1.0128
 5741SOL    HW228686   2.648   1.061   2.943  0.9877  1.3403 -1.2878
 5742SOL     OW28687   3.035   0.556   5.248 -0.0702 -0.3349 -0.1517
 5742SOL    HW128688   2.984   0.562   5.167 -0.5377  2.1839  0.3391
 5742SOL    HW228689   3.023   0.469   5.287  2.5391 -1.3293 -1.5138
 5743SOL     OW28690   2.651   1.150   8.165  0.0876  0.0311  0.2793
 5743SOL    HW128691   2.684   1.060   8.169  1.0149  0.4849  2.6308
 5743SOL    HW228692   2.669   1.172   8.256  0.5330 -0.5601  0.3345
 5744SOL     OW28693   3.280   0.531   3.896  0.3153  0.4096 -0.1697
 5744SOL    HW128694   3.300   0.451   3.847 -1.4170  0.9903 -1.7906
 5744SOL    HW228695   3.363   0.578   3.884  0.9779 -0.4837  0.8614
 5745SOL     OW28696   4.675   2.339   8.393 -0.2071  0.4052  0.0079
 5745SOL    HW128697   4.671   2.415   8.451  2.3717  1.1310 -0.7961
 5745SOL    HW228698   4.675   2.268   8.458  3.9788  1.3907  1.0916
 5746SOL     OW28699   0.256   3.034   3.007  0.0757  0.0675  0.0156
 5746SOL    HW128700   0.189   2.966   3.016  1.0721 -0.6335  2.0649
 5746SOL    HW228701   0.218   3.098   3.067 -3.6034  0.8989 -3.1942
 5747SOL     OW28702   0.515   2.700  17.099 -0.3664 -0.0548  0.4240
 5747SOL    HW128703   0.530   2.653  17.182 -1.0712 -0.0539  0.5520
 5747SOL    HW228704   0.506   2.626  17.039  0.7436  0.5661 -0.5118
 5748SOL     OW28705   4.666   2.122   5.534 -0.1970  0.1608 -0.0602
 5748SOL    HW128706   4.633   2.034   5.518 -2.4578  0.8984  0.4633
 5748SOL    HW228707   4.588   2.152   5.581 -0.7421 -0.9394 -0.2601
 5749SOL     OW28708   2.194   2.379   1.292 -0.1541 -0.1436 -0.7731
 5749SOL    HW128709   2.121   2.441   1.280 -2.3222 -2.4466  0.5653
 5749SOL    HW228710   2.245   2.417   1.363  0.0571  1.5061 -1.8012
 5750SOL     OW28711   0.898   2.934   7.474 -0.3308  0.0394  0.4317
 5750SOL    HW128712   0.817   2.900   7.511  0.2793 -0.8409  0.9540
 5750SOL    HW228713   0.858   3.011   7.433  0.2428 -0.0373 -0.2668
 5751SOL     OW28714   1.211   1.661   2.365  0.5751  0.1998  0.1026
 5751SOL    HW128715   1.150   1.716   2.316  0.4014  0.9683  1.1814
 5751SOL    HW228716   1.285   1.723   2.366  0.4610  0.3842 -3.3530
 5752SOL     OW28717   2.807   1.962  15.760 -0.3687  0.1582  0.2582
 5752SOL    HW128718   2.856   1.893  15.806 -0.1712 -0.7919 -1.3910
 5752SOL    HW228719   2.722   1.948  15.803 -0.0752 -4.4516 -0.5767
 5753SOL     OW28720   4.210   2.049   4.897 -0.1700 -0.4012 -0.5619
 5753SOL    HW128721   4.182   2.141   4.888 -0.3073 -0.2129  1.6580
 5753SOL    HW228722   4.157   2.003   4.832 -0.4308 -0.9641  0.0485
 5754SOL     OW28723   4.031   4.281   2.102  0.5382  0.1293  0.0636
 5754SOL    HW128724   4.025   4.200   2.152 -1.9965  1.2536  1.5861
 5754SOL    HW228725   4.100   4.326   2.150  1.2737  0.9758 -1.7939
 5755SOL     OW28726   0.987   2.965   4.256  0.6103 -0.0236  0.3445
 5755SOL    HW128727   0.967   2.997   4.343 -2.7628  0.0974 -0.4705
 5755SOL    HW228728   0.977   3.042   4.200  3.9580  0.4753  0.4153
 5756SOL     OW28729   2.363   2.642   7.181 -0.2546  0.3218  0.4506
 5756SOL    HW128730   2.410   2.559   7.169 -0.3062  0.2761  0.5679
 5756SOL    HW228731   2.441   2.696   7.185 -1.5221  2.1356  0.5087
 5757SOL     OW28732   2.042   2.826   9.170 -0.4305  0.0831  0.4480
 5757SOL    HW128733   1.995   2.909   9.175  0.2960  0.5464 -0.3923
 5757SOL    HW228734   1.973   2.768   9.137  1.7665 -1.4513 -1.5144
 5758SOL     OW28735   3.140   3.451  14.817  0.7653 -0.0928  0.2979
 5758SOL    HW128736   3.101   3.426  14.901 -1.2501  1.1538 -0.2540
 5758SOL    HW228737   3.187   3.369  14.803 -0.1472 -0.4465 -0.6557
 5759SOL     OW28738   3.412   3.154  11.954  0.1828 -0.2007 -0.4072
 5759SOL    HW128739   3.418   3.249  11.968  0.6394 -0.7529  3.2239
 5759SOL    HW228740   3.490   3.114  11.991  1.1804  1.2693 -0.9081
 5760SOL     OW28741   3.571   4.429   8.066 -0.2060 -0.5038 -0.6138
 5760SOL    HW128742   3.636   4.447   7.999  1.1304 -0.9252  0.5762
 5760SOL    HW228743   3.622   4.388   8.136  1.1066  0.2014 -1.1667
 5761SOL     OW28744   0.214   0.363  15.002  0.1339  0.0660  0.4848
 5761SOL    HW128745   0.291   0.323  14.960 -0.4479  0.1752 -0.6882
 5761SOL    HW228746   0.193   0.295  15.065 -1.2239  0.9120  0.9383
 5762SOL     OW28747   1.785   2.270   6.747 -0.0523  0.0425 -0.5027
 5762SOL    HW128748   1.865   2.248   6.698  0.5352  1.1066 -0.0176
 5762SOL    HW228749   1.741   2.190   6.721  0.7039 -0.2427 -0.9135
 5763SOL     OW28750   0.844   4.594   2.749 -0.7720  0.3306 -0.0298
 5763SOL    HW128751   0.938   4.589   2.767 -1.0408  1.1095  1.6046
 5763SOL    HW228752   0.836   4.689   2.737  0.1996  0.7243  2.2518
 5764SOL     OW28753   2.790   2.833  14.163  0.1217  0.3523  0.1441
 5764SOL    HW128754   2.804   2.886  14.084  1.8923  0.5640  0.5970
 5764SOL    HW228755   2.837   2.751  14.151  1.9516  1.7322 -2.2504
 5765SOL     OW28756   3.500   3.749   5.263 -0.4001 -0.4014  0.1507
 5765SOL    HW128757   3.562   3.729   5.193 -0.1800 -1.1390  0.5588
 5765SOL    HW228758   3.557   3.780   5.333  0.0270  1.1351 -0.8685
 5766SOL     OW28759   3.145   4.270  10.038  0.3073 -0.4256  0.0779
 5766SOL    HW128760   3.207   4.202  10.014 -0.3598 -0.9855 -0.0518
 5766SOL    HW228761   3.067   4.225  10.071  1.0800 -0.2095  2.1850
 5767SOL     OW28762   2.669   0.529   1.648 -0.1497  0.1431  0.0147
 5767SOL    HW128763   2.591   0.477   1.631 -0.1972 -0.0529  0.8310
 5767SOL    HW228764   2.744   0.470   1.654 -0.4809 -0.0823  1.8907
 5768SOL     OW28765   3.250   3.508   4.124 -0.5154  0.3125  0.2721
 5768SOL    HW128766   3.196   3.454   4.066  0.2321  0.7353 -0.8147
 5768SOL    HW228767   3.335   3.497   4.082 -0.1092  0.8111  0.9571
 5769SOL     OW28768   1.260   4.080  14.453 -0.1427  0.7872 -0.3085
 5769SOL    HW128769   1.347   4.040  14.448 -0.0858  0.6999  1.3781
 5769SOL    HW228770   1.284   4.160  14.406  2.0026  1.3156  1.6267
 5770SOL     OW28771   1.317   3.713   7.101  0.0716 -0.0352  0.0123
 5770SOL    HW128772   1.250   3.760   7.150  0.3439 -0.1200  0.4664
 5770SOL    HW228773   1.281   3.625   7.102  0.9359 -0.3938 -1.0421
 5771SOL     OW28774   0.347   0.902  10.047  0.1923  0.0511  0.4356
 5771SOL    HW128775   0.284   0.973  10.054  2.8689  2.2261  2.2216
 5771SOL    HW228776   0.326   0.881   9.956 -1.1728  2.4515  0.2270
 5772SOL     OW28777   1.896   1.397   3.940 -0.1560 -0.0656  0.0878
 5772SOL    HW128778   1.909   1.311   3.899 -0.5513  0.3920 -0.9951
 5772SOL    HW228779   1.962   1.391   4.009 -1.1030 -0.0756  0.9873
 5773SOL     OW28780   2.865   0.605   4.165  0.4712  0.2225 -0.1134
 5773SOL    HW128781   2.862   0.513   4.142  0.1019  0.0295  0.7024
 5773SOL    HW228782   2.864   0.591   4.259 -3.1415  2.0943  0.1501
 5774SOL     OW28783   0.326   1.049  10.653  0.5729 -0.5988  0.0660
 5774SOL    HW128784   0.285   1.008  10.577  2.4880 -1.4794 -0.4806
 5774SOL    HW228785   0.359   0.971  10.698  0.8496 -0.4899  0.0513
 5775SOL     OW28786   0.872   1.907   7.881 -0.0137  0.1968  0.2318
 5775SOL    HW128787   0.959   1.913   7.921 -0.6880 -1.7172  1.9628
 5775SOL    HW228788   0.822   1.969   7.936  0.1014 -0.8969  1.5769
 5776SOL     OW28789   1.061   1.817   6.656  0.2665 -0.3153 -0.2491
 5776SOL    HW128790   1.009   1.768   6.593 -2.8345  0.6215  1.5978
 5776SOL    HW228791   1.051   1.905   6.620 -1.0095  0.7440  2.7227
 5777SOL     OW28792   3.776   1.656   5.136 -0.0378 -0.4565 -0.2419
 5777SOL    HW128793   3.859   1.688   5.169  1.1411 -1.3895 -2.3242
 5777SOL    HW228794   3.712   1.680   5.203 -1.2420 -0.9689 -1.1905
 5778SOL     OW28795   0.454   3.338   6.664  0.0400  0.1748 -0.2705
 5778SOL    HW128796   0.390   3.391   6.713 -2.9229 -3.9111  0.2278
 5778SOL    HW228797   0.406   3.260   6.637 -1.5047  0.1192  2.6670
 5779SOL     OW28798   4.391   0.353   1.420 -0.1208 -0.0932 -0.2901
 5779SOL    HW128799   4.340   0.434   1.418 -0.9249 -0.6103 -0.9652
 5779SOL    HW228800   4.316   0.293   1.420  0.5351 -0.9115 -1.6322
 5780SOL     OW28801   0.044   1.466   8.699 -0.3073  0.5604  0.3635
 5780SOL    HW128802   0.086   1.549   8.720  0.6325  0.7363 -2.2034
 5780SOL    HW228803   0.117   1.407   8.716 -1.3403 -0.9392 -0.3012
 5781SOL     OW28804   3.060   2.004   5.085  0.2311  0.2120  0.1681
 5781SOL    HW128805   2.983   2.055   5.061  1.0501  0.7244 -1.3272
 5781SOL    HW228806   3.019   1.919   5.100 -0.1831 -0.0455 -2.5778
 5782SOL     OW28807   1.915   4.355   7.634 -0.3246  0.6349 -0.0251
 5782SOL    HW128808   1.980   4.361   7.564 -3.5749 -0.5060 -3.0913
 5782SOL    HW228809   1.841   4.398   7.593  0.7862  2.5755 -0.0168
 5783SOL     OW28810   2.707   1.653   0.736  0.0365 -0.1672 -0.0001
 5783SOL    HW128811   2.629   1.694   0.772  0.0568  0.8462 -1.0956
 5783SOL    HW228812   2.715   1.582   0.799 -0.0821 -0.6288 -0.4997
 5784SOL     OW28813   0.131   2.165  15.441  0.3034 -0.1427  0.3013
 5784SOL    HW128814   0.080   2.158  15.522  0.9504  0.0316  0.7299
 5784SOL    HW228815   0.072   2.218  15.388 -0.3449 -1.1518  0.0322
 5785SOL     OW28816   3.518   2.869  10.835 -0.6106 -0.0349 -0.3579
 5785SOL    HW128817   3.532   2.813  10.912 -1.9717 -0.8807 -0.7221
 5785SOL    HW228818   3.538   2.811  10.762 -0.9475 -3.6099  2.3407
 5786SOL     OW28819   0.607   4.317  12.132  0.1980  0.3391 -0.2407
 5786SOL    HW128820   0.602   4.226  12.104  1.7297  0.1792  0.0469
 5786SOL    HW228821   0.695   4.350  12.113  0.6726 -1.9616 -1.9632
 5787SOL     OW28822   1.867   0.697   3.070 -0.0855 -0.0569  0.4165
 5787SOL    HW128823   1.925   0.749   3.125  1.8520 -1.0427 -0.7192
 5787SOL    HW228824   1.815   0.768   3.031 -2.5751 -1.0906  1.8406
 5788SOL     OW28825   1.052   2.504   6.256  0.3665  0.4944  0.4409
 5788SOL    HW128826   1.021   2.431   6.309 -2.3965  1.3413 -0.0373
 5788SOL    HW228827   1.123   2.462   6.207  0.4006  1.4342 -0.3261
 5789SOL     OW28828   1.781   0.070   2.582  0.4057 -0.0925 -0.2494
 5789SOL    HW128829   1.797   0.164   2.579  0.8736 -0.2179 -1.4997
 5789SOL    HW228830   1.737   0.063   2.667 -1.1942 -1.4588 -1.1822
 5790SOL     OW28831   3.307   4.530   5.524 -0.5580 -0.0724  0.2491
 5790SOL    HW128832   3.214   4.526   5.548 -0.7844  0.5821 -0.5157
 5790SOL    HW228833   3.333   4.608   5.573 -0.1650 -0.5684  0.8334
 5791SOL     OW28834   2.147   0.152   7.005  0.5737 -0.5653 -0.4370
 5791SOL    HW128835   2.169   0.181   7.094  1.5607 -2.6598  0.0204
 5791SOL    HW228836   2.219   0.089   6.995 -0.1390 -1.6022  0.7913
 5792SOL     OW28837   3.455   1.998   3.537 -0.1106 -0.4435  0.0198
 5792SOL    HW128838   3.521   2.053   3.580  1.3565 -2.2026  0.0035
 5792SOL    HW228839   3.429   1.945   3.612  1.3501 -0.6957  0.3541
 5793SOL     OW28840   3.281   1.012   1.003  0.1333  0.4965 -0.3598
 5793SOL    HW128841   3.239   0.927   0.992  1.9608 -0.2311 -1.7531
 5793SOL    HW228842   3.212   1.078   1.006 -1.2123 -0.8683 -1.3615
 5794SOL     OW28843   0.229   2.981   9.813  0.4056  0.0380 -0.4684
 5794SOL    HW128844   0.229   2.954   9.905  1.3529  0.4408 -0.3540
 5794SOL    HW228845   0.164   3.050   9.817 -1.0455 -1.4903  2.1880
 5795SOL     OW28846   3.275   1.844   3.809 -0.5580 -0.2666  0.0319
 5795SOL    HW128847   3.245   1.858   3.899 -1.7757 -0.0940 -0.3916
 5795SOL    HW228848   3.195   1.877   3.767 -0.0177  0.9938  0.0053
 5796SOL     OW28849   0.377   4.511   8.836  0.1156  0.3302  0.9898
 5796SOL    HW128850   0.308   4.503   8.902 -0.5869  0.9167  0.3159
 5796SOL    HW228851   0.344   4.444   8.777 -0.1867  0.7755  0.6592
 5797SOL     OW28852   3.861   2.195   2.564 -0.0760  0.5057 -0.4621
 5797SOL    HW128853   3.800   2.153   2.504  0.1541  1.5976 -1.4498
 5797SOL    HW228854   3.898   2.124   2.617 -1.8656 -0.1610 -0.1015
 5798SOL     OW28855   1.716   4.101   0.382  0.3858  0.3435  0.8737
 5798SOL    HW128856   1.668   4.018   0.384 -1.9953  1.7285  0.8467
 5798SOL    HW228857   1.798   4.079   0.337 -0.6078 -0.7504 -0.3861
 5799SOL     OW28858   4.554   2.800   5.347  0.6375 -0.4248  0.7759
 5799SOL    HW128859   4.505   2.854   5.285  0.8574 -1.3347 -0.1916
 5799SOL    HW228860   4.489   2.732   5.365  1.2958 -0.9410  1.2039
 5800SOL     OW28861   3.050   1.457   2.037  0.1744 -0.5129 -0.8799
 5800SOL    HW128862   3.057   1.547   2.006 -2.1383  0.7044  2.1378
 5800SOL    HW228863   2.955   1.448   2.047  0.5105 -1.1055  1.8204
 5801SOL     OW28864   0.645   4.383   2.666 -0.1385  0.0786 -0.5314
 5801SOL    HW128865   0.735   4.371   2.695 -0.6193 -1.5887  0.2680
 5801SOL    HW228866   0.649   4.477   2.650 -0.1509  0.2135  0.2633
 5802SOL     OW28867   0.709   4.206   9.800 -0.7886  0.0392 -0.3163
 5802SOL    HW128868   0.688   4.137   9.863 -0.5454 -0.3936 -0.7108
 5802SOL    HW228869   0.708   4.152   9.721  0.8786 -2.2600  1.2424
 5803SOL     OW28870   4.138   1.983  14.551  0.4711  0.1693 -0.0442
 5803SOL    HW128871   4.078   2.045  14.592 -2.3604 -2.6501 -0.0033
 5803SOL    HW228872   4.127   1.991  14.456 -0.3772 -0.6756 -0.0156
 5804SOL     OW28873   4.178   0.910  10.406  0.5281 -0.4413 -0.0640
 5804SOL    HW128874   4.238   0.972  10.448  0.4105 -0.2046 -0.2440
 5804SOL    HW228875   4.103   0.966  10.386  1.7910  1.4706  0.5581
 5805SOL     OW28876   2.923   0.988   5.611  0.6570 -0.6197  0.6571
 5805SOL    HW128877   3.003   0.953   5.651 -0.2987 -0.3586  2.7586
 5805SOL    HW228878   2.933   1.081   5.630 -1.4556 -0.1693 -0.4218
 5806SOL     OW28879   3.376   3.007   2.702  0.3281 -0.3012  0.1076
 5806SOL    HW128880   3.325   2.994   2.622 -0.8495 -0.7107  0.9230
 5806SOL    HW228881   3.355   3.100   2.708  0.9410 -0.0786 -1.3311
 5807SOL     OW28882   0.363   1.963   2.481 -0.1511 -0.2622  0.8771
 5807SOL    HW128883   0.304   2.031   2.449  0.4991  0.1847  0.6553
 5807SOL    HW228884   0.308   1.886   2.465  0.8580 -0.6825 -0.5235
 5808SOL     OW28885   3.387   3.157   4.648 -0.0219  0.7188  0.3507
 5808SOL    HW128886   3.384   3.211   4.727  0.6644 -0.2448  1.0274
 5808SOL    HW228887   3.458   3.209   4.609 -0.1448  0.1804 -0.6040
 5809SOL     OW28888   0.045   1.374  14.395  0.0633  0.2143 -0.5873
 5809SOL    HW128889   0.097   1.310  14.347 -0.3279 -0.7189  0.2401
 5809SOL    HW228890   0.101   1.451  14.381 -0.8109  0.7734 -0.9973
 5810SOL     OW28891   0.163   3.614   8.216  0.4884 -0.0750  0.0522
 5810SOL    HW128892   0.207   3.594   8.298 -1.2328 -0.1608  0.9457
 5810SOL    HW228893   0.125   3.698   8.241  1.1652  0.8234 -1.8751
 5811SOL     OW28894   2.246   0.285   1.739  0.0018 -0.3355 -0.2949
 5811SOL    HW128895   2.257   0.246   1.825 -3.8729 -2.0276 -0.5700
 5811SOL    HW228896   2.210   0.208   1.695 -0.7185 -0.5834  0.7355
 5812SOL     OW28897   1.492   3.111  16.908 -0.1295  0.1750 -0.0445
 5812SOL    HW128898   1.586   3.123  16.904 -0.2387  1.0922  0.0712
 5812SOL    HW228899   1.458   3.198  16.885  0.4983 -0.1766 -2.2755
 5813SOL     OW28900   0.822   3.438   3.215 -0.6194 -0.4015  0.3601
 5813SOL    HW128901   0.754   3.443   3.148 -0.0437 -0.1344 -0.2078
 5813SOL    HW228902   0.884   3.506   3.187 -2.5555  2.0568  2.0590
 5814SOL     OW28903   4.312   3.385   5.899 -0.5256 -0.5406  0.1137
 5814SOL    HW128904   4.392   3.382   5.847 -1.2491 -2.6369 -0.8675
 5814SOL    HW228905   4.325   3.464   5.951  2.1057 -1.8996  1.5335
 5815SOL     OW28906   3.189   4.242   1.283 -0.0974 -0.0902 -0.3460
 5815SOL    HW128907   3.156   4.328   1.256  1.0368 -0.1811 -2.0575
 5815SOL    HW228908   3.107   4.197   1.299 -0.1841  0.9099  2.0471
 5816SOL     OW28909   1.766   0.804  11.650  0.2967 -0.0088  0.5124
 5816SOL    HW128910   1.693   0.815  11.590 -0.0171 -1.0561  0.6962
 5816SOL    HW228911   1.791   0.893  11.676 -0.1797  0.1643  0.3669
 5817SOL     OW28912   2.014   2.987   3.373  0.4052  0.0605 -0.0280
 5817SOL    HW128913   2.038   3.043   3.447  0.8560 -0.3921  0.1681
 5817SOL    HW228914   1.920   3.004   3.367  0.3020 -0.0040  1.5159
 5818SOL     OW28915   1.787   1.720   7.735 -0.2446  0.0943 -0.3194
 5818SOL    HW128916   1.869   1.745   7.694  1.3894 -1.3301  2.1127
 5818SOL    HW228917   1.824   1.680   7.813 -2.0649  1.1091  1.0577
 5819SOL     OW28918   4.246   0.893  15.458  0.2252  0.2646 -0.0077
 5819SOL    HW128919   4.323   0.938  15.494  0.0862 -0.1969  0.8528
 5819SOL    HW228920   4.289   0.828  15.402 -1.9824 -2.2589  1.2301
 5820SOL     OW28921   3.796   2.163   7.179 -0.3932  0.3865  0.1758
 5820SOL    HW128922   3.861   2.205   7.236 -1.9718  1.6973  1.0087
 5820SOL    HW228923   3.765   2.089   7.231  0.5503  0.2835  0.6033
 5821SOL     OW28924   0.801   1.600   3.952  0.7583 -0.2591 -0.0943
 5821SOL    HW128925   0.860   1.674   3.968 -0.4063  0.4399  0.9361
 5821SOL    HW228926   0.843   1.561   3.875  0.7330  1.0313 -0.7731
 5822SOL     OW28927   3.598   1.165  11.307  0.2113 -0.3885  0.0364
 5822SOL    HW128928   3.565   1.076  11.300  1.4214 -0.7200 -1.3159
 5822SOL    HW228929   3.642   1.172  11.222 -1.9639 -2.6292 -1.2584
 5823SOL     OW28930   4.647   1.270  11.445 -0.5853  0.0443 -0.1740
 5823SOL    HW128931   4.632   1.291  11.353  1.0353 -2.4460 -1.0289
 5823SOL    HW228932   0.009   1.304  11.463 -0.1801 -0.7993 -0.5327
 5824SOL     OW28933   0.498   2.059   8.426 -0.6149 -0.5297 -0.5194
 5824SOL    HW128934   0.404   2.056   8.410 -0.0529 -3.3085 -3.2024
 5824SOL    HW228935   0.508   2.044   8.520 -0.1890  1.6752 -0.2007
 5825SOL     OW28936   1.577   4.519   6.952 -0.5476  0.4745  0.2437
 5825SOL    HW128937   1.517   4.585   6.919  0.5688  0.5147 -1.7114
 5825SOL    HW228938   1.519   4.462   7.003  0.3825  0.2372  1.0448
 5826SOL     OW28939   0.341   4.702  13.685 -0.3513 -0.4299  0.0010
 5826SOL    HW128940   0.311   0.007  13.771  2.1102  0.3576  0.5847
 5826SOL    HW228941   0.416   4.651  13.715 -0.3582  0.8175  2.1547
 5827SOL     OW28942   3.128   3.813  15.396  0.5629 -0.4574  0.0053
 5827SOL    HW128943   3.165   3.754  15.331 -0.0428  3.0545 -3.5494
 5827SOL    HW228944   3.144   3.896  15.350 -2.1688  0.4353  0.6578
 5828SOL     OW28945   2.291   0.898   1.262  0.0815 -0.6835 -0.5047
 5828SOL    HW128946   2.207   0.879   1.303  0.4821 -0.4133  0.4269
 5828SOL    HW228947   2.269   0.929   1.174 -0.5472 -0.8321 -0.3969
 5829SOL     OW28948   2.052   1.148   9.229 -0.3894  0.0002 -0.0584
 5829SOL    HW128949   1.964   1.125   9.259  0.4213 -2.2412  0.6282
 5829SOL    HW228950   2.093   1.138   9.315  0.1465  1.3742 -0.1525
 5830SOL     OW28951   4.252   2.787  16.303  0.1048  0.2934 -0.4280
 5830SOL    HW128952   4.221   2.696  16.310 -0.5820  0.3282 -3.0687
 5830SOL    HW228953   4.326   2.792  16.363  0.1618 -1.4551 -0.3486
 5831SOL     OW28954   4.552   2.199  10.535  0.0226  0.2552  0.3527
 5831SOL    HW128955   4.464   2.229  10.559 -0.1727  1.2266 -1.5572
 5831SOL    HW228956   4.590   2.287  10.532  0.7274 -0.0523  0.3077
 5832SOL     OW28957   0.604   2.011  17.625 -0.0585 -0.2081 -0.1948
 5832SOL    HW128958   0.615   2.034  17.533  0.8812  2.2946  0.5612
 5832SOL    HW228959   0.577   2.096  17.660  0.4862 -0.5527  1.0564
 5833SOL     OW28960   0.649   1.018   6.906  0.0573 -0.3111 -0.3924
 5833SOL    HW128961   0.724   1.065   6.870  1.2638  0.2758  2.9639
 5833SOL    HW228962   0.700   0.950   6.950  0.2530 -0.1463 -0.3671
 5834SOL     OW28963   0.806   3.101   7.960  0.0801  0.6800 -0.3216
 5834SOL    HW128964   0.900   3.111   7.970  0.1113 -2.4936  2.7045
 5834SOL    HW228965   0.788   3.137   8.047  0.1384  1.8645 -0.8017
 5835SOL     OW28966   1.811   1.550   4.720 -0.2625  0.5961  0.0016
 5835SOL    HW128967   1.893   1.547   4.768 -2.0280 -0.4609  2.9131
 5835SOL    HW228968   1.803   1.643   4.696 -0.0180  0.4643 -0.5908
 5836SOL     OW28969   2.085   4.677  11.272 -0.0402 -0.0020 -0.3117
 5836SOL    HW128970   2.132   4.594  11.277  1.7709  1.0389 -0.2542
 5836SOL    HW228971   2.138   0.009  11.327  0.3360  0.4304 -1.1135
 5837SOL     OW28972   1.478   0.020  14.850 -0.0702  0.1007  0.1773
 5837SOL    HW128973   1.384   0.019  14.835 -0.2393 -1.8411  1.2990
 5837SOL    HW228974   1.487   4.673  14.913 -0.3221  0.9034  1.1335
 5838SOL     OW28975   0.169   0.212  17.135  0.2533  0.1868 -0.3912
 5838SOL    HW128976   0.095   0.273  17.134  0.2022  0.1250 -0.3651
 5838SOL    HW228977   0.249   0.264  17.133 -0.2028  0.8684 -0.7937
 5839SOL     OW28978   2.172   3.261   3.136  0.3077  0.3484  0.5823
 5839SOL    HW128979   2.111   3.320   3.180 -2.0152 -1.3234 -0.4519
 5839SOL    HW228980   2.245   3.323   3.134  2.1295 -1.8289  0.0483
 5840SOL     OW28981   2.419   1.465   7.481  0.0901  0.2408  0.5957
 5840SOL    HW128982   2.392   1.388   7.429  1.3844  0.0806  0.1531
 5840SOL    HW228983   2.513   1.456   7.465 -0.2633 -1.3188 -0.5902
 5841SOL     OW28984   2.160   3.703   1.996 -1.0057 -0.4911  0.3389
 5841SOL    HW128985   2.192   3.619   1.963 -2.4565 -0.9905  0.1954
 5841SOL    HW228986   2.072   3.675   2.021 -1.0441 -1.2273 -0.6433
 5842SOL     OW28987   3.287   0.830  14.614 -0.4086  0.1460  0.1475
 5842SOL    HW128988   3.335   0.870  14.686 -1.8200 -0.6014  1.5193
 5842SOL    HW228989   3.241   0.770  14.674 -0.0235  0.8707  1.1700
 5843SOL     OW28990   1.463   3.845  14.747  0.0052 -0.3922 -0.2762
 5843SOL    HW128991   1.391   3.898  14.780 -2.1860 -0.7896 -4.3655
 5843SOL    HW228992   1.451   3.765  14.798  1.1054 -0.9263 -0.8532
 5844SOL     OW28993   2.096   1.715   4.389 -0.1056 -0.2765 -0.6090
 5844SOL    HW128994   2.180   1.691   4.429  0.9729  1.8862 -1.5370
 5844SOL    HW228995   2.112   1.806   4.364  0.5901 -0.6361 -1.4917
 5845SOL     OW28996   1.878   3.080   5.726 -0.5454  0.3824 -0.3961
 5845SOL    HW128997   1.864   3.046   5.815 -0.3009  2.8728  0.6089
 5845SOL    HW228998   1.935   3.014   5.687 -1.8222 -1.1463  0.3176
 5846SOL     OW28999   0.884   0.505   0.877 -0.1893  0.0302 -0.2711
 5846SOL    HW129000   0.969   0.493   0.836 -0.0861 -2.0909  0.5581
 5846SOL    HW229001   0.919   0.529   0.963 -0.4435 -0.3581 -0.0574
 5847SOL     OW29002   1.334   1.700  13.700  0.2268  0.0538 -0.3126
 5847SOL    HW129003   1.285   1.725  13.778 -1.2541  0.5255 -1.3970
 5847SOL    HW229004   1.424   1.721  13.724 -0.3402  0.7872  1.1561
 5848SOL     OW29005   0.833   3.610   6.556  0.1395 -0.3685  0.1082
 5848SOL    HW129006   0.877   3.529   6.582  0.1467 -0.0345  1.1127
 5848SOL    HW229007   0.898   3.679   6.569  1.0215 -1.2603  0.4727
 5849SOL     OW29008   1.699   1.047  17.113 -0.1990 -0.1322 -0.1350
 5849SOL    HW129009   1.703   1.036  17.018 -2.2843 -2.0592 -0.0009
 5849SOL    HW229010   1.625   1.104  17.132 -0.5580 -0.6577  0.0605
 5850SOL     OW29011   3.296   2.428   4.337 -0.0190  0.3433 -0.0139
 5850SOL    HW129012   3.234   2.359   4.361  2.2037 -1.2317  1.1737
 5850SOL    HW229013   3.376   2.412   4.386 -0.3135 -0.1958  0.2933
 5851SOL     OW29014   1.510   0.469  17.339 -0.3138 -0.3104 -1.2445
 5851SOL    HW129015   1.426   0.466  17.383  1.0892 -0.8881  1.3550
 5851SOL    HW229016   1.554   0.548  17.369 -1.8745 -0.0482  0.3278
 5852SOL     OW29017   3.619   2.244  12.809  0.6493 -0.4728  0.2217
 5852SOL    HW129018   3.601   2.333  12.839 -0.6757 -0.7474  0.2518
 5852SOL    HW229019   3.696   2.223  12.862 -0.3636 -2.1826  1.0021
 5853SOL     OW29020   0.987   3.417  17.028 -0.0098 -0.0114 -0.0004
 5853SOL    HW129021   0.906   3.463  17.048 -0.5793 -1.1398  0.2504
 5853SOL    HW229022   1.026   3.422  17.116 -1.7102 -0.7496  0.7846
 5854SOL     OW29023   1.703   3.864   0.266  0.3338  0.5911  0.2238
 5854SOL    HW129024   1.635   3.879   0.200 -0.2950  0.3739  0.8254
 5854SOL    HW229025   1.710   3.769   0.271  1.5075  0.8353  3.6782
 5855SOL     OW29026   3.101   0.999  12.601 -0.3099  0.3841 -0.1826
 5855SOL    HW129027   3.085   1.055  12.525  0.4260 -0.1833 -0.7677
 5855SOL    HW229028   3.019   1.018  12.646 -0.8357  1.0114 -1.3969
 5856SOL     OW29029   1.472   4.720   7.225  0.8699 -0.7609  0.1265
 5856SOL    HW129030   1.432   0.081   7.209  0.1322 -1.3549 -1.2588
 5856SOL    HW229031   1.399   4.661   7.241  1.7475 -1.9575 -0.3297
 5857SOL     OW29032   4.404   0.270  16.460  0.0980 -0.0084  0.8621
 5857SOL    HW129033   4.442   0.210  16.396  1.8275  2.3342 -0.2532
 5857SOL    HW229034   4.425   0.225  16.542 -2.5578 -0.3393  1.3733
 5858SOL     OW29035   4.654   0.963  10.757  0.0587 -0.4662 -0.2313
 5858SOL    HW129036   4.683   0.906  10.686  0.5338 -0.7701  0.2029
 5858SOL    HW229037   4.710   1.033  10.723  0.9767  0.1611  2.5712
 5859SOL     OW29038   1.267   3.255  15.066  0.5078 -0.3004  0.2457
 5859SOL    HW129039   1.232   3.280  15.151  0.2330 -1.7660  0.5669
 5859SOL    HW229040   1.356   3.232  15.091  0.3123 -1.4076 -0.0511
 5860SOL     OW29041   1.319   4.595  14.129 -0.0466  0.0172  0.2621
 5860SOL    HW129042   1.373   4.525  14.166 -0.7767 -1.3676 -1.2620
 5860SOL    HW229043   1.381   4.667  14.120  0.7660 -0.7089 -0.0090
 5861SOL     OW29044   0.897   2.622  17.359  0.1747 -0.3499 -0.0126
 5861SOL    HW129045   0.891   2.710  17.321 -1.8874 -0.9261 -1.0343
 5861SOL    HW229046   0.895   2.569  17.280 -0.9128 -0.8921  0.3826
 5862SOL     OW29047   4.707   4.705   7.472 -0.1527  0.2279 -0.3162
 5862SOL    HW129048   0.059   4.654   7.495  1.2002  2.0378 -0.8147
 5862SOL    HW229049   4.651   4.638   7.433  1.3881 -0.4217 -1.3789
 5863SOL     OW29050   3.406   4.278   2.767 -0.1152  0.2174 -0.5208
 5863SOL    HW129051   3.372   4.202   2.815 -1.0648  1.5502  0.9455
 5863SOL    HW229052   3.451   4.230   2.697 -0.2678  0.1639 -0.5824
 5864SOL     OW29053   2.924   1.129   2.152  0.2886 -0.3609  0.5526
 5864SOL    HW129054   2.876   1.102   2.230 -1.2560 -0.7660 -0.5330
 5864SOL    HW229055   2.959   1.045   2.121  0.4732 -0.1058  0.0790
 5865SOL     OW29056   0.233   3.937   4.474  0.7726 -0.1582 -0.1801
 5865SOL    HW129057   0.279   4.014   4.441  0.0778  0.3164 -0.0399
 5865SOL    HW229058   0.221   3.967   4.564  2.8505 -0.0533  0.0790
 5866SOL     OW29059   2.262   0.440   3.246  0.1540  0.1797  0.2701
 5866SOL    HW129060   2.328   0.507   3.261 -1.3756  1.1663  2.6732
 5866SOL    HW229061   2.214   0.480   3.174 -1.1123 -1.7172  0.0516
 5867SOL     OW29062   1.305   0.847   7.007  0.3740 -0.4548 -0.3188
 5867SOL    HW129063   1.306   0.906   6.931 -4.4164 -1.7928 -1.4209
 5867SOL    HW229064   1.222   0.805   6.988 -1.3057  3.0361 -0.7031
 5868SOL     OW29065   3.304   1.816   4.975 -0.3050  0.7647 -0.5959
 5868SOL    HW129066   3.264   1.742   5.021  1.3141  1.0018  1.1934
 5868SOL    HW229067   3.395   1.790   4.961  0.0874  0.5207  2.4010
 5869SOL     OW29068   1.847   4.719   2.902  0.2701  0.0115 -0.3579
 5869SOL    HW129069   1.887   0.081   2.898 -0.0434  0.1258 -1.0493
 5869SOL    HW229070   1.769   0.017   2.953 -0.2666 -3.5879  0.4610
 5870SOL     OW29071   2.287   0.663   8.579 -0.4535 -0.3504  0.2173
 5870SOL    HW129072   2.319   0.684   8.667  2.3814  1.1802 -1.1801
 5870SOL    HW229073   2.288   0.747   8.532 -2.6225 -0.9053 -0.8207
 5871SOL     OW29074   4.490   1.901  11.046  0.2326  0.6281  0.3185
 5871SOL    HW129075   4.546   1.974  11.072 -0.9451  1.3907  0.6869
 5871SOL    HW229076   4.523   1.879  10.959 -2.3394 -1.2163 -0.1858
 5872SOL     OW29077   4.037   4.171   5.848 -0.5005 -0.0801  0.0877
 5872SOL    HW129078   4.113   4.212   5.807 -1.0278 -0.7147 -1.5269
 5872SOL    HW229079   3.973   4.241   5.862 -0.3816 -0.0128  0.2981
 5873SOL     OW29080   0.496   3.787   6.921 -0.4478 -0.1062 -0.4054
 5873SOL    HW129081   0.515   3.712   6.865 -0.1065 -0.9853  0.8938
 5873SOL    HW229082   0.462   3.736   6.994  1.2754  0.3074  0.6923
 5874SOL     OW29083   1.312   2.525   1.371 -0.1185 -0.5310 -0.5056
 5874SOL    HW129084   1.262   2.505   1.292 -1.3230 -1.2595  0.4334
 5874SOL    HW229085   1.264   2.599   1.407  0.9862 -1.1941  2.3039
 5875SOL     OW29086   0.874   2.538   7.968 -0.0182 -0.8479  0.3490
 5875SOL    HW129087   0.789   2.582   7.975  0.7347  0.7649 -0.8112
 5875SOL    HW229088   0.870   2.520   7.874  2.1167  0.2935  0.0402
 5876SOL     OW29089   0.019   2.811   7.773 -0.4641 -0.5783 -0.1305
 5876SOL    HW129090   0.061   2.886   7.731  0.1616 -1.7908 -1.6875
 5876SOL    HW229091   0.085   2.784   7.837 -0.2804 -0.2748 -0.1938
 5877SOL     OW29092   1.081   1.998   5.507 -0.2177 -0.4962 -0.0831
 5877SOL    HW129093   1.147   2.039   5.562 -1.2428  0.4281  0.4443
 5877SOL    HW229094   1.139   1.936   5.462  0.3579 -0.1956  0.2497
 5878SOL     OW29095   3.711   1.978   4.605 -0.0549  0.1880 -0.3145
 5878SOL    HW129096   3.713   2.045   4.673  0.0727 -0.6082  0.4653
 5878SOL    HW229097   3.657   2.022   4.539 -0.8691  1.5975  1.3111
 5879SOL     OW29098   0.696   3.512   5.131 -0.1218 -0.2151  0.6485
 5879SOL    HW129099   0.642   3.566   5.073  2.3749  0.9191 -0.6166
 5879SOL    HW229100   0.769   3.571   5.152  0.9507 -1.4724  0.4733
 5880SOL     OW29101   4.293   0.674  13.992  0.0161 -0.1228  0.5484
 5880SOL    HW129102   4.283   0.701  14.083 -1.2581 -0.6761  0.5792
 5880SOL    HW229103   4.296   0.579  13.995 -3.4393 -0.2485  0.5708
 5881SOL     OW29104   1.883   0.588   9.057 -0.7059  0.0416 -0.0715
 5881SOL    HW129105   1.886   0.678   9.025  0.1965 -0.0261 -0.1692
 5881SOL    HW229106   1.939   0.556   8.986  2.1935 -0.1505  2.3295
 5882SOL     OW29107   2.548   2.765   8.318 -0.3284 -0.9068 -0.1844
 5882SOL    HW129108   2.490   2.731   8.388 -0.5101 -0.4251 -0.1031
 5882SOL    HW229109   2.530   2.704   8.247 -3.3791 -0.6432  0.3626
 5883SOL     OW29110   1.150   0.450   6.163  0.4071 -0.0448  0.2719
 5883SOL    HW129111   1.131   0.449   6.069  0.1032 -1.2055  0.3530
 5883SOL    HW229112   1.166   0.360   6.190  0.6435 -0.5313 -1.4811
 5884SOL     OW29113   3.626   0.091   7.146 -0.0973 -0.0206  0.4873
 5884SOL    HW129114   3.706   0.143   7.146  1.1875 -1.9862  0.5101
 5884SOL    HW229115   3.651   0.018   7.204 -1.2269 -0.1353  0.8240
 5885SOL     OW29116   3.866   2.523   1.953  0.1404  0.1292 -0.0148
 5885SOL    HW129117   3.926   2.589   1.986  1.8996 -1.3030 -0.3956
 5885SOL    HW229118   3.784   2.569   1.972  0.4363  0.2722  0.8874
 5886SOL     OW29119   1.887   0.827   7.384 -0.3270 -0.0709 -0.0233
 5886SOL    HW129120   1.819   0.894   7.396 -0.5864 -0.4799  0.7569
 5886SOL    HW229121   1.922   0.823   7.473 -1.7393 -1.3749  0.4813
 5887SOL     OW29122   1.584   2.295  16.955  0.7097  0.2928 -0.2524
 5887SOL    HW129123   1.664   2.303  16.902  1.6575  0.4400  1.1985
 5887SOL    HW229124   1.573   2.376  17.004  0.8751  1.8563 -2.7746
 5888SOL     OW29125   3.001   4.241   0.698  0.2707  0.6172 -0.3707
 5888SOL    HW129126   2.910   4.270   0.708  0.2292 -0.3861  2.2471
 5888SOL    HW229127   3.043   4.239   0.784  1.0422  0.8181 -0.7457
 5889SOL     OW29128   0.239   0.911  12.075 -0.4315  0.0705 -0.7852
 5889SOL    HW129129   0.171   0.972  12.047 -2.0965 -2.2705 -1.7424
 5889SOL    HW229130   0.245   0.918  12.171  1.0575 -1.4262 -0.7715
 5890SOL     OW29131   4.460   3.735   1.686 -0.3582 -0.1522  0.5230
 5890SOL    HW129132   4.374   3.752   1.646  0.3848  1.7988 -0.2253
 5890SOL    HW229133   4.511   3.815   1.675 -1.6285  0.2920 -2.1692
 5891SOL     OW29134   1.193   2.789   3.222 -0.0538  0.2217  0.3233
 5891SOL    HW129135   1.208   2.769   3.314  0.5229 -2.9863 -0.4422
 5891SOL    HW229136   1.263   2.737   3.182  0.2479  1.1858 -0.4099
 5892SOL     OW29137   2.987   2.858   8.474  0.0098  0.0325 -0.2628
 5892SOL    HW129138   2.944   2.780   8.440  0.3334  0.1341 -0.9200
 5892SOL    HW229139   3.039   2.876   8.395  1.7377 -0.9989  0.6583
 5893SOL     OW29140   4.197   0.503   0.610 -0.5227  0.1603 -0.0724
 5893SOL    HW129141   4.191   0.573   0.675 -0.5606  0.1602 -0.0756
 5893SOL    HW229142   4.251   0.543   0.543  0.3053 -0.0224  0.4893
 5894SOL     OW29143   3.397   1.347   8.728 -0.3334  0.4353  0.1474
 5894SOL    HW129144   3.418   1.438   8.706  2.0410 -0.0913  0.2058
 5894SOL    HW229145   3.431   1.334   8.817  0.1593 -0.8136 -0.2208
 5895SOL     OW29146   1.066   3.775  17.564 -0.0122 -0.0394 -0.0208
 5895SOL    HW129147   1.012   3.794  17.641 -2.8821  3.4419 -2.8910
 5895SOL    HW229148   1.002   3.811  17.503  0.0016  2.9041  1.6894
 5896SOL     OW29149   3.558   2.878   5.597 -0.2612  0.7473 -0.1359
 5896SOL    HW129150   3.570   2.957   5.545  2.2412 -0.5387 -1.5266
 5896SOL    HW229151   3.465   2.888   5.618 -0.4341 -0.5878 -0.2337
 5897SOL     OW29152   1.346   4.628   6.869 -0.4433  0.2749 -0.0356
 5897SOL    HW129153   1.381   4.651   6.783  0.9562 -0.3423  0.3641
 5897SOL    HW229154   1.256   4.661   6.863 -0.4316  0.1938 -0.6156
 5898SOL     OW29155   3.412   0.590   8.617 -0.0873  0.4029 -0.0162
 5898SOL    HW129156   3.354   0.584   8.693  0.7957 -1.2403  0.5283
 5898SOL    HW229157   3.384   0.676   8.585  0.0570  0.2893 -0.4548
 5899SOL     OW29158   4.717   1.324   7.231  0.2494  0.0263  0.4708
 5899SOL    HW129159   0.064   1.262   7.238  1.3893  1.2250 -0.6807
 5899SOL    HW229160   0.035   1.388   7.288  0.1017  0.7684 -0.2549
 5900SOL     OW29161   0.337   1.828   5.075  0.1883 -0.1318 -0.4801
 5900SOL    HW129162   0.336   1.740   5.113 -0.7433  0.3232  0.5099
 5900SOL    HW229163   0.417   1.863   5.115  0.3542  0.7357 -1.5590
 5901SOL     OW29164   1.190   1.693   0.039 -0.2519  0.2493 -0.3799
 5901SOL    HW129165   1.146   1.719  17.661 -0.0558  0.2693 -0.4817
 5901SOL    HW229166   1.122   1.634   0.070 -0.9299  0.6256 -1.1506
 5902SOL     OW29167   3.985   1.129  15.051  0.3547  0.3907 -0.0909
 5902SOL    HW129168   4.036   1.067  14.998  1.9329  0.9153  0.8162
 5902SOL    HW229169   3.974   1.083  15.134 -2.1303 -0.3345 -0.8034
 5903SOL     OW29170   4.223   4.214   7.914  0.7664 -0.6847  0.2154
 5903SOL    HW129171   4.291   4.232   7.849  0.5619 -2.6734 -0.5234
 5903SOL    HW229172   4.254   4.132   7.953  0.2946  0.2567  2.5550
 5904SOL     OW29173   1.612   2.525   6.759 -0.4283  0.3986  0.2816
 5904SOL    HW129174   1.651   2.580   6.826 -0.2881  0.0137  0.5186
 5904SOL    HW229175   1.655   2.446   6.790 -0.9114  0.2842  0.6604
 5905SOL     OW29176   0.407   2.474   6.554  0.4742  0.2681 -0.3581
 5905SOL    HW129177   0.330   2.527   6.571  0.3952 -0.3031  1.0610
 5905SOL    HW229178   0.394   2.402   6.615 -1.9107  1.1461  0.1778
 5906SOL     OW29179   1.949   2.821   7.774 -0.2312  0.1394 -0.1212
 5906SOL    HW129180   1.938   2.903   7.726 -1.2520  0.5349  0.7901
 5906SOL    HW229181   1.967   2.851   7.864  0.1062 -0.0289 -0.1306
 5907SOL     OW29182   2.109   0.594   2.107  0.1677 -0.1942  0.2892
 5907SOL    HW129183   2.015   0.607   2.119 -0.5352 -1.9027 -3.3190
 5907SOL    HW229184   2.119   0.586   2.012  0.7906 -0.6028  0.3854
 5908SOL     OW29185   4.116   3.011   8.864  0.0358  0.1859 -0.1472
 5908SOL    HW129186   4.190   3.007   8.925 -2.0460  0.3420  2.3328
 5908SOL    HW229187   4.059   3.078   8.901 -0.2821  0.3703 -0.9796
 5909SOL     OW29188   0.157   3.707   7.954  0.1042 -0.1687 -0.4028
 5909SOL    HW129189   0.179   3.664   8.036 -1.0378  2.6758  1.3675
 5909SOL    HW229190   0.144   3.623   7.909 -0.3203 -0.5209  0.3960
 5910SOL     OW29191   4.423   3.771   6.234  0.0771  0.7165  0.0624
 5910SOL    HW129192   4.504   3.814   6.207  0.9815 -0.2695  1.1871
 5910SOL    HW229193   4.369   3.845   6.261 -2.4056 -1.8475  2.1186
 5911SOL     OW29194   3.994   4.642   5.759 -0.0956  0.1958 -0.0834
 5911SOL    HW129195   3.975   4.712   5.696  0.7698 -0.5135 -1.1404
 5911SOL    HW229196   4.089   4.647   5.772 -0.0640 -2.2817  0.4901
 5912SOL     OW29197   4.433   1.383   6.326 -0.0965 -0.6110  0.6809
 5912SOL    HW129198   4.449   1.449   6.394 -1.6200 -1.8730  2.2477
 5912SOL    HW229199   4.506   1.322   6.333  1.2339  0.6497 -2.0449
 5913SOL     OW29200   0.444   0.559   8.020  0.0708  0.2754  0.1599
 5913SOL    HW129201   0.401   0.642   8.040  0.4881  1.0210 -2.0884
 5913SOL    HW229202   0.437   0.512   8.103  1.9450  0.6766  0.5562
 5914SOL     OW29203   1.280   0.832   1.236  0.4213 -0.4199  0.7459
 5914SOL    HW129204   1.223   0.896   1.279 -1.5062 -0.8116 -1.2039
 5914SOL    HW229205   1.317   0.786   1.312  0.5541  2.6762  2.5423
 5915SOL     OW29206   0.298   2.667   8.510 -0.1495 -0.4890  0.0024
 5915SOL    HW129207   0.318   2.656   8.602  0.4979 -2.0157 -0.3278
 5915SOL    HW229208   0.309   2.579   8.474  1.2111 -0.1376 -0.4617
 5916SOL     OW29209   3.061   0.101   5.718 -0.3750 -0.1919 -0.0256
 5916SOL    HW129210   3.047   0.085   5.811 -1.6129 -2.8335 -0.6564
 5916SOL    HW229211   2.994   0.169   5.713 -0.9195 -0.9005 -2.4835
 5917SOL     OW29212   1.129   3.110   9.519  0.7940  0.1064  0.1914
 5917SOL    HW129213   1.202   3.093   9.578  1.8746 -0.7054 -1.3723
 5917SOL    HW229214   1.175   3.130   9.438 -0.2426 -0.4946 -0.5489
 5918SOL     OW29215   2.705   4.196   0.978 -0.4692  0.0368  0.4918
 5918SOL    HW129216   2.712   4.109   1.018  0.5369 -0.9331 -1.7793
 5918SOL    HW229217   2.621   4.223   1.016 -1.6743 -1.3118 -1.1689
 5919SOL     OW29218   2.018   2.295   2.332 -0.5153  0.6239 -0.3752
 5919SOL    HW129219   1.981   2.254   2.410 -1.0215  1.6928 -0.0404
 5919SOL    HW229220   2.101   2.252   2.312  0.2482  0.8836  2.3419
 5920SOL     OW29221   2.051   4.120  14.558  0.3595 -0.3810 -0.1891
 5920SOL    HW129222   2.107   4.197  14.553  2.6383 -1.8805  2.9028
 5920SOL    HW229223   2.104   4.064  14.501  0.9584 -1.7550  1.7331
 5921SOL     OW29224   1.370   3.857   3.515  0.1015  0.2147  0.7151
 5921SOL    HW129225   1.446   3.822   3.470 -0.0708 -0.4127  0.8979
 5921SOL    HW229226   1.342   3.776   3.560  1.0108  0.0250  0.9446
 5922SOL     OW29227   1.626   0.723   6.181 -0.5176  0.0261  0.5467
 5922SOL    HW129228   1.708   0.742   6.135 -0.3174 -1.9762  0.0585
 5922SOL    HW229229   1.659   0.731   6.270 -2.1207  0.2606  1.1235
 5923SOL     OW29230   4.296   0.286   3.414 -0.2587  0.0467  0.2800
 5923SOL    HW129231   4.229   0.328   3.361  2.1828  1.9358 -1.3132
 5923SOL    HW229232   4.248   0.280   3.496 -1.3383 -2.4577 -0.5289
 5924SOL     OW29233   3.100   2.254  13.659 -0.1888 -0.1702  0.2335
 5924SOL    HW129234   3.062   2.329  13.705 -0.0120 -0.3180  0.6211
 5924SOL    HW229235   3.089   2.197  13.735  3.6001  1.2733  1.8310
 5925SOL     OW29236   1.909   2.147   1.172  0.3429  0.5205  0.3774
 5925SOL    HW129237   1.840   2.193   1.219  0.0803 -1.3761  1.8138
 5925SOL    HW229238   1.971   2.148   1.245 -0.0439 -0.9612  0.7249
 5926SOL     OW29239   3.330   4.605  13.751  0.0238 -0.2993 -0.1371
 5926SOL    HW129240   3.304   4.569  13.666 -0.8652  0.8545 -0.3597
 5926SOL    HW229241   3.420   4.624  13.725 -0.1706  0.1372 -0.4931
 5927SOL     OW29242   4.062   2.272   4.841 -0.2296 -0.4855  0.3453
 5927SOL    HW129243   3.969   2.285   4.822 -0.5048 -2.5668  0.2139
 5927SOL    HW229244   4.081   2.348   4.896  0.6786  1.2893 -2.4467
 5928SOL     OW29245   1.423   1.255  11.207  0.5189 -0.4659 -0.3676
 5928SOL    HW129246   1.342   1.277  11.252 -0.1792  0.3538 -2.0103
 5928SOL    HW229247   1.496   1.284  11.262  1.7060 -0.2553 -2.0707
 5929SOL     OW29248   1.035   4.236   8.682 -0.0220  0.2173  0.0887
 5929SOL    HW129249   1.056   4.151   8.720  1.2503  1.7353  2.7767
 5929SOL    HW229250   1.077   4.300   8.739  0.5452 -0.3280  0.2807
 5930SOL     OW29251   3.807   1.592   7.743  0.4246  0.0016 -0.2859
 5930SOL    HW129252   3.849   1.587   7.657  0.9286  0.9832 -0.0954
 5930SOL    HW229253   3.715   1.585   7.718  0.6248  0.7614 -1.2569
 5931SOL     OW29254   3.557   0.247   6.301 -0.2120  0.5733 -0.1457
 5931SOL    HW129255   3.592   0.272   6.215  1.1277 -0.7505  0.0201
 5931SOL    HW229256   3.569   0.153   6.293  2.5357  0.9518 -0.3386
 5932SOL     OW29257   0.338   3.056   6.050 -0.5823 -0.0777 -0.1908
 5932SOL    HW129258   0.301   2.987   5.995 -1.6021 -0.9128  1.5505
 5932SOL    HW229259   0.423   3.057   6.006 -0.0391 -1.3948  0.8446
 5933SOL     OW29260   1.515   2.467   3.306  0.2728  0.7288  0.4386
 5933SOL    HW129261   1.535   2.502   3.219  1.1337 -1.6865 -0.3236
 5933SOL    HW229262   1.483   2.381   3.278 -0.0605  0.8560  0.4227
 5934SOL     OW29263   2.477   3.671   4.819 -0.2942 -0.1782 -0.1092
 5934SOL    HW129264   2.560   3.704   4.785 -0.4387 -1.4503 -1.6851
 5934SOL    HW229265   2.466   3.718   4.903  3.8408 -1.5278  1.1861
 5935SOL     OW29266   1.419   2.250   9.622  0.2734 -0.2145  0.4996
 5935SOL    HW129267   1.478   2.175   9.620 -1.7393 -1.8571  2.1390
 5935SOL    HW229268   1.448   2.304   9.548  2.7848  0.4656  1.9750
 5936SOL     OW29269   3.148   1.273   6.718 -0.7819  0.0686  0.0087
 5936SOL    HW129270   3.208   1.255   6.791 -0.0105  0.0901 -0.6239
 5936SOL    HW229271   3.158   1.367   6.703  1.9240 -0.6731 -2.7770
 5937SOL     OW29272   1.562   1.033   4.478  0.4074  0.6598 -0.0477
 5937SOL    HW129273   1.483   1.043   4.424  0.9557 -0.0073 -0.9729
 5937SOL    HW229274   1.562   1.113   4.532  1.5425  0.0479  0.8633
 5938SOL     OW29275   3.525   4.142   2.068  0.1496  0.2302 -0.0652
 5938SOL    HW129276   3.581   4.094   2.129  0.9600 -0.7698 -1.5765
 5938SOL    HW229277   3.575   4.117   1.990 -0.1216  0.0161 -0.1703
 5939SOL     OW29278   0.000   4.610   7.109 -0.3267  0.0054 -0.0954
 5939SOL    HW129279   4.647   4.639   7.156  0.2418  0.2889  0.6829
 5939SOL    HW229280   4.701   4.526   7.071 -2.7150  0.1123  1.2523
 5940SOL     OW29281   1.133   3.350   8.507 -0.0728 -0.8364  0.0621
 5940SOL    HW129282   1.222   3.380   8.491 -0.2763  0.3873  1.1800
 5940SOL    HW229283   1.148   3.261   8.540  0.3883 -1.7723 -2.7035
 5941SOL     OW29284   2.074   2.495   1.741 -0.1217 -0.1357 -0.5307
 5941SOL    HW129285   2.033   2.578   1.718 -0.2592  0.4372  1.8023
 5941SOL    HW229286   2.149   2.513   1.684 -1.4907  4.3965 -0.8746
 5942SOL     OW29287   0.879   1.908   0.670  0.2916 -0.4986 -0.0420
 5942SOL    HW129288   0.972   1.894   0.688 -0.0185 -0.9137  1.1869
 5942SOL    HW229289   0.852   1.961   0.744  1.3585  1.6195 -1.1812
 5943SOL     OW29290   0.062   1.742   1.789 -0.0998 -0.4587  0.2708
 5943SOL    HW129291   0.029   1.661   1.828  0.3711 -0.6764  0.2162
 5943SOL    HW229292   0.034   1.808   1.852  2.9451  2.0123 -1.0126
 5944SOL     OW29293   1.331   0.703   8.254  0.6253 -0.2138  0.6860
 5944SOL    HW129294   1.259   0.688   8.193  1.0875  0.1708  0.0514
 5944SOL    HW229295   1.302   0.652   8.330  0.7997 -0.1323  0.8062
 5945SOL     OW29296   3.475   1.441  16.586 -0.1318  0.4703 -0.2527
 5945SOL    HW129297   3.419   1.364  16.579 -1.6032  1.5194 -0.1673
 5945SOL    HW229298   3.564   1.406  16.580 -0.3311 -0.1569  0.5632
 5946SOL     OW29299   1.323   3.131  12.813 -0.2442 -0.1534  0.1070
 5946SOL    HW129300   1.275   3.200  12.859  1.6450  1.0199  0.3204
 5946SOL    HW229301   1.303   3.163  12.725  2.8821 -0.2907 -0.6568
 5947SOL     OW29302   0.930   3.591   3.871 -0.3771 -0.1636 -0.0924
 5947SOL    HW129303   0.938   3.530   3.797 -1.0496 -2.1565  1.4861
 5947SOL    HW229304   0.877   3.546   3.936  0.4561 -0.1661  0.5794
 5948SOL     OW29305   2.220   3.470   7.506 -0.5009  0.3266 -0.3167
 5948SOL    HW129306   2.280   3.504   7.573 -2.0943 -0.0374  1.2925
 5948SOL    HW229307   2.274   3.401   7.466 -1.2627 -0.4857  0.0613
 5949SOL     OW29308   4.043   2.485   3.646 -0.1024  0.0070  0.0193
 5949SOL    HW129309   4.078   2.555   3.701 -1.0954  1.0292 -0.6420
 5949SOL    HW229310   4.086   2.409   3.687 -1.3364 -0.9471 -0.4434
 5950SOL     OW29311   2.561   1.800   0.977 -0.0190 -0.4915  0.6511
 5950SOL    HW129312   2.640   1.774   1.025  0.6512 -1.8240 -1.1801
 5950SOL    HW229313   2.493   1.819   1.042  0.2975 -0.0736  0.8611
 5951SOL     OW29314   2.506   0.940   2.553 -0.2681 -0.3149  0.5138
 5951SOL    HW129315   2.587   0.985   2.576 -0.4080 -0.6665  1.7056
 5951SOL    HW229316   2.504   0.959   2.460  1.5739  3.1574  1.2144
 5952SOL     OW29317   0.622   3.812   4.936  0.1682 -0.0992 -0.4875
 5952SOL    HW129318   0.672   3.891   4.914 -0.0894  0.2257  0.1164
 5952SOL    HW229319   0.606   3.788   4.844  0.6656  0.4509 -0.7203
 5953SOL     OW29320   3.699   0.328   3.952 -0.4469  0.6325  0.7030
 5953SOL    HW129321   3.777   0.310   4.004  0.7482  2.0754 -0.5839
 5953SOL    HW229322   3.737   0.351   3.868 -1.2667  0.7478  0.3631
 5954SOL     OW29323   1.861   1.247   4.235 -0.2506 -0.1693  0.2863
 5954SOL    HW129324   1.921   1.297   4.290  1.4525 -0.9669 -0.8526
 5954SOL    HW229325   1.786   1.307   4.237  0.1741  0.2544  3.0951
 5955SOL     OW29326   4.587   2.502   1.132  0.4469  0.0339 -0.6100
 5955SOL    HW129327   4.559   2.431   1.074  1.0633 -1.0538  0.4260
 5955SOL    HW229328   4.606   2.575   1.073  3.7951  0.7191  1.3643
 5956SOL     OW29329   0.935   2.438  16.378 -1.0698  0.2329 -0.0897
 5956SOL    HW129330   0.973   2.493  16.309 -2.0715 -0.4452 -1.1847
 5956SOL    HW229331   0.846   2.417  16.349 -0.7908  0.8201 -1.3687
 5957SOL     OW29332   1.207   3.080   8.581 -0.1824 -0.0300  0.3456
 5957SOL    HW129333   1.156   3.023   8.637 -1.7827  1.1486  0.0832
 5957SOL    HW229334   1.285   3.027   8.562  0.3798  1.7594 -2.5279
 5958SOL     OW29335   2.033   0.762   6.673  0.0725 -0.2046  0.8944
 5958SOL    HW129336   1.963   0.750   6.737 -0.9079 -1.0075 -0.3172
 5958SOL    HW229337   2.060   0.671   6.659  0.5468  0.3420 -1.7979
 5959SOL     OW29338   1.468   3.395  16.850 -0.6779 -0.4751 -0.3814
 5959SOL    HW129339   1.524   3.403  16.773  0.0863  1.6001  0.3941
 5959SOL    HW229340   1.501   3.464  16.908 -1.4800 -2.5185  2.4785
 5960SOL     OW29341   3.157   2.850   8.215 -0.0878 -0.7241  0.0035
 5960SOL    HW129342   3.251   2.852   8.234 -0.1824 -3.5848  0.7496
 5960SOL    HW229343   3.149   2.775   8.156  2.0429 -0.6611 -0.3842
 5961SOL     OW29344   0.192   4.252   7.671 -0.1672 -0.1236  0.2025
 5961SOL    HW129345   0.145   4.269   7.753 -1.3353 -1.4575 -0.1847
 5961SOL    HW229346   0.165   4.164   7.644 -1.7252 -0.2608  2.1951
 5962SOL     OW29347   4.147   4.707   1.735  0.1127  0.6346  0.8111
 5962SOL    HW129348   4.070   0.027   1.769 -0.0858  1.6666 -0.9956
 5962SOL    HW229349   4.211   0.050   1.717 -2.4452  2.5465 -1.0127
 5963SOL     OW29350   2.548   1.585   6.006  0.7080  0.2260 -0.4425
 5963SOL    HW129351   2.517   1.533   6.080  0.5899  3.1296  1.5530
 5963SOL    HW229352   2.466   1.616   5.966  1.6807  1.1413 -1.7306
 5964SOL     OW29353   2.007   0.009   9.500  0.0770  0.2475 -0.2762
 5964SOL    HW129354   2.002   4.670   9.570  2.4563 -0.9434 -1.2147
 5964SOL    HW229355   2.098   0.019   9.473  0.6036  0.1446  1.5207
 5965SOL     OW29356   3.462   4.667   7.783  0.0299  0.5149 -0.0156
 5965SOL    HW129357   3.507   0.026   7.785 -2.1614  1.6878 -0.4092
 5965SOL    HW229358   3.374   4.694   7.811 -0.1362  0.4173 -0.4469
 5966SOL     OW29359   2.174   0.923   8.494 -0.0467 -0.2121 -0.5679
 5966SOL    HW129360   2.176   0.969   8.578  0.0853  0.4834 -0.9497
 5966SOL    HW229361   2.100   0.970   8.455  1.1356  1.5280 -0.7282
 5967SOL     OW29362   4.012   4.533   6.146 -0.7689 -0.4267  0.2826
 5967SOL    HW129363   4.020   4.603   6.211 -0.0632  1.3892 -1.7456
 5967SOL    HW229364   3.936   4.489   6.183 -0.4095 -1.6025 -0.3567
 5968SOL     OW29365   2.934   3.992   1.119 -0.2275 -0.0890 -0.0844
 5968SOL    HW129366   2.960   4.047   1.193  2.2742  1.6349 -2.2035
 5968SOL    HW229367   3.006   3.930   1.109 -0.4460 -0.4634  0.7263
 5969SOL     OW29368   1.222   2.665  15.769 -0.1940  0.0451  0.3358
 5969SOL    HW129369   1.194   2.650  15.678  0.0112 -0.4259  0.3469
 5969SOL    HW229370   1.238   2.759  15.761 -1.1448  0.4482  3.2765
 5970SOL     OW29371   2.413   1.211  10.767  0.0396  0.0636  0.1073
 5970SOL    HW129372   2.348   1.281  10.770  1.2168  1.1239  1.3331
 5970SOL    HW229373   2.381   1.158  10.695  1.5111 -0.8526  0.1141
 5971SOL     OW29374   2.897   1.331  16.197 -0.1427  0.1800  0.4369
 5971SOL    HW129375   2.850   1.275  16.259  0.5427 -1.4434 -0.5078
 5971SOL    HW229376   2.854   1.415  16.209  2.0774  1.2901  0.5096
 5972SOL     OW29377   4.252   4.165   6.700  0.8184 -0.4221 -0.5801
 5972SOL    HW129378   4.340   4.182   6.733  0.6957  1.8531 -1.4115
 5972SOL    HW229379   4.270   4.087   6.648  2.1260 -0.3992 -0.1672
 5973SOL     OW29380   1.794   4.373   7.905 -0.2476 -0.3819 -0.6704
 5973SOL    HW129381   1.885   4.376   7.934 -1.0755  0.4248  1.8337
 5973SOL    HW229382   1.809   4.365   7.811  0.8091 -0.5079 -0.4997
 5974SOL     OW29383   1.790   2.658   1.277 -0.3131 -0.0707  0.5091
 5974SOL    HW129384   1.793   2.611   1.360 -2.4498  0.6402  0.9813
 5974SOL    HW229385   1.745   2.735   1.312  1.1389  0.9997  0.0436
 5975SOL     OW29386   0.596   0.090   6.086  0.1046 -0.5027  0.6551
 5975SOL    HW129387   0.648   0.152   6.136  1.0977 -0.7173 -0.1066
 5975SOL    HW229388   0.574   0.142   6.009  2.0606 -0.4566  0.1277
 5976SOL     OW29389   1.306   3.878   7.830  0.5207  0.2671 -0.2101
 5976SOL    HW129390   1.227   3.847   7.786  1.0661 -0.3613 -0.7376
 5976SOL    HW229391   1.378   3.822   7.802  0.2787 -0.6495  0.9767
 5977SOL     OW29392   4.302   0.710  13.248  0.1761 -0.1511 -0.0487
 5977SOL    HW129393   4.319   0.723  13.154 -0.7202 -2.5070 -0.5463
 5977SOL    HW229394   4.338   0.793  13.278  0.6184  0.8934 -3.4706
 5978SOL     OW29395   4.259   3.027   1.131  0.8914  0.1247  0.3921
 5978SOL    HW129396   4.283   3.032   1.038  2.2009  0.5917  0.7503
 5978SOL    HW229397   4.342   3.048   1.174  1.6960 -0.6714 -0.7453
 5979SOL     OW29398   4.096   2.890   6.466  0.2238 -0.3457  0.4043
 5979SOL    HW129399   4.132   2.964   6.416 -0.7892  0.5264  0.9903
 5979SOL    HW229400   4.145   2.821   6.421 -0.2057 -0.9832  0.9226
 5980SOL     OW29401   1.519   0.128  16.290  0.2191  0.0198 -0.3278
 5980SOL    HW129402   1.589   0.189  16.316 -0.0185 -0.5086  1.5849
 5980SOL    HW229403   1.565   0.046  16.272  2.3808  1.3853 -1.0529
 5981SOL     OW29404   0.512   4.601   9.942 -0.5296  0.3061 -0.6062
 5981SOL    HW129405   0.486   4.620  10.032  2.6218 -1.1373  0.6308
 5981SOL    HW229406   0.463   4.662   9.887 -1.3472 -0.1553 -0.3786
 5982SOL     OW29407   0.207   2.986   9.423 -0.4217 -0.4867 -0.4631
 5982SOL    HW129408   0.245   3.073   9.435 -0.4124 -0.2429 -2.1948
 5982SOL    HW229409   0.152   2.997   9.345  1.2790 -1.0860 -1.7574
 5983SOL     OW29410   1.961   0.299   9.249  0.1857 -0.8458 -0.2509
 5983SOL    HW129411   1.951   0.298   9.154  1.1204 -1.3484 -0.3398
 5983SOL    HW229412   1.896   0.239   9.287 -0.8401 -0.3542 -1.2412
 5984SOL     OW29413   0.792   4.229  16.093  0.1111  0.0840 -0.2932
 5984SOL    HW129414   0.787   4.150  16.038 -1.2167  1.3938 -2.0342
 5984SOL    HW229415   0.825   4.287  16.024 -1.9959  0.6657 -0.8116
 5985SOL     OW29416   0.990   3.570   9.566  0.0611 -0.1136 -0.6026
 5985SOL    HW129417   1.045   3.573   9.488  0.5871  0.4986 -0.2110
 5985SOL    HW229418   0.908   3.594   9.524 -1.0650  1.1049  2.2630
 5986SOL     OW29419   4.139   1.519   2.255 -0.3445 -0.3655 -0.3221
 5986SOL    HW129420   4.221   1.563   2.231 -0.7751 -0.0915 -1.3056
 5986SOL    HW229421   4.097   1.495   2.172 -0.0964 -2.7707  0.2626
 5987SOL     OW29422   4.147   3.941  13.818 -0.1700  0.3414 -0.4764
 5987SOL    HW129423   4.059   3.980  13.817  0.2592  1.3592  0.7683
 5987SOL    HW229424   4.189   4.017  13.779  1.6277 -0.2842  0.2445
 5988SOL     OW29425   0.239   2.417   7.071 -0.2315  0.5311  0.0410
 5988SOL    HW129426   0.152   2.452   7.054  1.2103  2.2819 -3.7957
 5988SOL    HW229427   0.224   2.327   7.042 -1.4293  0.1969  1.7081
 5989SOL     OW29428   4.462   2.427  13.863  0.1244  0.2010  0.1486
 5989SOL    HW129429   4.373   2.402  13.840  0.5691 -0.5172 -0.7860
 5989SOL    HW229430   4.483   2.491  13.795 -0.0668 -1.4712 -1.4616
 5990SOL     OW29431   0.585   1.913   5.197 -0.3354  0.2404 -0.3432
 5990SOL    HW129432   0.675   1.910   5.229  0.3668  0.0036 -2.2839
 5990SOL    HW229433   0.555   1.850   5.262 -1.4259  1.4534  0.3252
 5991SOL     OW29434   4.065   0.024   6.342 -0.2652  0.2245 -0.1920
 5991SOL    HW129435   4.120   4.722   6.416 -1.4706  1.6015  1.2082
 5991SOL    HW229436   3.990   0.058   6.392  0.6866  0.5415  1.0242
 5992SOL     OW29437   2.781   1.985   9.241 -0.2870 -0.1339 -0.2110
 5992SOL    HW129438   2.849   1.927   9.276 -0.9949  0.5532  2.3063
 5992SOL    HW229439   2.772   1.944   9.155  0.8550 -1.3485  0.2436
 5993SOL     OW29440   0.186   4.182   7.264  0.4323 -0.1739 -0.2424
 5993SOL    HW129441   0.217   4.109   7.211  1.9868 -1.0593  1.8818
 5993SOL    HW229442   0.272   4.217   7.287 -0.2785  0.4051  1.5800
 5994SOL     OW29443   4.354   1.898   6.083  0.0289 -0.0770 -0.3872
 5994SOL    HW129444   4.371   1.805   6.064 -0.7176 -0.5270  1.1650
 5994SOL    HW229445   4.406   1.946   6.018 -0.6279  2.1670  0.7605
 5995SOL     OW29446   1.564   2.930   2.126  0.3019 -0.4770 -0.5487
 5995SOL    HW129447   1.587   2.975   2.045  0.7843  0.1442 -0.0656
 5995SOL    HW229448   1.646   2.888   2.153 -0.5347 -0.2498  2.3616
 5996SOL     OW29449   1.721   0.770  17.134  0.9176 -1.0427 -0.2159
 5996SOL    HW129450   1.715   0.864  17.150 -2.1411 -1.1064 -1.0738
 5996SOL    HW229451   1.630   0.742  17.129 -0.0831  2.3933 -1.6715
 5997SOL     OW29452   1.889   4.462   2.881  0.1100  0.3054  0.2925
 5997SOL    HW129453   1.969   4.480   2.832 -0.1289 -0.2677 -0.3095
 5997SOL    HW229454   1.851   4.549   2.889  0.0714  0.3019  0.1481
 5998SOL     OW29455   4.589   4.299   9.971  0.1828 -0.1865 -0.3248
 5998SOL    HW129456   4.585   4.357  10.047 -0.8453 -1.5761  0.6798
 5998SOL    HW229457   4.521   4.237   9.996  0.5152  0.1514  1.4103
 5999SOL     OW29458   3.534   3.426   2.123  0.2168 -0.7188  0.3116
 5999SOL    HW129459   3.466   3.370   2.086 -0.8045  0.8981 -0.2600
 5999SOL    HW229460   3.527   3.422   2.218  0.8790  1.7269  0.4677
 6000SOL     OW29461   0.406   2.980   2.747 -0.6932  0.0018 -0.1873
 6000SOL    HW129462   0.382   2.891   2.722  1.1618 -0.0947 -1.6344
 6000SOL    HW229463   0.362   2.976   2.832 -0.9121 -0.4749 -0.3215
 6001SOL     OW29464   2.868   1.917  13.809  0.1666  0.4327 -0.2671
 6001SOL    HW129465   2.887   1.888  13.720  1.9643  2.4924 -0.5312
 6001SOL    HW229466   2.828   1.836  13.843  0.0542  0.3968 -0.4841
 6002SOL     OW29467   3.001   3.813   3.942  0.0181  0.1008  0.1158
 6002SOL    HW129468   2.916   3.850   3.919 -0.0142 -0.4726 -0.6614
 6002SOL    HW229469   2.979   3.721   3.955  0.0064  0.2370  1.0745
 6003SOL     OW29470   0.465   3.051   9.158  0.0469  0.2387  0.0979
 6003SOL    HW129471   0.382   3.036   9.203 -0.6185 -0.3262 -1.3285
 6003SOL    HW229472   0.494   2.963   9.134  2.0514  0.5328  1.3974
 6004SOL     OW29473   0.142   1.758  15.495 -0.3838  0.0439  0.4029
 6004SOL    HW129474   0.157   1.712  15.577  0.7933  1.8907  1.2128
 6004SOL    HW229475   0.143   1.681  15.438  0.0615  1.8151 -2.0188
 6005SOL     OW29476   1.475   1.840   4.077  0.2400  0.2522  0.2933
 6005SOL    HW129477   1.462   1.876   3.989  1.1377  0.0657  0.0874
 6005SOL    HW229478   1.455   1.912   4.137  0.5626 -1.1452  2.0846
 6006SOL     OW29479   1.798   1.433  16.989 -0.1166  0.5499 -0.2830
 6006SOL    HW129480   1.771   1.487  16.915  0.6532 -0.7447 -1.5189
 6006SOL    HW229481   1.884   1.405  16.957  0.0406  0.8284 -0.0964
 6007SOL     OW29482   1.037   1.335   6.949 -0.0515  0.6356 -0.2536
 6007SOL    HW129483   1.111   1.339   7.009 -0.3472 -2.0966  0.2768
 6007SOL    HW229484   1.075   1.355   6.863 -0.5529  1.5950 -0.2500
 6008SOL     OW29485   1.411   1.460   2.597 -0.6050  0.4439  0.8524
 6008SOL    HW129486   1.481   1.506   2.552 -0.3348 -1.3675 -0.5812
 6008SOL    HW229487   1.452   1.387   2.644  0.3212  0.6228  0.3070
 6009SOL     OW29488   3.225   3.220   8.928 -0.1700 -0.0480  0.2779
 6009SOL    HW129489   3.140   3.223   8.884  1.2762 -1.1769 -2.5902
 6009SOL    HW229490   3.234   3.125   8.926 -0.3581 -0.0658  0.2435
 6010SOL     OW29491   0.176   3.041   7.741  0.3362  0.2103 -0.0997
 6010SOL    HW129492   0.158   3.090   7.822 -1.7631 -0.7548  0.0427
 6010SOL    HW229493   0.265   3.014   7.762  0.3857  0.6083  0.2013
 6011SOL     OW29494   1.428   0.101   4.280  0.6299 -0.2741  0.4088
 6011SOL    HW129495   1.486   0.026   4.291 -1.4721 -1.8866  0.4565
 6011SOL    HW229496   1.449   0.130   4.191  0.9325 -2.7259 -0.2986
 6012SOL     OW29497   1.490   1.762   4.782 -0.2817  0.0869  0.0643
 6012SOL    HW129498   1.499   1.823   4.855  0.2867  1.2017 -0.9481
 6012SOL    HW229499   1.568   1.780   4.730  0.5379 -0.0309  1.2314
 6013SOL     OW29500   0.721   3.634   6.319 -0.0081 -0.5856 -0.3187
 6013SOL    HW129501   0.686   3.547   6.342 -0.5167 -0.7819 -1.8651
 6013SOL    HW229502   0.783   3.633   6.392  1.2507 -1.4845 -1.4069
 6014SOL     OW29503   2.485   2.614   9.280  0.4176  0.2172  0.5235
 6014SOL    HW129504   2.545   2.623   9.205  0.7320 -2.5368  0.4470
 6014SOL    HW229505   2.413   2.669   9.250  1.5910  1.3535 -0.2007
 6015SOL     OW29506   3.278   1.493  12.898  0.0039  0.1298  0.3497
 6015SOL    HW129507   3.362   1.448  12.886 -0.8184 -1.4071  0.4343
 6015SOL    HW229508   3.217   1.451  12.837  1.0515 -1.6770  0.5402
 6016SOL     OW29509   2.382   4.268   8.004 -0.0749 -0.0292  0.2266
 6016SOL    HW129510   2.321   4.212   8.052 -0.3098 -0.7764 -0.9408
 6016SOL    HW229511   2.335   4.270   7.921  0.5829 -0.3852 -0.1530
 6017SOL     OW29512   3.898   0.145   2.304 -0.5174  0.0599  0.5853
 6017SOL    HW129513   3.835   0.142   2.232  0.7172 -1.5100 -0.4314
 6017SOL    HW229514   3.950   0.067   2.286 -2.2809 -0.7651 -0.8943
 6018SOL     OW29515   1.527   4.660   6.596 -0.5267 -0.6385 -0.1132
 6018SOL    HW129516   1.579   4.613   6.532  0.4018 -0.0219  0.1930
 6018SOL    HW229517   1.440   4.640   6.561  0.3924  1.0679 -3.3156
 6019SOL     OW29518   0.245   3.784   6.376  0.6162  0.0264  0.1413
 6019SOL    HW129519   0.206   3.718   6.318 -0.6584 -0.2131  1.2775
 6019SOL    HW229520   0.302   3.727   6.428 -0.5759  0.4358  1.8997
 6020SOL     OW29521   2.530   1.642  16.538 -0.2395 -0.6228  0.3426
 6020SOL    HW129522   2.517   1.717  16.480 -0.7966 -1.4706 -0.6386
 6020SOL    HW229523   2.446   1.643  16.584  0.6792  0.7064  1.9853
 6021SOL     OW29524   3.200   4.685  16.045 -0.4101 -0.9710 -0.0842
 6021SOL    HW129525   3.125   0.018  16.053 -0.3679 -1.3103  2.8631
 6021SOL    HW229526   3.251   4.721  16.119  0.7824 -0.4998 -1.1295
 6022SOL     OW29527   2.752   3.996   4.683 -0.5782  0.2594  0.1276
 6022SOL    HW129528   2.786   4.086   4.683 -0.4346  0.2048  0.6209
 6022SOL    HW229529   2.661   4.009   4.657 -0.2776  0.2571 -0.9306
 6023SOL     OW29530   2.797   0.158   8.073 -0.2704 -0.7876 -0.6511
 6023SOL    HW129531   2.719   0.187   8.121  0.1756  0.0139 -0.4182
 6023SOL    HW229532   2.857   0.227   8.102  0.0398 -0.9156 -0.9966
 6024SOL     OW29533   0.005   4.434   2.676  0.2501  1.0755 -0.1379
 6024SOL    HW129534   0.009   4.445   2.771 -0.2062 -1.4644  0.1651
 6024SOL    HW229535   0.005   4.340   2.659 -0.5243  0.8372  1.2559
 6025SOL     OW29536   0.793   0.541  16.866 -0.0741 -0.2001 -0.2514
 6025SOL    HW129537   0.864   0.501  16.817 -1.1417  0.5018 -2.3537
 6025SOL    HW229538   0.837   0.555  16.950  1.3372  2.4286 -1.4344
 6026SOL     OW29539   1.094   3.851   7.247  0.6437  0.4632 -0.5842
 6026SOL    HW129540   1.096   3.945   7.262  0.3363  0.3274  0.3332
 6026SOL    HW229541   1.143   3.820   7.324  0.5516  1.7367 -0.0182
 6027SOL     OW29542   1.101   0.397   3.202  0.9071 -0.0035 -0.7698
 6027SOL    HW129543   1.189   0.431   3.183  0.7473  0.1880 -1.1689
 6027SOL    HW229544   1.043   0.473   3.201  0.3876 -0.3924 -0.4095
 6028SOL     OW29545   2.910   4.468  17.409  0.3673  0.3317  0.5046
 6028SOL    HW129546   2.937   4.382  17.441  0.9569  0.4133  0.2334
 6028SOL    HW229547   2.924   4.462  17.315  0.6445 -3.0400  0.7352
 6029SOL     OW29548   0.135   2.439   4.789 -0.2685  0.2685  0.1777
 6029SOL    HW129549   0.173   2.525   4.809 -0.2941  0.6740 -1.5260
 6029SOL    HW229550   0.180   2.378   4.847 -0.2462  0.3527  0.2493
 6030SOL     OW29551   1.375   1.745   3.638 -0.7402 -0.3599 -0.6794
 6030SOL    HW129552   1.364   1.725   3.545 -2.1093  0.5781 -0.7257
 6030SOL    HW229553   1.362   1.659   3.677 -3.3542 -0.7467 -2.4062
 6031SOL     OW29554   0.711   2.730  10.570 -0.2612  0.2326  0.0365
 6031SOL    HW129555   0.705   2.743  10.665  1.2804  0.4270  0.1114
 6031SOL    HW229556   0.665   2.646  10.571  0.0132  0.0952  1.1553
 6032SOL     OW29557   1.400   4.399   3.990  0.1934  0.0396 -0.0581
 6032SOL    HW129558   1.325   4.342   3.976  0.3205 -0.0699 -0.2898
 6032SOL    HW229559   1.470   4.345   4.028  1.9556  0.2926 -2.9851
 6033SOL     OW29560   0.272   1.650   3.560 -0.0233  0.0477  0.0788
 6033SOL    HW129561   0.237   1.728   3.518 -1.4826  0.4130  1.9661
 6033SOL    HW229562   0.241   1.674   3.648 -2.0762 -1.7931 -0.1353
 6034SOL     OW29563   2.840   2.284   2.255  0.0566 -0.6857  0.0126
 6034SOL    HW129564   2.806   2.276   2.344 -0.7343 -3.7427 -0.5639
 6034SOL    HW229565   2.930   2.284   2.289 -0.3524 -0.3544  1.0843
 6035SOL     OW29566   3.084   3.818   3.252 -0.1968 -0.1511  0.0870
 6035SOL    HW129567   3.048   3.843   3.338 -1.3725 -1.4660 -0.0093
 6035SOL    HW229568   3.171   3.857   3.257 -0.0302 -0.5773  0.5624
 6036SOL     OW29569   4.492   1.630   2.790  0.2965 -0.0978 -0.4402
 6036SOL    HW129570   4.533   1.553   2.828 -0.5093 -0.4542 -0.2866
 6036SOL    HW229571   4.438   1.666   2.861 -0.9067  0.9927 -1.9025
 6037SOL     OW29572   1.538   0.602   4.689 -0.0520 -0.4310 -0.3695
 6037SOL    HW129573   1.452   0.601   4.732 -0.4292  0.4521 -1.1118
 6037SOL    HW229574   1.574   0.519   4.720  2.1171  0.6309 -0.0544
 6038SOL     OW29575   1.094   1.260  10.256  0.5531 -0.2625  0.4851
 6038SOL    HW129576   1.129   1.184  10.303 -1.3943 -2.3559 -1.4916
 6038SOL    HW229577   1.133   1.331  10.308 -0.6429  0.7871 -0.0725
 6039SOL     OW29578   3.048   1.370  12.734  0.4824  0.1228 -0.3954
 6039SOL    HW129579   3.128   1.336  12.695  0.5565 -1.7151  1.3531
 6039SOL    HW229580   2.982   1.311  12.697 -0.8701  0.4489  1.4832
 6040SOL     OW29581   0.154   0.954  15.145 -0.1169  0.3957  0.0712
 6040SOL    HW129582   0.112   1.021  15.198 -1.2602  0.5442 -1.0222
 6040SOL    HW229583   0.245   0.986  15.139 -0.5161  1.4464 -0.4278
 6041SOL     OW29584   2.702   2.566   2.161 -0.0177  0.6288  0.1035
 6041SOL    HW129585   2.660   2.549   2.245 -0.3085 -1.3100 -0.4259
 6041SOL    HW229586   2.787   2.525   2.175  0.0410  0.6784 -0.1008
 6042SOL     OW29587   3.042   1.680   2.716  0.0486 -0.0546 -0.8242
 6042SOL    HW129588   3.015   1.589   2.705  0.7118 -0.3552  0.1213
 6042SOL    HW229589   3.010   1.712   2.631  2.8763  1.3135 -1.3871
 6043SOL     OW29590   3.843   0.899   3.977  0.2504 -0.3758  0.6494
 6043SOL    HW129591   3.850   0.804   3.975  1.3437 -0.2616 -0.7614
 6043SOL    HW229592   3.781   0.909   3.905 -0.0121  1.5972  1.1298
 6044SOL     OW29593   4.033   2.014   5.674 -0.1758  0.7223 -0.5462
 6044SOL    HW129594   4.047   2.089   5.617 -1.6792  0.9018 -0.6544
 6044SOL    HW229595   3.939   1.999   5.677 -0.3395  2.2587  1.6189
 6045SOL     OW29596   2.393   3.832  17.681  0.2502  0.0538 -0.2256
 6045SOL    HW129597   2.363   3.783  17.605  0.1700 -0.2338 -0.0057
 6045SOL    HW229598   2.460   3.889  17.641 -1.9026  2.0995 -0.9403
 6046SOL     OW29599   2.407   4.304   8.824 -0.0730 -0.0688 -0.3359
 6046SOL    HW129600   2.442   4.369   8.763 -1.6226 -0.7974 -2.0004
 6046SOL    HW229601   2.371   4.235   8.768 -0.1178 -2.0667  2.1936
 6047SOL     OW29602   4.117   1.006   3.198  0.6166  0.0080 -0.7793
 6047SOL    HW129603   4.119   1.090   3.152  2.3999  1.2169  1.5414
 6047SOL    HW229604   4.032   0.967   3.176  0.3149  0.4078 -0.3229
 6048SOL     OW29605   1.978   1.964   2.406 -0.2542  0.1003 -0.0549
 6048SOL    HW129606   1.957   2.026   2.337  0.6870  0.8420  0.3205
 6048SOL    HW229607   2.016   1.896   2.351 -0.6909  1.0908 -1.5721
 6049SOL     OW29608   4.384   2.493   3.787  0.4361  0.9002 -0.1891
 6049SOL    HW129609   4.390   2.493   3.691  0.8863 -2.0025 -0.1348
 6049SOL    HW229610   4.414   2.403   3.800 -0.9961  0.2471 -1.4773
 6050SOL     OW29611   0.108   3.791  12.526  0.1391 -0.0257 -0.3927
 6050SOL    HW129612   0.137   3.712  12.572  0.4270  0.0382 -0.4636
 6050SOL    HW229613   0.101   3.855  12.597 -0.7992 -0.5750  0.0226
 6051SOL     OW29614   0.555   0.880   4.581  0.8050  0.3771  0.6604
 6051SOL    HW129615   0.625   0.942   4.560  0.3133  0.7881  0.2347
 6051SOL    HW229616   0.520   0.912   4.664 -2.2978 -2.2895  0.3784
 6052SOL     OW29617   3.036   3.893  11.611 -0.4137 -0.4509 -0.4902
 6052SOL    HW129618   3.129   3.897  11.590 -0.0352 -2.6029  0.7595
 6052SOL    HW229619   3.039   3.817  11.669 -1.3697 -1.9152 -2.3635
 6053SOL     OW29620   0.720   4.668   7.741 -0.4084  0.2779  0.3391
 6053SOL    HW129621   0.657   4.714   7.685  0.8479  0.2921 -1.0633
 6053SOL    HW229622   0.657   4.617   7.792 -2.0527  0.3436 -1.6185
 6054SOL     OW29623   2.742   0.911   7.506  0.0321  0.4335 -0.1505
 6054SOL    HW129624   2.755   0.835   7.448 -0.0363 -0.9074  1.6034
 6054SOL    HW229625   2.740   0.871   7.593  1.6118 -1.0747 -0.8016
 6055SOL     OW29626   2.798   2.467   8.870 -0.1001 -0.2848 -0.1291
 6055SOL    HW129627   2.846   2.479   8.788  0.3924 -1.9891 -0.0855
 6055SOL    HW229628   2.865   2.450   8.936  2.5814  2.8127 -2.0553
 6056SOL     OW29629   2.737   0.503   8.877  0.3944  0.4240  0.7638
 6056SOL    HW129630   2.831   0.518   8.892  0.1087  1.0087  1.9515
 6056SOL    HW229631   2.732   0.409   8.890  0.8926  0.3708  0.5681
 6057SOL     OW29632   1.403   1.710   8.181  0.0999 -0.4034  0.4621
 6057SOL    HW129633   1.439   1.797   8.164 -3.1379  0.2035 -3.1690
 6057SOL    HW229634   1.371   1.681   8.096  0.8733  0.8228 -0.2359
 6058SOL     OW29635   4.430   1.037  14.377 -0.6977  0.5100  0.0309
 6058SOL    HW129636   4.409   1.130  14.367  2.5846  1.0321 -2.0271
 6058SOL    HW229637   4.406   1.012  14.289 -1.4323  2.1339 -0.2390
 6059SOL     OW29638   0.931   1.196  16.423 -0.4623  0.7140 -0.0864
 6059SOL    HW129639   0.986   1.268  16.392 -0.7179  0.3914 -1.2908
 6059SOL    HW229640   0.852   1.215  16.374 -1.0832 -0.6415  0.3976
 6060SOL     OW29641   4.411   2.088   7.382 -0.0612 -0.0911  0.0919
 6060SOL    HW129642   4.427   2.163   7.438  2.4195 -1.2194  0.9000
 6060SOL    HW229643   4.388   2.026   7.451 -1.4173 -0.0306 -0.3070
 6061SOL     OW29644   2.023   4.405  11.125 -0.1871 -0.0876  0.5317
 6061SOL    HW129645   1.953   4.371  11.180 -1.5569 -1.3531 -1.9861
 6061SOL    HW229646   2.074   4.325  11.112  0.9478  1.0625 -2.1777
 6062SOL     OW29647   4.164   1.133   3.471  0.6980  0.2340 -0.0357
 6062SOL    HW129648   4.083   1.101   3.512  0.2951  2.2773  0.7850
 6062SOL    HW229649   4.158   1.102   3.381  0.4479 -1.9247  0.7102
 6063SOL     OW29650   0.165   1.782   0.323 -0.0547 -0.0633  0.7318
 6063SOL    HW129651   0.192   1.843   0.392  4.2497 -1.2040  0.0664
 6063SOL    HW229652   0.240   1.788   0.265 -0.2392 -0.2086  0.4789
 6064SOL     OW29653   0.951   2.945   8.672 -0.0866  0.3590  0.2283
 6064SOL    HW129654   0.941   2.911   8.761  2.4252 -0.5763  0.1727
 6064SOL    HW229655   0.899   2.885   8.620  1.4107  0.6420 -1.6006
 6065SOL     OW29656   0.367   2.329   3.961  0.7382 -0.3933  0.1040
 6065SOL    HW129657   0.427   2.254   3.968 -0.3500 -1.0935  1.8684
 6065SOL    HW229658   0.413   2.400   4.006  0.2499 -1.1482  1.7831
 6066SOL     OW29659   4.040   4.279   7.035  0.0449  0.2931  0.3773
 6066SOL    HW129660   4.032   4.327   6.953 -1.1930  0.3178  0.5100
 6066SOL    HW229661   4.115   4.221   7.022  0.6097  0.9914  0.4979
 6067SOL     OW29662   0.455   1.975   7.067  0.1120  0.1501 -0.0678
 6067SOL    HW129663   0.436   1.882   7.058  0.2808  0.1342 -0.2751
 6067SOL    HW229664   0.545   1.969   7.032  0.4162  0.1768  0.7191
 6068SOL     OW29665   4.410   3.809  15.085 -0.3660  0.2003  0.4821
 6068SOL    HW129666   4.344   3.758  15.131  0.7405 -1.2628  0.4563
 6068SOL    HW229667   4.457   3.862  15.149  1.2646  1.4098 -1.7259
 6069SOL     OW29668   4.427   1.524   8.755  0.0148  0.1513 -0.1806
 6069SOL    HW129669   4.465   1.510   8.842  0.2912 -0.0005 -0.3272
 6069SOL    HW229670   4.380   1.441   8.746  1.2393 -0.5612  0.0139
 6070SOL     OW29671   0.834   2.055  11.409  0.3431 -0.5994 -0.0421
 6070SOL    HW129672   0.884   2.035  11.488  1.3581 -0.0264 -0.5276
 6070SOL    HW229673   0.882   2.135  11.387 -0.1669 -0.6101 -1.1988
 6071SOL     OW29674   2.978   4.577   9.333 -0.8855  0.3724 -0.3740
 6071SOL    HW129675   2.905   4.541   9.283 -0.5383  1.2649 -1.5219
 6071SOL    HW229676   2.923   4.625   9.394  0.2963 -0.2492  1.2018
 6072SOL     OW29677   0.082   1.837   7.443 -0.3501 -0.4730 -0.7975
 6072SOL    HW129678   0.004   1.822   7.497 -0.2281  0.2424 -0.4308
 6072SOL    HW229679   0.155   1.848   7.504 -0.7466  0.2817 -0.4645
 6073SOL     OW29680   2.060   1.422   2.047  0.1658 -0.1617  0.1865
 6073SOL    HW129681   2.112   1.453   2.122  0.4751 -3.2268  1.2395
 6073SOL    HW229682   1.981   1.475   2.050  0.8816  0.9478 -0.3463
 6074SOL     OW29683   2.360   4.258  11.761 -0.0101  0.6918  0.3164
 6074SOL    HW129684   2.367   4.242  11.667 -0.7845 -0.1846  0.4130
 6074SOL    HW229685   2.288   4.322  11.760 -2.1037 -1.6359  1.5140
 6075SOL     OW29686   3.919   3.214   8.917 -0.3901 -0.4058  0.0854
 6075SOL    HW129687   3.935   3.307   8.899  1.2331 -1.1601 -2.4881
 6075SOL    HW229688   3.825   3.206   8.904 -0.7050  0.3696  1.9630
 6076SOL     OW29689   0.384   3.347   7.071  0.0527  0.4310  0.1339
 6076SOL    HW129690   0.371   3.304   7.156  0.0710  0.5283  0.1863
 6076SOL    HW229691   0.372   3.266   7.022  0.8469  0.0893  0.4971
 6077SOL     OW29692   0.855   2.976   2.945 -0.6392 -0.2170  0.1489
 6077SOL    HW129693   0.920   2.944   2.882 -0.5022 -0.5044  0.4430
 6077SOL    HW229694   0.880   2.913   3.012 -0.0466  1.5716  1.6091
 6078SOL     OW29695   0.098   1.205  16.902  0.3223 -0.2437  0.5639
 6078SOL    HW129696   0.047   1.262  16.845 -1.4265 -1.2456  1.1269
 6078SOL    HW229697   0.161   1.170  16.838  0.0733  0.5775 -0.1339
 6079SOL     OW29698   4.725   1.887   2.009 -0.4840 -0.2123 -0.1923
 6079SOL    HW129699   4.680   1.921   2.087 -0.9538 -0.8481 -0.1878
 6079SOL    HW229700   0.069   1.953   2.004  0.1706 -0.8707  0.3261
 6080SOL     OW29701   1.357   1.832  15.838  0.1229  0.1883  0.7182
 6080SOL    HW129702   1.394   1.919  15.822 -1.9644  1.1549  1.1244
 6080SOL    HW229703   1.391   1.775  15.769  1.8520  0.7628  1.0967
 6081SOL     OW29704   2.155   1.624   6.563 -0.4018  0.7936  0.4737
 6081SOL    HW129705   2.231   1.601   6.509  0.0908  3.5283  0.0076
 6081SOL    HW229706   2.090   1.640   6.494 -0.9412 -1.3713  0.4782
 6082SOL     OW29707   3.929   2.400   2.733  0.2958 -0.3811 -0.3241
 6082SOL    HW129708   3.895   2.326   2.683 -0.7614 -0.6967  0.8563
 6082SOL    HW229709   3.896   2.471   2.677  1.7407  1.0210  0.6148
 6083SOL     OW29710   0.538   4.690   3.100 -0.3000 -0.5550  0.0517
 6083SOL    HW129711   0.455   4.721   3.064  0.2946  0.4743 -0.4371
 6083SOL    HW229712   0.559   4.624   3.033 -1.3527  1.1125 -1.9080
 6084SOL     OW29713   2.370   3.039  14.073 -0.1605  0.4304  0.3185
 6084SOL    HW129714   2.300   3.101  14.092 -1.1312 -0.2955 -0.9259
 6084SOL    HW229715   2.351   3.003  13.987  0.3490 -1.5499  1.0278
 6085SOL     OW29716   2.843   2.226   0.452 -0.0049 -0.1393  0.1290
 6085SOL    HW129717   2.773   2.237   0.517  0.5831  0.1512  0.7039
 6085SOL    HW229718   2.912   2.258   0.510 -1.2241  1.4365  0.7106
 6086SOL     OW29719   3.535   1.723   3.772 -0.1759 -0.3889 -0.1450
 6086SOL    HW129720   3.534   1.655   3.839  1.8877  1.7834  2.0761
 6086SOL    HW229721   3.443   1.749   3.763 -0.2927  0.2284  2.8590
 6087SOL     OW29722   0.105   1.364   5.628  0.1337 -0.2202 -0.0739
 6087SOL    HW129723   0.082   1.446   5.584  0.7073  0.6610  1.2806
 6087SOL    HW229724   0.152   1.320   5.557 -3.0971 -0.8909 -1.7977
 6088SOL     OW29725   2.590   3.330   9.059 -0.4489 -0.4960  0.0682
 6088SOL    HW129726   2.500   3.355   9.076 -0.3681  1.6304 -2.6815
 6088SOL    HW229727   2.612   3.306   9.149 -2.1538 -0.7148  0.4165
 6089SOL     OW29728   0.578   3.566   6.760  0.2716 -0.4583  0.2861
 6089SOL    HW129729   0.548   3.477   6.741  2.5145 -0.6205 -2.4535
 6089SOL    HW229730   0.672   3.555   6.775  0.6334 -1.4244 -2.7875
 6090SOL     OW29731   1.934   3.361   4.220 -0.1777  0.1932  0.1807
 6090SOL    HW129732   1.929   3.365   4.125 -1.5798  0.5031  0.2666
 6090SOL    HW229733   1.854   3.315   4.245 -0.4338  1.4728  1.7376
 6091SOL     OW29734   3.380   2.544   8.204 -0.6449 -0.0722  0.4927
 6091SOL    HW129735   3.474   2.529   8.207 -0.0603  3.1273 -1.5150
 6091SOL    HW229736   3.365   2.598   8.126 -0.0293  0.3503  0.6678
 6092SOL     OW29737   4.476   0.693   5.005 -0.5206  0.0807 -0.1229
 6092SOL    HW129738   4.414   0.765   4.992 -1.2697 -0.6158 -0.4324
 6092SOL    HW229739   4.535   0.718   4.933  1.4594  2.0317  2.1860
 6093SOL     OW29740   2.116   4.697   2.270  0.0797 -0.4281  0.6214
 6093SOL    HW129741   2.185   4.635   2.244  0.7384  1.8057 -2.9643
 6093SOL    HW229742   2.085   4.657   2.350  0.3802 -3.9560 -1.0223
 6094SOL     OW29743   4.085   1.112  10.789 -0.3246 -0.0304 -0.4771
 6094SOL    HW129744   4.081   1.088  10.882 -0.5013 -1.0046 -0.7355
 6094SOL    HW229745   4.089   1.207  10.803  2.1691 -0.2600  0.3069
 6095SOL     OW29746   3.920   4.659   8.240 -0.1103 -0.0949  0.1333
 6095SOL    HW129747   3.911   4.690   8.150 -0.7138 -1.8311 -0.4129
 6095SOL    HW229748   4.009   4.671   8.275 -0.1556  0.9450 -0.1280
 6096SOL     OW29749   0.839   2.219   0.144  0.0622 -0.8135  0.6902
 6096SOL    HW129750   0.774   2.253   0.082 -2.0510  0.1646  3.4067
 6096SOL    HW229751   0.871   2.136   0.107 -1.8021 -0.4828 -1.6585
 6097SOL     OW29752   4.666   2.588   1.398 -0.4215  0.0192  0.3061
 6097SOL    HW129753   4.660   2.554   1.309 -1.6023  1.2036 -0.0675
 6097SOL    HW229754   4.581   2.631   1.408  0.4334  1.6878  0.3978
 6098SOL     OW29755   1.746   2.319   1.609  0.1719  0.4739 -0.8016
 6098SOL    HW129756   1.679   2.382   1.636 -1.2577 -1.5112  0.3185
 6098SOL    HW229757   1.782   2.377   1.542 -2.6663  0.2031 -2.5696
 6099SOL     OW29758   2.727   4.656  16.261  0.4535 -0.0365 -0.6608
 6099SOL    HW129759   2.670   4.718  16.308 -0.2515 -1.4936  0.3887
 6099SOL    HW229760   2.769   4.718  16.201  0.2896  1.1711  0.4743
 6100SOL     OW29761   0.155   0.934   5.231  0.4329  0.3757  0.4599
 6100SOL    HW129762   0.236   0.898   5.193 -0.7419  0.1874 -1.8848
 6100SOL    HW229763   0.096   0.859   5.244 -0.3851  0.4457 -2.8458
 6101SOL     OW29764   0.095   2.209   1.717 -0.7526 -0.0596  0.0094
 6101SOL    HW129765   0.097   2.281   1.780  3.2592  0.6040 -0.8562
 6101SOL    HW229766   0.147   2.246   1.645 -1.5207 -1.3650 -1.2175
 6102SOL     OW29767   1.765   2.795  17.551  0.2098 -0.5371 -0.3889
 6102SOL    HW129768   1.816   2.714  17.553 -0.8540 -1.1969  0.3926
 6102SOL    HW229769   1.751   2.802  17.645 -0.3434  0.9978 -0.5849
 6103SOL     OW29770   4.006   1.841   8.928  0.3762 -0.3401  0.3032
 6103SOL    HW129771   4.007   1.883   8.842 -2.1601  0.7654  0.7948
 6103SOL    HW229772   3.945   1.885   8.987 -0.1199  0.0044 -0.4678
 6104SOL     OW29773   1.308   4.487   4.221  0.2426 -0.1442 -0.1074
 6104SOL    HW129774   1.363   4.480   4.143  0.2047  0.4088 -0.1813
 6104SOL    HW229775   1.228   4.455   4.180 -0.3990  0.3078  0.8039
 6105SOL     OW29776   2.678   0.307   2.194  0.0931 -0.0250  0.2439
 6105SOL    HW129777   2.732   0.369   2.244  1.1613  0.6984 -1.8185
 6105SOL    HW229778   2.599   0.353   2.167 -0.3317 -1.5568 -1.1223
 6106SOL     OW29779   2.278   1.006   1.720  0.3098 -0.3312 -0.1321
 6106SOL    HW129780   2.294   1.100   1.717 -0.9852 -0.1245 -0.4269
 6106SOL    HW229781   2.185   0.999   1.740  0.1863  1.5132 -0.1223
 6107SOL     OW29782   4.312   3.631   6.030 -0.3082 -0.2845  0.0106
 6107SOL    HW129783   4.352   3.696   6.088 -0.6328 -3.3341  3.6448
 6107SOL    HW229784   4.281   3.686   5.959  2.5295 -0.4531 -1.3457
 6108SOL     OW29785   1.250   2.664  13.585 -0.2866 -0.3400 -0.6796
 6108SOL    HW129786   1.173   2.709  13.618  0.6955 -0.8757  2.3998
 6108SOL    HW229787   1.321   2.710  13.629 -0.5688 -0.3339 -0.2380
 6109SOL     OW29788   0.110   1.269   0.697  0.2090 -0.5040  0.4358
 6109SOL    HW129789   0.034   1.234   0.744  0.0490  3.0912  2.8211
 6109SOL    HW229790   0.078   1.265   0.607  1.6188  0.6432 -0.1113
 6110SOL     OW29791   3.687   4.043   1.861  0.1923  0.2149  0.5631
 6110SOL    HW129792   3.755   4.109   1.851  0.0976 -0.0448 -1.7509
 6110SOL    HW229793   3.724   3.959   1.832 -0.9971 -0.8096  2.0236
 6111SOL     OW29794   1.508   2.754   6.308 -0.3663  0.1876  0.1083
 6111SOL    HW129795   1.495   2.714   6.394 -1.2870 -1.8343 -0.9550
 6111SOL    HW229796   1.419   2.749   6.272 -0.9789  1.4347  1.4572
 6112SOL     OW29797   0.100   4.235   1.227  0.1876  0.0845 -0.9308
 6112SOL    HW129798   0.169   4.196   1.281 -0.8182 -0.4691 -0.0392
 6112SOL    HW229799   0.031   4.220   1.293  1.0978 -1.1913 -0.2784
 6113SOL     OW29800   0.104   1.540   2.329  0.0782 -0.5138  0.8221
 6113SOL    HW129801   0.054   1.467   2.293  0.6173 -0.3175 -0.3371
 6113SOL    HW229802   0.118   1.586   2.246 -0.9604  0.0573  0.9614
 6114SOL     OW29803   0.591   3.373   5.836 -0.1142  0.2481  0.4882
 6114SOL    HW129804   0.531   3.423   5.891  0.4081  2.5959 -1.0511
 6114SOL    HW229805   0.655   3.443   5.823 -0.6436  0.8489  1.1112
 6115SOL     OW29806   4.575   1.439   8.990 -0.1931  0.7939  0.3526
 6115SOL    HW129807   4.500   1.417   9.045  0.7093 -0.0280  1.2352
 6115SOL    HW229808   4.621   1.356   8.976 -1.5635  0.0596  0.1700
 6116SOL     OW29809   2.164   4.679   4.280 -0.3211  0.1560  0.0287
 6116SOL    HW129810   2.162   4.672   4.184 -0.7648 -0.3270  0.0751
 6116SOL    HW229811   2.136   0.043   4.301  0.2409  0.6118 -1.1418
 6117SOL     OW29812   2.399   4.413   3.409  0.5799 -0.6927  0.3958
 6117SOL    HW129813   2.459   4.443   3.341 -2.8484  1.0258 -1.8516
 6117SOL    HW229814   2.440   4.460   3.481  0.4645 -0.8550  0.5667
 6118SOL     OW29815   2.189   0.955   5.320 -0.1948 -0.0802  0.2667
 6118SOL    HW129816   2.094   0.951   5.331 -0.0676 -0.5701  1.2406
 6118SOL    HW229817   2.207   1.037   5.366  0.3334 -0.4927  0.7923
 6119SOL     OW29818   3.113   4.396   3.199 -0.1309  0.2740  0.2008
 6119SOL    HW129819   3.093   4.316   3.152 -0.1852  1.7919 -2.3520
 6119SOL    HW229820   3.110   4.463   3.130  1.3166 -0.5224 -0.6215
 6120SOL     OW29821   4.619   3.904   1.990  0.5958  0.2255 -0.2741
 6120SOL    HW129822   4.534   3.861   1.986  1.7493 -1.9704 -1.4466
 6120SOL    HW229823   4.659   3.861   2.065 -0.0598 -0.5204 -0.3517
 6121SOL     OW29824   0.336   3.295   3.877 -0.4354  0.2760 -0.5423
 6121SOL    HW129825   0.278   3.311   3.803  3.1245 -1.3300 -3.6968
 6121SOL    HW229826   0.392   3.372   3.880  0.8274 -0.6015 -1.4920
 6122SOL     OW29827   1.092   0.211   4.460 -0.1322 -0.0260 -0.2045
 6122SOL    HW129828   0.998   0.227   4.464 -0.1051 -0.2170  1.1951
 6122SOL    HW229829   1.107   0.187   4.369  0.9963  0.2492 -0.0897
 6123SOL     OW29830   1.460   0.364  13.639 -0.0936  0.0809  0.5432
 6123SOL    HW129831   1.551   0.394  13.633  0.4747 -1.5702  0.8679
 6123SOL    HW229832   1.471   0.278  13.680 -0.7811  0.2605  1.0953
 6124SOL     OW29833   0.099   2.434  11.876 -0.9242 -0.0257  1.1214
 6124SOL    HW129834   0.030   2.426  11.810  0.2225 -0.7084 -0.0049
 6124SOL    HW229835   0.083   2.525  11.901 -0.2921 -0.1157  1.8461
 6125SOL     OW29836   3.351   3.990   8.847  0.5818 -0.5767  0.3779
 6125SOL    HW129837   3.303   4.071   8.862 -1.0379 -1.4190 -0.2392
 6125SOL    HW229838   3.272   3.936   8.852  1.8566 -2.4528  0.5482
 6126SOL     OW29839   3.028   0.702   8.609  0.3419 -0.6433 -0.4760
 6126SOL    HW129840   3.027   0.615   8.649  0.7376 -1.7989 -2.9274
 6126SOL    HW229841   3.083   0.751   8.670  0.7814 -0.2742 -1.1590
 6127SOL     OW29842   2.646   0.045  17.476 -0.4734  0.2606  0.3860
 6127SOL    HW129843   2.565   0.015  17.435  0.5376 -1.6248 -0.2032
 6127SOL    HW229844   2.699   0.053  17.397 -0.9205  1.1639  0.1761
 6128SOL     OW29845   0.644   3.314   2.535 -0.3145 -0.3810  0.1372
 6128SOL    HW129846   0.682   3.397   2.506  2.5981 -1.8275 -0.0888
 6128SOL    HW229847   0.648   3.332   2.629 -2.5697 -0.1675  0.2161
 6129SOL     OW29848   0.841   0.842  17.368  0.1709 -0.3805 -0.7386
 6129SOL    HW129849   0.861   0.900  17.442  0.8468 -2.6510  0.8377
 6129SOL    HW229850   0.893   0.764  17.387  0.0233 -0.1964  0.4044
 6130SOL     OW29851   2.032   4.620   0.907  0.2911  0.1429  0.0252
 6130SOL    HW129852   2.088   4.644   0.833  0.0838 -1.0229 -0.5009
 6130SOL    HW229853   1.940   4.637   0.885  0.0754 -0.4462  0.4845
 6131SOL     OW29854   2.444   0.168   8.855 -0.6188  0.2749 -0.1077
 6131SOL    HW129855   2.516   0.217   8.815 -0.0637  0.4435  1.1245
 6131SOL    HW229856   2.484   0.112   8.921 -0.1597 -0.7771 -1.2613
 6132SOL     OW29857   4.060   3.958   3.878 -0.0043  0.5994 -0.0476
 6132SOL    HW129858   4.133   3.927   3.824  1.2637  2.6596  0.4675
 6132SOL    HW229859   3.990   3.894   3.865 -0.5016  1.6549 -2.5329
 6133SOL     OW29860   1.060   1.065   8.791 -0.2389  0.2253 -0.0109
 6133SOL    HW129861   1.034   0.973   8.780 -0.2203  0.0476  1.3757
 6133SOL    HW229862   0.990   1.093   8.850  1.2951  1.0399  1.4186
 6134SOL     OW29863   0.308   2.114   4.289  0.1968  0.1895 -0.2007
 6134SOL    HW129864   0.332   2.021   4.285  2.7910  0.8693 -0.3537
 6134SOL    HW229865   0.317   2.127   4.384  1.5041 -0.6930 -0.2059
 6135SOL     OW29866   4.616   2.404   5.107 -0.2905  0.1786 -0.0482
 6135SOL    HW129867   4.652   2.349   5.177  1.3607  3.1538  1.4280
 6135SOL    HW229868   4.662   2.485   5.130  0.2942  0.1655 -1.1462
 6136SOL     OW29869   2.424   0.153   3.368 -0.7620  0.1651 -0.2431
 6136SOL    HW129870   2.470   0.235   3.351  3.5973 -2.1073  0.5149
 6136SOL    HW229871   2.435   0.110   3.283 -1.1048 -0.2337 -0.0864
 6137SOL     OW29872   4.089   3.159  17.452 -0.2796  0.0366 -0.3640
 6137SOL    HW129873   4.054   3.153  17.363 -0.4863 -0.5207 -0.2465
 6137SOL    HW229874   4.090   3.066  17.476  0.7876  0.0417 -0.4144
 6138SOL     OW29875   0.364   3.258   2.721  0.2230  0.4588  0.6145
 6138SOL    HW129876   0.306   3.265   2.797 -0.0669 -0.3693  0.4689
 6138SOL    HW229877   0.379   3.163   2.719  1.4379  0.7071 -1.8945
 6139SOL     OW29878   3.108   3.838   8.790 -0.2486  0.3390  0.2594
 6139SOL    HW129879   3.103   3.794   8.705  2.5659  0.7586 -0.1139
 6139SOL    HW229880   3.054   3.909   8.756 -1.3245 -0.2259  0.7780
 6140SOL     OW29881   3.012   4.574  11.498  0.2691 -0.3731 -0.1547
 6140SOL    HW129882   2.935   4.622  11.470 -0.4730 -1.3131  0.2851
 6140SOL    HW229883   3.048   4.542  11.415 -2.3273 -0.8278 -1.0848
 6141SOL     OW29884   0.646   2.896   4.055 -0.0847  0.5585  0.1641
 6141SOL    HW129885   0.574   2.887   4.118 -0.6134  0.4041 -0.4636
 6141SOL    HW229886   0.645   2.988   4.029 -0.0624  0.5999  0.3100
 6142SOL     OW29887   3.603   4.286   8.614  0.0190  0.3351  0.1803
 6142SOL    HW129888   3.576   4.365   8.568 -1.2940  2.0360  3.9669
 6142SOL    HW229889   3.691   4.275   8.579  0.0847  0.1242  0.4100
 6143SOL     OW29890   3.314   3.866   5.708 -0.2706  0.2399 -0.8105
 6143SOL    HW129891   3.306   3.947   5.759  2.0653 -0.0759  0.0754
 6143SOL    HW229892   3.395   3.868   5.656  0.4843  1.8447  0.4291
 6144SOL     OW29893   3.732   2.912   7.691 -0.6882 -0.6204 -0.4076
 6144SOL    HW129894   3.816   2.939   7.729 -0.2218 -2.0151 -0.4632
 6144SOL    HW229895   3.731   2.819   7.714  1.5196 -0.2115  1.3311
 6145SOL     OW29896   1.160   2.836   7.216  0.3734  0.7912 -0.5629
 6145SOL    HW129897   1.076   2.838   7.171  0.0663  0.5127 -0.0105
 6145SOL    HW229898   1.144   2.892   7.292  0.3822  1.0271 -0.7382
 6146SOL     OW29899   2.543   2.193  15.108 -0.0768 -0.7428 -0.6655
 6146SOL    HW129900   2.594   2.128  15.061 -1.5142 -0.7162 -2.2738
 6146SOL    HW229901   2.554   2.161  15.197 -0.2838  2.0463  0.3856
 6147SOL     OW29902   1.610   2.638  14.315  0.0337 -0.1670 -0.6972
 6147SOL    HW129903   1.576   2.549  14.312 -2.3116  0.6776  0.9997
 6147SOL    HW229904   1.532   2.680  14.351  1.3250  1.6563 -0.0213
 6148SOL     OW29905   3.244   2.145   4.082 -0.0957 -0.7430  0.2495
 6148SOL    HW129906   3.199   2.062   4.093  2.6563 -2.1699  0.8919
 6148SOL    HW229907   3.290   2.148   4.166 -0.8702  3.6311  0.5357
 6149SOL     OW29908   1.263   3.410  10.169  0.8270 -0.0918 -0.3822
 6149SOL    HW129909   1.315   3.331  10.154  0.1983 -0.8317  1.3771
 6149SOL    HW229910   1.203   3.397  10.095  0.8445 -0.1519 -0.3856
 6150SOL     OW29911   1.757   1.388   2.870  0.5885 -0.2685 -0.3059
 6150SOL    HW129912   1.749   1.411   2.777  2.0888 -4.7988 -1.5921
 6150SOL    HW229913   1.789   1.472   2.902 -0.4641  0.1124 -0.2540
 6151SOL     OW29914   4.154   4.677  11.799 -0.5176  0.4081  0.1036
 6151SOL    HW129915   4.069   4.639  11.778  1.7919 -3.1074 -2.6446
 6151SOL    HW229916   4.178   4.702  11.710  2.0552  2.5921  1.3971
 6152SOL     OW29917   4.263   2.911   3.943  0.0453  0.4930 -0.1168
 6152SOL    HW129918   4.174   2.945   3.954 -0.1503 -0.1802  0.3837
 6152SOL    HW229919   4.268   2.869   4.029 -4.0755  0.1381 -0.0761
 6153SOL     OW29920   0.166   1.715   3.148  0.3950 -0.2987  0.4469
 6153SOL    HW129921   0.196   1.707   3.057 -0.1864  2.9372  0.0047
 6153SOL    HW229922   0.183   1.625   3.178 -1.3292 -0.6445  0.3792
 6154SOL     OW29923   2.603   2.849   9.982 -0.6910  0.1813 -0.5072
 6154SOL    HW129924   2.645   2.901  10.050 -0.4304 -0.5441 -0.1173
 6154SOL    HW229925   2.672   2.783   9.982  2.2979  3.3644  0.5135
 6155SOL     OW29926   3.471   1.271   9.051 -0.8211  0.3537 -0.0545
 6155SOL    HW129927   3.500   1.360   9.071  1.4063 -0.5360  0.6534
 6155SOL    HW229928   3.407   1.259   9.122 -0.9700 -2.3280 -0.6529
 6156SOL     OW29929   2.621   2.287   1.392 -0.1338 -0.2058 -0.4757
 6156SOL    HW129930   2.575   2.352   1.338  1.2912  0.9076 -0.3300
 6156SOL    HW229931   2.626   2.214   1.332  2.9108  0.7781 -1.4005
 6157SOL     OW29932   3.982   1.268   3.715 -0.3964  0.1234  0.5855
 6157SOL    HW129933   4.010   1.219   3.793  0.6115 -0.1159  0.0768
 6157SOL    HW229934   3.942   1.198   3.664  3.6049 -1.1163 -0.8273
 6158SOL     OW29935   4.405   1.407   8.402  0.9049 -0.3826 -0.3369
 6158SOL    HW129936   4.395   1.431   8.494 -1.6422 -1.0234 -0.4409
 6158SOL    HW229937   4.486   1.447   8.371  0.4112  1.7252  1.1336
 6159SOL     OW29938   2.907   3.008   4.113  0.2153  0.0511  0.0305
 6159SOL    HW129939   2.970   3.018   4.042  0.3124  1.4106  0.2963
 6159SOL    HW229940   2.948   2.937   4.161  3.4816  1.1347 -1.1525
 6160SOL     OW29941   3.225   1.123   8.714  0.0470 -0.4026  0.6508
 6160SOL    HW129942   3.172   1.182   8.769  1.6260  1.8618 -0.2387
 6160SOL    HW229943   3.312   1.154   8.740  0.1178  0.0845 -0.1574
 6161SOL     OW29944   4.247   3.953   2.308  0.4453 -0.0119 -0.3037
 6161SOL    HW129945   4.339   3.963   2.284  0.9257 -0.0164  1.5000
 6161SOL    HW229946   4.252   3.885   2.375 -2.7427  0.2233  0.1681
 6162SOL     OW29947   3.842   2.652   7.403  0.0157  0.1218 -0.3356
 6162SOL    HW129948   3.850   2.613   7.316 -1.7107 -0.0973 -0.4003
 6162SOL    HW229949   3.933   2.652   7.432 -0.1142  2.1559  0.0829
 6163SOL     OW29950   0.069   0.223   3.301  0.2657 -0.5740  0.3890
 6163SOL    HW129951   0.110   0.309   3.314  2.7181 -1.2687 -2.6694
 6163SOL    HW229952   4.707   0.250   3.275  0.6425  1.2762  1.0251
 6164SOL     OW29953   1.565   2.336   2.761  0.4215 -0.6166 -0.3323
 6164SOL    HW129954   1.587   2.388   2.684  2.7874  1.0426  1.4894
 6164SOL    HW229955   1.579   2.247   2.728  2.0840 -1.4195  2.5005
 6165SOL     OW29956   0.825   4.106  14.979 -0.1722  0.7384  0.1897
 6165SOL    HW129957   0.748   4.146  14.939 -0.6521 -0.1199  0.2444
 6165SOL    HW229958   0.870   4.072  14.902 -1.8202  0.1667 -0.5094
 6166SOL     OW29959   2.383   2.713   9.573 -0.1761  0.4445 -0.3051
 6166SOL    HW129960   2.329   2.672   9.505  1.1198 -0.6792 -0.6425
 6166SOL    HW229961   2.466   2.684   9.535  1.1169  0.8042  2.2446
 6167SOL     OW29962   1.716   4.489   7.472  0.8497 -0.5037 -0.2447
 6167SOL    HW129963   1.671   4.573   7.477  1.5747 -0.1140 -0.3865
 6167SOL    HW229964   1.783   4.505   7.406 -0.2163  0.1341 -1.1773
 6168SOL     OW29965   4.175   0.870   4.208 -0.1067 -0.3020 -0.5339
 6168SOL    HW129966   4.133   0.807   4.266 -0.7418  1.3837  0.8335
 6168SOL    HW229967   4.265   0.840   4.205  0.0030 -0.0102 -0.1463
 6169SOL     OW29968   3.809   1.479   8.643 -0.0536 -0.1483 -0.6488
 6169SOL    HW129969   3.859   1.411   8.690  2.5995  2.8753  0.9028
 6169SOL    HW229970   3.754   1.422   8.590  0.1033 -0.4582 -0.4784
 6170SOL     OW29971   1.642   3.960  16.429 -0.4349  0.3730  0.0821
 6170SOL    HW129972   1.629   3.942  16.336 -0.8540  0.1673  0.1833
 6170SOL    HW229973   1.708   3.896  16.454 -2.0931 -1.4749 -0.3540
 6171SOL     OW29974   0.345   1.485   1.931  0.6038 -0.0797 -0.8464
 6171SOL    HW129975   0.372   1.431   2.005  0.3882  0.5878 -0.2843
 6171SOL    HW229976   0.292   1.554   1.970 -1.4658 -1.9883 -0.2553
 6172SOL     OW29977   1.685   1.224  17.406 -0.2218 -0.2221  0.2498
 6172SOL    HW129978   1.724   1.295  17.354  1.1601  1.0187  3.0139
 6172SOL    HW229979   1.604   1.267  17.434 -0.0624  0.2848 -0.0590
 6173SOL     OW29980   0.274   0.560   6.936  0.9087 -0.5410 -0.2396
 6173SOL    HW129981   0.271   0.634   6.997  0.5868  0.0568 -0.9870
 6173SOL    HW229982   0.244   0.497   7.002  0.5970 -1.6174 -1.4081
 6174SOL     OW29983   0.808   0.394  12.485 -0.2525  0.5399 -0.7037
 6174SOL    HW129984   0.903   0.402  12.495 -0.4270 -1.5694  2.5307
 6174SOL    HW229985   0.801   0.446  12.405 -0.7076  0.1787 -0.8974
 6175SOL     OW29986   3.901   2.317   6.665 -0.2300 -0.3300 -0.0227
 6175SOL    HW129987   3.860   2.315   6.752 -2.9696  1.5449 -1.2469
 6175SOL    HW229988   3.963   2.245   6.674  0.6712  0.6410  1.4636
 6176SOL     OW29989   0.213   4.613   1.126  0.3296 -0.1546 -0.2175
 6176SOL    HW129990   0.292   4.561   1.140 -0.2215 -0.4734  1.6970
 6176SOL    HW229991   0.203   4.639   1.218 -3.2324  0.0934 -0.6664
 6177SOL     OW29992   0.880   3.810   8.068  0.2547  0.0148 -0.3056
 6177SOL    HW129993   0.888   3.865   8.146 -0.9206 -2.9193  1.9145
 6177SOL    HW229994   0.958   3.755   8.073  1.3779  1.4764 -1.7906
 6178SOL     OW29995   3.342   1.554  16.246  0.0939  0.6945  0.4568
 6178SOL    HW129996   3.423   1.546  16.196 -1.0210 -3.6694 -0.5919
 6178SOL    HW229997   3.272   1.513  16.195 -1.5531  4.2619 -0.1621
 6179SOL     OW29998   1.079   2.620  17.575  0.3665 -0.1368 -0.2067
 6179SOL    HW129999   1.138   2.568  17.520  0.6190  0.5257 -0.5702
 6179SOL    HW230000   1.027   2.662  17.506  0.2863 -2.0686 -1.3181
 6180SOL     OW30001   2.251   0.150   2.978 -0.0495 -0.4116 -0.0176
 6180SOL    HW130002   2.298   0.218   2.930  1.7316 -1.8856 -0.3280
 6180SOL    HW230003   2.161   0.173   2.952 -0.3810 -0.6253  0.9335
 6181SOL     OW30004   2.018   0.070   4.508  0.2075  0.5320 -0.7128
 6181SOL    HW130005   1.968   0.149   4.529 -1.4818 -0.4966 -0.8428
 6181SOL    HW230006   2.058   0.050   4.593 -1.1445  1.7058  0.2191
 6182SOL     OW30007   1.556   1.832   5.363 -0.2920  0.5514 -0.3391
 6182SOL    HW130008   1.618   1.898   5.331  0.3066 -1.1196 -2.6220
 6182SOL    HW230009   1.546   1.769   5.292 -0.9904 -1.1020  1.2315
 6183SOL     OW30010   0.727   2.499   5.978 -0.2895 -0.3258 -0.3947
 6183SOL    HW130011   0.676   2.498   5.897 -1.3605 -0.3210  0.2812
 6183SOL    HW230012   0.701   2.587   6.003  0.3968  0.1484 -1.3623
 6184SOL     OW30013   2.170   1.567  12.970 -0.1164 -0.4327  0.3846
 6184SOL    HW130014   2.194   1.474  12.972  2.1182  0.1680  1.2190
 6184SOL    HW230015   2.206   1.605  13.049 -0.2738  0.7375 -0.1034
 6185SOL     OW30016   1.809   4.111  14.443 -0.1513 -0.1446  0.1907
 6185SOL    HW130017   1.828   4.025  14.404 -0.4364 -0.6021  1.0513
 6185SOL    HW230018   1.893   4.140  14.479 -0.6639  1.3661  0.1628
 6186SOL     OW30019   3.230   3.090   8.618 -0.0296  0.1337 -0.3380
 6186SOL    HW130020   3.233   3.054   8.707 -2.4647  0.9109  0.0360
 6186SOL    HW230021   3.316   3.077   8.577 -0.2805 -0.1502 -0.7799
 6187SOL     OW30022   1.506   2.570   7.362 -0.2821 -0.0055  0.2158
 6187SOL    HW130023   1.512   2.628   7.438 -1.2211 -1.5486  1.4448
 6187SOL    HW230024   1.412   2.580   7.347 -1.0715 -0.6373  4.9317
 6188SOL     OW30025   4.284   1.255   2.296 -0.6120 -0.3035 -0.1712
 6188SOL    HW130026   4.189   1.268   2.305 -0.3886  0.4740  1.0703
 6188SOL    HW230027   4.314   1.340   2.266  0.8059 -1.1652 -1.2217
 6189SOL     OW30028   4.209   1.510   5.580 -0.4037 -0.4241 -0.0322
 6189SOL    HW130029   4.136   1.567   5.555 -0.7556 -1.1696 -0.7300
 6189SOL    HW230030   4.203   1.519   5.675 -1.3674 -0.9153 -0.0381
 6190SOL     OW30031   3.491   3.878   8.397 -0.2649 -0.2255  0.3506
 6190SOL    HW130032   3.488   3.923   8.482  1.1282 -1.6316  1.1407
 6190SOL    HW230033   3.411   3.899   8.349  1.2690  2.0959 -1.1935
 6191SOL     OW30034   2.921   4.037  11.353  0.1887  0.4350  0.4089
 6191SOL    HW130035   2.968   4.097  11.411 -0.1482 -0.4919  1.6691
 6191SOL    HW230036   2.897   4.096  11.283 -3.8106 -2.6344 -0.7928
 6192SOL     OW30037   1.107   3.750  12.720 -0.3178 -0.2929 -0.7909
 6192SOL    HW130038   1.126   3.658  12.738 -2.2639 -0.0066  2.7838
 6192SOL    HW230039   1.049   3.773  12.793 -0.1731  0.2820 -0.8525
 6193SOL     OW30040   1.547   2.021   3.141 -0.1186 -0.0831 -0.0152
 6193SOL    HW130041   1.606   1.965   3.191  0.3824  1.5262  1.2017
 6193SOL    HW230042   1.535   1.969   3.062  0.5769 -1.3032  0.6918
 6194SOL     OW30043   4.506   1.496   8.108  0.0779 -0.3094  0.4479
 6194SOL    HW130044   4.472   1.552   8.038 -2.6058 -1.7683  0.5919
 6194SOL    HW230045   4.424   1.485   8.155 -1.2672 -0.9967 -2.0784
 6195SOL     OW30046   1.564   1.485   8.761  0.5521  0.0054  0.5372
 6195SOL    HW130047   1.493   1.444   8.811  0.7280  0.3368  1.0509
 6195SOL    HW230048   1.592   1.412   8.705 -3.4832 -1.0447 -0.1527
 6196SOL     OW30049   2.739   0.853   4.860 -0.3191  0.6154 -0.4731
 6196SOL    HW130050   2.828   0.877   4.833 -0.5104  1.7482 -0.1117
 6196SOL    HW230051   2.701   0.802   4.789 -0.9364  1.0601 -0.4612
 6197SOL     OW30052   3.708   4.007   0.779 -0.1123 -0.2788  0.1270
 6197SOL    HW130053   3.691   4.053   0.862  0.3754 -0.0805  0.1198
 6197SOL    HW230054   3.643   4.043   0.719  0.6395  0.2672 -0.3617
 6198SOL     OW30055   4.238   0.876   6.041 -0.5884 -0.1528 -0.4039
 6198SOL    HW130056   4.274   0.926   5.968  0.7689 -2.2961 -1.2076
 6198SOL    HW230057   4.308   0.816   6.068 -0.0709 -0.2380 -1.9300
 6199SOL     OW30058   3.080   2.952   0.693  0.0618  0.4038  0.1155
 6199SOL    HW130059   3.025   2.946   0.615  1.1105  1.4093 -0.6949
 6199SOL    HW230060   3.084   2.861   0.722 -2.4118 -0.6598 -2.7908
 6200SOL     OW30061   3.771   3.925   7.047  0.2456  0.1726  0.0885
 6200SOL    HW130062   3.730   3.943   7.131  1.5998  0.1713  0.7416
 6200SOL    HW230063   3.694   3.894   6.999  0.1436  1.4234 -0.5469
 6201SOL     OW30064   1.049   4.161   0.677  0.2142 -0.4796 -0.4481
 6201SOL    HW130065   1.097   4.080   0.694  0.3631 -0.2949  0.0060
 6201SOL    HW230066   1.053   4.200   0.764 -0.0871 -0.3715 -0.4823
 6202SOL     OW30067   1.883   1.260   3.065 -0.5178  0.4641 -0.3162
 6202SOL    HW130068   1.893   1.336   3.121 -0.7910  0.1207  0.2025
 6202SOL    HW230069   1.848   1.297   2.984 -0.8016  1.9274  0.4695
 6203SOL     OW30070   0.990   3.065   8.335 -0.0312 -0.4683  0.0797
 6203SOL    HW130071   0.957   2.978   8.316  1.6293 -0.8682 -0.9557
 6203SOL    HW230072   1.062   3.033   8.390 -0.1985 -2.0911 -0.6538
 6204SOL     OW30073   1.985   0.110  13.644  0.1848  0.1241 -0.1448
 6204SOL    HW130074   2.024   0.185  13.599 -0.4183  0.4655 -0.1019
 6204SOL    HW230075   2.051   0.043  13.626  0.3712  0.5285 -0.9572
 6205SOL     OW30076   3.256   4.532   3.532  0.4424  0.1628 -0.1936
 6205SOL    HW130077   3.297   4.485   3.605  3.3582  0.9479 -1.3687
 6205SOL    HW230078   3.309   4.512   3.455  0.5578 -0.1149 -0.0431
 6206SOL     OW30079   3.168   0.985  14.957  0.8650  0.1204 -0.0398
 6206SOL    HW130080   3.142   0.921  15.022 -0.6080  1.7424  0.9794
 6206SOL    HW230081   3.092   1.042  14.942  0.7344 -0.5893 -2.1938
 6207SOL     OW30082   4.702   4.434  10.469  0.4772 -0.9820  0.2672
 6207SOL    HW130083   0.046   4.461  10.408  0.6039 -2.0214 -0.0437
 6207SOL    HW230084   0.037   4.393  10.531  0.3076 -0.5812  0.6947
 6208SOL     OW30085   0.755   3.116  15.637 -0.3589  0.0132  0.2679
 6208SOL    HW130086   0.661   3.106  15.655 -0.2938  0.3783  0.8099
 6208SOL    HW230087   0.776   3.023  15.648 -1.8176 -0.2930  0.5466
 6209SOL     OW30088   4.314   3.154   7.704 -0.1117  0.0495  0.6769
 6209SOL    HW130089   4.353   3.067   7.703 -2.2913 -0.8926 -1.6891
 6209SOL    HW230090   4.357   3.188   7.626 -0.5309  1.6748  1.1516
 6210SOL     OW30091   1.870   1.189   9.557  0.1712 -0.4956 -0.3037
 6210SOL    HW130092   1.836   1.275   9.532 -0.3046 -0.7554 -0.5678
 6210SOL    HW230093   1.808   1.168   9.627 -0.7001 -0.0085 -0.9150
 6211SOL     OW30094   3.736   0.233   3.292  0.0124  0.5282 -0.6025
 6211SOL    HW130095   3.690   0.215   3.210 -0.6402  1.6154 -0.4774
 6211SOL    HW230096   3.820   0.195   3.267 -1.8168 -3.4926 -0.6474
 6212SOL     OW30097   2.976   2.033   2.542  0.6467 -0.2428 -0.4107
 6212SOL    HW130098   2.935   1.964   2.491  2.5663 -1.0140 -0.9243
 6212SOL    HW230099   2.909   2.101   2.551 -1.2572 -2.2458  0.5674
 6213SOL     OW30100   2.813   1.421   8.627 -0.2764 -0.2535 -0.3248
 6213SOL    HW130101   2.808   1.329   8.652  0.8560 -0.8343 -2.2136
 6213SOL    HW230102   2.908   1.423   8.642  0.1660  0.0181 -3.1200
 6214SOL     OW30103   0.203   3.111   5.721  0.7463 -0.5196 -0.2779
 6214SOL    HW130104   0.227   3.020   5.739  0.6497 -0.0467  2.3069
 6214SOL    HW230105   0.170   3.106   5.632  1.0138  1.4953 -0.4981
 6215SOL     OW30106   3.020   0.315   5.442  0.1669  0.1102 -0.3761
 6215SOL    HW130107   2.932   0.287   5.469  1.0657 -0.2034  2.1973
 6215SOL    HW230108   3.027   0.267   5.360 -1.2674 -2.9240  1.2408
 6216SOL     OW30109   1.370   2.604  15.107  0.5256  0.1449 -0.1632
 6216SOL    HW130110   1.330   2.578  15.190  0.9221  0.3599  0.0973
 6216SOL    HW230111   1.385   2.697  15.122  4.3140 -0.2954 -1.2852
 6217SOL     OW30112   3.409   0.489   7.841 -0.9990  1.0137 -0.3985
 6217SOL    HW130113   3.322   0.467   7.874 -0.4029  1.1596  1.3095
 6217SOL    HW230114   3.432   0.566   7.893 -0.7646  0.5005  0.2591
 6218SOL     OW30115   4.706   2.583   3.279 -0.7970  0.2559 -0.0959
 6218SOL    HW130116   0.062   2.535   3.262  0.1142  1.2561  1.4283
 6218SOL    HW230117   4.722   2.592   3.373 -0.5330  1.1563 -0.2270
 6219SOL     OW30118   4.038   2.012   6.604  0.1915  0.6807  0.0482
 6219SOL    HW130119   3.947   2.002   6.576  0.7308 -0.9100 -1.1613
 6219SOL    HW230120   4.074   1.978   6.522 -2.0609  1.1712 -1.1184
 6220SOL     OW30121   3.383   3.419   5.698  0.3119  0.0397 -0.0508
 6220SOL    HW130122   3.333   3.338   5.688 -0.1121  0.1157  1.4685
 6220SOL    HW230123   3.326   3.486   5.660  1.0618 -0.8256 -2.6953
 6221SOL     OW30124   1.166   2.358   4.453 -0.0049 -0.5877 -0.3423
 6221SOL    HW130125   1.128   2.272   4.468 -0.9825  0.0409  0.8587
 6221SOL    HW230126   1.253   2.350   4.493 -0.0325 -0.2855 -0.2191
 6222SOL     OW30127   1.577   3.697   3.395  0.2958 -0.2446 -0.2558
 6222SOL    HW130128   1.641   3.759   3.361 -0.1374  0.8235  0.8747
 6222SOL    HW230129   1.637   3.638   3.440  1.5567  0.5889 -0.8621
 6223SOL     OW30130   2.770   1.561  13.184  0.3348  0.2134 -0.2660
 6223SOL    HW130131   2.838   1.600  13.128  1.4872 -0.4276  0.6925
 6223SOL    HW230132   2.754   1.482  13.133  1.9063 -0.0534 -0.3347
 6224SOL     OW30133   3.828   4.462   8.917 -0.3303  0.2872 -0.3441
 6224SOL    HW130134   3.838   4.527   8.986 -0.8740  0.8518 -0.7988
 6224SOL    HW230135   3.908   4.465   8.864  0.7187 -0.9677  1.1552
 6225SOL     OW30136   0.565   3.842  16.496  0.0691 -0.3582  0.3933
 6225SOL    HW130137   0.551   3.880  16.410 -1.0147  0.0710  0.7626
 6225SOL    HW230138   0.637   3.900  16.522  1.5987 -1.4066 -1.4944
 6226SOL     OW30139   1.388   3.567   6.365 -0.2140  0.0342 -0.3213
 6226SOL    HW130140   1.357   3.509   6.434  2.1791 -0.5726  0.2236
 6226SOL    HW230141   1.338   3.647   6.385  0.3727  0.0126  1.2152
 6227SOL     OW30142   2.382   2.881   1.949 -0.4342 -0.5226 -0.2727
 6227SOL    HW130143   2.299   2.837   1.934 -0.7390  0.1755 -0.6358
 6227SOL    HW230144   2.408   2.925   1.868  0.4186  1.1489  0.9011
 6228SOL     OW30145   1.669   3.655   6.315 -0.4872  0.5374 -0.0514
 6228SOL    HW130146   1.578   3.632   6.336 -0.5654  0.9497  0.0557
 6228SOL    HW230147   1.706   3.655   6.404 -0.3185  0.7948 -0.1223
 6229SOL     OW30148   2.148   1.129   5.756  0.2024 -0.0770 -0.2222
 6229SOL    HW130149   2.083   1.063   5.730 -0.3249  0.1707  0.4906
 6229SOL    HW230150   2.144   1.109   5.849  0.4707  1.7275  0.1754
 6230SOL     OW30151   3.639   1.946   2.728 -0.0838 -0.7065 -0.2123
 6230SOL    HW130152   3.709   1.964   2.791 -0.4376 -2.0267  0.5459
 6230SOL    HW230153   3.563   1.930   2.783 -0.6469  1.2341 -0.4254
 6231SOL     OW30154   3.847   3.418  10.994  0.3089  0.0313  0.3296
 6231SOL    HW130155   3.917   3.356  10.972  0.5872  0.5431 -0.2350
 6231SOL    HW230156   3.895   3.467  11.060  0.9854  1.7706 -1.4375
 6232SOL     OW30157   0.811   4.697   2.345  0.1193  0.0876 -0.0287
 6232SOL    HW130158   0.797   4.649   2.264  1.0401 -1.9381  1.0265
 6232SOL    HW230159   0.905   4.680   2.356 -0.2370 -1.1708  1.0518
 6233SOL     OW30160   1.381   0.506   4.073  0.3087  0.0347  0.2214
 6233SOL    HW130161   1.376   0.598   4.048 -0.5261 -0.1775 -0.4183
 6233SOL    HW230162   1.440   0.477   4.003 -0.6521  1.9837 -1.3919
 6234SOL     OW30163   3.380   4.694   9.827 -0.0787 -0.0159  0.1240
 6234SOL    HW130164   3.320   0.001   9.760  0.1531  1.7801  0.7895
 6234SOL    HW230165   3.323   4.650   9.889 -1.2520  2.9509  1.1319
 6235SOL     OW30166   2.153   4.105   5.817  0.5782  0.1524  0.2045
 6235SOL    HW130167   2.172   4.021   5.774 -1.7758  0.7713 -2.0435
 6235SOL    HW230168   2.234   4.153   5.800  0.3591  0.2478 -0.5824
 6236SOL     OW30169   0.409   2.915   7.835  0.0484 -0.0542 -0.0199
 6236SOL    HW130170   0.376   2.842   7.782  0.8491  0.1469 -0.7998
 6236SOL    HW230171   0.480   2.865   7.875 -0.7572  0.4671  2.0876
 6237SOL     OW30172   0.596   3.044   6.348 -0.2299 -0.4288  0.4564
 6237SOL    HW130173   0.502   3.035   6.362 -0.1220 -0.1459  1.3809
 6237SOL    HW230174   0.615   2.950   6.353  2.1369 -0.0542 -1.6073
 6238SOL     OW30175   0.926   2.423   1.997 -0.3974  0.0937  0.6787
 6238SOL    HW130176   1.020   2.413   2.014 -0.1618 -2.8621 -2.2200
 6238SOL    HW230177   0.936   2.408   1.903 -0.6845 -1.5241  0.8937
 6239SOL     OW30178   0.984   1.515   4.743  0.4403 -0.7987  0.4642
 6239SOL    HW130179   1.060   1.464   4.714  1.3555  0.9332 -0.1918
 6239SOL    HW230180   0.943   1.446   4.794  0.5902 -1.1537  0.1084
 6240SOL     OW30181   1.787   2.861   7.306 -0.4007 -0.6128 -0.1456
 6240SOL    HW130182   1.854   2.884   7.242  1.2501 -0.2100  1.7190
 6240SOL    HW230183   1.724   2.928   7.279  0.8994  0.6028 -0.1619
 6241SOL     OW30184   2.296   2.422   2.876 -0.3755  0.3499 -0.2497
 6241SOL    HW130185   2.253   2.434   2.960 -1.4420 -1.3157 -0.5446
 6241SOL    HW230186   2.373   2.479   2.880 -1.3139  1.4484  1.5267
 6242SOL     OW30187   4.146   1.803  16.708 -0.4467 -0.4310  0.1279
 6242SOL    HW130188   4.168   1.896  16.715 -0.7434 -0.5358  2.3914
 6242SOL    HW230189   4.103   1.777  16.789 -0.0628  1.8592  1.0550
 6243SOL     OW30190   2.218   4.246   9.675 -0.5426  0.4731  0.6157
 6243SOL    HW130191   2.228   4.236   9.581  0.3129  1.4623  0.6083
 6243SOL    HW230192   2.263   4.328   9.695 -0.5560  0.5714  0.2386
 6244SOL     OW30193   3.719   3.419   5.362 -0.4546  0.6743 -0.1317
 6244SOL    HW130194   3.689   3.428   5.271 -1.1311 -1.6301 -0.1332
 6244SOL    HW230195   3.641   3.438   5.414  0.9132  2.9614  1.0874
 6245SOL     OW30196   3.305   4.587   1.120 -0.4392 -0.2036  0.2675
 6245SOL    HW130197   3.282   4.650   1.053  1.4505 -0.2008 -0.3934
 6245SOL    HW230198   3.219   4.548   1.134 -0.2231 -0.1254  1.8455
 6246SOL     OW30199   0.988   1.103   4.250  0.2255 -0.2232 -0.1896
 6246SOL    HW130200   1.061   1.116   4.311  0.5709  2.0768 -1.0642
 6246SOL    HW230201   0.987   1.188   4.205  1.9317  0.1788  0.5380
 6247SOL     OW30202   0.952   0.435   3.512 -0.1588  0.0431 -0.0082
 6247SOL    HW130203   0.868   0.437   3.558  0.4304 -1.0652  1.1556
 6247SOL    HW230204   0.933   0.357   3.460 -0.7911  0.8108 -0.9016
 6248SOL     OW30205   3.505   4.344   9.978 -0.4266  0.5075 -0.3063
 6248SOL    HW130206   3.551   4.260   9.984  0.0008  0.9035  1.7300
 6248SOL    HW230207   3.454   4.353  10.058  0.8270  1.1473  0.4143
 6249SOL     OW30208   1.653   3.229   5.646 -0.0583 -0.3074  0.2089
 6249SOL    HW130209   1.736   3.209   5.689 -0.2006 -0.9849  0.1723
 6249SOL    HW230210   1.592   3.196   5.712  0.1080 -0.6467  0.1946
 6250SOL     OW30211   1.223   1.191  10.033 -0.5822  0.0532 -0.1095
 6250SOL    HW130212   1.208   1.264  10.094 -2.2466  0.7770 -1.3868
 6250SOL    HW230213   1.199   1.113  10.081  2.4063  0.5768  2.2622
 6251SOL     OW30214   0.371   2.444   5.927  0.0318 -0.2211 -0.0302
 6251SOL    HW130215   0.462   2.446   5.897 -0.0475 -1.2199 -0.3417
 6251SOL    HW230216   0.372   2.517   5.990 -1.0300 -0.9790  0.8494
 6252SOL     OW30217   2.989   1.968   7.289 -0.0820 -0.0213 -0.2272
 6252SOL    HW130218   3.006   1.875   7.274 -0.5109 -0.0874 -0.2972
 6252SOL    HW230219   3.081   1.993   7.301 -0.2651  0.3636  0.3123
 6253SOL     OW30220   2.353   0.906   5.960 -0.2246 -0.2253  0.1958
 6253SOL    HW130221   2.280   0.967   5.967 -0.6572 -0.7432  0.2526
 6253SOL    HW230222   2.305   0.823   5.967 -3.0949  1.2164 -2.8116
 6254SOL     OW30223   3.667   3.927   3.377  0.4890 -0.3765 -0.2810
 6254SOL    HW130224   3.697   3.864   3.311 -0.1265 -1.5241  0.5218
 6254SOL    HW230225   3.688   3.883   3.459  1.2762  2.1615  0.8575
 6255SOL     OW30226   2.222   2.373   5.292  0.4017  0.0864 -0.8893
 6255SOL    HW130227   2.305   2.419   5.299 -1.4837  3.1582  1.0148
 6255SOL    HW230228   2.232   2.320   5.372 -1.8906  1.2021  0.1328
 6256SOL     OW30229   2.717   1.248   8.396 -0.1485 -0.3172  0.2647
 6256SOL    HW130230   2.658   1.294   8.456 -0.2769  0.5133 -0.5009
 6256SOL    HW230231   2.781   1.225   8.464  0.6405 -0.2600 -0.4544
 6257SOL     OW30232   4.685   0.166   0.500  0.3141  1.1052  0.4937
 6257SOL    HW130233   4.593   0.143   0.513  1.1725 -1.0159  2.7482
 6257SOL    HW230234   4.677   0.232   0.431  0.3119  0.3926 -0.1911
 6258SOL     OW30235   1.785   2.386  14.277  0.2432  0.2093  0.5851
 6258SOL    HW130236   1.704   2.364  14.324 -0.3668 -2.4724 -1.7542
 6258SOL    HW230237   1.847   2.319  14.307 -0.0580 -0.3818 -0.1115
 6259SOL     OW30238   3.189   0.451   8.485 -0.6062 -0.3931 -0.3791
 6259SOL    HW130239   3.121   0.461   8.551 -0.4944 -1.3512 -0.1248
 6259SOL    HW230240   3.261   0.495   8.531 -1.5386  0.3136  0.4092
 6260SOL     OW30241   0.104   0.126   5.115 -0.1834  0.0565  0.6328
 6260SOL    HW130242   0.091   0.203   5.059  2.4931  0.2528  0.2944
 6260SOL    HW230243   0.200   0.122   5.116 -0.0819  2.4976  1.8676
 6261SOL     OW30244   3.881   0.101   2.576 -0.5808  0.0899 -0.0867
 6261SOL    HW130245   3.804   0.152   2.601 -0.4391  1.1235 -1.7396
 6261SOL    HW230246   3.876   0.112   2.481 -0.1176  1.3732  0.0416
 6262SOL     OW30247   0.822   3.822   7.540  0.0425  0.2382 -0.2763
 6262SOL    HW130248   0.869   3.898   7.507 -0.9181  0.0916 -1.9575
 6262SOL    HW230249   0.754   3.864   7.593 -0.5120 -2.1718  0.9055
 6263SOL     OW30250   4.076   4.424   8.790 -0.2952 -0.0720 -0.7422
 6263SOL    HW130251   4.105   4.369   8.717  1.4715 -0.9171  0.5717
 6263SOL    HW230252   4.109   4.373   8.864  0.5028  0.7204 -0.5477
 6264SOL     OW30253   0.837   0.600   8.437 -0.4758 -0.0436 -0.3119
 6264SOL    HW130254   0.917   0.650   8.455  1.6048 -2.9247 -1.4201
 6264SOL    HW230255   0.778   0.675   8.443 -1.9132 -1.2796  0.9798
 6265SOL     OW30256   2.622   3.073   8.603 -0.2358  0.4048 -0.5372
 6265SOL    HW130257   2.556   3.135   8.632  0.0120  0.5259 -0.2378
 6265SOL    HW230258   2.697   3.131   8.615 -0.8192  0.8317  0.9771
 6266SOL     OW30259   3.162   1.491   7.227  0.2148 -0.1227 -0.3342
 6266SOL    HW130260   3.140   1.404   7.262  2.1325 -0.5060 -0.1029
 6266SOL    HW230261   3.250   1.488   7.264 -0.7674 -0.5380  1.9685
 6267SOL     OW30262   0.710   1.609  17.641 -0.6842  0.2253 -0.1194
 6267SOL    HW130263   0.628   1.658  17.643  0.2585  1.7878  0.1077
 6267SOL    HW230264   0.727   1.628  17.549  1.3804  0.4555  0.3169
 6268SOL     OW30265   2.043   4.604  10.886 -0.1181 -0.1977 -0.2058
 6268SOL    HW130266   2.032   4.509  10.877  1.3943 -0.5535  1.8051
 6268SOL    HW230267   1.983   4.610  10.960 -0.0616  2.6994 -0.3928
 6269SOL     OW30268   2.067   4.298   9.900 -0.3348 -0.5352  0.1551
 6269SOL    HW130269   2.106   4.273   9.816 -0.3425  4.1961 -1.2540
 6269SOL    HW230270   1.997   4.234   9.906 -1.9285  1.2270  0.3355
 6270SOL     OW30271   3.863   0.943   8.731 -1.2336 -0.7932 -0.7662
 6270SOL    HW130272   3.880   0.876   8.664  1.2460 -1.8218  0.8886
 6270SOL    HW230273   3.789   0.994   8.697 -0.5638 -0.6138 -1.9727
 6271SOL     OW30274   0.567   2.229   7.454  0.2197 -0.2914  0.4562
 6271SOL    HW130275   0.526   2.219   7.368  2.4336  0.1636 -0.6348
 6271SOL    HW230276   0.509   2.166   7.498  0.1852 -1.1078 -0.7588
 6272SOL     OW30277   4.175   3.612   3.003 -0.4377 -0.6877 -0.4679
 6272SOL    HW130278   4.089   3.651   3.017  0.1822  0.5449 -0.1130
 6272SOL    HW230279   4.150   3.519   3.007  2.6441 -1.5556 -1.1169
 6273SOL     OW30280   4.332   2.474   7.289  0.0206  0.0206 -0.4553
 6273SOL    HW130281   4.367   2.416   7.222  0.8849 -0.8903  0.7890
 6273SOL    HW230282   4.259   2.512   7.240 -0.2630 -0.7176 -0.6071
 6274SOL     OW30283   0.303   0.835   9.789  0.0629 -0.3190 -0.0276
 6274SOL    HW130284   0.370   0.771   9.765  0.3562  0.0571 -0.1936
 6274SOL    HW230285   0.295   0.878   9.705 -1.6825 -0.4518  0.0664
 6275SOL     OW30286   3.130   1.199  16.410  0.0582 -0.2242 -0.4692
 6275SOL    HW130287   3.036   1.184  16.395 -0.1633  1.0862 -0.3969
 6275SOL    HW230288   3.140   1.218  16.503  0.1676 -2.6841  0.0275
 6276SOL     OW30289   1.032   0.572   4.813  0.0009 -0.5166  0.1422
 6276SOL    HW130290   0.961   0.635   4.807  0.7761  0.2990 -0.5176
 6276SOL    HW230291   1.027   0.531   4.727 -0.4350  2.7557 -1.4045
 6277SOL     OW30292   1.492   3.295   7.523  0.2222 -0.0555  0.5096
 6277SOL    HW130293   1.477   3.326   7.612  1.2265  3.4161 -0.5494
 6277SOL    HW230294   1.588   3.296   7.526  0.2715 -0.3127 -1.3460
 6278SOL     OW30295   2.577   4.467  16.142  0.2237  0.1043 -0.2719
 6278SOL    HW130296   2.664   4.452  16.176  0.7807  0.9541 -1.2984
 6278SOL    HW230297   2.563   4.555  16.178  0.1715  0.2997 -0.7582
 6279SOL     OW30298   2.548   0.872  16.554  0.4323 -0.1295 -0.1242
 6279SOL    HW130299   2.515   0.957  16.582 -2.1750 -0.7344 -1.2684
 6279SOL    HW230300   2.465   0.830  16.530  1.1500 -1.5456 -0.1081
 6280SOL     OW30301   1.414   3.565   9.991 -0.0914  0.0392 -0.0505
 6280SOL    HW130302   1.370   3.499   9.938 -2.2784  1.5385 -0.0974
 6280SOL    HW230303   1.364   3.556  10.072 -0.4018  2.4703  0.0374
 6281SOL     OW30304   2.098   4.074  13.498 -0.1378  0.1593 -0.1891
 6281SOL    HW130305   2.036   4.001  13.489  1.1044 -0.6248 -2.3674
 6281SOL    HW230306   2.054   4.142  13.447 -5.1706 -1.2481  2.2622
 6282SOL     OW30307   4.240   2.072   5.166 -0.2357 -0.3575 -0.5566
 6282SOL    HW130308   4.243   2.167   5.178  0.9206 -0.5233  0.5260
 6282SOL    HW230309   4.235   2.064   5.071 -2.6884  2.2944 -0.6313
 6283SOL     OW30310   1.933   3.865   3.843  0.4066  0.1618 -0.3706
 6283SOL    HW130311   1.927   3.925   3.769 -2.5871 -0.2796 -0.4895
 6283SOL    HW230312   2.016   3.886   3.887  0.3418  0.4821 -0.3960
 6284SOL     OW30313   2.431   2.176   9.518 -0.0787 -0.1414  0.0829
 6284SOL    HW130314   2.512   2.125   9.511 -0.3843 -0.5600 -0.4674
 6284SOL    HW230315   2.468   2.259   9.489 -2.0894 -0.2892 -2.9363
 6285SOL     OW30316   0.202   1.888   8.094  0.1986 -0.7180 -0.4783
 6285SOL    HW130317   0.157   1.837   8.161 -0.3630 -3.6289 -3.0877
 6285SOL    HW230318   0.291   1.876   8.128  0.2672 -0.5112 -0.5869
 6286SOL     OW30319   0.980   2.479   5.891  0.0221 -0.3305  0.1129
 6286SOL    HW130320   0.903   2.484   5.947  1.3793  0.7853  1.8549
 6286SOL    HW230321   0.977   2.396   5.842  1.4940 -2.1675  3.1334
 6287SOL     OW30322   4.488   3.420   3.384  0.2489 -0.0649  0.6058
 6287SOL    HW130323   4.573   3.375   3.387  1.0308  1.3842 -0.3155
 6287SOL    HW230324   4.427   3.346   3.388 -0.9251  0.7811 -1.7609
 6288SOL     OW30325   1.663   4.612   3.791  0.6188  0.1093  0.1317
 6288SOL    HW130326   1.702   4.683   3.741  2.5546 -2.2927 -1.7664
 6288SOL    HW230327   1.710   4.532   3.768  0.5147  0.0709  0.0500
 6289SOL     OW30328   2.795   0.586   7.040 -0.4383  0.4216  0.0117
 6289SOL    HW130329   2.818   0.522   7.106  0.6484  0.4942 -0.2987
 6289SOL    HW230330   2.723   0.539   6.998 -0.7813  1.0907 -0.1548
 6290SOL     OW30331   3.698   3.704   5.067  0.2608  0.5946 -0.3911
 6290SOL    HW130332   3.751   3.780   5.044 -0.3462  0.9880 -0.5128
 6290SOL    HW230333   3.762   3.634   5.077  0.8318  0.8892 -2.0736
 6291SOL     OW30334   2.305   0.135  17.164  0.3308  0.3889 -0.1530
 6291SOL    HW130335   2.355   0.054  17.152 -0.2681 -0.1145  0.7301
 6291SOL    HW230336   2.276   0.125  17.255 -0.5690  0.6306 -0.4155
 6292SOL     OW30337   4.366   1.502  12.132  0.2007  0.0926 -0.2260
 6292SOL    HW130338   4.456   1.527  12.149 -0.3654  1.5648  0.5654
 6292SOL    HW230339   4.378   1.455  12.049 -2.2102 -0.0660 -0.4865
 6293SOL     OW30340   1.288   2.187   8.698  0.4519  0.5888 -0.9377
 6293SOL    HW130341   1.309   2.152   8.784  0.9022  3.0450 -0.0768
 6293SOL    HW230342   1.255   2.106   8.658  3.0065  0.1716 -2.1991
 6294SOL     OW30343   1.859   1.645   6.650 -0.5019 -0.1587 -0.0138
 6294SOL    HW130344   1.918   1.586   6.696 -0.3519  0.7073  0.9015
 6294SOL    HW230345   1.812   1.580   6.597  0.2888 -1.6542  1.1140
 6295SOL     OW30346   1.415   0.480   6.559 -0.0958  0.3835 -0.0089
 6295SOL    HW130347   1.441   0.410   6.499  0.1047  1.1482 -0.8086
 6295SOL    HW230348   1.481   0.486   6.628  0.5608 -1.1792 -0.5074
 6296SOL     OW30349   4.248   2.705  16.622 -0.0309 -0.2995  0.0068
 6296SOL    HW130350   4.198   2.775  16.580  2.8902  1.2748 -0.8919
 6296SOL    HW230351   4.315   2.694  16.555 -1.2799 -0.8845 -1.1317
 6297SOL     OW30352   4.373   0.452  16.810 -0.1306 -0.1379 -0.2305
 6297SOL    HW130353   4.346   0.510  16.739 -0.6301  0.2303  0.2542
 6297SOL    HW230354   4.466   0.446  16.790  0.1767 -1.4089  1.5400
 6298SOL     OW30355   4.452   0.739   6.129  0.1608  0.6481  0.2477
 6298SOL    HW130356   4.537   0.773   6.157  0.0296 -0.7248  2.3124
 6298SOL    HW230357   4.468   0.648   6.154  1.1673  0.3480 -1.5353
 6299SOL     OW30358   3.164   3.978  16.854 -0.0317 -0.5512  0.2987
 6299SOL    HW130359   3.083   4.026  16.872  0.1540  0.3740 -1.3315
 6299SOL    HW230360   3.226   4.004  16.922 -0.6083  1.5762  0.0182
 6300SOL     OW30361   3.621   2.457  14.936 -0.0616  0.5962 -0.3469
 6300SOL    HW130362   3.681   2.452  14.862  0.2383  0.0380 -0.0679
 6300SOL    HW230363   3.612   2.552  14.949 -0.3435  0.5841 -0.4404
 6301SOL     OW30364   1.625   2.921   4.316  0.2939  0.1476 -0.4592
 6301SOL    HW130365   1.711   2.880   4.318  0.4968  0.5853 -0.2707
 6301SOL    HW230366   1.652   3.013   4.321 -0.1274  0.3171 -1.3157
 6302SOL     OW30367   2.752   0.620   3.914 -0.6129  0.4593 -0.5676
 6302SOL    HW130368   2.754   0.561   3.989 -1.0936  1.3046  0.1085
 6302SOL    HW230369   2.843   0.651   3.917 -0.5382  0.1978 -0.1932
 6303SOL     OW30370   2.353   0.506  12.121  0.1375  0.1767  0.4309
 6303SOL    HW130371   2.380   0.464  12.203  0.3306  2.0677  1.3214
 6303SOL    HW230372   2.370   0.595  12.151 -0.4168  0.6142 -0.5782
 6304SOL     OW30373   2.128   0.483  16.881  0.1797  0.6528  0.3402
 6304SOL    HW130374   2.161   0.395  16.902 -0.1641 -0.2372 -2.8216
 6304SOL    HW230375   2.200   0.531  16.839 -0.8048  1.8994  0.0872
 6305SOL     OW30376   3.165   3.773  13.869 -0.6811 -0.6764 -0.1079
 6305SOL    HW130377   3.089   3.722  13.899 -1.5237  0.5082 -0.2326
 6305SOL    HW230378   3.173   3.762  13.775  0.0479  2.5174 -0.4222
 6306SOL     OW30379   3.349   1.006   5.432 -0.0619  0.2383 -0.3130
 6306SOL    HW130380   3.287   1.075   5.408 -1.4700 -1.0540 -0.3806
 6306SOL    HW230381   3.292   0.945   5.479  0.5926  1.1576  1.6457
 6307SOL     OW30382   0.801   4.611  13.567 -0.3242 -0.0613 -0.0433
 6307SOL    HW130383   0.721   4.641  13.609 -0.5864  0.1233 -0.6702
 6307SOL    HW230384   0.855   4.638  13.641 -2.8884  2.1411  0.9820
 6308SOL     OW30385   2.299   2.999  14.740  0.2403 -0.2372 -0.7947
 6308SOL    HW130386   2.377   2.986  14.686  0.8884 -1.7514  0.4949
 6308SOL    HW230387   2.230   2.966  14.683  1.1204  0.3100 -2.1704
 6309SOL     OW30388   2.351   0.719   2.131 -0.3355 -0.3779 -0.3895
 6309SOL    HW130389   2.406   0.703   2.054  0.8175  0.1092  0.3488
 6309SOL    HW230390   2.270   0.676   2.102 -0.9587 -1.2722  2.7736
 6310SOL     OW30391   0.867   0.895   4.110 -0.0711  0.3446  0.2477
 6310SOL    HW130392   0.943   0.841   4.087  0.1265  1.1002 -0.8705
 6310SOL    HW230393   0.913   0.959   4.164 -0.5461  0.6353  0.3097
 6311SOL     OW30394   2.286   1.980   8.694 -0.5670  0.1864  0.0735
 6311SOL    HW130395   2.365   1.958   8.644 -0.8582 -1.6966  0.4559
 6311SOL    HW230396   2.315   2.070   8.713 -0.1309 -0.1073  0.7723
 6312SOL     OW30397   2.212   0.490   5.817  0.2121 -0.0671  0.2857
 6312SOL    HW130398   2.181   0.400   5.828  1.7390 -0.6341 -0.1441
 6312SOL    HW230399   2.294   0.475   5.771  0.8174  1.4811  0.8696
 6313SOL     OW30400   4.723   4.621   6.825 -0.0350  0.5262 -0.2026
 6313SOL    HW130401   4.641   4.631   6.777  0.6098  0.5143 -1.3323
 6313SOL    HW230402   4.698   4.669   6.903 -1.2402 -1.5091  0.6657
 6314SOL     OW30403   4.362   3.847  16.307 -0.0516  0.0577 -0.2443
 6314SOL    HW130404   4.310   3.894  16.373  1.0057 -1.8603  1.9594
 6314SOL    HW230405   4.420   3.796  16.363 -0.1036 -3.3116 -3.2795
 6315SOL     OW30406   1.342   3.475  11.949 -0.4662  0.0400 -0.1700
 6315SOL    HW130407   1.338   3.464  11.854 -0.8767  0.0098 -0.1486
 6315SOL    HW230408   1.430   3.514  11.957 -1.0420  1.0030  1.5462
 6316SOL     OW30409   3.546   1.844  12.850  0.0802  0.1871  0.2554
 6316SOL    HW130410   3.639   1.867  12.845 -0.0048  0.9120  2.0588
 6316SOL    HW230411   3.510   1.859  12.937  0.1750 -3.0465  0.8425
 6317SOL     OW30412   3.439   0.073  10.550 -0.1594  0.0522 -0.0692
 6317SOL    HW130413   3.347   0.058  10.530  0.0227 -1.0646 -0.0357
 6317SOL    HW230414   3.462   0.137  10.483  1.6501  0.0698  0.5592
 6318SOL     OW30415   4.155   4.319  10.659 -0.0935  0.3120  0.6077
 6318SOL    HW130416   4.137   4.392  10.601  0.3422  0.7816  1.0585
 6318SOL    HW230417   4.237   4.340  10.703 -0.0212 -0.5598  0.8893
 6319SOL     OW30418   0.184   2.555   6.760  0.2371 -0.4916 -0.1292
 6319SOL    HW130419   0.128   2.506   6.820  1.2814 -0.3251  0.9897
 6319SOL    HW230420   0.123   2.555   6.686  0.2129 -0.6172 -0.1097
 6320SOL     OW30421   1.688   2.383   3.985 -0.6881  0.3385  0.1072
 6320SOL    HW130422   1.714   2.309   4.039 -1.6533 -1.9541 -2.5836
 6320SOL    HW230423   1.597   2.394   4.014 -0.7190  2.1335 -0.6171
 6321SOL     OW30424   4.406   0.551   2.273  0.5203  0.0141  0.5797
 6321SOL    HW130425   4.321   0.520   2.242  0.5092  0.0754  0.5485
 6321SOL    HW230426   4.430   0.623   2.215  1.2892 -0.9048 -0.2378
 6322SOL     OW30427   4.525   1.080   6.147 -0.3730  0.4399  0.0480
 6322SOL    HW130428   4.472   1.015   6.194  0.2857  0.5484  0.9207
 6322SOL    HW230429   4.553   1.132   6.222  0.7849 -0.8165  0.4952
 6323SOL     OW30430   1.613   2.981   7.867 -1.0736  0.1810  0.3996
 6323SOL    HW130431   1.687   2.959   7.923 -0.6602  1.6839  0.4467
 6323SOL    HW230432   1.654   3.025   7.792  0.1038 -2.8416 -0.7209
 6324SOL     OW30433   2.090   0.146   4.846 -0.0679 -0.3463 -0.2645
 6324SOL    HW130434   2.048   0.224   4.808 -1.5825 -1.2650 -0.4661
 6324SOL    HW230435   2.019   0.082   4.852 -0.2898 -0.0371  0.4658
 6325SOL     OW30436   2.140   1.804  10.032  0.0371 -0.6869 -0.5800
 6325SOL    HW130437   2.101   1.891  10.026 -1.7930 -1.4359  0.3005
 6325SOL    HW230438   2.188   1.797   9.949  1.9970  3.9119  0.1832
 6326SOL     OW30439   2.288   2.432   2.215  0.2834  0.7421 -0.5075
 6326SOL    HW130440   2.259   2.423   2.124  0.2680  1.9341 -0.6183
 6326SOL    HW230441   2.320   2.343   2.230 -1.5001  0.1259 -0.3882
 6327SOL     OW30442   1.710   3.068   7.624 -0.3554  0.6372  0.4163
 6327SOL    HW130443   1.712   3.141   7.563  2.0003  0.6184  0.4586
 6327SOL    HW230444   1.802   3.041   7.628 -0.5141 -0.2960 -2.3364
 6328SOL     OW30445   1.206   4.044  10.981 -0.8472  0.0783 -0.1131
 6328SOL    HW130446   1.127   4.060  10.929 -1.4050  0.2758  0.7898
 6328SOL    HW230447   1.231   4.135  10.994  1.7590 -0.4316 -1.4570
 6329SOL     OW30448   1.727   4.206  12.878 -0.4834  0.0373 -0.0314
 6329SOL    HW130449   1.785   4.254  12.820 -1.5490 -0.9011 -1.8850
 6329SOL    HW230450   1.715   4.270  12.948 -2.4197 -1.7189  1.2593
 6330SOL     OW30451   0.595   0.717   1.633 -0.0885 -0.2319  0.1347
 6330SOL    HW130452   0.685   0.748   1.634  0.0477 -0.5100 -2.6509
 6330SOL    HW230453   0.558   0.750   1.715 -0.5930 -0.9799  0.2062
 6331SOL     OW30454   4.261   1.577   6.736 -0.0789 -0.6676  0.0815
 6331SOL    HW130455   4.311   1.614   6.809 -1.2063 -0.7926  0.9284
 6331SOL    HW230456   4.192   1.526   6.779 -0.7578  0.2773  0.1068
 6332SOL     OW30457   2.532   2.968   5.835  0.0550 -0.0011 -0.0554
 6332SOL    HW130458   2.582   2.887   5.851 -0.9977 -1.0065 -1.9303
 6332SOL    HW230459   2.607   3.014   5.798  0.2664  0.6590  1.1706
 6333SOL     OW30460   2.561   2.859  14.303  0.3391 -0.1198  0.6282
 6333SOL    HW130461   2.557   2.896  14.391  0.5187 -0.4373  0.7707
 6333SOL    HW230462   2.653   2.864  14.277  0.4073 -0.8322  0.7349
 6334SOL     OW30463   2.048   4.313  14.135 -0.2709 -0.6015 -0.3280
 6334SOL    HW130464   2.062   4.402  14.167 -1.2650 -1.6203  2.8713
 6334SOL    HW230465   1.976   4.286  14.192 -1.3769 -0.6677 -1.7517
 6335SOL     OW30466   1.431   2.672   4.457  0.1358  1.0176 -0.4845
 6335SOL    HW130467   1.412   2.670   4.551 -0.9655 -1.0283 -0.7599
 6335SOL    HW230468   1.372   2.732   4.412  2.5055  3.3898 -0.4900
 6336SOL     OW30469   2.882   1.139   8.600  0.2272  0.1354 -0.5793
 6336SOL    HW130470   2.953   1.100   8.651  0.0255  1.9223  1.0810
 6336SOL    HW230471   2.847   1.061   8.559  1.2278 -0.8873  0.5132
 6337SOL     OW30472   2.558   1.730   2.802 -0.2763  1.0574 -0.4758
 6337SOL    HW130473   2.602   1.808   2.770 -1.4810  1.8979 -0.0848
 6337SOL    HW230474   2.613   1.660   2.766  0.6353  2.0331 -0.9772
 6338SOL     OW30475   3.330   4.336   7.107  0.4208  0.1530 -0.0480
 6338SOL    HW130476   3.273   4.272   7.064 -0.9537  1.0520  0.3987
 6338SOL    HW230477   3.408   4.289   7.134  0.2142  0.6328  1.3663
 6339SOL     OW30478   3.465   2.888   1.188 -0.0274 -0.2483  0.0637
 6339SOL    HW130479   3.385   2.903   1.238 -0.2936  0.8700 -0.6868
 6339SOL    HW230480   3.529   2.887   1.259 -0.1996 -2.7966  0.1737
 6340SOL     OW30481   3.155   2.755  14.731 -0.5664  0.2463 -0.2329
 6340SOL    HW130482   3.109   2.678  14.764 -0.4336  0.0280 -0.5599
 6340SOL    HW230483   3.081   2.814  14.715 -1.6935 -1.3469 -0.8336
 6341SOL     OW30484   4.360   1.439   3.385 -0.0507  0.3583  0.7506
 6341SOL    HW130485   4.365   1.343   3.376 -2.9092  0.2325  0.6064
 6341SOL    HW230486   4.441   1.466   3.342 -0.4161 -3.9230 -2.6303
 6342SOL     OW30487   0.571   0.466  12.751 -0.1959 -0.2018 -0.1796
 6342SOL    HW130488   0.546   0.559  12.748  0.4291 -0.0233  0.1203
 6342SOL    HW230489   0.584   0.455  12.845  3.0870  3.3655 -0.2302
 6343SOL     OW30490   3.119   2.039   7.645 -0.1514 -0.0804  0.6748
 6343SOL    HW130491   3.149   1.953   7.614  0.3784 -0.1737  1.4396
 6343SOL    HW230492   3.077   2.068   7.564  1.8341  0.1178 -0.2849
 6344SOL     OW30493   0.232   4.432   0.844  0.1788  0.4292 -0.4793
 6344SOL    HW130494   0.239   4.363   0.909  2.7795  0.7038 -0.4738
 6344SOL    HW230495   0.206   4.507   0.897  1.4850  1.3519 -1.1420
 6345SOL     OW30496   1.387   4.632   3.846 -0.6315 -0.0453  0.2062
 6345SOL    HW130497   1.364   4.562   3.908 -2.2269 -1.1607 -1.6301
 6345SOL    HW230498   1.478   4.605   3.835 -0.4965  1.0803 -1.4038
 6346SOL     OW30499   1.786   1.730  13.630  0.3500  0.3110 -0.1392
 6346SOL    HW130500   1.859   1.669  13.619 -0.4449 -0.1756 -2.6355
 6346SOL    HW230501   1.831   1.812  13.612  0.1022  0.3641 -0.5146
 6347SOL     OW30502   4.339   1.767   7.511  0.3178 -0.0884  0.2606
 6347SOL    HW130503   4.265   1.794   7.456  0.8777 -0.1042 -0.4997
 6347SOL    HW230504   4.308   1.692   7.563  1.0285 -1.9537 -1.9986
 6348SOL     OW30505   3.616   4.454   3.814  0.1112  0.2213 -0.4070
 6348SOL    HW130506   3.645   4.495   3.896 -1.4706  0.4833  0.0160
 6348SOL    HW230507   3.523   4.473   3.803 -0.4976 -1.5138  1.7885
 6349SOL     OW30508   3.243   0.413   9.074 -0.0645 -0.4615 -0.3725
 6349SOL    HW130509   3.253   0.457   9.159  1.3269  0.2889 -0.9055
 6349SOL    HW230510   3.275   0.325   9.092  0.7611 -0.5746 -2.3466
 6350SOL     OW30511   3.209   2.307   5.121 -0.1823 -0.1729 -0.0078
 6350SOL    HW130512   3.178   2.279   5.207 -2.5690  1.2302 -0.3865
 6350SOL    HW230513   3.169   2.393   5.110 -1.0659 -0.8603 -2.3061
 6351SOL     OW30514   2.095   1.026   7.825  0.1217  0.1323  0.2324
 6351SOL    HW130515   2.014   1.041   7.874  0.7473  1.1616  0.9529
 6351SOL    HW230516   2.156   1.027   7.899 -1.1698  0.8214  1.2855
 6352SOL     OW30517   3.999   4.410   3.897 -0.0134  0.0109  0.4403
 6352SOL    HW130518   3.946   4.481   3.861 -2.3024 -1.4946  0.8474
 6352SOL    HW230519   4.056   4.401   3.821 -0.1878  1.1659  0.1759
 6353SOL     OW30520   2.756   1.254  15.114  0.7753 -0.0932  0.4082
 6353SOL    HW130521   2.674   1.269  15.162  1.3046 -0.2071  1.3572
 6353SOL    HW230522   2.815   1.325  15.140 -1.3855  1.6108  0.7260
 6354SOL     OW30523   1.089   4.558   2.854 -0.3154 -0.3300 -0.4812
 6354SOL    HW130524   1.159   4.623   2.856 -0.6882  0.0858 -0.9934
 6354SOL    HW230525   1.046   4.572   2.938  1.6339  0.1231  0.4470
 6355SOL     OW30526   1.694   3.886  15.534  0.7260  0.4052  0.1861
 6355SOL    HW130527   1.702   3.935  15.452  2.0462  1.7592  1.1029
 6355SOL    HW230528   1.766   3.926  15.584  2.8001 -0.0188 -2.4547
 6356SOL     OW30529   0.404   0.158   5.833 -0.5031 -0.1739  0.2787
 6356SOL    HW130530   0.323   0.192   5.794 -0.5810  0.4185  0.9661
 6356SOL    HW230531   0.384   0.066   5.851  1.1560 -0.4794  0.4857
 6357SOL     OW30532   1.955   0.978  17.324 -0.3993  0.4820  0.0149
 6357SOL    HW130533   2.038   0.959  17.279 -1.1813  1.9518 -2.0610
 6357SOL    HW230534   1.909   1.024  17.254 -1.9706 -1.8034 -0.4357
 6358SOL     OW30535   2.670   3.224   9.310  0.5459  0.1092  0.0669
 6358SOL    HW130536   2.684   3.131   9.292 -2.2325 -0.0550 -1.3075
 6358SOL    HW230537   2.661   3.228   9.405 -2.3879  0.2642 -0.2023
 6359SOL     OW30538   2.103   2.830   1.984 -0.1870 -0.1882  0.1526
 6359SOL    HW130539   2.019   2.785   1.975  0.1082 -0.5497 -0.8002
 6359SOL    HW230540   2.112   2.809   2.077  0.0275  1.8234  0.5800
 6360SOL     OW30541   1.217   4.448  10.547 -0.1436 -0.2176 -0.9277
 6360SOL    HW130542   1.187   4.458  10.457  0.3930 -1.6565 -1.2842
 6360SOL    HW230543   1.286   4.514  10.547 -0.0861 -0.2776 -0.9621
 6361SOL     OW30544   2.756   1.386   5.243 -0.6878 -0.3578  0.3645
 6361SOL    HW130545   2.765   1.480   5.232 -0.3944 -0.4656 -0.3052
 6361SOL    HW230546   2.706   1.379   5.324  1.9065 -0.3556  1.9719
 6362SOL     OW30547   1.118   3.315   6.828 -0.2467  0.6390 -0.3810
 6362SOL    HW130548   1.124   3.256   6.903 -1.7009  2.1289  0.9095
 6362SOL    HW230549   1.195   3.368   6.849  0.7786 -0.6964 -0.7911
 6363SOL     OW30550   0.786   1.495   6.775 -0.1517 -0.1306  0.7461
 6363SOL    HW130551   0.871   1.452   6.786 -0.2991 -0.6269 -0.0767
 6363SOL    HW230552   0.771   1.495   6.681  1.6144  0.6497  0.4637
 6364SOL     OW30553   1.563   0.674   3.307  0.5644 -0.1825  0.2498
 6364SOL    HW130554   1.526   0.747   3.258 -0.4265  1.1722  3.0105
 6364SOL    HW230555   1.481   0.638   3.340  0.7527 -2.4733 -1.8236
 6365SOL     OW30556   3.507   2.680   2.944  0.3875  0.1405 -0.3950
 6365SOL    HW130557   3.533   2.590   2.962  1.5123  0.4558 -0.4629
 6365SOL    HW230558   3.434   2.663   2.884  0.4695 -0.0183 -0.4501
 6366SOL     OW30559   2.059   3.238   5.545  0.0883  0.4295 -0.1352
 6366SOL    HW130560   2.064   3.205   5.635  2.9798 -1.0596 -0.8133
 6366SOL    HW230561   1.987   3.300   5.554 -0.8548 -0.3912 -1.9590
 6367SOL     OW30562   3.545   1.947   6.688 -0.2939  0.1284 -0.2239
 6367SOL    HW130563   3.586   1.894   6.757 -2.3648  0.3548  1.1695
 6367SOL    HW230564   3.619   1.978   6.635 -1.3475  0.8838 -1.2432
 6368SOL     OW30565   2.567   1.927   6.901 -0.3302 -0.1416  0.3074
 6368SOL    HW130566   2.493   1.911   6.959  0.0827 -0.4138  0.7646
 6368SOL    HW230567   2.601   1.839   6.916 -2.6880 -0.9181  1.0296
 6369SOL     OW30568   1.379   3.616   7.680  0.0717 -0.0320 -0.6895
 6369SOL    HW130569   1.434   3.568   7.742 -1.8470 -3.2427 -1.4474
 6369SOL    HW230570   1.295   3.570   7.688  0.6073 -0.5629  1.8028
 6370SOL     OW30571   2.921   3.464  15.985  0.0020  0.2043  0.1139
 6370SOL    HW130572   2.926   3.455  16.080 -3.3963  0.3600  0.3151
 6370SOL    HW230573   3.012   3.487  15.968 -0.6615  1.0371 -2.3404
 6371SOL     OW30574   1.217   1.283   9.735  0.0931  0.0177  0.1822
 6371SOL    HW130575   1.203   1.256   9.826  1.1454 -1.2094 -0.0257
 6371SOL    HW230576   1.148   1.349   9.742  0.1600  0.1669 -0.6377
 6372SOL     OW30577   1.132   1.045   6.528 -0.1353 -0.5770 -0.1859
 6372SOL    HW130578   1.040   1.069   6.544 -0.0254 -0.9379  0.9763
 6372SOL    HW230579   1.120   0.962   6.480  0.5456 -1.4589  1.1904
 6373SOL     OW30580   4.456   0.828   8.010 -0.1596  0.2849 -0.3507
 6373SOL    HW130581   4.443   0.798   7.920  3.8019 -0.2149 -0.7334
 6373SOL    HW230582   4.550   0.841   8.004 -0.2243 -0.1577 -2.4180
 6374SOL     OW30583   0.204   2.902  11.939 -0.0847 -0.0327  0.3557
 6374SOL    HW130584   0.219   2.964  12.011 -0.7138  1.4611 -0.8161
 6374SOL    HW230585   0.235   2.949  11.862  0.6861 -2.6545 -0.9078
 6375SOL     OW30586   1.756   4.075   7.447  0.0419  0.1019  0.2001
 6375SOL    HW130587   1.703   4.143   7.489 -0.9188 -1.1446  1.0031
 6375SOL    HW230588   1.736   4.087   7.354 -1.0803 -0.8674  0.3177
 6376SOL     OW30589   4.096   3.878  10.394  0.1712 -0.0178 -0.1645
 6376SOL    HW130590   4.153   3.851  10.321  0.0571 -2.6802  0.7523
 6376SOL    HW230591   4.140   3.958  10.424 -0.2045  1.0437 -2.3999
 6377SOL     OW30592   1.927   3.471   6.413  0.5613  0.0778  0.0968
 6377SOL    HW130593   1.978   3.484   6.333  2.1416  0.9316  1.2500
 6377SOL    HW230594   1.987   3.439   6.480 -0.4856 -1.0450  0.4914
 6378SOL     OW30595   0.362   2.354  17.475  0.1376  0.0082 -0.2701
 6378SOL    HW130596   0.286   2.390  17.521 -1.4936 -2.5459 -0.9226
 6378SOL    HW230597   0.388   2.434  17.430 -2.7004  1.8139  1.2744
 6379SOL     OW30598   3.930   3.738   7.900 -0.3460  0.0532  0.2248
 6379SOL    HW130599   3.840   3.705   7.893 -0.4363  0.7385 -1.7245
 6379SOL    HW230600   3.984   3.659   7.893 -0.1975  0.1492  0.2949
 6380SOL     OW30601   0.870   3.368  12.524  0.5883 -0.4012  0.2064
 6380SOL    HW130602   0.812   3.402  12.592 -1.5866 -2.1742 -0.7516
 6380SOL    HW230603   0.806   3.355  12.454  0.7645 -1.6223  0.2726
 6381SOL     OW30604   3.369   1.710   4.448 -0.2689  0.0050 -0.7084
 6381SOL    HW130605   3.400   1.755   4.527 -0.2916  0.6426 -1.0645
 6381SOL    HW230606   3.318   1.640   4.488  0.7005 -0.6974 -0.6925
 6382SOL     OW30607   4.001   3.271   4.134 -0.1347  0.0920 -0.4557
 6382SOL    HW130608   3.953   3.220   4.199  0.3105  1.4455  0.9155
 6382SOL    HW230609   4.063   3.326   4.182 -0.2238  1.6392 -2.0846
 6383SOL     OW30610   3.104   0.824   4.610 -0.4783  0.1869  0.2138
 6383SOL    HW130611   3.041   0.888   4.577 -0.9523  0.4255  1.5974
 6383SOL    HW230612   3.176   0.878   4.643 -1.5794  0.5925  1.9085
 6384SOL     OW30613   0.200   4.415   3.264  0.4370  0.3627 -0.1367
 6384SOL    HW130614   0.241   4.338   3.223 -2.4873 -0.4520 -1.5427
 6384SOL    HW230615   0.179   4.465   3.185  0.2526  1.2112  0.4577
 6385SOL     OW30616   1.068   0.030   8.171  0.2737 -0.4628  0.3776
 6385SOL    HW130617   1.011   0.008   8.097  0.1898 -2.6463  1.0826
 6385SOL    HW230618   1.150   0.064   8.135  0.1375  1.0116  1.4528
 6386SOL     OW30619   3.224   3.287  13.257  0.1073  0.2274 -0.6999
 6386SOL    HW130620   3.216   3.199  13.219  1.2746 -0.8049  1.4979
 6386SOL    HW230621   3.319   3.292  13.262  0.3131 -2.9192 -1.4614
 6387SOL     OW30622   0.383   3.243   2.441  0.1773 -0.3181 -0.2822
 6387SOL    HW130623   0.311   3.302   2.420 -0.8622 -1.6249 -0.3740
 6387SOL    HW230624   0.397   3.265   2.533 -0.3034  0.8229 -0.4831
 6388SOL     OW30625   1.013   1.799   1.876 -0.0479  0.0573 -0.3232
 6388SOL    HW130626   1.056   1.877   1.913 -0.0721 -1.2673  2.4998
 6388SOL    HW230627   0.943   1.833   1.821  0.1176  2.2385  0.7918
 6389SOL     OW30628   0.459   1.568   6.721 -0.4406 -0.1637  0.1206
 6389SOL    HW130629   0.507   1.492   6.688 -0.4508 -0.1044 -0.0293
 6389SOL    HW230630   0.484   1.579   6.813 -1.0521 -1.2181  0.4196
 6390SOL     OW30631   2.972   4.639   3.073 -0.5796 -0.3155  0.2689
 6390SOL    HW130632   3.055   4.683   3.056  0.9273 -2.9980  0.8661
 6390SOL    HW230633   2.909   4.699   3.032  0.7992  0.4538 -0.7115
 6391SOL     OW30634   2.488   1.465   5.718 -0.0523  0.4093  0.2851
 6391SOL    HW130635   2.434   1.440   5.793  1.2476 -0.0532  1.0782
 6391SOL    HW230636   2.570   1.448   5.764  0.4179  1.0396 -0.3232
 6392SOL     OW30637   4.275   4.668   5.720 -0.2696  0.2515 -0.2092
 6392SOL    HW130638   4.298   0.035   5.712 -0.3223  0.0842 -2.3494
 6392SOL    HW230639   4.353   4.624   5.687 -1.0135 -0.5343 -0.9263
 6393SOL     OW30640   1.496   3.183   3.709  0.4810  0.0357  0.4500
 6393SOL    HW130641   1.479   3.137   3.791 -0.9544 -3.3655 -1.7464
 6393SOL    HW230642   1.520   3.110   3.651 -1.8296  0.0774 -0.5622
 6394SOL     OW30643   1.589   3.698   2.912  0.2115 -0.1617 -0.1621
 6394SOL    HW130644   1.679   3.671   2.894 -0.3522 -1.6275 -0.7640
 6394SOL    HW230645   1.574   3.628   2.976 -1.3429 -1.1918 -1.6440
 6395SOL     OW30646   0.591   0.412   6.481 -0.5631 -0.0256 -0.1307
 6395SOL    HW130647   0.653   0.462   6.427 -1.2515  1.1938  0.2204
 6395SOL    HW230648   0.519   0.397   6.419 -0.7566  0.2495  0.0296
 6396SOL     OW30649   1.650   3.379  14.451  0.5671 -0.6351  0.4508
 6396SOL    HW130650   1.670   3.421  14.535 -1.3133  0.4715  0.3459
 6396SOL    HW230651   1.683   3.439  14.384  2.1843 -0.5153  1.3532
 6397SOL     OW30652   1.398   0.933  11.489 -0.2073 -0.1187 -0.0886
 6397SOL    HW130653   1.409   0.946  11.395 -0.2170  2.9387  0.3087
 6397SOL    HW230654   1.375   0.840  11.487 -0.8442  0.0221  0.3746
 6398SOL     OW30655   4.429   2.022   4.396  0.7423  0.1261  0.4701
 6398SOL    HW130656   4.519   2.040   4.369  0.0866  0.6268 -1.3885
 6398SOL    HW230657   4.437   2.009   4.490 -2.3827 -0.4871  0.6571
 6399SOL     OW30658   1.105   3.728   2.483  0.0035  0.2617 -0.8573
 6399SOL    HW130659   1.111   3.698   2.573 -3.3835  2.3953  0.0873
 6399SOL    HW230660   1.191   3.770   2.481  0.0609  0.2370  2.3510
 6400SOL     OW30661   0.691   0.622   7.974  0.3412 -0.8205  0.2825
 6400SOL    HW130662   0.596   0.628   7.986  0.2747 -0.2552 -0.4836
 6400SOL    HW230663   0.713   0.691   8.037 -0.0564 -0.8241  0.4255
 6401SOL     OW30664   4.411   1.003  10.849 -0.1412 -0.1855  0.7180
 6401SOL    HW130665   4.496   0.971  10.820 -0.2588  1.2916 -1.2168
 6401SOL    HW230666   4.391   0.921  10.895 -0.3309  0.3938  1.6787
 6402SOL     OW30667   1.684   2.721   6.944 -0.2901 -0.1786  0.4512
 6402SOL    HW130668   1.731   2.763   6.872 -0.8422 -0.9523 -0.3571
 6402SOL    HW230669   1.643   2.794   6.992 -0.5136  0.6816 -1.0501
 6403SOL     OW30670   0.744   1.325  16.264 -0.5546  0.2777 -0.0432
 6403SOL    HW130671   0.759   1.314  16.170  0.8297  0.2709  0.1715
 6403SOL    HW230672   0.667   1.270  16.280 -0.1001  0.0390  1.3990
 6404SOL     OW30673   0.752   0.895   6.559 -0.2905 -0.6332 -0.2953
 6404SOL    HW130674   0.750   0.816   6.613 -1.9940  0.7606  1.7123
 6404SOL    HW230675   0.760   0.859   6.471  0.2076 -1.4823  0.0945
 6405SOL     OW30676   4.441   2.229   2.868 -0.2011 -0.4404  0.4164
 6405SOL    HW130677   4.392   2.301   2.828 -0.5384 -0.5862  0.5656
 6405SOL    HW230678   4.405   2.228   2.957 -0.9208  0.7812  0.1451
 6406SOL     OW30679   0.991   2.967   3.861  0.0226 -0.1457 -0.2680
 6406SOL    HW130680   0.936   2.892   3.882  0.2013 -0.3826 -0.6665
 6406SOL    HW230681   0.918   3.029   3.849  0.3889  0.1438 -1.0016
 6407SOL     OW30682   0.441   4.256   7.306  0.1850  0.1495 -1.0478
 6407SOL    HW130683   0.518   4.256   7.249  1.5986  1.3428  0.8440
 6407SOL    HW230684   0.423   4.348   7.326  1.6330  0.8734 -3.0532
 6408SOL     OW30685   4.233   0.566   8.766  0.0541 -0.1072  0.0568
 6408SOL    HW130686   4.201   0.565   8.676 -0.4666 -3.3275  0.2635
 6408SOL    HW230687   4.164   0.523   8.817 -0.5648 -0.4138 -1.0401
 6409SOL     OW30688   2.632   3.162   9.570 -0.3393  0.0185 -0.0414
 6409SOL    HW130689   2.571   3.213   9.622  0.1661 -0.7589  1.3055
 6409SOL    HW230690   2.581   3.081   9.569  3.2717 -2.2705 -0.8113
 6410SOL     OW30691   2.682   3.956  13.928 -0.4942 -0.3289 -0.3286
 6410SOL    HW130692   2.626   4.030  13.904  0.1274 -0.5762 -2.5002
 6410SOL    HW230693   2.615   3.889  13.939  0.4109 -1.2116 -0.2668
 6411SOL     OW30694   3.338   1.089   9.788  0.1556 -0.0222  0.5848
 6411SOL    HW130695   3.334   0.994   9.794 -0.0551 -0.1465 -1.3326
 6411SOL    HW230696   3.306   1.099   9.698 -0.0890  0.8309  0.7654
 6412SOL     OW30697   4.681   2.326   4.341  0.4430  0.2562  0.7483
 6412SOL    HW130698   0.010   2.248   4.344 -0.9207 -0.6466  1.7708
 6412SOL    HW230699   4.678   2.346   4.434  1.7643 -0.2828  0.8952
 6413SOL     OW30700   3.301   2.360   6.159 -0.1268  0.0957 -0.0432
 6413SOL    HW130701   3.329   2.357   6.067 -1.3892  0.7236 -0.4465
 6413SOL    HW230702   3.376   2.369   6.217 -0.0902 -1.3270  0.1379
 6414SOL     OW30703   3.792   1.857   1.759  0.3397 -0.2839  0.5567
 6414SOL    HW130704   3.858   1.808   1.710 -0.8046 -0.4687 -0.8168
 6414SOL    HW230705   3.716   1.828   1.708  0.6817  0.0020 -0.1051
 6415SOL     OW30706   1.261   2.126   8.976  0.8127 -0.8897 -0.0758
 6415SOL    HW130707   1.301   2.039   8.984 -1.1688 -1.8456 -0.5463
 6415SOL    HW230708   1.260   2.147   9.069  1.0154  2.1781 -0.7790
 6416SOL     OW30709   2.904   3.472   5.352 -0.3707 -0.0732  0.7180
 6416SOL    HW130710   2.913   3.409   5.280 -0.2890  1.3442 -0.5127
 6416SOL    HW230711   2.823   3.517   5.328 -0.0564  1.4687  2.5938
 6417SOL     OW30712   1.625   0.253  10.038  0.3529  0.3866  0.1057
 6417SOL    HW130713   1.606   0.221  10.126  0.2601  0.2226  0.0259
 6417SOL    HW230714   1.540   0.285  10.005  0.1288 -1.4138 -1.0783
 6418SOL     OW30715   3.205   4.056   0.745  0.0402 -0.2604 -0.4269
 6418SOL    HW130716   3.183   4.138   0.701  1.7362  0.0289 -0.7520
 6418SOL    HW230717   3.168   4.070   0.832 -2.0255  2.7275 -1.7900
 6419SOL     OW30718   1.936   0.819   4.497 -0.0446  0.1542  0.3331
 6419SOL    HW130719   2.016   0.860   4.464 -1.2365  0.0513 -2.7572
 6419SOL    HW230720   1.877   0.883   4.456 -0.9379  0.3742  1.9581
 6420SOL     OW30721   0.197   2.861   4.961  0.6387  0.2824  0.0643
 6420SOL    HW130722   0.264   2.921   4.926  0.4196 -1.6245 -3.6326
 6420SOL    HW230723   0.116   2.907   4.941  1.2253  0.6846 -1.4040
 6421SOL     OW30724   0.203   1.700   1.555 -0.3019  0.3717  0.4329
 6421SOL    HW130725   0.125   1.727   1.507 -0.3744 -1.5905 -0.5337
 6421SOL    HW230726   0.160   1.660   1.631 -0.1869  0.2870  0.4527
 6422SOL     OW30727   2.493   0.931   7.385  0.1223 -0.1138 -0.7574
 6422SOL    HW130728   2.572   0.895   7.346  0.6088 -0.5220  0.5896
 6422SOL    HW230729   2.524   0.907   7.472  0.5735 -1.7513 -1.3739
 6423SOL     OW30730   0.796   0.364   6.657  0.4747  0.2948  0.5084
 6423SOL    HW130731   0.719   0.363   6.600 -0.0008 -1.6959  1.1847
 6423SOL    HW230732   0.806   0.459   6.662 -1.8973  0.5739  0.1254
 6424SOL     OW30733   3.598   4.286   6.466 -0.2196 -0.1378 -0.1606
 6424SOL    HW130734   3.563   4.373   6.488  1.1474  0.7830 -1.6030
 6424SOL    HW230735   3.518   4.244   6.497  0.5613 -0.8637  0.8943
 6425SOL     OW30736   3.032   3.744   9.610  0.0248  0.6836  0.2576
 6425SOL    HW130737   2.965   3.783   9.667 -1.1883  0.1704 -0.8226
 6425SOL    HW230738   3.051   3.667   9.663  0.6343  0.7250  0.0969
 6426SOL     OW30739   0.743   0.132   8.711  0.0375  0.8175  0.3592
 6426SOL    HW130740   0.679   0.133   8.781  1.3963 -0.8720  1.6276
 6426SOL    HW230741   0.710   0.049   8.676  3.7559 -0.5978  0.2086
 6427SOL     OW30742   0.255   0.274  13.532  0.1785 -0.2587 -0.0118
 6427SOL    HW130743   0.344   0.301  13.511  0.6012 -2.2671 -0.8169
 6427SOL    HW230744   0.220   0.354  13.570 -1.6290  0.8495 -3.9381
 6428SOL     OW30745   1.646   1.329  11.353 -0.1545  0.3768 -0.4315
 6428SOL    HW130746   1.698   1.405  11.327  0.2334  0.2291 -0.0977
 6428SOL    HW230747   1.700   1.254  11.329 -1.7021 -0.4618 -1.2139
 6429SOL     OW30748   0.494   4.087   2.752 -0.0524  0.4518 -0.2083
 6429SOL    HW130749   0.508   4.153   2.684  0.4365  0.3424 -0.2098
 6429SOL    HW230750   0.522   4.133   2.831  0.1707 -0.3862  0.1968
 6430SOL     OW30751   3.746   0.751   6.873 -0.0949  0.0257 -0.2174
 6430SOL    HW130752   3.748   0.845   6.892 -0.4217  0.1740 -0.9213
 6430SOL    HW230753   3.663   0.742   6.828  0.2111 -2.9291 -0.2044
 6431SOL     OW30754   3.772   0.070   8.526  0.1210 -0.6738 -0.7005
 6431SOL    HW130755   3.854   0.080   8.478  0.0006 -0.5523 -0.8769
 6431SOL    HW230756   3.705   0.079   8.458 -0.1757  2.3331  0.0003
 6432SOL     OW30757   0.179   1.285   6.425 -0.4583 -0.6283 -0.1042
 6432SOL    HW130758   0.176   1.268   6.519 -2.5955  1.5102  0.2110
 6432SOL    HW230759   0.224   1.366   6.401 -0.1562  0.0091  2.6982
 6433SOL     OW30760   2.003   0.296   6.452  0.3710  0.2087  0.2745
 6433SOL    HW130761   2.094   0.324   6.451  0.5828 -0.4989  0.1789
 6433SOL    HW230762   2.013   0.203   6.434 -1.1704  0.3268 -1.2094
 6434SOL     OW30763   0.615   3.132  15.350 -0.1203  0.2562 -0.0458
 6434SOL    HW130764   0.582   3.043  15.339  1.3676 -0.1180 -1.5635
 6434SOL    HW230765   0.569   3.169  15.425 -2.2892 -1.5282 -0.4860
 6435SOL     OW30766   4.634   2.360   7.583 -0.1348  0.5590  0.2350
 6435SOL    HW130767   4.647   2.448   7.617  2.4827  0.0088  0.6259
 6435SOL    HW230768   4.720   2.321   7.566 -1.4734 -3.2830  2.2556
 6436SOL     OW30769   2.966   1.088  15.744 -0.0603 -0.5181 -0.0948
 6436SOL    HW130770   2.981   1.096  15.838  0.5950  1.5049 -0.3710
 6436SOL    HW230771   2.885   1.037  15.748  0.5485 -1.4413  0.2301
 6437SOL     OW30772   4.572   0.247   7.047  0.4402 -0.7726 -0.1284
 6437SOL    HW130773   4.533   0.166   7.016 -2.6381  0.1082  1.3805
 6437SOL    HW230774   4.488   0.284   7.075  0.1971 -0.5630 -1.1312
 6438SOL     OW30775   1.477   1.290  11.628  0.4246  0.5146 -0.1085
 6438SOL    HW130776   1.501   1.300  11.536 -3.7045  0.8005 -1.1261
 6438SOL    HW230777   1.509   1.202  11.649 -1.9362 -0.1342  0.7729
 6439SOL     OW30778   2.965   1.542   9.208  0.3890 -0.1544  0.0114
 6439SOL    HW130779   2.974   1.581   9.295  0.4388 -0.3642  0.1022
 6439SOL    HW230780   3.044   1.574   9.165  0.3212  0.6804  0.5017
 6440SOL     OW30781   4.669   1.856   8.593 -0.2137  0.2790  0.7323
 6440SOL    HW130782   0.000   1.816   8.658  0.3583  0.5659  0.4155
 6440SOL    HW230783   4.648   1.942   8.629 -1.7839 -0.0174  0.5487
 6441SOL     OW30784   3.310   4.450   1.926 -0.0962  0.6537 -0.0438
 6441SOL    HW130785   3.360   4.517   1.972 -1.3752  0.9234  0.9490
 6441SOL    HW230786   3.360   4.434   1.846 -2.0740 -1.9218 -0.7492
 6442SOL     OW30787   1.234   3.142  17.191 -0.2683 -0.1933  0.0686
 6442SOL    HW130788   1.171   3.159  17.261  1.0287  1.3356  0.8664
 6442SOL    HW230789   1.251   3.051  17.213 -0.4503  0.1933  1.8042
 6443SOL     OW30790   1.320   4.671   8.687 -0.5335 -0.7444  0.7377
 6443SOL    HW130791   1.242   4.616   8.690 -1.1610  0.0126 -2.0220
 6443SOL    HW230792   1.333   4.676   8.782  3.2706 -2.4455  0.3037
 6444SOL     OW30793   0.567   3.354  12.406 -0.1338 -0.0287  0.3328
 6444SOL    HW130794   0.562   3.303  12.487 -0.7578  1.2842  1.1291
 6444SOL    HW230795   0.641   3.310  12.362 -0.7940 -2.3706  1.5502
 6445SOL     OW30796   0.469   1.053   7.348 -0.5285  0.4077 -0.5447
 6445SOL    HW130797   0.544   1.000   7.375 -2.9119 -1.9493  1.5651
 6445SOL    HW230798   0.475   1.036   7.254 -0.0932  0.4159 -0.5184
 6446SOL     OW30799   0.926   0.316   7.562  0.8018 -0.0887 -0.0632
 6446SOL    HW130800   1.011   0.273   7.568  0.0399 -1.9334 -2.2703
 6446SOL    HW230801   0.933   0.379   7.490 -1.4506 -0.0098 -0.2118
 6447SOL     OW30802   0.626   2.687  12.381  0.3704 -0.0889 -0.6621
 6447SOL    HW130803   0.638   2.592  12.381  0.7047 -0.0433  0.0338
 6447SOL    HW230804   0.608   2.696  12.287  2.5105 -1.0260 -1.1624
 6448SOL     OW30805   0.871   0.522   5.628  0.2487 -0.0098 -0.3895
 6448SOL    HW130806   0.855   0.428   5.630  0.2283 -0.0128 -0.6522
 6448SOL    HW230807   0.782   0.549   5.649 -0.0480 -1.0141 -0.3864
 6449SOL     OW30808   3.406   3.379   7.173  0.5082 -0.1124 -0.1349
 6449SOL    HW130809   3.334   3.392   7.112 -1.5197 -1.8728  1.8592
 6449SOL    HW230810   3.358   3.377   7.256 -1.0368  0.9935 -0.9974
 6450SOL     OW30811   0.991   0.554   9.458  0.0964  0.1746 -0.0623
 6450SOL    HW130812   0.967   0.482   9.516 -0.3440 -1.4353 -2.2558
 6450SOL    HW230813   1.084   0.577   9.470  0.3581 -0.6338 -0.5758
 6451SOL     OW30814   3.035   1.162  16.004 -0.2751  0.0035 -0.0670
 6451SOL    HW130815   2.988   1.206  16.075 -0.9058 -0.0695 -0.4386
 6451SOL    HW230816   3.013   1.071  16.023 -1.7308  0.2565 -0.4883
 6452SOL     OW30817   1.426   2.008   7.559  0.4816 -0.1083  0.1068
 6452SOL    HW130818   1.358   2.033   7.496 -0.0345 -1.7771  0.0108
 6452SOL    HW230819   1.420   1.912   7.556 -2.6839  0.1052 -0.8642
 6453SOL     OW30820   0.367   0.177   5.194 -0.2458  0.0099 -0.1502
 6453SOL    HW130821   0.452   0.180   5.151 -1.1352  1.2934 -1.8147
 6453SOL    HW230822   0.349   0.271   5.201 -1.5234 -0.1654 -1.1608
 6454SOL     OW30823   0.824   4.195  14.550  0.1165 -0.1396  0.0627
 6454SOL    HW130824   0.857   4.178  14.462  1.8497 -0.8626  0.8367
 6454SOL    HW230825   0.749   4.249  14.528 -0.7810 -2.1019 -1.6830
 6455SOL     OW30826   2.357   3.800  14.937 -0.6677  0.2607 -0.6082
 6455SOL    HW130827   2.370   3.726  14.996 -0.4870  0.1210 -0.8247
 6455SOL    HW230828   2.357   3.759  14.851  1.5731 -0.5901 -0.2040
 6456SOL     OW30829   2.974   4.437   7.552 -0.0784 -0.6004 -0.4113
 6456SOL    HW130830   2.941   4.349   7.572  2.0441 -1.2089  0.4841
 6456SOL    HW230831   2.968   4.481   7.637 -1.1318 -0.1247 -0.7410
 6457SOL     OW30832   3.562   4.548   7.398  0.4821  0.4537  0.0175
 6457SOL    HW130833   3.578   4.457   7.372  2.6383  0.8519 -0.1006
 6457SOL    HW230834   3.648   4.586   7.381 -0.3825  1.5493 -1.7864
 6458SOL     OW30835   0.116   4.291  11.372  0.4289 -0.4918  0.1512
 6458SOL    HW130836   0.156   4.215  11.331 -0.3895 -0.6841 -0.2893
 6458SOL    HW230837   0.078   4.246  11.447  1.1241  0.1804  0.9114
 6459SOL     OW30838   4.687   3.543   7.100  0.1592 -0.8698 -0.2159
 6459SOL    HW130839   4.713   3.630   7.069  0.2234 -1.8867 -3.0287
 6459SOL    HW230840   4.601   3.560   7.138  0.3561  0.2577 -0.2772
 6460SOL     OW30841   1.229   4.591  13.057  0.6321 -0.0625  0.0368
 6460SOL    HW130842   1.311   4.544  13.041  0.2264 -0.3229 -1.3343
 6460SOL    HW230843   1.262   4.680  13.051  0.0003  0.0669 -1.4660
 6461SOL     OW30844   2.681   3.763  10.962  0.3644  0.2279 -0.2517
 6461SOL    HW130845   2.596   3.726  10.986  0.9923 -1.9678 -1.3948
 6461SOL    HW230846   2.702   3.741  10.871 -0.8610 -0.8253 -0.2771
 6462SOL     OW30847   2.408   4.002  12.762  0.8727 -0.4236 -0.3649
 6462SOL    HW130848   2.426   3.911  12.738 -0.5147 -0.6594 -0.5260
 6462SOL    HW230849   2.495   4.019  12.798  0.8152 -0.4423 -0.2170
 6463SOL     OW30850   4.098   1.088   5.154  0.5207  0.2238 -0.3063
 6463SOL    HW130851   4.023   1.029   5.147  0.7033 -0.2260  1.3573
 6463SOL    HW230852   4.080   1.153   5.223  1.8460  0.2033  0.0573
 6464SOL     OW30853   3.348   3.394   6.151  0.7396 -0.4600  0.1482
 6464SOL    HW130854   3.387   3.312   6.123  1.9877 -0.5850  2.2253
 6464SOL    HW230855   3.259   3.360   6.156  0.1977  1.0538  0.9948
 6465SOL     OW30856   2.536   4.555   1.133  0.3690  0.3155  0.0384
 6465SOL    HW130857   2.508   4.620   1.197 -1.1020 -0.7883  0.4976
 6465SOL    HW230858   2.453   4.507   1.136  0.0720  0.7964 -0.5099
 6466SOL     OW30859   0.208   2.911   0.018 -0.6439 -0.0902 -0.3179
 6466SOL    HW130860   0.157   2.866  17.653 -1.5323 -1.5433  1.3121
 6466SOL    HW230861   0.175   2.860   0.092  2.1238  0.4971  1.3182
 6467SOL     OW30862   4.030   2.456   4.212  0.4751 -0.2684  0.4564
 6467SOL    HW130863   4.122   2.436   4.195  1.0516  1.8802  1.0576
 6467SOL    HW230864   4.033   2.539   4.260 -0.0314  0.4919 -0.8323
 6468SOL     OW30865   3.906   3.239   5.390  0.6823  0.5328  0.1255
 6468SOL    HW130866   3.869   3.326   5.378 -1.3646 -0.3949 -0.3950
 6468SOL    HW230867   3.986   3.249   5.339 -0.1644  0.2170 -1.2516
 6469SOL     OW30868   4.633   2.881   2.815 -0.0190 -0.3380 -0.2466
 6469SOL    HW130869   4.643   2.947   2.746  2.5944 -0.9248 -0.4185
 6469SOL    HW230870   4.555   2.919   2.855  2.1115  0.0279  3.4733
 6470SOL     OW30871   4.303   0.688   1.670 -0.4670 -0.2882 -0.1718
 6470SOL    HW130872   4.262   0.635   1.738 -0.4318 -0.6175 -0.4011
 6470SOL    HW230873   4.395   0.688   1.696 -0.8392  1.2288  1.1078
 6471SOL     OW30874   3.968   2.310  13.776  0.2221  0.0677 -0.2306
 6471SOL    HW130875   4.004   2.293  13.863 -0.8315  0.8149  0.3397
 6471SOL    HW230876   4.038   2.287  13.715  1.2509  2.2566  0.1310
 6472SOL     OW30877   1.710   4.110   5.992  0.3291 -0.6493 -0.3970
 6472SOL    HW130878   1.797   4.082   5.961  0.8157  0.3673  0.0325
 6472SOL    HW230879   1.719   4.204   5.976  3.2319 -0.3956  2.7160
 6473SOL     OW30880   2.567   4.241   2.659  0.3621 -0.1758  0.2173
 6473SOL    HW130881   2.629   4.285   2.600  1.7732 -2.3257  0.1132
 6473SOL    HW230882   2.494   4.229   2.598  0.4860 -0.4601  0.1276
 6474SOL     OW30883   0.362   1.335   9.680  0.0972  0.1724 -0.2262
 6474SOL    HW130884   0.411   1.280   9.618  0.7107 -0.3871  0.7446
 6474SOL    HW230885   0.405   1.309   9.761 -2.7928 -1.0313  0.8980
 6475SOL     OW30886   0.439   3.886  16.722 -0.1148  0.0556 -0.3202
 6475SOL    HW130887   0.479   3.879  16.636  2.6350  0.8945  0.9019
 6475SOL    HW230888   0.405   3.975  16.717 -1.7247 -0.5919 -1.1742
 6476SOL     OW30889   1.111   2.102  17.317 -0.5713  0.4986 -0.2135
 6476SOL    HW130890   1.106   2.181  17.371  1.6065 -0.1544  0.9543
 6476SOL    HW230891   1.030   2.055  17.339  0.3869 -1.3877 -0.7150
 6477SOL     OW30892   3.777   0.243  15.118  0.0320  0.6607  0.2585
 6477SOL    HW130893   3.784   0.163  15.066 -0.9316  2.0427 -2.0129
 6477SOL    HW230894   3.860   0.244  15.165 -0.3200  1.9544  0.8482
 6478SOL     OW30895   4.454   1.368   4.197  0.0732  0.3617  0.3174
 6478SOL    HW130896   4.514   1.318   4.253 -0.3127  1.5011  1.7540
 6478SOL    HW230897   4.426   1.291   4.147 -0.0988 -1.3181  3.0075
 6479SOL     OW30898   0.322   4.168  14.945 -0.3939 -0.4424 -0.1018
 6479SOL    HW130899   0.336   4.094  14.886  1.1693  0.7481 -1.2204
 6479SOL    HW230900   0.232   4.187  14.921 -0.5142 -0.2674  0.4712
 6480SOL     OW30901   0.049   1.582   0.697  0.1365 -0.1805 -0.0199
 6480SOL    HW130902   0.005   1.504   0.664 -0.9410  0.3985  0.0549
 6480SOL    HW230903   0.005   1.643   0.639 -0.8191  0.0423  0.9292
 6481SOL     OW30904   1.934   2.301  14.550  0.5651  0.6495 -0.1471
 6481SOL    HW130905   1.900   2.225  14.598 -2.8324  1.5248 -1.1973
 6481SOL    HW230906   1.959   2.263  14.466  0.9503  0.3018  0.1192
 6482SOL     OW30907   1.534   3.708   6.727 -0.3031 -0.1986 -0.1797
 6482SOL    HW130908   1.517   3.763   6.651 -0.4833  1.8918  1.4003
 6482SOL    HW230909   1.600   3.649   6.690  0.6184 -0.4697  1.9239
 6483SOL     OW30910   0.023   0.381   5.005 -0.8121 -0.3550 -0.4900
 6483SOL    HW130911   4.703   0.453   4.963  2.9620  2.3583  0.1264
 6483SOL    HW230912   0.090   0.358   4.941  0.8160  2.1837  0.3242
 6484SOL     OW30913   3.179   3.935   5.961  0.0220 -0.6227 -0.1332
 6484SOL    HW130914   3.166   4.021   5.922 -0.0637 -0.2278  0.7633
 6484SOL    HW230915   3.258   3.898   5.921  0.2724 -0.3636  0.1251
 6485SOL     OW30916   2.806   0.996   6.743  0.0434  0.9758  0.6340
 6485SOL    HW130917   2.772   1.049   6.816  0.6627 -0.1849  1.7690
 6485SOL    HW230918   2.823   0.911   6.782  0.3519 -1.1678 -4.2453
 6486SOL     OW30919   2.400   0.642  14.020  0.3253 -0.5455 -0.0044
 6486SOL    HW130920   2.406   0.670  14.112 -0.1465  2.2007 -0.8028
 6486SOL    HW230921   2.370   0.552  14.033  1.0347 -0.9979 -1.4848
 6487SOL     OW30922   2.537   2.517   2.370 -0.0946  0.5380  0.0382
 6487SOL    HW130923   2.463   2.541   2.315 -2.5830 -2.4776  2.0353
 6487SOL    HW230924   2.489   2.454   2.424  0.5910 -0.2829 -0.2949
 6488SOL     OW30925   1.059   4.257   3.373  0.5706 -0.2109 -0.1299
 6488SOL    HW130926   1.104   4.174   3.360  1.3815 -0.0607  1.7667
 6488SOL    HW230927   1.086   4.279   3.462  0.5380  0.7806 -0.3613
 6489SOL     OW30928   1.856   4.042  10.288  0.3258 -0.4015 -0.4047
 6489SOL    HW130929   1.950   4.059  10.280  0.2457 -0.0213 -0.5282
 6489SOL    HW230930   1.816   4.107  10.231  1.2218  1.5127  1.1622
 6490SOL     OW30931   3.395   4.688  12.613  0.0740  0.1947 -0.2012
 6490SOL    HW130932   3.320   4.695  12.673  0.8138 -0.5488  0.8037
 6490SOL    HW230933   3.419   4.596  12.612 -1.0386 -0.1031  0.5397
 6491SOL     OW30934   0.333   1.333   5.107  0.3585 -0.1071  0.0238
 6491SOL    HW130935   0.253   1.296   5.144 -1.6050  0.8114 -3.3494
 6491SOL    HW230936   0.395   1.288   5.164  1.1034 -0.3015 -0.9431
 6492SOL     OW30937   3.273   0.419  15.147 -0.3309  0.3658  0.0378
 6492SOL    HW130938   3.344   0.368  15.185 -0.1385  0.5147 -0.1204
 6492SOL    HW230939   3.332   0.482  15.105 -0.6903  1.2629  0.8797
 6493SOL     OW30940   2.775   4.429   8.776 -0.3928 -0.7044 -0.3686
 6493SOL    HW130941   2.859   4.453   8.738 -0.5945  0.9743  0.2722
 6493SOL    HW230942   2.792   4.340   8.807 -0.4891 -0.6634 -0.1995
 6494SOL     OW30943   3.065   2.732  12.965  0.0634 -0.1714 -0.0030
 6494SOL    HW130944   3.089   2.732  13.058 -3.0913 -0.8342  0.8092
 6494SOL    HW230945   3.081   2.821  12.931  0.3826 -0.2810 -0.1442
 6495SOL     OW30946   0.876   3.775   4.390 -0.2337 -0.0163 -0.3448
 6495SOL    HW130947   0.885   3.870   4.377  0.7341  0.1490  1.6496
 6495SOL    HW230948   0.935   3.766   4.465  1.1058 -0.9064 -1.5076
 6496SOL     OW30949   0.508   2.228  12.163 -0.0193 -0.9490 -0.1487
 6496SOL    HW130950   0.422   2.254  12.130  0.1694 -1.4573 -1.0422
 6496SOL    HW230951   0.493   2.189  12.249 -1.8952  0.3889  0.1322
 6497SOL     OW30952   0.156   3.737   6.870  0.0262 -0.1214 -0.2469
 6497SOL    HW130953   0.213   3.709   6.942  1.0601  1.9299 -0.2446
 6497SOL    HW230954   0.179   3.830   6.864  0.6320 -0.1222  1.9654
 6498SOL     OW30955   1.299   1.171   6.237 -0.5351  0.0996  0.1120
 6498SOL    HW130956   1.274   1.125   6.318  1.5843  0.6439  1.0864
 6498SOL    HW230957   1.316   1.093   6.185 -0.9262 -0.3003  0.5782
 6499SOL     OW30958   0.034   4.658   9.759 -0.2444  0.3691  0.1439
 6499SOL    HW130959   0.100   4.597   9.792  0.2436 -0.0738 -1.6584
 6499SOL    HW230960   0.071   4.671   9.672  0.3184  1.3168  0.5310
 6500SOL     OW30961   0.208   0.599  14.174  0.6532  0.1496  0.5103
 6500SOL    HW130962   0.156   0.673  14.206  1.1702  1.3843 -1.4396
 6500SOL    HW230963   0.189   0.536  14.243 -0.4527  1.4727  1.4322
 6501SOL     OW30964   3.781   0.387   2.886  0.6418 -0.0814  0.2363
 6501SOL    HW130965   3.743   0.452   2.946 -0.9224  0.1411 -0.9953
 6501SOL    HW230966   3.875   0.401   2.897  0.9009 -0.3219 -1.8206
 6502SOL     OW30967   1.226   2.163   9.248 -0.0333 -0.4557 -0.0449
 6502SOL    HW130968   1.271   2.106   9.311 -1.4206 -2.1851 -0.6018
 6502SOL    HW230969   1.156   2.197   9.304 -0.6481 -3.5722  1.1316
 6503SOL     OW30970   4.561   1.557   7.184 -0.2874  0.2818  0.1629
 6503SOL    HW130971   4.634   1.616   7.204 -0.2732 -0.5041  2.3669
 6503SOL    HW230972   4.605   1.472   7.181  2.2060  1.6413 -1.4946
 6504SOL     OW30973   1.025   2.519  11.766 -0.0967 -0.2069  0.0783
 6504SOL    HW130974   0.939   2.480  11.782  0.2055 -1.5606 -1.6183
 6504SOL    HW230975   1.053   2.448  11.709  2.5116  0.4074  0.6221
 6505SOL     OW30976   2.439   2.624  14.338  0.0835  0.1678 -0.0461
 6505SOL    HW130977   2.495   2.554  14.304  1.4335  0.9127  0.6369
 6505SOL    HW230978   2.488   2.706  14.328 -0.3999  0.4387 -0.1875
 6506SOL     OW30979   1.524   3.776   5.831 -0.2905  0.0507 -0.0365
 6506SOL    HW130980   1.610   3.741   5.805 -0.7173 -0.1151 -1.2084
 6506SOL    HW230981   1.528   3.865   5.797 -2.7974  1.5008  3.4224
 6507SOL     OW30982   2.912   0.747   2.655 -0.8504  0.3090  0.0737
 6507SOL    HW130983   2.827   0.708   2.633 -0.4090 -0.3990 -0.3538
 6507SOL    HW230984   2.977   0.729   2.587 -1.0132  1.1222 -0.2954
 6508SOL     OW30985   1.076   0.754   5.101 -0.1504  0.4274 -0.1846
 6508SOL    HW130986   1.000   0.753   5.160  1.2587 -1.9356  1.5864
 6508SOL    HW230987   1.135   0.703   5.157  0.1580  0.1652 -0.7507
 6509SOL     OW30988   2.664   2.223  15.544  0.3036  0.2720 -0.2752
 6509SOL    HW130989   2.620   2.279  15.608  2.2418  3.2806 -1.5889
 6509SOL    HW230990   2.714   2.292  15.501  1.4974 -0.3256  0.1726
 6510SOL     OW30991   2.722   3.691   7.591 -0.3034 -0.1615  0.1220
 6510SOL    HW130992   2.628   3.693   7.607 -0.3858  0.3293 -0.4118
 6510SOL    HW230993   2.770   3.734   7.662  1.3846 -0.7056 -0.6804
 6511SOL     OW30994   0.172   0.414   5.552 -0.4855 -0.0574  0.1773
 6511SOL    HW130995   0.142   0.433   5.463 -1.9326  0.6698  0.8330
 6511SOL    HW230996   0.151   0.322   5.560  0.6986 -0.2246  1.4223
 6512SOL     OW30997   0.048   4.673   8.373  0.1162 -0.6391 -0.5449
 6512SOL    HW130998   0.059   0.036   8.408  0.6497 -1.7070  2.0252
 6512SOL    HW230999   0.129   4.655   8.325 -0.1061 -2.7356 -0.1601
 6513SOL     OW31000   4.165   1.941   3.299 -0.5532  0.7563 -0.2096
 6513SOL    HW131001   4.095   1.875   3.303  0.2465 -0.0706  0.0784
 6513SOL    HW231002   4.190   1.946   3.391  0.5492 -2.4167 -0.3350
 6514SOL     OW31003   2.764   2.278   0.196 -1.0853  0.1509 -0.0813
 6514SOL    HW131004   2.676   2.243   0.209 -1.3903  0.4404 -1.3519
 6514SOL    HW231005   2.807   2.266   0.281  0.8269 -0.3751 -1.1257
 6515SOL     OW31006   0.955   3.569  17.342  0.0933  0.3455 -0.4377
 6515SOL    HW131007   0.958   3.665  17.344  0.0180  0.3223  1.1301
 6515SOL    HW231008   1.038   3.548  17.300 -1.9779 -2.4736 -3.1196
 6516SOL     OW31009   2.033   4.271   2.978 -0.0483  0.3065 -0.2613
 6516SOL    HW131010   2.010   4.216   2.903  1.6724 -1.2767  0.3764
 6516SOL    HW231011   1.959   4.331   2.972  2.2527  3.1456  0.2803
 6517SOL     OW31012   1.948   0.909   6.466  0.0929  0.0626  0.0495
 6517SOL    HW131013   1.875   0.858   6.431 -0.8608  0.7820  1.0111
 6517SOL    HW231014   1.980   0.846   6.530  0.3046  0.1409  0.0204
 6518SOL     OW31015   2.537   2.518   8.507 -0.1412  0.2706 -0.0713
 6518SOL    HW131016   2.562   2.517   8.600 -1.3635  0.0910  0.2635
 6518SOL    HW231017   2.606   2.467   8.465 -0.3849  1.8278 -2.3553
 6519SOL     OW31018   3.089   2.657   9.164 -0.0827 -0.5481  0.0366
 6519SOL    HW131019   3.108   2.642   9.257 -1.2667 -0.8165  0.2325
 6519SOL    HW231020   3.015   2.717   9.175  0.7275  0.6708 -1.0623
 6520SOL     OW31021   1.267   3.634   6.774  0.0767  0.9598  0.2094
 6520SOL    HW131022   1.297   3.553   6.815 -0.0404  1.4999  1.3672
 6520SOL    HW231023   1.350   3.680   6.759  0.1633  1.2877  1.7373
 6521SOL     OW31024   0.065   4.634  13.592 -0.2828  0.0731 -0.2278
 6521SOL    HW131025   0.060   4.538  13.597  3.3799 -0.1364 -1.0206
 6521SOL    HW231026   0.032   4.659  13.678 -0.1225 -2.7366  0.6676
 6522SOL     OW31027   3.406   3.789   7.988 -0.0862  0.2035 -0.0518
 6522SOL    HW131028   3.319   3.776   8.025  1.3210 -1.2833  2.7611
 6522SOL    HW231029   3.399   3.884   7.978  0.4651  0.1048 -1.3238
 6523SOL     OW31030   1.001   2.303   1.378 -0.5278  0.0376 -0.0445
 6523SOL    HW131031   0.907   2.316   1.366 -0.2646  1.6220 -0.3996
 6523SOL    HW231032   1.025   2.387   1.417 -1.1037  0.6983 -1.0971
 6524SOL     OW31033   3.412   3.942  16.088 -0.1129  0.1215  0.7957
 6524SOL    HW131034   3.382   3.852  16.104  0.4279 -0.4263 -1.2815
 6524SOL    HW231035   3.412   3.941  15.992 -2.3483  0.9412  0.8014
 6525SOL     OW31036   3.254   1.014  13.571 -0.0204  0.1212  0.2586
 6525SOL    HW131037   3.188   1.081  13.554 -0.4761 -0.7110 -1.1915
 6525SOL    HW231038   3.322   1.070  13.608 -2.9207  3.0327  1.1920
 6526SOL     OW31039   1.710   0.479  10.133 -0.5445 -0.0392 -0.1312
 6526SOL    HW131040   1.783   0.441  10.182  0.1028  0.1679 -0.9377
 6526SOL    HW231041   1.679   0.407  10.077 -0.2336  1.1455 -1.8184
 6527SOL     OW31042   0.446   4.233   3.135  0.8954 -0.0933 -0.4184
 6527SOL    HW131043   0.395   4.194   3.063 -1.8566 -1.0028  2.0240
 6527SOL    HW231044   0.508   4.265   3.069 -0.9690 -1.3131 -2.7626
 6528SOL     OW31045   2.953   1.724   6.022 -0.0072  0.4687  0.0674
 6528SOL    HW131046   2.958   1.808   6.067 -0.5592 -0.2970  1.5432
 6528SOL    HW231047   2.880   1.749   5.965 -1.1673  3.0144  2.6594
 6529SOL     OW31048   1.543   0.083   2.170  0.9642  0.1013  0.2809
 6529SOL    HW131049   1.602   0.022   2.213  1.4278  1.5476  1.6628
 6529SOL    HW231050   1.549   0.151   2.237 -2.5653  1.0824 -0.3845
 6530SOL     OW31051   0.611   3.430  14.226 -0.5867 -0.0129 -0.0825
 6530SOL    HW131052   0.547   3.477  14.279 -0.2797 -0.4155  0.6380
 6530SOL    HW231053   0.690   3.475  14.254 -1.6613  1.6250  0.3211
 6531SOL     OW31054   2.794   2.888   7.680 -0.5490  0.0039 -0.1040
 6531SOL    HW131055   2.815   2.923   7.766  0.0230 -0.6458  0.0188
 6531SOL    HW231056   2.751   2.804   7.696  0.6840 -0.5816  0.1715
 6532SOL     OW31057   3.135   0.416   2.852  0.0134 -0.0988  0.1726
 6532SOL    HW131058   3.102   0.327   2.839  0.7959 -0.6612  1.9887
 6532SOL    HW231059   3.098   0.459   2.775 -0.1739 -2.1059 -0.8503
 6533SOL     OW31060   4.068   1.447   3.352 -0.0810  0.0619 -0.1889
 6533SOL    HW131061   4.164   1.454   3.348 -0.2825  2.6043 -0.7359
 6533SOL    HW231062   4.044   1.429   3.261  0.6737  2.0490 -0.7911
 6534SOL     OW31063   0.057   2.544   5.653  0.2306 -0.6034  0.5272
 6534SOL    HW131064   4.707   2.490   5.629  1.6631 -1.0179 -3.0859
 6534SOL    HW231065   0.085   2.512   5.739 -0.7392  0.6955  1.3160
 6535SOL     OW31066   1.514   3.140   3.293  0.0418  0.0555 -0.3392
 6535SOL    HW131067   1.445   3.134   3.358 -0.2567  0.4836 -0.6115
 6535SOL    HW231068   1.466   3.143   3.210  2.2405 -3.4136 -1.7323
 6536SOL     OW31069   0.801   3.576   8.336 -0.2208  0.0308 -0.4804
 6536SOL    HW131070   0.892   3.586   8.365 -0.7044  1.1444  0.6220
 6536SOL    HW231071   0.781   3.490   8.373  0.7061 -0.5816 -1.4045
 6537SOL     OW31072   4.503   2.719  12.513 -0.0826 -0.3244 -0.4450
 6537SOL    HW131073   4.465   2.806  12.497 -0.2893 -1.0188 -3.7088
 6537SOL    HW231074   4.580   2.736  12.567  0.9864 -0.9153 -1.7733
 6538SOL     OW31075   3.181   3.518   6.673  0.7321  0.3395  0.2401
 6538SOL    HW131076   3.131   3.585   6.626  0.6164  1.9285  2.5993
 6538SOL    HW231077   3.267   3.522   6.632  0.7063 -1.1144  0.0520
 6539SOL     OW31078   3.492   1.225   4.622 -0.1378 -1.3973  0.7530
 6539SOL    HW131079   3.508   1.199   4.531 -0.2826 -0.4242  0.4476
 6539SOL    HW231080   3.582   1.244   4.649 -1.5573  1.8787  3.0933
 6540SOL     OW31081   0.267   0.435   1.018 -0.1275  0.0804 -0.4151
 6540SOL    HW131082   0.255   0.438   1.113 -2.6113  0.6964 -0.7258
 6540SOL    HW231083   0.360   0.436   0.996 -0.3753 -0.3532 -1.4858
 6541SOL     OW31084   2.926   1.475   4.797 -0.1507  0.6163 -0.2772
 6541SOL    HW131085   2.896   1.397   4.844 -0.2732 -0.4243 -2.1102
 6541SOL    HW231086   3.019   1.457   4.811 -0.5652 -0.8128  0.5615
 6542SOL     OW31087   3.863   1.910   1.208  0.3865 -0.3266 -0.1280
 6542SOL    HW131088   3.953   1.943   1.200 -0.4222  2.0002  0.3397
 6542SOL    HW231089   3.869   1.826   1.164  1.2446  0.0305 -0.6992
 6543SOL     OW31090   3.851   4.419   6.818 -0.7263  0.2972 -0.4065
 6543SOL    HW131091   3.851   4.507   6.780 -0.2959 -0.2946 -1.7536
 6543SOL    HW231092   3.900   4.372   6.752  0.6623  0.5495  0.4379
 6544SOL     OW31093   4.711   2.295   4.618  0.4847  0.5313  0.1472
 6544SOL    HW131094   0.046   2.349   4.670 -0.4573 -1.5074  3.3115
 6544SOL    HW231095   4.622   2.314   4.647  0.3721 -2.4946  1.7382
 6545SOL     OW31096   0.147   3.173   1.532 -0.1564 -0.1671 -0.7995
 6545SOL    HW131097   0.091   3.097   1.550  0.3514 -0.9648 -2.4988
 6545SOL    HW231098   0.135   3.219   1.614 -0.2224 -2.7679  0.6548
 6546SOL     OW31099   4.239   0.229   3.684 -0.2251 -0.0629 -0.0230
 6546SOL    HW131100   4.311   0.182   3.725  0.5607  1.9257  0.8625
 6546SOL    HW231101   4.260   0.321   3.702 -0.0906  0.1395 -1.2157
 6547SOL     OW31102   0.951   3.175   5.200  0.0722 -0.3560 -0.7673
 6547SOL    HW131103   1.019   3.130   5.250  0.9591 -0.1989 -1.8296
 6547SOL    HW231104   0.947   3.261   5.242 -1.9812 -1.3944  1.1518
 6548SOL     OW31105   1.815   1.544  13.978  1.3548 -0.3306  0.1460
 6548SOL    HW131106   1.759   1.621  13.969  1.2228 -0.0375  3.3936
 6548SOL    HW231107   1.869   1.554  14.057  2.2323 -2.8137 -0.1113
 6549SOL     OW31108   3.562   1.874   8.878 -0.0367  0.0328 -0.1525
 6549SOL    HW131109   3.623   1.810   8.842 -0.2948  0.0969 -0.7057
 6549SOL    HW231110   3.553   1.839   8.967  2.7793 -1.6673 -0.5409
 6550SOL     OW31111   1.734   0.936   1.818 -0.4637 -0.4329  0.0723
 6550SOL    HW131112   1.700   0.862   1.869 -0.1577  0.5344  1.6926
 6550SOL    HW231113   1.690   1.005   1.867 -1.1934  0.1521 -1.4128
 6551SOL     OW31114   1.740   2.285   5.440 -0.0606  0.3798  0.2354
 6551SOL    HW131115   1.803   2.356   5.445 -1.0742  1.2482  0.6666
 6551SOL    HW231116   1.737   2.286   5.345  1.1664  0.6710  0.2040
 6552SOL     OW31117   2.531   0.488   9.294 -0.1299 -0.3184  0.4302
 6552SOL    HW131118   2.608   0.438   9.269 -0.4965 -0.4049 -0.5156
 6552SOL    HW231119   2.560   0.557   9.353 -3.3630  1.5320 -0.1084
 6553SOL     OW31120   0.346   0.772   8.171  0.5438 -0.1241  0.1481
 6553SOL    HW131121   0.288   0.840   8.207  0.2520  0.5205 -1.5759
 6553SOL    HW231122   0.369   0.731   8.255  2.1058  0.9868  0.2534
 6554SOL     OW31123   3.978   1.489   5.872 -0.3619  0.2323 -0.4392
 6554SOL    HW131124   4.069   1.464   5.887 -0.5620  0.0640  0.5003
 6554SOL    HW231125   3.934   1.440   5.941  0.7075 -0.8848 -0.5529
 6555SOL     OW31126   2.697   0.328  12.008 -0.0226 -0.1935  0.6876
 6555SOL    HW131127   2.691   0.423  11.998 -0.7332 -0.5090 -2.0108
 6555SOL    HW231128   2.792   0.331  11.992 -0.1609  0.9628  0.0824
 6556SOL     OW31129   3.850   4.077  13.487 -0.1658 -0.4006 -0.2039
 6556SOL    HW131130   3.924   4.118  13.441  1.2038 -0.5359  1.8584
 6556SOL    HW231131   3.866   3.986  13.466 -2.2897 -1.1952  1.6286
 6557SOL     OW31132   3.242   0.312   2.139  0.2589 -0.0744  0.3173
 6557SOL    HW131133   3.178   0.284   2.074  0.0720 -0.7503  0.7914
 6557SOL    HW231134   3.254   0.241   2.202 -0.8554 -1.2520 -0.7914
 6558SOL     OW31135   3.830   3.327   2.632  0.4338  0.2617 -0.3285
 6558SOL    HW131136   3.782   3.246   2.617  3.6000 -2.1508  2.6494
 6558SOL    HW231137   3.818   3.334   2.726  0.3393  3.7462 -0.5675
 6559SOL     OW31138   1.228   3.407   5.429 -0.4378  0.3458  0.2342
 6559SOL    HW131139   1.234   3.484   5.485 -2.1038 -0.9319  2.2048
 6559SOL    HW231140   1.210   3.336   5.491 -1.7108  0.0727 -0.4564
 6560SOL     OW31141   4.091   3.320   6.451 -0.0941 -0.0708  0.5470
 6560SOL    HW131142   4.148   3.269   6.393 -2.5188  0.1552 -2.0416
 6560SOL    HW231143   4.008   3.274   6.436  0.2979 -0.5989 -0.0127
 6561SOL     OW31144   4.540   2.723   5.053 -0.5162 -0.1819  0.5409
 6561SOL    HW131145   4.625   2.742   5.092 -0.7650  3.1735 -0.5715
 6561SOL    HW231146   4.500   2.807   5.077  0.7582  0.3143  0.9399
 6562SOL     OW31147   0.429   3.314   7.679 -0.1697  0.1354 -0.0386
 6562SOL    HW131148   0.440   3.261   7.759  0.1406  0.0625 -0.1290
 6562SOL    HW231149   0.464   3.247   7.621 -1.6412 -1.4726  0.9131
 6563SOL     OW31150   3.339   0.565  16.423 -0.5769 -0.1133  0.5679
 6563SOL    HW131151   3.422   0.536  16.461 -1.0908 -3.2486 -0.7705
 6563SOL    HW231152   3.373   0.640  16.375  0.2329 -0.6306  0.3417
 6564SOL     OW31153   3.480   2.179   2.675 -0.5578  0.2691  0.2134
 6564SOL    HW131154   3.400   2.148   2.717  2.2405 -2.5213  3.4842
 6564SOL    HW231155   3.547   2.121   2.712  0.6329  0.3684 -1.8025
 6565SOL     OW31156   3.824   0.158   8.961 -0.0278  0.5917  0.1584
 6565SOL    HW131157   3.760   0.225   8.936  1.1457  1.4431 -0.6166
 6565SOL    HW231158   3.851   0.122   8.876  1.0077  2.2438 -0.2409
 6566SOL     OW31159   3.228   0.684  12.186  0.1005  0.1594  0.2409
 6566SOL    HW131160   3.243   0.748  12.255 -0.3928 -0.1611  0.6408
 6566SOL    HW231161   3.156   0.640  12.231  2.6327 -0.6981  3.4078
 6567SOL     OW31162   0.697   3.752   2.350  0.2097  0.1988 -0.0091
 6567SOL    HW131163   0.673   3.753   2.442  1.6124 -1.3863  0.3866
 6567SOL    HW231164   0.759   3.824   2.355  1.0938 -0.5730  0.2034
 6568SOL     OW31165   3.511   2.294   7.643  0.5392 -0.3054 -0.4415
 6568SOL    HW131166   3.532   2.249   7.725  1.4423  3.0813  1.2063
 6568SOL    HW231167   3.558   2.236   7.583  0.3529 -1.0343  0.1208
 6569SOL     OW31168   2.798   3.288   7.897  0.2509  0.0355  1.0990
 6569SOL    HW131169   2.870   3.350   7.883  0.1125  0.2286  1.2455
 6569SOL    HW231170   2.772   3.311   7.986  0.1061  0.4025  0.9622
 6570SOL     OW31171   0.915   0.746  16.015 -0.7668 -0.2959 -0.0983
 6570SOL    HW131172   0.945   0.777  15.929 -0.4331  2.2507  0.9410
 6570SOL    HW231173   0.824   0.725  15.996  0.8779 -3.6207 -4.2495
 6571SOL     OW31174   3.980   1.805   2.002 -0.3141 -0.5624  0.3186
 6571SOL    HW131175   3.919   1.807   1.929 -0.2307  1.6445  0.3259
 6571SOL    HW231176   4.051   1.866   1.981 -1.2705  0.4154 -0.0524
 6572SOL     OW31177   3.623   2.225  12.292  0.2799 -0.4843  0.1026
 6572SOL    HW131178   3.631   2.245  12.198 -0.3581 -0.8915 -0.0363
 6572SOL    HW231179   3.600   2.132  12.293 -0.2651 -0.3333  1.5073
 6573SOL     OW31180   1.665   2.598   2.277  0.2734 -0.2924  0.3617
 6573SOL    HW131181   1.739   2.568   2.225 -0.4161 -0.4333 -0.5354
 6573SOL    HW231182   1.690   2.690   2.287  0.8620 -0.3619 -0.4881
 6574SOL     OW31183   2.377   3.669   8.216 -0.0460  0.4457  0.4006
 6574SOL    HW131184   2.441   3.598   8.223 -0.2054  0.1213 -1.3610
 6574SOL    HW231185   2.418   3.710   8.140  1.4792 -0.5898  0.6654
 6575SOL     OW31186   2.374   0.246   7.602 -0.2811 -0.2702  0.1366
 6575SOL    HW131187   2.461   0.225   7.637  0.0921 -1.1341 -1.3232
 6575SOL    HW231188   2.375   0.340   7.589 -0.0946 -0.2084  0.5753
 6576SOL     OW31189   1.808   2.754   8.643  0.1968  0.4039 -0.0062
 6576SOL    HW131190   1.871   2.704   8.593 -2.0538  0.0359 -2.4665
 6576SOL    HW231191   1.868   2.818   8.681  0.5632  0.9273 -1.4673
 6577SOL     OW31192   1.295   1.068   1.475  0.1074 -0.0925  0.2502
 6577SOL    HW131193   1.248   1.078   1.392  1.2856 -0.3336 -0.4458
 6577SOL    HW231194   1.382   1.035   1.453 -1.1055 -3.0549 -0.1037
 6578SOL     OW31195   4.597   2.901   1.177  0.3659  0.5480 -0.7745
 6578SOL    HW131196   4.658   2.851   1.124 -1.2416 -1.4646 -0.6905
 6578SOL    HW231197   4.651   2.969   1.219  0.3181 -0.9866  1.7588
 6579SOL     OW31198   3.091   3.133   6.949  0.1340  0.1992  0.2067
 6579SOL    HW131199   3.102   3.183   6.869  1.2723  1.0719  0.9255
 6579SOL    HW231200   3.099   3.209   7.006  0.1805 -0.1033  0.6062
 6580SOL     OW31201   0.886   4.313  11.895  0.0998  0.0921 -0.1480
 6580SOL    HW131202   0.906   4.395  11.850 -1.2864  0.9877  0.8508
 6580SOL    HW231203   0.885   4.350  11.983 -0.7851  0.7728 -0.4409
 6581SOL     OW31204   2.205   4.702  13.582  0.1588  0.4023  0.3647
 6581SOL    HW131205   2.269   0.043  13.555  1.8971 -0.8167  1.4937
 6581SOL    HW231206   2.241   4.624  13.540  1.3613  0.7906  0.6632
 6582SOL     OW31207   0.430   0.535  17.356 -0.2119  0.2883 -0.8663
 6582SOL    HW131208   0.430   0.630  17.355  0.7501  0.2928 -0.5778
 6582SOL    HW231209   0.522   0.524  17.379 -0.6680  0.7915  1.2585
 6583SOL     OW31210   3.989   4.582  16.141  0.5313 -0.5101 -0.4511
 6583SOL    HW131211   3.962   4.658  16.193 -0.0478 -0.7091 -0.4545
 6583SOL    HW231212   4.023   4.626  16.064  0.6318 -1.4108 -0.9242
 6584SOL     OW31213   2.202   1.516  15.528 -0.2128 -0.4645  0.7273
 6584SOL    HW131214   2.191   1.483  15.439 -0.5931  1.9375 -0.0906
 6584SOL    HW231215   2.110   1.511  15.553 -0.8681  0.7597 -1.4566
 6585SOL     OW31216   3.372   1.691   8.668  0.4727 -0.2991 -0.1323
 6585SOL    HW131217   3.328   1.771   8.641 -1.9998 -2.3418 -2.1443
 6585SOL    HW231218   3.448   1.687   8.609  0.9380 -1.4732  0.5484
 6586SOL     OW31219   3.912   1.646   7.503 -0.4915 -0.1847 -0.0757
 6586SOL    HW131220   3.973   1.649   7.430 -2.8462 -0.5313 -2.0597
 6586SOL    HW231221   3.835   1.641   7.446 -0.5783 -2.7393  0.2866
 6587SOL     OW31222   2.873   4.226   8.392 -0.8570 -0.2319 -0.0797
 6587SOL    HW131223   2.931   4.226   8.468 -0.6149  0.0320 -0.2653
 6587SOL    HW231224   2.791   4.252   8.434 -0.8929  0.3055 -0.4822
 6588SOL     OW31225   2.547   1.546   8.347  0.3763  0.6640  0.6394
 6588SOL    HW131226   2.538   1.480   8.416  0.6061 -0.1103 -0.0609
 6588SOL    HW231227   2.535   1.612   8.414 -0.0900  0.0188  1.1900
 6589SOL     OW31228   2.680   2.315   3.372  0.0582 -0.3959 -0.7220
 6589SOL    HW131229   2.660   2.223   3.387  1.0243 -0.7424 -1.6082
 6589SOL    HW231230   2.775   2.319   3.368  0.0985  0.5136  1.3116
 6590SOL     OW31231   0.306   0.280   9.074  0.1242 -0.4512  0.9130
 6590SOL    HW131232   0.337   0.190   9.086  0.0334 -0.5062  0.7167
 6590SOL    HW231233   0.215   0.275   9.101 -0.3116  0.2700 -0.4434
 6591SOL     OW31234   3.407   1.094   2.031  0.0376  0.1575 -0.3364
 6591SOL    HW131235   3.353   1.165   1.996  0.9366  1.8736  1.6941
 6591SOL    HW231236   3.352   1.020   2.007  1.8085 -1.7442  1.4742
 6592SOL     OW31237   2.313   2.325   1.907 -0.4630  0.3873  0.3788
 6592SOL    HW131238   2.325   2.289   1.820 -3.7249  0.6690 -0.1969
 6592SOL    HW231239   2.329   2.418   1.892 -0.5977 -0.0273 -2.2604
 6593SOL     OW31240   3.388   1.984   7.359  0.2433  0.0483  0.4700
 6593SOL    HW131241   3.362   2.076   7.367 -2.6860 -0.8763  1.9970
 6593SOL    HW231242   3.340   1.974   7.277  1.0032  3.5717 -0.4195
 6594SOL     OW31243   3.368   2.497   0.706  0.3209  0.3479  0.4785
 6594SOL    HW131244   3.354   2.531   0.794 -1.5227  1.2011 -0.1341
 6594SOL    HW231245   3.445   2.545   0.675 -0.1607  1.7982  1.5198
 6595SOL     OW31246   0.885   1.116   5.228  0.5021  0.1014 -0.6683
 6595SOL    HW131247   0.933   1.114   5.145  2.3526 -0.6608  0.4358
 6595SOL    HW231248   0.818   1.183   5.215 -1.0160 -1.0731  1.1106
 6596SOL     OW31249   2.737   4.485  15.405  0.1045 -0.4060 -0.1423
 6596SOL    HW131250   2.683   4.475  15.327  1.4352  0.1841 -1.1317
 6596SOL    HW231251   2.807   4.544  15.378 -0.8727  0.1632 -1.4238
 6597SOL     OW31252   0.456   1.716   1.512  0.2121 -0.0753 -0.2665
 6597SOL    HW131253   0.484   1.664   1.587  0.6252  0.0665 -0.3268
 6597SOL    HW231254   0.360   1.719   1.516  0.1315  2.0684 -3.5877
 6598SOL     OW31255   2.533   2.443   3.162  0.5865 -0.0456  0.0754
 6598SOL    HW131256   2.459   2.383   3.151  0.0769  0.6765 -0.3830
 6598SOL    HW231257   2.573   2.403   3.239  0.9014  0.9711  0.4416
 6599SOL     OW31258   4.701   4.361  13.812  1.1753 -0.3642  0.7533
 6599SOL    HW131259   4.640   4.364  13.739  0.5427  0.7648  1.3379
 6599SOL    HW231260   0.014   4.448  13.810  0.4184 -0.0876 -1.7184
 6600SOL     OW31261   1.069   2.556  16.176  0.1709  0.2750  0.1024
 6600SOL    HW131262   1.051   2.603  16.095 -1.2905 -1.2320 -0.4258
 6600SOL    HW231263   1.149   2.508  16.152 -0.1092  1.4457 -3.1463
 6601SOL     OW31264   1.803   1.222   7.859  0.1806 -0.5301  0.5589
 6601SOL    HW131265   1.772   1.135   7.881  1.6772 -0.7428  1.7698
 6601SOL    HW231266   1.741   1.246   7.790  0.5796  0.2755  0.4738
 6602SOL     OW31267   1.542   1.515   4.671 -0.3326 -0.5057  0.1500
 6602SOL    HW131268   1.510   1.602   4.696 -1.3669 -0.5631 -0.9731
 6602SOL    HW231269   1.638   1.511   4.672 -0.2243  2.2064  0.5139
 6603SOL     OW31270   1.176   1.094   5.248  0.2636 -0.0590  0.0219
 6603SOL    HW131271   1.088   1.057   5.255 -0.2661  0.6682 -2.8987
 6603SOL    HW231272   1.208   1.051   5.168  0.0923  0.2947 -0.2387
 6604SOL     OW31273   1.015   0.556   1.105  0.1991 -0.6069 -0.0450
 6604SOL    HW131274   1.009   0.461   1.114  1.5379 -0.6936 -0.1107
 6604SOL    HW231275   0.971   0.573   1.188  2.0543  1.9088  0.4385
 6605SOL     OW31276   3.831   3.194  14.027 -0.0073  0.2626  0.0796
 6605SOL    HW131277   3.759   3.234  14.076  0.9140 -0.4291  2.0266
 6605SOL    HW231278   3.890   3.269  14.028  0.2605  0.0524 -0.1267
 6606SOL     OW31279   1.866   3.407  12.984 -0.7031 -0.2894 -0.1772
 6606SOL    HW131280   1.786   3.442  13.024 -0.2923 -3.4143  3.3333
 6606SOL    HW231281   1.832   3.351  12.913  0.8307  0.6053 -1.5971
 6607SOL     OW31282   1.061   2.759   4.982 -0.2068  0.2228  0.9266
 6607SOL    HW131283   0.992   2.796   5.036  0.1170 -0.5832  1.8812
 6607SOL    HW231284   1.099   2.842   4.952 -0.2236  0.2159  0.8854
 6608SOL     OW31285   0.496   1.132  17.159  0.4011 -0.0872 -0.1164
 6608SOL    HW131286   0.538   1.169  17.081  1.4751 -1.0136  0.0133
 6608SOL    HW231287   0.406   1.156  17.135  1.8174  2.4368 -3.0526
 6609SOL     OW31288   3.213   1.221   9.149 -0.5487 -0.2809  0.0606
 6609SOL    HW131289   3.230   1.286   9.217  1.0507  0.4859 -1.0606
 6609SOL    HW231290   3.164   1.157   9.201  0.0092 -1.6995 -1.1399
 6610SOL     OW31291   0.604   3.489   8.621  0.3699  0.2912  0.3026
 6610SOL    HW131292   0.682   3.440   8.595  0.5059  0.8184 -0.2793
 6610SOL    HW231293   0.647   3.573   8.638  1.8950 -0.0889 -1.6285
 6611SOL     OW31294   0.050   4.191   4.431  0.5995 -0.0963 -0.4716
 6611SOL    HW131295   0.060   4.143   4.513 -0.8809  2.0486  0.9841
 6611SOL    HW231296   0.007   4.271   4.463  0.7628 -1.5476  3.3990
 6612SOL     OW31297   3.380   3.933   3.806 -0.0598  0.5316 -0.5614
 6612SOL    HW131298   3.368   3.900   3.717 -0.6218  0.0421 -0.3077
 6612SOL    HW231299   3.324   3.867   3.848  0.3906  0.1902 -0.5040
 6613SOL     OW31300   2.092   4.200  12.942 -0.1494  0.3262  0.0585
 6613SOL    HW131301   2.068   4.228  13.031  2.6082 -1.5384  1.3825
 6613SOL    HW231302   2.184   4.225  12.948 -0.4523  1.7555 -1.3036
 6614SOL     OW31303   2.251   1.035  10.651  0.1657  0.0435  0.2729
 6614SOL    HW131304   2.328   0.982  10.671  0.3551  0.9821  2.0467
 6614SOL    HW231305   2.228   0.992  10.569 -0.7542  1.2598 -0.1089
 6615SOL     OW31306   1.035   2.384  12.487  0.2887 -0.2709  0.2224
 6615SOL    HW131307   1.103   2.373  12.421  0.7016  2.3732  0.2124
 6615SOL    HW231308   0.965   2.326  12.458 -0.1887 -0.5077  1.8378
 6616SOL     OW31309   0.653   4.266   7.059  0.3708 -0.3361 -0.2187
 6616SOL    HW131310   0.656   4.173   7.083 -1.0440  0.0750  1.5352
 6616SOL    HW231311   0.599   4.260   6.980  2.2250 -0.6589 -1.4498
 6617SOL     OW31312   4.143   0.161   0.519  0.6922  0.6329  0.0675
 6617SOL    HW131313   4.047   0.167   0.518  0.7076  0.8311 -0.3259
 6617SOL    HW231314   4.173   0.086   0.571  1.9006  0.1044 -1.3889
 6618SOL     OW31315   0.272   1.459  17.285 -0.7277 -0.0127 -0.0200
 6618SOL    HW131316   0.235   1.469  17.197 -2.1174  1.3111  0.7321
 6618SOL    HW231317   0.346   1.521  17.290 -0.2480 -0.2416 -4.5813
 6619SOL     OW31318   3.604   1.512   3.568 -0.1191 -0.0641 -0.3307
 6619SOL    HW131319   3.575   1.569   3.638  0.6542 -1.1717  0.8931
 6619SOL    HW231320   3.697   1.533   3.573 -0.2517  0.8299 -1.5685
 6620SOL     OW31321   4.551   2.263   3.801 -0.2853 -0.0150  0.4314
 6620SOL    HW131322   4.592   2.176   3.791 -2.9766 -1.0394 -1.5707
 6620SOL    HW231323   4.624   2.305   3.847  1.0034 -1.1756 -0.5377
 6621SOL     OW31324   1.063   1.516  11.494 -0.2056  0.2241  0.0409
 6621SOL    HW131325   0.984   1.570  11.500  0.0608  0.7985 -1.5256
 6621SOL    HW231326   1.104   1.523  11.580 -0.5303 -1.7111  0.3688
 6622SOL     OW31327   2.642   3.777   4.317 -0.3592 -0.0082 -0.4592
 6622SOL    HW131328   2.735   3.753   4.320 -0.0960  1.1391  0.5646
 6622SOL    HW231329   2.650   3.865   4.280 -3.5556  0.2127 -0.6137
 6623SOL     OW31330   2.452   1.480   6.721  0.9399 -0.4313 -0.4813
 6623SOL    HW131331   2.501   1.541   6.777  2.8001 -1.8087 -0.6071
 6623SOL    HW231332   2.525   1.421   6.704  1.8630  1.1553 -2.1344
 6624SOL     OW31333   0.798   1.229  10.312 -0.2891 -0.1393 -0.3697
 6624SOL    HW131334   0.881   1.239  10.265  0.7025 -0.5705  1.2969
 6624SOL    HW231335   0.740   1.222  10.236 -0.7483 -0.3213 -0.0039
 6625SOL     OW31336   2.301   4.570   8.132 -0.5135 -0.2247 -0.4580
 6625SOL    HW131337   2.302   4.536   8.222 -2.1551 -1.2642 -0.8366
 6625SOL    HW231338   2.394   4.556   8.113 -0.1301 -0.6626  1.7078
 6626SOL     OW31339   0.466   4.157   6.385 -0.2860  0.0399 -0.3410
 6626SOL    HW131340   0.544   4.140   6.333  0.8081  0.0447  1.3126
 6626SOL    HW231341   0.476   4.248   6.413 -0.4174  0.5063 -1.8370
 6627SOL     OW31342   0.600   4.487   2.921 -0.2916  0.5356 -0.2908
 6627SOL    HW131343   0.681   4.507   2.874  0.4138 -0.0957  0.6479
 6627SOL    HW231344   0.604   4.393   2.908  0.9436  0.6154 -0.4613
 6628SOL     OW31345   1.290   1.375   6.064 -0.5283 -0.1220 -0.5200
 6628SOL    HW131346   1.199   1.391   6.086  0.2404  3.4388  0.0418
 6628SOL    HW231347   1.315   1.302   6.121  1.3434  0.7059 -0.2659
 6629SOL     OW31348   1.821   2.707   2.557 -0.3610 -0.0132  0.1131
 6629SOL    HW131349   1.816   2.779   2.495  1.0049 -0.6673 -0.7812
 6629SOL    HW231350   1.906   2.675   2.525 -0.7825  0.6764 -1.6587
 6630SOL     OW31351   2.414   0.121  16.799  0.0098  0.1953 -0.2921
 6630SOL    HW131352   2.412   0.092  16.708  1.3857  2.8206 -1.1646
 6630SOL    HW231353   2.421   0.034  16.838  0.0630 -0.3879 -1.6351
 6631SOL     OW31354   3.465   4.035  14.371  0.5097 -0.4330  0.4093
 6631SOL    HW131355   3.470   4.012  14.464 -1.2456 -1.6110  0.1945
 6631SOL    HW231356   3.416   3.962  14.334  0.0074 -0.0421  0.3167
 6632SOL     OW31357   2.133   4.313   8.657 -0.0105  0.1342 -0.4608
 6632SOL    HW131358   2.151   4.402   8.689 -1.9150  1.3870 -2.8339
 6632SOL    HW231359   2.211   4.260   8.673 -0.1269 -0.3363 -1.4299
 6633SOL     OW31360   4.576   0.972   2.261  0.2788  0.0378 -0.3374
 6633SOL    HW131361   4.568   0.879   2.238  0.4711  0.2795 -1.3616
 6633SOL    HW231362   4.511   0.978   2.331  0.0721  1.5342 -0.6574
 6634SOL     OW31363   1.905   1.242   1.675  0.1781 -0.3332  0.2164
 6634SOL    HW131364   1.824   1.292   1.682  0.9078  1.0891 -1.3102
 6634SOL    HW231365   1.933   1.228   1.765  2.2943 -0.3262 -0.4378
 6635SOL     OW31366   3.802   1.850   5.795  0.0294 -0.0287  0.2724
 6635SOL    HW131367   3.767   1.769   5.830  0.6827 -0.2634  0.3831
 6635SOL    HW231368   3.733   1.876   5.733 -2.4807 -2.4265  2.0716
 6636SOL     OW31369   2.431   0.438   5.665 -0.1221 -0.3461  0.2618
 6636SOL    HW131370   2.469   0.431   5.577  0.4639  0.9062  0.4095
 6636SOL    HW231371   2.512   0.473   5.701  0.3737  1.1120 -2.2219
 6637SOL     OW31372   2.773   4.695  17.258 -0.2706 -0.1118 -0.0397
 6637SOL    HW131373   2.713   4.706  17.184 -1.6117  1.3185  1.2439
 6637SOL    HW231374   2.803   4.606  17.243 -0.2102 -0.2484  0.9157
 6638SOL     OW31375   4.372   4.446   7.448 -0.2004  0.1295  0.2176
 6638SOL    HW131376   4.311   4.453   7.521 -1.0467 -2.1251 -0.2628
 6638SOL    HW231377   4.388   4.351   7.451 -1.4761 -0.0060  2.5320
 6639SOL     OW31378   2.329   0.557   7.601 -0.5362 -0.4505  0.2098
 6639SOL    HW131379   2.424   0.572   7.604 -0.6128  0.1115 -0.1572
 6639SOL    HW231380   2.305   0.610   7.525  2.7125 -0.8256 -1.1063
 6640SOL     OW31381   4.421   2.301   5.400 -0.7569 -0.6314 -0.0887
 6640SOL    HW131382   4.477   2.260   5.334 -2.9306 -0.1106 -2.2183
 6640SOL    HW231383   4.340   2.250   5.395 -0.4018 -1.0402 -1.7474
 6641SOL     OW31384   3.034   4.506   7.186  0.0743 -0.2897 -0.3409
 6641SOL    HW131385   3.097   4.483   7.254 -0.3884 -2.7718 -0.7581
 6641SOL    HW231386   2.975   4.552   7.245 -0.5695  0.0608 -1.2514
 6642SOL     OW31387   4.537   2.579   6.316  0.1487  0.1378 -0.4373
 6642SOL    HW131388   4.474   2.539   6.376  2.1666 -0.2512  1.4404
 6642SOL    HW231389   4.530   2.515   6.245 -0.4734  1.6836 -1.7560
 6643SOL     OW31390   1.137   1.455   2.545  0.4335  0.1336  0.0208
 6643SOL    HW131391   1.130   1.497   2.460 -1.1622 -1.2713 -0.5504
 6643SOL    HW231392   1.231   1.459   2.561  0.2966  0.6143  0.7119
 6644SOL     OW31393   3.157   1.160   5.343  0.1684 -0.2876 -0.3771
 6644SOL    HW131394   3.118   1.235   5.388  0.1876 -0.9493  0.7577
 6644SOL    HW231395   3.103   1.083   5.362 -0.7918 -0.0275 -2.1154
 6645SOL     OW31396   2.812   4.175   4.974  0.5739 -0.0256 -0.2534
 6645SOL    HW131397   2.818   4.084   5.005 -1.0244 -0.5428 -1.4553
 6645SOL    HW231398   2.747   4.213   5.034  0.3107 -1.2377  0.2286
 6646SOL     OW31399   1.917   2.007   5.696  0.3095  0.2950  0.3496
 6646SOL    HW131400   1.956   1.987   5.611  0.0283 -1.0952  0.5430
 6646SOL    HW231401   1.823   2.019   5.677  0.2982  1.2148  1.0533
 6647SOL     OW31402   1.491   2.798   3.375 -0.6094  0.4285 -0.9044
 6647SOL    HW131403   1.477   2.877   3.427  0.1471 -0.9655  1.4178
 6647SOL    HW231404   1.438   2.741   3.430  0.5320  1.2262  1.0360
 6648SOL     OW31405   4.440   1.985  16.069 -0.3848 -0.7275  0.6900
 6648SOL    HW131406   4.478   2.068  16.040  0.7641 -0.7203  2.2228
 6648SOL    HW231407   4.377   2.017  16.135 -2.8687 -0.2775 -1.9084
 6649SOL     OW31408   1.370   4.264   3.515  0.3451 -0.7073  0.3313
 6649SOL    HW131409   1.452   4.231   3.553 -0.3814 -1.8000  0.9401
 6649SOL    HW231410   1.310   4.251   3.588 -0.3408  3.4493  0.5054
 6650SOL     OW31411   3.495   2.945  11.333 -0.3109 -0.1477 -0.4204
 6650SOL    HW131412   3.539   2.867  11.366 -3.6712 -1.2267  1.4502
 6650SOL    HW231413   3.519   3.022  11.385  1.1270 -0.7627 -0.2047
 6651SOL     OW31414   2.058   1.880  13.028  0.4165  0.5865 -0.0505
 6651SOL    HW131415   2.083   1.972  13.025 -0.3769  0.7937 -0.3548
 6651SOL    HW231416   2.129   1.835  13.075 -0.4519 -0.4488  0.2723
 6652SOL     OW31417   4.245   2.714   4.695  0.0011  0.2966  0.7240
 6652SOL    HW131418   4.228   2.801   4.730 -1.7454 -0.8036  2.6665
 6652SOL    HW231419   4.334   2.701   4.728 -0.6197 -0.6447  2.0292
 6653SOL     OW31420   4.331   3.557   1.143 -0.0093  0.7011 -0.4352
 6653SOL    HW131421   4.408   3.579   1.091  0.0056 -0.0456 -0.7299
 6653SOL    HW231422   4.278   3.514   1.076 -0.8815 -1.0609  1.3489
 6654SOL     OW31423   0.431   3.275   8.071  0.6041  0.7578 -0.5585
 6654SOL    HW131424   0.490   3.245   8.001  1.8692 -0.8072  1.1646
 6654SOL    HW231425   0.475   3.358   8.091  1.8171 -0.0809  0.2422
 6655SOL     OW31426   4.434   3.620   8.117  0.0109  0.5684  0.5941
 6655SOL    HW131427   4.488   3.577   8.184  1.0690 -0.8990 -1.1990
 6655SOL    HW231428   4.362   3.559   8.097  1.1910 -0.4000 -0.7296
 6656SOL     OW31429   4.218   1.783   7.827  0.1743 -0.5519 -0.7449
 6656SOL    HW131430   4.234   1.863   7.778  0.4243  0.2477  0.6599
 6656SOL    HW231431   4.125   1.764   7.813 -0.0096 -0.6462  0.5748
 6657SOL     OW31432   2.772   1.245   5.621  0.3160 -0.4662  0.1799
 6657SOL    HW131433   2.708   1.191   5.575 -0.3711  1.4738 -1.1128
 6657SOL    HW231434   2.747   1.222   5.711  0.7675 -1.1664  0.1304
 6658SOL     OW31435   2.793   1.865  10.130  0.6029 -0.4873 -0.6478
 6658SOL    HW131436   2.755   1.921  10.062 -1.3380 -0.5189  0.3985
 6658SOL    HW231437   2.755   1.777  10.125  0.2213 -0.3873  0.4176
 6659SOL     OW31438   0.906   1.695   7.379  0.2515  0.4418 -0.7013
 6659SOL    HW131439   0.975   1.632   7.360  2.4564  2.6820 -0.2923
 6659SOL    HW231440   0.891   1.675   7.472 -1.3328 -2.6669 -1.6694
 6660SOL     OW31441   3.997   0.246   6.554  0.4480 -0.4735  0.3509
 6660SOL    HW131442   4.007   0.168   6.608  1.2924 -1.9132 -1.8611
 6660SOL    HW231443   3.927   0.217   6.495  0.5189 -1.8957  0.9743
 6661SOL     OW31444   4.191   0.105  12.283  0.3436  0.2258 -0.0490
 6661SOL    HW131445   4.187   0.060  12.199 -0.5619 -0.3555  0.3115
 6661SOL    HW231446   4.226   0.191  12.258  1.9544  0.2260  2.1841
 6662SOL     OW31447   2.932   3.575  17.556  0.5893 -0.0606  0.2286
 6662SOL    HW131448   2.955   3.512  17.623  1.2051 -1.0670 -0.9309
 6662SOL    HW231449   2.837   3.565  17.561  0.5133  1.5146  1.7834
 6663SOL     OW31450   4.049   1.451   0.178  0.1636 -0.2378  0.1567
 6663SOL    HW131451   3.967   1.471   0.133  2.3492  1.5449 -3.0282
 6663SOL    HW231452   4.085   1.538   0.197 -0.2899  0.0265 -0.1703
 6664SOL     OW31453   3.816   4.114  13.200  0.5777 -0.2647  0.6076
 6664SOL    HW131454   3.789   4.022  13.200  0.6904 -0.2792 -3.5732
 6664SOL    HW231455   3.892   4.107  13.258  0.3405 -0.2137  0.9219
 6665SOL     OW31456   3.301   2.916   6.984 -0.4409 -0.4951 -0.2173
 6665SOL    HW131457   3.385   2.958   7.001 -0.9132  0.6491 -0.7207
 6665SOL    HW231458   3.250   2.992   6.957 -0.2880  0.3477  1.8901
 6666SOL     OW31459   2.794   4.410   3.028  0.1608 -0.4790  0.6509
 6666SOL    HW131460   2.874   4.419   3.080 -0.1182 -1.0212  1.1785
 6666SOL    HW231461   2.801   4.462   2.948 -0.6484  0.7460  1.3731
 6667SOL     OW31462   3.660   2.608   5.628  0.0363 -0.0294  0.4865
 6667SOL    HW131463   3.603   2.684   5.641 -0.0594 -0.1466  0.7584
 6667SOL    HW231464   3.704   2.645   5.551  2.0626  1.1667  2.2101
 6668SOL     OW31465   0.354   1.219   4.621  0.0693  0.2825  0.8157
 6668SOL    HW131466   0.392   1.235   4.708  0.8468 -1.2889  0.7658
 6668SOL    HW231467   0.343   1.305   4.580  0.6585 -1.0751 -2.1565
 6669SOL     OW31468   3.050   1.047   3.014  0.1913 -0.0723  0.8249
 6669SOL    HW131469   3.059   0.989   2.938 -0.0383  0.5812  0.2930
 6669SOL    HW231470   2.974   1.104   3.012 -0.2271 -0.6253  1.0897
 6670SOL     OW31471   3.973   3.266  14.270 -0.1184  0.4410  0.1073
 6670SOL    HW131472   4.002   3.330  14.205 -0.6486  1.3563  0.7811
 6670SOL    HW231473   3.879   3.271  14.253 -0.6152 -2.2036  1.9769
 6671SOL     OW31474   4.441   0.910   9.733  0.7927 -0.6841  0.3742
 6671SOL    HW131475   4.516   0.969   9.732 -0.0546  0.4469  4.1058
 6671SOL    HW231476   4.484   0.837   9.778  2.3775 -0.5985 -0.9918
 6672SOL     OW31477   3.388   1.680  16.867 -0.3538  0.4139 -0.3884
 6672SOL    HW131478   3.466   1.628  16.846 -0.6786 -0.0392 -0.4548
 6672SOL    HW231479   3.356   1.633  16.944  0.5887  1.2924  0.5352
 6673SOL     OW31480   0.906   3.974   7.865 -0.6029  0.0464  0.2570
 6673SOL    HW131481   0.874   3.906   7.925  0.8390 -0.6785  0.2035
 6673SOL    HW231482   0.893   4.053   7.916 -0.3322  1.0870 -1.2746
 6674SOL     OW31483   0.487   2.721   0.051 -0.6390  0.0432 -0.0944
 6674SOL    HW131484   0.480   2.643   0.106 -0.8161 -0.6874 -1.1513
 6674SOL    HW231485   0.434   2.786   0.097 -0.0310  0.4865 -0.0207
 6675SOL     OW31486   3.973   4.653  10.057 -0.8121 -0.4371 -0.3390
 6675SOL    HW131487   3.942   0.010  10.094 -0.4575 -1.0362  1.2471
 6675SOL    HW231488   3.893   4.623  10.013 -1.0998  1.6136 -1.2227
 6676SOL     OW31489   2.778   4.283  12.918  0.0865 -0.2671 -0.6646
 6676SOL    HW131490   2.700   4.338  12.905  0.2861 -0.1516 -1.3447
 6676SOL    HW231491   2.752   4.206  12.867  0.6788  0.2962 -1.8102
 6677SOL     OW31492   3.458   3.624  15.922  0.0042 -0.1749  0.0682
 6677SOL    HW131493   3.548   3.650  15.944  0.3877 -1.2849 -0.2196
 6677SOL    HW231494   3.432   3.708  15.883 -3.9866 -1.0472  0.8371
 6678SOL     OW31495   3.667   4.520   7.085 -0.2567 -0.7164  0.1436
 6678SOL    HW131496   3.760   4.521   7.111 -0.6596  0.0956  1.5707
 6678SOL    HW231497   3.681   4.444   7.029 -0.1993 -0.3464 -0.3406
 6679SOL     OW31498   3.413   4.419   2.390 -0.4596 -1.0239 -0.8960
 6679SOL    HW131499   3.495   4.370   2.392 -0.1102 -0.3637  0.9214
 6679SOL    HW231500   3.363   4.377   2.320 -0.3414  2.6104 -3.1828
 6680SOL     OW31501   1.039   3.005   3.291 -0.1039 -0.1054 -0.0418
 6680SOL    HW131502   0.966   2.966   3.339 -0.8501  0.5363 -0.6554
 6680SOL    HW231503   1.087   2.924   3.273 -0.4208 -0.6220  1.5020
 6681SOL     OW31504   4.384   3.399   1.357  0.1577  0.5645 -0.2211
 6681SOL    HW131505   4.394   3.331   1.290 -0.9127 -0.0279  0.2284
 6681SOL    HW231506   4.338   3.464   1.303 -2.1937  0.4493  1.6614
 6682SOL     OW31507   0.754   2.324   0.744  0.3502 -0.0052  0.6152
 6682SOL    HW131508   0.847   2.306   0.730  0.5730  1.1079  0.6862
 6682SOL    HW231509   0.740   2.371   0.662  0.6625 -0.7602  0.1200
 6683SOL     OW31510   0.887   0.335   8.909  0.2176  0.3898  0.0014
 6683SOL    HW131511   0.816   0.376   8.959  0.8717  0.9166  0.4950
 6683SOL    HW231512   0.930   0.291   8.982 -1.5365  0.7727  1.2564
 6684SOL     OW31513   4.282   0.886   2.065  0.0652 -0.1772 -0.0277
 6684SOL    HW131514   4.253   0.977   2.059  2.5895  0.6879  1.1537
 6684SOL    HW231515   4.231   0.848   1.993 -1.7839 -0.7448  1.5946
 6685SOL     OW31516   4.131   2.528   2.128 -0.6097 -0.6717 -0.0913
 6685SOL    HW131517   4.100   2.488   2.209 -1.7487 -0.8733 -0.6297
 6685SOL    HW231518   4.196   2.464   2.099 -0.3102  0.2449 -1.4196
 6686SOL     OW31519   1.421   3.219   4.596  0.6270  0.1420 -0.3932
 6686SOL    HW131520   1.330   3.217   4.623  1.2402 -0.8813  1.6232
 6686SOL    HW231521   1.448   3.130   4.576  0.4033 -0.2380  0.9725
 6687SOL     OW31522   0.353   1.271   2.133  0.5979 -0.1304 -0.1048
 6687SOL    HW131523   0.345   1.183   2.170  1.0720 -0.1826 -0.1210
 6687SOL    HW231524   0.399   1.316   2.205  1.0148 -0.4589 -0.1684
 6688SOL     OW31525   4.488   0.207  16.744  0.1072 -0.0053 -0.2415
 6688SOL    HW131526   4.517   0.132  16.795 -0.2912 -0.2594 -0.3859
 6688SOL    HW231527   4.406   0.232  16.787  0.9632  0.3940  1.1685
 6689SOL     OW31528   2.682   1.016  10.515  0.5120 -0.4075 -1.0221
 6689SOL    HW131529   2.621   0.951  10.549 -0.9864  0.5402 -1.8982
 6689SOL    HW231530   2.749   0.958  10.478 -1.0694 -2.0416 -1.3058
 6690SOL     OW31531   2.955   3.314   7.100 -0.1776 -0.0636  0.0437
 6690SOL    HW131532   2.864   3.290   7.117 -1.0198  1.6419 -1.9328
 6690SOL    HW231533   2.951   3.404   7.132 -0.8936  0.2090 -0.8214
 6691SOL     OW31534   2.580   2.078   1.155 -0.3788 -0.0697  0.3992
 6691SOL    HW131535   2.600   2.075   1.062 -0.5690  0.3036  0.3440
 6691SOL    HW231536   2.486   2.096   1.153 -0.1219  1.5751  2.4890
 6692SOL     OW31537   2.351   2.645   5.378  0.6480  0.1073  0.2970
 6692SOL    HW131538   2.393   2.616   5.458 -1.6179 -1.4966  0.9001
 6692SOL    HW231539   2.260   2.636   5.406  0.0028 -0.7983 -2.1332
 6693SOL     OW31540   0.776   0.285   7.793  0.3003  0.4782  0.1977
 6693SOL    HW131541   0.788   0.192   7.808 -0.7068  0.5726  1.5713
 6693SOL    HW231542   0.816   0.292   7.706 -0.1608  0.1326 -0.0378
 6694SOL     OW31543   2.316   1.805   8.338 -0.7572  0.1720 -0.3487
 6694SOL    HW131544   2.225   1.835   8.329 -0.4350  1.0988 -0.4612
 6694SOL    HW231545   2.343   1.882   8.288 -1.4620 -0.6262 -1.9654
 6695SOL     OW31546   0.567   0.841   2.093  0.6004  0.4412 -0.2657
 6695SOL    HW131547   0.627   0.777   2.130 -1.4338  0.8988  3.8123
 6695SOL    HW231548   0.481   0.830   2.132  0.7320 -1.6232 -0.5811
 6696SOL     OW31549   1.857   1.696   8.408  0.1502 -1.0310  0.4401
 6696SOL    HW131550   1.872   1.613   8.361 -0.9002 -0.4013 -0.9795
 6696SOL    HW231551   1.785   1.665   8.463 -0.3040 -0.1881  0.3224
 6697SOL     OW31552   3.523   2.567   6.490 -0.2815 -0.2842  0.9904
 6697SOL    HW131553   3.545   2.522   6.572 -0.2452 -1.3748  0.3727
 6697SOL    HW231554   3.427   2.571   6.494 -0.4110 -1.0728 -1.5024
 6698SOL     OW31555   0.846   1.010  14.938  0.6144 -0.5268  0.4973
 6698SOL    HW131556   0.879   1.097  14.918 -1.4554  0.0611 -0.3476
 6698SOL    HW231557   0.861   0.957  14.860  1.9320 -1.5096  1.4077
 6699SOL     OW31558   3.289   0.745   2.649  0.9917 -0.0730 -0.2773
 6699SOL    HW131559   3.262   0.765   2.559  2.6297  3.8220  0.1099
 6699SOL    HW231560   3.313   0.652   2.646  0.4906 -0.2253  0.5918
 6700SOL     OW31561   3.347   2.867   4.792 -0.1769 -0.2075  0.0854
 6700SOL    HW131562   3.295   2.897   4.867 -1.2754 -0.9052 -0.4059
 6700SOL    HW231563   3.308   2.782   4.775 -0.1834 -0.1487 -0.1831
 6701SOL     OW31564   1.141   3.618   4.066 -0.4539  0.3130 -0.1494
 6701SOL    HW131565   1.185   3.699   4.043  0.2815 -0.4573 -1.4856
 6701SOL    HW231566   1.071   3.618   4.001 -0.0200  0.5100 -0.6164
 6702SOL     OW31567   2.495   4.436   4.446 -0.0529 -0.7178  1.0262
 6702SOL    HW131568   2.494   4.373   4.519  0.7668  1.3620  2.8326
 6702SOL    HW231569   2.571   4.488   4.469  0.4588 -1.6617  1.4631
 6703SOL     OW31570   4.251   2.749   8.830 -0.1160  0.3990 -0.7465
 6703SOL    HW131571   4.333   2.795   8.851 -0.5439  0.0175  1.7183
 6703SOL    HW231572   4.205   2.827   8.800  0.0317  0.9374  0.4481
 6704SOL     OW31573   4.641   1.776  11.656 -0.0060  0.1595 -0.3306
 6704SOL    HW131574   0.004   1.739  11.646 -0.7847 -1.9511  0.7307
 6704SOL    HW231575   4.669   1.863  11.627  0.0245  0.8057  1.5989
 6705SOL     OW31576   2.472   2.559   8.160  0.8078  0.6656  0.1296
 6705SOL    HW131577   2.534   2.487   8.159 -2.8718 -2.4626 -1.7702
 6705SOL    HW231578   2.452   2.568   8.067  0.4255 -2.2378 -0.0551
 6706SOL     OW31579   0.082   1.175  10.675 -0.3980  0.7493  0.0262
 6706SOL    HW131580   0.170   1.137  10.666 -1.0854 -0.3840 -2.0642
 6706SOL    HW231581   0.090   1.226  10.756 -0.3482  0.5728  0.1320
 6707SOL     OW31582   0.452   2.771   3.029 -0.2520  0.3519 -0.3491
 6707SOL    HW131583   0.494   2.779   3.115 -1.9573 -1.2602  0.6345
 6707SOL    HW231584   0.526   2.751   2.973 -0.1370 -0.9029  0.2661
 6708SOL     OW31585   1.952   2.633   6.577  0.2155 -0.8651  0.8810
 6708SOL    HW131586   1.945   2.560   6.638 -1.8906  0.0760  1.7514
 6708SOL    HW231587   2.043   2.664   6.581 -0.1732  0.4973 -0.7204
 6709SOL     OW31588   2.719   1.411   1.243  0.3762  0.0058 -0.9101
 6709SOL    HW131589   2.773   1.346   1.287 -0.6734  1.0781  1.9356
 6709SOL    HW231590   2.634   1.381   1.275  0.7206  0.5921  0.5383
 6710SOL     OW31591   0.104   0.469   5.253 -0.4698  0.0617 -0.0956
 6710SOL    HW131592   0.101   0.410   5.178 -0.1311 -1.6365  1.2340
 6710SOL    HW231593   0.198   0.485   5.249 -0.2347 -1.0291  1.4049
 6711SOL     OW31594   4.606   1.307   4.909  0.0316  0.2241  0.1798
 6711SOL    HW131595   4.692   1.282   4.875 -0.7379 -0.2193 -1.4209
 6711SOL    HW231596   4.566   1.351   4.835 -0.0046  0.1893  0.1790
 6712SOL     OW31597   2.645   4.495  11.369 -0.2912  0.1219 -0.4427
 6712SOL    HW131598   2.690   4.577  11.351 -0.7883  0.6943  0.9743
 6712SOL    HW231599   2.680   4.451  11.291 -2.8728 -2.1781 -0.3372
 6713SOL     OW31600   1.273   0.054   8.967 -0.1503 -0.1458 -0.0967
 6713SOL    HW131601   1.309   0.139   8.941 -2.6345  0.7832 -0.4166
 6713SOL    HW231602   1.311   0.041   9.054  0.9316 -1.8082 -0.8112
 6714SOL     OW31603   4.191   2.799   4.175  0.3743  0.6022  0.0547
 6714SOL    HW131604   4.103   2.836   4.171  0.1578  0.2893  1.8511
 6714SOL    HW231605   4.174   2.718   4.224 -0.0681  0.2391 -0.7014
 6715SOL     OW31606   3.781   4.382   3.111  0.3033  0.3797  0.1261
 6715SOL    HW131607   3.714   4.449   3.118 -2.2030 -2.2361  1.0460
 6715SOL    HW231608   3.816   4.388   3.200 -1.9517  0.5976  0.9766
 6716SOL     OW31609   0.733   3.495  17.124  0.6760  0.0496 -0.5331
 6716SOL    HW131610   0.652   3.520  17.079 -0.6001 -2.2399  0.5153
 6716SOL    HW231611   0.741   3.401  17.104  1.1156 -0.1954  0.8262
 6717SOL     OW31612   0.366   2.189   5.307 -0.0157  0.4848  0.4666
 6717SOL    HW131613   0.343   2.097   5.299  0.9542  0.2408  0.5088
 6717SOL    HW231614   0.298   2.216   5.369 -0.7795  0.5288 -0.3878
 6718SOL     OW31615   1.909   1.327   8.528  0.2550 -0.2891 -0.0466
 6718SOL    HW131616   1.818   1.298   8.533 -0.1721  1.1809  0.7782
 6718SOL    HW231617   1.905   1.407   8.474  0.2119  0.0283  0.4285
 6719SOL     OW31618   0.161   2.241   8.813  1.1961 -0.1944  0.4104
 6719SOL    HW131619   0.148   2.330   8.778 -1.8199  0.4413  3.1554
 6719SOL    HW231620   0.093   2.242   8.880  2.3707  0.2782  1.5974
 6720SOL     OW31621   0.307   3.561   4.123  0.0363  0.4344  0.4956
 6720SOL    HW131622   0.307   3.563   4.027  0.0222 -1.0065  0.4662
 6720SOL    HW231623   0.330   3.648   4.154  0.3880 -0.1374  1.8540
 6721SOL     OW31624   3.619   1.615   4.926 -0.1027 -0.4800  0.2689
 6721SOL    HW131625   3.551   1.552   4.951 -1.1273  0.6342  0.2858
 6721SOL    HW231626   3.666   1.625   5.009 -1.9723  1.6222  1.1047
 6722SOL     OW31627   2.797   1.112   5.254 -0.1066 -0.3632 -0.0841
 6722SOL    HW131628   2.789   1.206   5.235 -0.6285 -0.6492 -1.2739
 6722SOL    HW231629   2.726   1.104   5.317 -1.6314  1.2236 -1.5641
 6723SOL     OW31630   1.381   2.107   5.424  0.0873  0.4274  0.6503
 6723SOL    HW131631   1.373   2.202   5.418  1.6947  0.5873  1.2202
 6723SOL    HW231632   1.401   2.080   5.334 -1.5494  0.4495  0.2826
 6724SOL     OW31633   1.512   1.797   2.984  0.8150 -0.8039 -0.0162
 6724SOL    HW131634   1.564   1.759   2.914  2.1173  1.0579 -0.0513
 6724SOL    HW231635   1.426   1.781   2.944  0.6795 -2.0201  0.7526
 6725SOL     OW31636   3.893   0.205   9.212  0.6514  0.2864 -0.6776
 6725SOL    HW131637   3.892   0.190   9.118 -0.3959 -0.6701 -0.5167
 6725SOL    HW231638   3.880   0.300   9.217 -0.8067  0.1130 -1.3440
 6726SOL     OW31639   3.644   1.204  16.480  0.0804  0.4689  0.4643
 6726SOL    HW131640   3.676   1.123  16.518 -2.0608  0.2273  1.7741
 6726SOL    HW231641   3.577   1.178  16.417  0.3563 -1.1022  0.8257
 6727SOL     OW31642   2.340   4.560  13.995  0.8636  0.4156 -0.1374
 6727SOL    HW131643   2.341   4.494  13.926  1.6060 -0.8671  1.1058
 6727SOL    HW231644   2.333   4.636  13.938  2.9050  0.3206 -0.4952
 6728SOL     OW31645   0.662   0.295   7.444 -0.2848  0.7375 -0.3351
 6728SOL    HW131646   0.746   0.306   7.489 -0.6751  1.9450  0.1089
 6728SOL    HW231647   0.696   0.257   7.364 -0.6433  0.7195 -0.4810
 6729SOL     OW31648   3.292   2.935   5.623 -0.5309  0.8593  0.4029
 6729SOL    HW131649   3.274   3.029   5.614 -3.3077  0.2767 -0.3741
 6729SOL    HW231650   3.284   2.913   5.530  0.6445 -0.5427  0.6357
 6730SOL     OW31651   3.405   1.728  12.641  0.0825  0.3923  0.1673
 6730SOL    HW131652   3.331   1.737  12.700 -0.1849  0.8393 -0.2389
 6730SOL    HW231653   3.475   1.738  12.706 -1.4637 -0.0673  1.9064
 6731SOL     OW31654   2.443   2.568  13.685  0.1920  0.0034  0.7964
 6731SOL    HW131655   2.518   2.622  13.659 -0.3149 -0.2476 -1.1432
 6731SOL    HW231656   2.391   2.620  13.746 -0.8474 -0.2242  0.0947
 6732SOL     OW31657   0.406   0.660  12.070  0.1063 -0.5942  0.1188
 6732SOL    HW131658   0.356   0.736  12.099  0.6954 -0.2159  0.1501
 6732SOL    HW231659   0.380   0.593  12.133 -1.8062  1.0589  1.0593
 6733SOL     OW31660   0.297   2.392  15.223 -0.4897  0.0899 -0.5179
 6733SOL    HW131661   0.290   2.312  15.170 -1.7231  1.7894 -2.9675
 6733SOL    HW231662   0.203   2.411  15.213 -0.4460  1.2848  1.4320
 6734SOL     OW31663   2.244   3.860   4.461  0.2662 -0.4882  0.1872
 6734SOL    HW131664   2.326   3.819   4.488  0.1003 -0.8831  0.0949
 6734SOL    HW231665   2.184   3.820   4.524  0.6678 -1.0606  0.2022
 6735SOL     OW31666   2.445   4.295   5.333  0.3201 -0.3290 -0.3166
 6735SOL    HW131667   2.371   4.296   5.394  1.2487 -0.1926  0.8099
 6735SOL    HW231668   2.514   4.330   5.390  1.4567 -1.2013 -1.1654
 6736SOL     OW31669   3.657   4.589   8.741 -0.0127  0.5507 -0.0885
 6736SOL    HW131670   3.741   4.552   8.768  0.1695  0.6674 -0.4952
 6736SOL    HW231671   3.679   4.650   8.670 -1.5773  0.4975 -0.6062
 6737SOL     OW31672   3.281   3.225   3.341  0.2103  0.0733 -0.0392
 6737SOL    HW131673   3.301   3.307   3.296  1.2012  0.0305  0.3367
 6737SOL    HW231674   3.361   3.224   3.392 -1.2125 -1.9160  2.1579
 6738SOL     OW31675   3.895   0.931  13.125  0.1962  0.1947 -0.0875
 6738SOL    HW131676   3.874   0.982  13.203 -1.6541 -2.5296  1.2270
 6738SOL    HW231677   3.850   0.986  13.060 -0.4188  0.0330  0.1969
 6739SOL     OW31678   3.188   3.649   8.966  0.7298 -0.4310  0.7896
 6739SOL    HW131679   3.168   3.731   8.921  0.8583 -1.8327 -1.8286
 6739SOL    HW231680   3.250   3.605   8.908 -1.7374 -2.8019 -0.0421
 6740SOL     OW31681   4.389   4.715   5.293  0.4907 -0.2044 -0.0582
 6740SOL    HW131682   4.335   0.046   5.236  0.4804  0.0542  0.2063
 6740SOL    HW231683   4.473   0.035   5.284  1.5016 -1.8849  0.8919
 6741SOL     OW31684   1.083   1.045  16.579 -0.4041 -0.6987 -0.5977
 6741SOL    HW131685   1.121   0.988  16.512  1.5259 -0.1307  0.0204
 6741SOL    HW231686   1.021   1.097  16.528  0.7356 -1.8462 -3.1485
 6742SOL     OW31687   0.972   2.904   0.347  0.1904 -0.0330 -0.1913
 6742SOL    HW131688   0.944   2.948   0.267 -0.4921 -0.7180 -0.3216
 6742SOL    HW231689   0.953   2.812   0.331  1.6319 -0.3771  0.0459
 6743SOL     OW31690   0.277   2.650  15.038  0.4075  0.1111  0.0462
 6743SOL    HW131691   0.292   2.581  14.974  2.7054  0.7538 -0.0987
 6743SOL    HW231692   0.251   2.606  15.118 -1.8043 -0.3188 -0.8987
 6744SOL     OW31693   0.985   2.120   8.968 -0.5251  0.1181  0.0357
 6744SOL    HW131694   0.943   2.193   8.924 -1.4307  0.5152  1.5761
 6744SOL    HW231695   1.077   2.141   8.983 -0.3838 -0.7549  0.4161
 6745SOL     OW31696   0.318   1.599   5.991 -0.6457 -0.4078 -0.3496
 6745SOL    HW131697   0.409   1.587   6.016 -0.7267  2.1605  1.2295
 6745SOL    HW231698   0.321   1.689   5.957  2.4746 -0.6876 -0.8193
 6746SOL     OW31699   3.390   1.785   7.557 -0.2952  0.8646  0.0682
 6746SOL    HW131700   3.394   1.866   7.507  2.0558  1.3381  1.0652
 6746SOL    HW231701   3.301   1.755   7.538 -0.1413 -0.0318  0.7795
 6747SOL     OW31702   2.850   4.587   7.368 -0.5758  0.8605 -0.1060
 6747SOL    HW131703   2.759   4.576   7.394 -0.9924 -1.7064 -2.6978
 6747SOL    HW231704   2.894   4.548   7.444  0.3401 -0.5397 -1.3581
 6748SOL     OW31705   0.567   3.119   8.327 -0.2641  0.0250 -0.4462
 6748SOL    HW131706   0.541   3.066   8.402  0.1669 -1.3161 -1.2446
 6748SOL    HW231707   0.482   3.136   8.285  0.0575 -0.9761 -1.4964
 6749SOL     OW31708   4.210   3.476   4.794  0.8125  0.0234  0.0002
 6749SOL    HW131709   4.247   3.448   4.710  2.0234  0.2334  0.4684
 6749SOL    HW231710   4.192   3.569   4.780  2.2561  0.6937  2.6111
 6750SOL     OW31711   0.332   4.179   2.403 -0.7094 -0.0324  0.0807
 6750SOL    HW131712   0.428   4.173   2.411 -0.3752  1.5788 -2.5366
 6750SOL    HW231713   0.332   4.274   2.397  3.5837  0.1503  2.7197
 6751SOL     OW31714   1.565   3.782   2.643 -0.0621  0.1022 -0.0215
 6751SOL    HW131715   1.534   3.870   2.664  1.8539  0.2384  2.2637
 6751SOL    HW231716   1.579   3.744   2.730  0.2836 -3.7170 -1.7319
 6752SOL     OW31717   1.908   3.875  13.540  0.6757  0.4690 -0.2712
 6752SOL    HW131718   1.838   3.908  13.597 -1.1065 -0.8570 -1.6682
 6752SOL    HW231719   1.951   3.817  13.603 -1.1526  1.2446  1.6888
 6753SOL     OW31720   2.075   2.174   1.396  0.3762  0.4417  0.1406
 6753SOL    HW131721   2.125   2.099   1.427  1.3503  1.8607  2.0487
 6753SOL    HW231722   2.141   2.244   1.388 -1.4689  2.2989  1.1835
 6754SOL     OW31723   2.309   1.493  15.777 -1.0512  0.1538 -0.1728
 6754SOL    HW131724   2.272   1.581  15.782  0.3136  0.8043 -1.3218
 6754SOL    HW231725   2.264   1.473  15.695 -1.6824 -0.0803  0.2335
 6755SOL     OW31726   0.015   4.461   8.649 -0.4324  0.3488  0.3008
 6755SOL    HW131727   0.109   4.445   8.647 -0.7189 -1.6728  2.9271
 6755SOL    HW231728   4.711   4.370   8.641 -2.7846  1.0496  0.8443
 6756SOL     OW31729   3.280   0.004   8.423  0.6771 -0.5879 -0.7017
 6756SOL    HW131730   3.214   0.028   8.488  2.4259 -0.7175  1.1253
 6756SOL    HW231731   3.340   0.077   8.435 -0.2754 -0.0310  0.6530
 6757SOL     OW31732   4.036   1.759   5.894 -0.1369 -0.0851 -0.2978
 6757SOL    HW131733   4.007   1.669   5.882  4.3328 -1.9396  2.5649
 6757SOL    HW231734   3.962   1.814   5.868  0.0897 -0.2353 -1.2424
 6758SOL     OW31735   0.884   1.405  11.709  0.6618  0.5595 -0.1120
 6758SOL    HW131736   0.879   1.477  11.646  1.5141  0.3439 -0.4301
 6758SOL    HW231737   0.970   1.415  11.748 -0.4894  0.8140  2.3597
 6759SOL     OW31738   0.108   0.610   1.986  0.8956 -0.5498  0.3410
 6759SOL    HW131739   0.039   0.546   2.002 -0.5144  1.1045  0.7834
 6759SOL    HW231740   0.154   0.613   2.070  0.5728  2.2306  0.3880
 6760SOL     OW31741   3.575   4.711  12.205  0.3115  0.6451  0.0572
 6760SOL    HW131742   3.610   4.700  12.294  1.1712  3.4115  0.0427
 6760SOL    HW231743   3.646   0.036  12.164  0.1038  0.5973 -0.3599
 6761SOL     OW31744   2.302   2.089   8.222  0.9204 -0.7389  0.1749
 6761SOL    HW131745   2.299   2.059   8.131 -0.5239  1.4792 -0.5160
 6761SOL    HW231746   2.207   2.085   8.238  0.9940 -0.4509  0.6668
 6762SOL     OW31747   0.213   0.187   6.908 -0.2378 -0.5520 -0.6665
 6762SOL    HW131748   0.265   0.229   6.839  1.4299 -1.8896 -0.2518
 6762SOL    HW231749   0.183   0.115   6.852 -0.6495 -0.9878  0.1243
 6763SOL     OW31750   0.990   4.000  14.399  0.2940  0.1139 -0.0081
 6763SOL    HW131751   0.984   3.938  14.471  0.9135  0.2201  0.1372
 6763SOL    HW231752   1.065   4.053  14.425 -0.5788  2.0483 -1.4163
 6764SOL     OW31753   2.246   1.193   7.168  0.0026 -0.0040  0.6010
 6764SOL    HW131754   2.155   1.181   7.142 -0.1841  0.2944  1.1120
 6764SOL    HW231755   2.257   1.284   7.141  0.6043 -0.4620 -0.6883
 6765SOL     OW31756   0.097   1.319   4.310  0.4676  0.6674  0.1395
 6765SOL    HW131757   0.012   1.290   4.345  0.4967  1.2510  0.7078
 6765SOL    HW231758   0.127   1.240   4.266 -1.4311 -1.1542  2.0818
 6766SOL     OW31759   2.038   3.927  12.337 -0.1736  0.0508  0.5235
 6766SOL    HW131760   2.001   3.844  12.366  0.5247  0.0584  1.4379
 6766SOL    HW231761   2.126   3.909  12.305  0.0477  5.5623 -1.9997
 6767SOL     OW31762   1.809   2.596   7.761  0.1624  0.4210 -0.9690
 6767SOL    HW131763   1.870   2.670   7.760 -0.0225  0.5746 -0.5767
 6767SOL    HW231764   1.733   2.630   7.807  0.4990  0.1562 -0.2114
 6768SOL     OW31765   4.381   0.294  12.075  0.2950 -0.4768 -0.0534
 6768SOL    HW131766   4.384   0.256  11.987 -2.1229  0.2347 -0.4421
 6768SOL    HW231767   4.286   0.302  12.086 -0.0618 -1.3624 -2.3483
 6769SOL     OW31768   2.160   1.523   7.682  0.0264 -0.0598 -0.0584
 6769SOL    HW131769   2.111   1.451   7.721  0.6776 -1.1145 -1.2147
 6769SOL    HW231770   2.237   1.525   7.739  0.4942 -1.1409 -0.6659
 6770SOL     OW31771   0.368   0.642   7.737  0.7430  0.4205 -0.2798
 6770SOL    HW131772   0.454   0.679   7.719  0.9919 -0.6293 -1.2414
 6770SOL    HW231773   0.380   0.588   7.815  0.6622  1.3129  0.3546
 6771SOL     OW31774   4.528   0.282   3.280  0.3208 -0.4816  0.0388
 6771SOL    HW131775   4.486   0.244   3.203 -0.1938  0.6261 -0.2294
 6771SOL    HW231776   4.450   0.313   3.326  0.2988  0.9349 -0.9450
 6772SOL     OW31777   3.747   3.216   9.169 -0.1737  0.5816 -0.1265
 6772SOL    HW131778   3.841   3.226   9.181 -0.6046 -1.4108  4.5027
 6772SOL    HW231779   3.705   3.299   9.193 -0.5195 -0.0041  1.2945
 6773SOL     OW31780   0.718   1.658  10.938  0.0111 -0.6870 -0.3756
 6773SOL    HW131781   0.715   1.624  10.848  1.1085 -1.2189 -0.2067
 6773SOL    HW231782   0.644   1.604  10.968 -1.6934  1.6295 -0.3853
 6774SOL     OW31783   1.576   0.721  17.415 -0.2687 -0.2969  0.3432
 6774SOL    HW131784   1.577   0.816  17.403  0.1941 -0.4503 -0.7845
 6774SOL    HW231785   1.658   0.706  17.462  1.4778 -0.6656 -2.8000
 6775SOL     OW31786   0.613   1.547   5.785 -0.7720  0.5143  0.3198
 6775SOL    HW131787   0.561   1.535   5.865 -0.2787 -0.9603  0.4102
 6775SOL    HW231788   0.559   1.495   5.726 -2.0056  2.5019 -0.2831
 6776SOL     OW31789   1.651   4.406   3.207 -0.5151  0.4142  0.8488
 6776SOL    HW131790   1.671   4.313   3.194 -1.8434  0.0457  1.4467
 6776SOL    HW231791   1.739   4.441   3.192 -0.1538 -1.0331 -0.4865
 6777SOL     OW31792   0.728   0.383   3.665 -0.8011 -0.3983  0.2466
 6777SOL    HW131793   0.712   0.289   3.662  3.2901 -1.0028 -1.8772
 6777SOL    HW231794   0.656   0.421   3.614 -1.8747 -0.4904  1.6745
 6778SOL     OW31795   2.232   1.035  12.038  0.3238 -0.6322 -0.0437
 6778SOL    HW131796   2.208   1.071  12.123  0.6383  1.0446 -0.6649
 6778SOL    HW231797   2.237   1.109  11.977  2.3243  0.1383  1.0496
 6779SOL     OW31798   0.297   1.078  16.758 -0.7900  0.3381 -0.4959
 6779SOL    HW131799   0.292   1.086  16.663 -1.5416  0.5119 -0.4414
 6779SOL    HW231800   0.389   1.056  16.765 -0.6058  1.4183  0.5530
 6780SOL     OW31801   4.324   3.096   1.682  0.6091 -0.3784 -0.2189
 6780SOL    HW131802   4.322   3.058   1.770 -1.0611 -1.5973 -0.7686
 6780SOL    HW231803   4.267   3.033   1.636 -2.1088  1.3003  0.8468
 6781SOL     OW31804   4.450   2.836   8.472  0.3900  0.0967  0.2469
 6781SOL    HW131805   4.367   2.791   8.488  0.3136  0.2343  0.2341
 6781SOL    HW231806   4.447   2.919   8.519 -0.7896  0.2493 -0.0950
 6782SOL     OW31807   0.293   2.629   3.534  0.2179 -0.6393  0.1776
 6782SOL    HW131808   0.386   2.606   3.528  0.8018  2.0844 -1.1860
 6782SOL    HW231809   0.259   2.611   3.446 -0.3207  0.1494  0.2273
 6783SOL     OW31810   2.320   4.128   0.659 -0.2344 -0.1909  0.0225
 6783SOL    HW131811   2.310   4.136   0.564 -0.3074 -0.3991  0.0133
 6783SOL    HW231812   2.310   4.219   0.687  0.0838  0.4574 -1.9654
 6784SOL     OW31813   0.258   1.280   8.793  0.3838 -0.1962  0.0301
 6784SOL    HW131814   0.317   1.221   8.747  0.0244 -0.5832  0.0571
 6784SOL    HW231815   0.289   1.255   8.880 -0.5560  3.4063  1.3984
 6785SOL     OW31816   2.249   3.072  10.909  0.1060 -0.4755  0.1380
 6785SOL    HW131817   2.266   3.011  10.837 -2.4151 -1.7377  0.6005
 6785SOL    HW231818   2.241   3.156  10.865 -2.3066  0.0216  1.5267
 6786SOL     OW31819   3.349   2.279   5.824  0.1314  0.0107  0.1055
 6786SOL    HW131820   3.286   2.208   5.814 -0.0183  0.0648  0.6858
 6786SOL    HW231821   3.433   2.234   5.810  1.2313  1.4921  1.9549
 6787SOL     OW31822   1.939   1.222  12.591 -0.2437  0.1239  0.2574
 6787SOL    HW131823   2.002   1.278  12.637  0.2660  1.3758 -1.9895
 6787SOL    HW231824   1.867   1.274  12.554 -1.9238  0.7101  4.3237
 6788SOL     OW31825   1.835   4.289  15.631 -0.2523 -0.9494 -0.6660
 6788SOL    HW131826   1.787   4.320  15.708 -0.8545  0.0634 -1.4389
 6788SOL    HW231827   1.880   4.211  15.661 -1.5664 -1.5405 -0.2417
 6789SOL     OW31828   0.413   0.288   0.697  0.0105  0.0518 -0.1711
 6789SOL    HW131829   0.345   0.222   0.700  0.7116 -0.6182  0.7928
 6789SOL    HW231830   0.432   0.308   0.789 -1.9850  1.8016 -0.1411
 6790SOL     OW31831   1.632   0.013  15.475  0.6547  0.2412  0.7032
 6790SOL    HW131832   1.633   4.723  15.380 -2.0099  2.0200  0.4023
 6790SOL    HW231833   1.538   0.007  15.491  0.4914 -0.1980 -0.3780
 6791SOL     OW31834   1.498   4.370  17.024  0.1733 -0.2488 -0.4028
 6791SOL    HW131835   1.481   4.277  17.008 -0.6576 -0.1868  0.1206
 6791SOL    HW231836   1.414   4.404  16.992  1.6228  0.2933 -3.6702
 6792SOL     OW31837   4.016   3.203   3.741 -0.2877 -0.0906  0.1357
 6792SOL    HW131838   4.059   3.288   3.745 -0.1951 -0.1257 -0.0672
 6792SOL    HW231839   4.086   3.138   3.735 -0.4935 -0.1952 -1.1868
 6793SOL     OW31840   0.942   3.387   9.224  0.8820 -0.3818  0.2213
 6793SOL    HW131841   0.998   3.369   9.149 -1.0425  0.0306 -1.3382
 6793SOL    HW231842   0.922   3.298   9.253 -2.0394  0.4822  0.8688
 6794SOL     OW31843   1.228   3.629   5.630  0.2035 -1.1607 -0.0176
 6794SOL    HW131844   1.311   3.654   5.591 -0.0146 -0.1720  0.1386
 6794SOL    HW231845   1.217   3.704   5.689  1.7799  0.3177 -1.6116
 6795SOL     OW31846   3.967   4.528   1.657  0.4166 -0.1367  0.1271
 6795SOL    HW131847   4.029   4.578   1.711 -0.9491 -0.1162  1.6848
 6795SOL    HW231848   3.973   4.576   1.574 -0.9649  1.7748  1.1213
 6796SOL     OW31849   3.420   3.445   3.530  0.2591  0.0275 -0.1815
 6796SOL    HW131850   3.496   3.487   3.572  0.0238 -0.5256  0.8021
 6796SOL    HW231851   3.451   3.431   3.440  3.0425 -3.3058  1.2867
 6797SOL     OW31852   1.083   2.461   0.844 -0.0210 -0.0303  0.6518
 6797SOL    HW131853   1.065   2.400   0.772 -0.3713  0.1077  0.6201
 6797SOL    HW231854   1.095   2.538   0.788  0.0331  0.0970  0.8406
 6798SOL     OW31855   4.201   4.285   6.361  0.3646 -0.4290  0.5357
 6798SOL    HW131856   4.284   4.321   6.392  0.3829 -0.0628  0.0460
 6798SOL    HW231857   4.163   4.310   6.446 -0.6063 -0.9608  0.2621
 6799SOL     OW31858   2.022   1.919   0.954  0.0644 -0.1757 -0.1068
 6799SOL    HW131859   2.017   1.952   1.044  0.3569  0.9480 -0.4965
 6799SOL    HW231860   1.955   1.851   0.960 -1.1516  0.7957 -2.6399
 6800SOL     OW31861   2.331   1.062  12.710  0.1649 -0.0750 -0.0947
 6800SOL    HW131862   2.330   1.125  12.781 -2.6521 -0.3880  0.1407
 6800SOL    HW231863   2.311   1.124  12.640 -2.5664 -2.2515 -1.2465
 6801SOL     OW31864   2.223   2.551   4.890 -0.2662 -0.3045 -0.0151
 6801SOL    HW131865   2.292   2.546   4.824  1.3820  0.2447  1.6810
 6801SOL    HW231866   2.263   2.586   4.969  0.6183  2.1692 -1.5750
 6802SOL     OW31867   3.919   0.115  16.252 -0.7516  0.3965  0.1368
 6802SOL    HW131868   3.946   0.177  16.184 -0.2486  1.8416  1.6585
 6802SOL    HW231869   3.980   0.144  16.320  1.1306 -0.9886 -0.9398
 6803SOL     OW31870   1.426   2.815  10.111 -0.1235  0.3391 -0.0470
 6803SOL    HW131871   1.444   2.904  10.141 -0.2943 -0.1102  1.3650
 6803SOL    HW231872   1.419   2.762  10.190  1.3348  1.9351  1.1576
 6804SOL     OW31873   4.657   0.728  11.348 -0.0477 -0.3112  0.0030
 6804SOL    HW131874   4.637   0.811  11.392  1.4772  0.0347  0.0212
 6804SOL    HW231875   4.591   0.729  11.279  0.7493 -0.3145 -0.7577
 6805SOL     OW31876   3.338   0.789   3.233 -0.0288 -0.4391 -0.2431
 6805SOL    HW131877   3.385   0.865   3.200  0.4666 -0.9383 -0.6932
 6805SOL    HW231878   3.253   0.831   3.247  0.3898  0.9259 -1.7305
 6806SOL     OW31879   4.552   2.857  10.026 -0.4934 -0.3512 -0.3261
 6806SOL    HW131880   4.628   2.880  10.079 -1.0140  1.9741 -0.6053
 6806SOL    HW231881   4.605   2.813   9.960  1.4106 -0.0234  1.0126
 6807SOL     OW31882   0.484   3.095   5.237 -0.2539  0.2243  0.2970
 6807SOL    HW131883   0.447   3.178   5.267  0.7606 -0.0784  2.3602
 6807SOL    HW231884   0.556   3.126   5.183 -0.5859 -1.6044 -1.1969
 6808SOL     OW31885   4.720   1.718   8.235 -0.0537 -0.2640 -0.1297
 6808SOL    HW131886   4.696   1.666   8.312  0.3598 -0.6865 -0.2850
 6808SOL    HW231887   4.638   1.746   8.193  0.4695 -0.2944 -1.1753
 6809SOL     OW31888   0.501   2.166   1.764 -0.1829  0.0189 -0.4533
 6809SOL    HW131889   0.452   2.211   1.695 -0.5169 -2.6200 -1.9105
 6809SOL    HW231890   0.463   2.214   1.838 -0.4086  0.8052 -1.0767
 6810SOL     OW31891   1.335   1.634   4.488 -0.0628  0.2995 -0.1109
 6810SOL    HW131892   1.352   1.548   4.528 -1.8731  0.0750  0.1879
 6810SOL    HW231893   1.242   1.625   4.470 -0.3207 -0.3373  1.4722
 6811SOL     OW31894   3.595   4.176   0.079 -0.2182  0.1248 -0.0945
 6811SOL    HW131895   3.599   4.219  17.697  2.1525 -1.9032 -0.9999
 6811SOL    HW231896   3.504   4.193   0.103  0.5769  2.0951  1.5458
 6812SOL     OW31897   2.267   3.893   2.433 -0.4444 -0.1846 -0.9446
 6812SOL    HW131898   2.296   3.862   2.346  0.8794 -1.6461  0.0100
 6812SOL    HW231899   2.194   3.835   2.452  1.6735 -2.6618 -0.2774
 6813SOL     OW31900   0.461   1.366   0.780  0.3166 -0.4074 -0.2540
 6813SOL    HW131901   0.382   1.379   0.833  0.5825  0.0703  0.0247
 6813SOL    HW231902   0.424   1.321   0.705 -1.7336  2.4219 -0.9135
 6814SOL     OW31903   2.266   0.858   2.647  0.4127  0.4868  0.4987
 6814SOL    HW131904   2.208   0.853   2.571 -0.5888  1.3252  1.2282
 6814SOL    HW231905   2.350   0.874   2.603 -0.9891  0.1598 -2.3306
 6815SOL     OW31906   3.599   2.160   4.451 -0.4162 -0.3753  0.1947
 6815SOL    HW131907   3.600   2.166   4.355 -1.3442  0.5379  0.2483
 6815SOL    HW231908   3.582   2.252   4.470  0.1956 -0.0707 -0.7268
 6816SOL     OW31909   4.552   1.217   6.953 -0.0769  0.5463  0.4679
 6816SOL    HW131910   4.527   1.127   6.974  0.9417  0.4766  1.3359
 6816SOL    HW231911   4.571   1.257   7.038 -1.0695 -0.3753  1.1222
 6817SOL     OW31912   0.278   1.504   0.450  0.3636 -0.1466  0.1941
 6817SOL    HW131913   0.219   1.496   0.525 -0.6163  2.3685 -0.3103
 6817SOL    HW231914   0.218   1.547   0.389  0.3999  1.5013  1.3342
 6818SOL     OW31915   2.020   2.213   2.730 -0.6215 -0.0440 -0.2627
 6818SOL    HW131916   1.940   2.227   2.679 -0.2958 -0.4405 -0.8834
 6818SOL    HW231917   2.034   2.119   2.715  1.0674  0.0856  0.5551
 6819SOL     OW31918   4.594   1.186   0.894  0.1582 -0.5373 -0.0080
 6819SOL    HW131919   4.591   1.255   0.960  1.2106 -0.7814  0.2844
 6819SOL    HW231920   4.577   1.122   0.963 -0.0725 -0.2853  0.1668
 6820SOL     OW31921   4.574   1.084   4.069 -0.2013  0.4203 -0.0516
 6820SOL    HW131922   4.487   1.083   4.108 -0.6932  1.2491 -1.1393
 6820SOL    HW231923   4.548   1.100   3.978 -1.2694  0.5000  0.2723
 6821SOL     OW31924   2.429   3.513  10.636 -1.3292  0.8066 -0.5178
 6821SOL    HW131925   2.386   3.564  10.705 -2.4335 -0.9680  0.1048
 6821SOL    HW231926   2.519   3.514  10.670 -1.1931 -0.9568 -0.8195
 6822SOL     OW31927   2.619   0.816   8.605 -0.0105 -0.1749  0.0975
 6822SOL    HW131928   2.578   0.897   8.636  0.8122 -0.2400  1.3929
 6822SOL    HW231929   2.585   0.751   8.667 -0.6857 -1.7699 -1.9460
 6823SOL     OW31930   2.103   3.062   3.624 -0.2676  0.1229  0.2512
 6823SOL    HW131931   2.185   3.097   3.591  0.8532 -1.2887  1.5344
 6823SOL    HW231932   2.063   3.145   3.651 -1.8818 -0.4769 -0.2915
 6824SOL     OW31933   1.821   3.921   4.445 -0.3093  0.6695  0.1286
 6824SOL    HW131934   1.849   3.845   4.496 -0.5886  1.2747  1.1993
 6824SOL    HW231935   1.834   3.889   4.356  0.3005  0.5041  0.2804
 6825SOL     OW31936   0.527   0.511   2.783 -0.1691 -0.8046  0.2065
 6825SOL    HW131937   0.601   0.451   2.768  0.1157 -1.0044  2.3822
 6825SOL    HW231938   0.563   0.600   2.788  0.7432 -0.8776 -4.8319
 6826SOL     OW31939   0.173   1.974   0.550 -0.2495 -0.4540 -0.0968
 6826SOL    HW131940   0.079   1.976   0.569  0.0511 -0.2437  1.4124
 6826SOL    HW231941   0.202   1.913   0.618  1.6963  0.4980 -0.0519
 6827SOL     OW31942   3.204   3.357   3.900  0.3395  0.2895  0.6447
 6827SOL    HW131943   3.162   3.393   3.823 -0.4520  0.5288  1.1859
 6827SOL    HW231944   3.283   3.320   3.861  0.2305 -0.4954  1.1652
 6828SOL     OW31945   0.737   2.058  11.136  0.0106  0.4101  0.1816
 6828SOL    HW131946   0.714   1.967  11.119 -2.4799  0.8768  1.0340
 6828SOL    HW231947   0.777   2.043  11.221  0.5380 -0.7413 -0.2724
 6829SOL     OW31948   4.209   1.111   0.375 -0.3858  0.0820  0.4976
 6829SOL    HW131949   4.294   1.096   0.416 -0.8337  1.6509  2.0368
 6829SOL    HW231950   4.186   1.019   0.366  0.2698  0.2204 -2.3343
 6830SOL     OW31951   2.727   2.512   3.560  0.2701 -0.2923  0.5486
 6830SOL    HW131952   2.673   2.469   3.494  0.1532 -0.1490  0.5513
 6830SOL    HW231953   2.758   2.437   3.610  0.2230  0.3142  1.4888
 6831SOL     OW31954   1.707   3.036   6.653  0.2497  0.1178  0.6474
 6831SOL    HW131955   1.615   3.010   6.665  0.5047 -0.7371  0.7727
 6831SOL    HW231956   1.704   3.109   6.592 -0.6370 -0.0577  0.4753
 6832SOL     OW31957   2.178   4.047   6.083  0.6067 -0.8778 -0.2932
 6832SOL    HW131958   2.235   4.122   6.097 -1.3303  0.8212 -1.4969
 6832SOL    HW231959   2.154   4.050   5.990 -0.3464  1.8591  0.0548
 6833SOL     OW31960   0.880   3.137  16.773 -0.3554  0.1690  0.2334
 6833SOL    HW131961   0.802   3.143  16.828 -1.8949  0.6225 -1.9828
 6833SOL    HW231962   0.918   3.052  16.796  3.4514  1.3287 -1.8439
 6834SOL     OW31963   2.814   2.752   8.942  0.5164 -0.1732  0.0600
 6834SOL    HW131964   2.907   2.763   8.920  0.5817 -1.0603 -0.1261
 6834SOL    HW231965   2.771   2.766   8.858  0.3944 -1.0889 -0.0332
 6835SOL     OW31966   2.860   2.657  10.973 -0.0984 -0.3799  0.6279
 6835SOL    HW131967   2.936   2.707  11.003 -0.5885 -0.1136  1.4168
 6835SOL    HW231968   2.866   2.575  11.022 -0.2714  0.1845  1.5961
 6836SOL     OW31969   0.762   0.388   2.789 -0.1041  0.6732 -0.0984
 6836SOL    HW131970   0.784   0.343   2.871  2.2794  0.5560 -0.8038
 6836SOL    HW231971   0.789   0.324   2.724  1.5682  3.4628 -2.1430
 6837SOL     OW31972   3.938   0.016   8.757  0.3060 -0.3048 -0.1412
 6837SOL    HW131973   3.926   0.027   8.662  1.0635 -1.1005 -0.3335
 6837SOL    HW231974   4.031   4.717   8.760  0.3885 -0.1799 -1.3494
 6838SOL     OW31975   2.534   2.824  13.414  0.0069 -0.2679  0.2352
 6838SOL    HW131976   2.445   2.841  13.383 -0.5497  0.7717  2.4356
 6838SOL    HW231977   2.539   2.862  13.501  1.5436  0.7825 -0.3063
 6839SOL     OW31978   3.425   0.614   5.435 -0.3009 -0.4277  0.6524
 6839SOL    HW131979   3.365   0.676   5.394 -0.1672 -0.2828  0.6774
 6839SOL    HW231980   3.360   0.549   5.463 -0.3999 -0.5546  0.1243
 6840SOL     OW31981   3.357   0.944  14.052  0.7400 -0.3387 -0.5669
 6840SOL    HW131982   3.274   0.962  14.007  1.0257 -0.6133 -1.2006
 6840SOL    HW231983   3.398   1.030  14.054 -0.0021  0.0378 -1.5632
 6841SOL     OW31984   1.758   2.728   5.723  0.1649 -0.3377  0.2955
 6841SOL    HW131985   1.726   2.728   5.632  3.3367  0.8020 -0.7870
 6841SOL    HW231986   1.722   2.642   5.747  0.1514 -0.3143  0.3603
 6842SOL     OW31987   1.508   4.587  14.597 -0.2657  0.0678 -0.0455
 6842SOL    HW131988   1.583   4.554  14.646  0.0437  1.7229  0.6220
 6842SOL    HW231989   1.479   4.662  14.650 -1.4048 -0.0237 -0.5409
 6843SOL     OW31990   2.182   4.396   6.392  0.4490 -0.1945 -0.0034
 6843SOL    HW131991   2.154   4.327   6.452 -1.3797  0.8108  0.3082
 6843SOL    HW231992   2.241   4.455   6.440  0.8579 -1.6891  1.3217
 6844SOL     OW31993   2.866   3.393  13.159 -0.1224 -0.4143 -0.1023
 6844SOL    HW131994   2.876   3.320  13.098 -1.6336 -1.4396  0.8810
 6844SOL    HW231995   2.885   3.353  13.243 -1.4158  1.0644  0.9001
 6845SOL     OW31996   0.469   2.878  10.552 -0.4962  0.5380 -0.0994
 6845SOL    HW131997   0.548   2.824  10.551 -0.6475  0.3158 -0.0911
 6845SOL    HW231998   0.462   2.873  10.647  0.3362  1.6932  0.0144
 6846SOL     OW31999   4.217   2.677   1.579 -0.0254 -0.3622  0.5714
 6846SOL    HW132000   4.247   2.624   1.653  0.3753  0.4291  0.9724
 6846SOL    HW232001   4.294   2.684   1.522  0.8844 -0.0506  1.8610
 6847SOL     OW32002   1.434   1.534   6.962 -0.0118  0.3665  0.2724
 6847SOL    HW132003   1.362   1.569   6.909  0.3571  0.7538  0.0237
 6847SOL    HW232004   1.500   1.513   6.895 -1.7324 -2.4509 -0.5116
 6848SOL     OW32005   0.084   2.516   8.726 -0.0165 -0.1150 -0.4792
 6848SOL    HW132006   0.032   2.565   8.662  0.5892  0.2212 -0.7108
 6848SOL    HW232007   0.161   2.570   8.740  2.1294 -2.3174 -3.6480
 6849SOL     OW32008   1.769   4.450  13.039 -0.6784 -0.0498 -0.9560
 6849SOL    HW132009   1.771   4.490  13.126 -1.0104 -1.4008 -0.3284
 6849SOL    HW232010   1.817   4.519  12.994  1.6759  0.5464  2.4455
 6850SOL     OW32011   4.618   1.074  14.803  0.2194  0.9075  0.4729
 6850SOL    HW132012   4.559   1.024  14.745  1.5263 -3.1973  2.7032
 6850SOL    HW232013   4.626   1.157  14.757  0.2972 -0.2832 -1.7038
 6851SOL     OW32014   0.794   4.367   8.721 -0.4179 -0.3589  0.9702
 6851SOL    HW132015   0.805   4.381   8.815 -0.6795  0.6372  0.8458
 6851SOL    HW232016   0.870   4.313   8.699 -1.7472 -1.6093 -0.5712
 6852SOL     OW32017   3.841   4.239   8.498 -0.1384  0.2411 -0.6575
 6852SOL    HW132018   3.880   4.178   8.561  1.1009  1.3987 -0.3083
 6852SOL    HW232019   3.876   4.211   8.413  0.4030  2.1264 -1.0441
 6853SOL     OW32020   2.994   4.157   7.544 -0.4269 -0.2972  0.5714
 6853SOL    HW132021   3.089   4.157   7.553 -0.1613  2.6339 -2.0435
 6853SOL    HW232022   2.972   4.065   7.534  0.0203 -0.3987  0.5457
 6854SOL     OW32023   3.087   0.983   6.147 -0.7749  0.2061  0.4490
 6854SOL    HW132024   3.123   1.072   6.150 -1.0871  0.3510 -0.0840
 6854SOL    HW232025   3.013   0.992   6.208 -0.5896 -1.4094  0.9138
 6855SOL     OW32026   1.934   0.319  12.402 -0.3851 -0.0649  0.0310
 6855SOL    HW132027   1.953   0.396  12.349 -2.3107  1.3065  1.3370
 6855SOL    HW232028   2.005   0.256  12.389 -1.1570 -0.9442  0.0973
 6856SOL     OW32029   2.772   3.349   2.561  0.2371  0.0768 -0.4986
 6856SOL    HW132030   2.682   3.369   2.585  0.5161 -1.5539  1.9411
 6856SOL    HW232031   2.780   3.404   2.484  1.4913 -0.9469 -1.1073
 6857SOL     OW32032   3.761   2.688   7.838  0.5918  0.2190 -0.0112
 6857SOL    HW132033   3.808   2.605   7.839 -0.3738 -0.3327 -0.2461
 6857SOL    HW232034   3.675   2.648   7.825  0.5123  1.1085 -2.2765
 6858SOL     OW32035   2.161   3.488  16.552 -0.0112  0.2413 -0.3379
 6858SOL    HW132036   2.136   3.564  16.605 -1.1308  0.8623 -1.7221
 6858SOL    HW232037   2.220   3.447  16.615  2.3053  3.8553 -0.1579
 6859SOL     OW32038   3.511   1.619  17.224  0.5504  0.1937  0.4608
 6859SOL    HW132039   3.537   1.539  17.179 -0.8678 -0.0017 -0.0067
 6859SOL    HW232040   3.431   1.645  17.178 -0.2774  0.0653  1.8623
 6860SOL     OW32041   3.280   0.324  11.266  0.1989 -0.5943 -0.1146
 6860SOL    HW132042   3.371   0.296  11.278  0.2466 -1.1998 -1.9459
 6860SOL    HW232043   3.293   0.381  11.190  0.5370  0.2879  0.6045
 6861SOL     OW32044   3.982   0.394   5.787 -0.0833  0.9638  0.0619
 6861SOL    HW132045   4.015   0.424   5.703 -0.3848  1.8214  0.2554
 6861SOL    HW232046   3.949   0.479   5.817  1.0985  1.6321 -0.5417
 6862SOL     OW32047   3.595   1.996   3.180 -0.0134 -0.0521  0.3809
 6862SOL    HW132048   3.602   2.034   3.267  1.1140 -1.6487  0.9913
 6862SOL    HW232049   3.647   2.054   3.125 -2.1470  0.7663 -0.7576
 6863SOL     OW32050   1.545   0.480   8.175 -0.2308 -0.5383 -0.3153
 6863SOL    HW132051   1.472   0.424   8.201 -0.0798 -1.0662 -1.0390
 6863SOL    HW232052   1.541   0.541   8.249 -0.3354  0.8474 -1.4645
 6864SOL     OW32053   1.367   1.646  17.452 -0.0893 -0.0868 -0.0850
 6864SOL    HW132054   1.286   1.695  17.467  0.9872  1.1541  1.6966
 6864SOL    HW232055   1.383   1.611  17.540 -0.0144  1.0020  0.3381
 6865SOL     OW32056   3.406   3.082  13.695 -0.1189 -0.5745 -0.0057
 6865SOL    HW132057   3.329   3.136  13.678 -0.3869 -0.7640  0.6269
 6865SOL    HW232058   3.367   3.004  13.734  0.3181 -1.1850 -0.7944
 6866SOL     OW32059   2.839   0.829  12.690  0.2379 -0.1917 -0.6449
 6866SOL    HW132060   2.819   0.753  12.745 -2.6455 -0.7149 -2.4600
 6866SOL    HW232061   2.762   0.842  12.636 -0.6678  0.0612  0.7191
 6867SOL     OW32062   0.374   3.294   0.184  0.3033 -0.1305  0.1321
 6867SOL    HW132063   0.379   3.375   0.235 -3.4783 -0.1557  0.4860
 6867SOL    HW232064   0.324   3.320   0.107 -0.3405  0.2859  0.6958
 6868SOL     OW32065   4.433   0.445  15.060 -0.1433  0.3879 -0.3000
 6868SOL    HW132066   4.485   0.523  15.078 -1.1728  1.1854 -0.7841
 6868SOL    HW232067   4.350   0.483  15.031 -0.5284 -0.0416  0.2222
 6869SOL     OW32068   1.068   1.598   4.461 -0.1224 -0.2311  0.2646
 6869SOL    HW132069   0.977   1.589   4.434 -0.6340  0.9675  1.5990
 6869SOL    HW232070   1.074   1.692   4.443 -1.1152 -0.4535 -1.2128
 6870SOL     OW32071   1.061   4.459   7.541 -0.0397  0.2367 -0.6173
 6870SOL    HW132072   1.076   4.442   7.448  3.1083 -1.0285  0.1143
 6870SOL    HW232073   1.096   4.377   7.576  1.5916  0.6673 -1.2253
 6871SOL     OW32074   1.939   3.243  11.929 -0.5656 -0.9102 -0.1268
 6871SOL    HW132075   1.907   3.277  11.846 -3.0041 -0.4349  0.9853
 6871SOL    HW232076   2.033   3.240  11.916 -0.7852  2.5854 -2.3857
 6872SOL     OW32077   1.859   2.977   1.103 -0.1304 -0.0881 -0.8672
 6872SOL    HW132078   1.873   2.890   1.065  0.6944 -1.0836  1.6798
 6872SOL    HW232079   1.937   3.018   1.065 -1.0598  1.9983 -0.4881
 6873SOL     OW32080   1.402   3.677   8.186  0.0826  0.8131  0.1071
 6873SOL    HW132081   1.473   3.707   8.130  0.6351  0.4091  0.5930
 6873SOL    HW232082   1.454   3.658   8.264  1.3345  0.6310 -0.7851
 6874SOL     OW32083   2.304   0.068   3.736 -0.1873  0.3569  0.2934
 6874SOL    HW132084   2.370   0.032   3.677  0.1536 -0.3041  1.0647
 6874SOL    HW232085   2.357   0.108   3.806 -1.3458  2.0211  0.1988
 6875SOL     OW32086   2.349   0.067  11.125 -0.1330 -0.4004  0.1543
 6875SOL    HW132087   2.279   0.013  11.162 -0.6887  0.0540 -0.2620
 6875SOL    HW232088   2.315   0.154  11.144 -4.0978 -1.9410  0.1249
 6876SOL     OW32089   3.181   3.545   3.682 -0.8585 -0.0512  0.1416
 6876SOL    HW132090   3.240   3.514   3.613  1.1122  2.9010  0.4940
 6876SOL    HW232091   3.248   3.592   3.731  0.6340  0.4431 -2.3390
 6877SOL     OW32092   4.131   2.850  16.063 -0.5602 -0.2796 -0.0237
 6877SOL    HW132093   4.171   2.845  16.150  0.6115  1.2578 -0.4833
 6877SOL    HW232094   4.198   2.881  16.002 -1.3750 -0.9228 -1.2499
 6878SOL     OW32095   1.309   3.030   2.715 -0.2274  0.2291  0.4891
 6878SOL    HW132096   1.395   3.026   2.757  0.2799 -1.2065 -0.6812
 6878SOL    HW232097   1.251   2.994   2.782 -0.5314 -1.0545 -0.4709
 6879SOL     OW32098   0.450   3.116   7.458 -0.0291  0.4820 -0.3791
 6879SOL    HW132099   0.376   3.155   7.411 -1.1614 -0.6881  0.4499
 6879SOL    HW232100   0.473   3.067   7.379  0.1921 -3.0255  1.8542
 6880SOL     OW32101   4.413   2.737   1.068 -0.2212 -0.6462 -0.0281
 6880SOL    HW132102   4.433   2.688   1.148  0.2628  2.4184  1.7331
 6880SOL    HW232103   4.460   2.817   1.089 -1.9216  0.2614  0.3533
 6881SOL     OW32104   0.475   1.871  15.961 -0.1513 -0.0661 -0.2033
 6881SOL    HW132105   0.448   1.962  15.950 -0.1378  0.0619  0.8744
 6881SOL    HW232106   0.493   1.852  15.869 -1.0150 -2.1964  0.0688
 6882SOL     OW32107   4.100   1.531   6.395 -0.1892 -0.1510 -0.2168
 6882SOL    HW132108   4.136   1.507   6.310 -0.0000 -0.5205 -0.0322
 6882SOL    HW232109   4.177   1.538   6.452 -1.2100  0.3207  1.0948
 6883SOL     OW32110   0.399   1.440   3.047 -0.2824  0.3541 -0.1926
 6883SOL    HW132111   0.465   1.484   2.993 -0.0720  1.2166  0.7734
 6883SOL    HW232112   0.331   1.444   2.980 -0.8576  2.3904  0.5177
 6884SOL     OW32113   1.363   2.066   6.932  0.2347 -0.3557 -0.0445
 6884SOL    HW132114   1.356   1.977   6.967 -1.4556 -0.1842  0.0202
 6884SOL    HW232115   1.362   2.037   6.841 -0.2946  1.7417 -0.7076
 6885SOL     OW32116   4.275   0.557  12.775 -0.1605 -0.4799  0.2708
 6885SOL    HW132117   4.234   0.484  12.823 -0.6437 -1.1081 -1.1013
 6885SOL    HW232118   4.365   0.525  12.786  0.3874  1.2105  0.7299
 6886SOL     OW32119   3.762   3.853  13.186  0.0570  0.1764  0.6862
 6886SOL    HW132120   3.719   3.787  13.131  2.1241  0.7643 -1.6257
 6886SOL    HW232121   3.781   3.813  13.271  0.3162 -0.4281  0.3444
 6887SOL     OW32122   2.745   1.664   1.131 -0.3435  0.4391 -0.1682
 6887SOL    HW132123   2.799   1.608   1.076  0.6580  0.7539  0.4782
 6887SOL    HW232124   2.721   1.601   1.199  0.4185 -0.0763 -0.3865
 6888SOL     OW32125   0.303   4.285   1.067 -0.7548 -0.0089 -0.4241
 6888SOL    HW132126   0.224   4.277   1.120 -1.5756  0.2843 -1.5925
 6888SOL    HW232127   0.372   4.322   1.123 -1.6889 -1.2696  1.5442
 6889SOL     OW32128   0.565   0.954   5.425  0.6168 -0.7201  0.3416
 6889SOL    HW132129   0.600   0.940   5.514  2.2373  0.6282 -0.0841
 6889SOL    HW232130   0.534   0.868   5.397 -0.1511  0.0442 -1.1302
 6890SOL     OW32131   3.729   4.319   2.357 -0.4894  0.1868  0.0222
 6890SOL    HW132132   3.773   4.354   2.434  0.6295  0.3617 -0.6975
 6890SOL    HW232133   3.777   4.364   2.287 -0.2486  0.6160  0.4648
 6891SOL     OW32134   2.945   3.484   4.936 -0.8501  0.2880 -0.2607
 6891SOL    HW132135   2.960   3.467   4.843 -1.4644  1.0854 -0.5057
 6891SOL    HW232136   3.021   3.538   4.958 -0.0695 -1.6005  1.5980
 6892SOL     OW32137   2.319   2.093   0.805 -0.2190  1.1899 -0.3170
 6892SOL    HW132138   2.284   2.168   0.853 -0.5942  1.0695 -0.4071
 6892SOL    HW232139   2.244   2.063   0.754 -0.4338 -0.5752  1.0336
 6893SOL     OW32140   1.801   1.175   6.499 -0.0302 -0.5791  0.8178
 6893SOL    HW132141   1.862   1.200   6.569  0.1276  1.2323  0.0182
 6893SOL    HW232142   1.850   1.093   6.485  1.0990 -0.2126  2.6010
 6894SOL     OW32143   2.429   1.811   0.625 -0.4295 -0.5162 -0.2393
 6894SOL    HW132144   2.376   1.781   0.699 -0.0827 -1.9221 -0.5587
 6894SOL    HW232145   2.364   1.778   0.563 -0.1306 -2.5630  0.5562
 6895SOL     OW32146   1.047   3.013   6.787 -0.4177 -0.4966 -0.3828
 6895SOL    HW132147   1.115   2.998   6.853  0.0382 -0.5010 -0.8554
 6895SOL    HW232148   1.094   3.042   6.709 -1.8584  0.0529 -1.0552
 6896SOL     OW32149   2.456   3.034   7.247  0.0705  0.2201 -0.0510
 6896SOL    HW132150   2.550   3.035   7.263  0.4046  1.6649 -2.1427
 6896SOL    HW232151   2.457   3.078   7.162 -3.4117  1.0469  0.3258
 6897SOL     OW32152   3.664   0.544  10.543  0.2149 -0.6715  0.1590
 6897SOL    HW132153   3.732   0.610  10.529 -0.8033  0.6670  1.5107
 6897SOL    HW232154   3.585   0.585  10.508  0.4804  0.6890  1.1731
 6898SOL     OW32155   0.366   0.210   0.017 -0.0103 -0.8332  0.1940
 6898SOL    HW132156   0.448   0.238   0.057 -0.3882  0.2813  0.2189
 6898SOL    HW232157   0.322   0.295   0.028 -0.7727 -1.3747  1.3693
 6899SOL     OW32158   0.080   3.067   9.191  0.0026 -0.3011  1.1614
 6899SOL    HW132159   0.098   2.992   9.134 -2.0541 -0.2991  0.4996
 6899SOL    HW232160   4.722   3.094   9.154  0.8705  1.0935  0.2388
 6900SOL     OW32161   1.393   3.484   2.580 -0.8986 -0.0911  0.2323
 6900SOL    HW132162   1.479   3.515   2.609 -0.7409  0.2523 -0.6220
 6900SOL    HW232163   1.391   3.511   2.489  2.8095 -0.4789  0.0390
 6901SOL     OW32164   2.217   4.119   1.507  0.3241  0.1032  0.2351
 6901SOL    HW132165   2.179   4.031   1.507 -0.2139  0.3333  0.6233
 6901SOL    HW232166   2.236   4.150   1.596  0.2507  0.4464  0.1316
 6902SOL     OW32167   3.410   4.056   7.909  0.5155  0.3318  0.5042
 6902SOL    HW132168   3.503   4.038   7.903  0.7627  1.0602  2.0892
 6902SOL    HW232169   3.419   4.151   7.900 -0.7632  0.4516  0.4220
 6903SOL     OW32170   3.575   3.577   9.885 -0.1766 -0.1398 -0.1097
 6903SOL    HW132171   3.613   3.559   9.971  1.6622  1.0129 -0.6793
 6903SOL    HW232172   3.483   3.594   9.904  0.0772  0.0759  0.9180
 6904SOL     OW32173   0.072   0.976   7.039 -0.2657  0.2516  0.1881
 6904SOL    HW132174   4.718   0.968   6.986 -0.6165 -0.8054  0.8637
 6904SOL    HW232175   0.135   0.915   7.001 -1.2189 -1.1979  0.9263
 6905SOL     OW32176   2.944   2.685   3.415  0.1036  0.1734  0.7589
 6905SOL    HW132177   2.890   2.757   3.382 -0.5673 -0.3606  0.6812
 6905SOL    HW232178   2.887   2.628   3.466  0.3431 -0.4845  0.2818
 6906SOL     OW32179   1.881   0.109   1.912  0.1556  0.0575 -0.3129
 6906SOL    HW132180   1.935   0.115   1.833  1.4809  1.3048  0.6977
 6906SOL    HW232181   1.823   0.035   1.896  1.0455 -0.9151  1.0018
 6907SOL     OW32182   4.302   3.908   7.751 -0.5810  0.0159 -0.1764
 6907SOL    HW132183   4.265   3.819   7.752 -1.5490  0.4171  0.7418
 6907SOL    HW232184   4.265   3.937   7.835  0.3843  1.6163 -0.3083
 6908SOL     OW32185   1.477   1.029   8.097 -0.1059  0.2403  0.1334
 6908SOL    HW132186   1.473   0.999   8.188  0.4280  1.2710  0.5044
 6908SOL    HW232187   1.412   0.968   8.063 -1.2784  1.1548  0.7035
 6909SOL     OW32188   3.463   0.199   8.512 -0.2610  0.5049  0.0565
 6909SOL    HW132189   3.527   0.166   8.450 -0.0157 -2.6001  1.9358
 6909SOL    HW232190   3.515   0.250   8.574 -2.3824  1.2097  1.2563
 6910SOL     OW32191   2.455   0.188   3.910 -0.6047  0.0908 -0.2829
 6910SOL    HW132192   2.480   0.277   3.934  0.1927 -0.3370  0.4883
 6910SOL    HW232193   2.400   0.159   3.983  2.5734 -0.3819  1.9559
 6911SOL     OW32194   4.628   3.831   7.273 -0.0373 -0.7854  0.5743
 6911SOL    HW132195   4.583   3.910   7.303 -0.0416 -0.7199  0.3927
 6911SOL    HW232196   4.558   3.766   7.282  0.1656 -0.7831  2.0880
 6912SOL     OW32197   3.294   2.772   2.362  0.2779  0.0717  0.0784
 6912SOL    HW132198   3.296   2.799   2.270  0.3128 -2.5620 -0.7183
 6912SOL    HW232199   3.235   2.836   2.401 -0.4857 -2.6935  3.4710
 6913SOL     OW32200   3.767   2.018   6.547  0.1314 -0.2007 -0.0115
 6913SOL    HW132201   3.769   1.961   6.470 -2.3206  0.7039 -0.7476
 6913SOL    HW232202   3.721   2.095   6.514 -0.3048 -0.7903 -0.7969
 6914SOL     OW32203   0.460   3.609   5.016 -0.3749  0.3464  0.3637
 6914SOL    HW132204   0.504   3.690   4.991 -2.6031  1.4059 -0.1082
 6914SOL    HW232205   0.389   3.637   5.073 -1.1847 -0.4917 -0.2126
 6915SOL     OW32206   0.281   2.711   5.401  0.0282 -0.0443  0.2424
 6915SOL    HW132207   0.319   2.765   5.331 -0.4720 -0.4476 -0.3307
 6915SOL    HW232208   0.211   2.668   5.352 -0.2919 -0.4268  1.0467
 6916SOL     OW32209   4.041   2.300   9.668  0.9815 -0.4227 -0.3130
 6916SOL    HW132210   4.026   2.266   9.756 -1.0683 -1.0171 -0.9022
 6916SOL    HW232211   4.001   2.387   9.670  0.3562 -0.7572  1.7747
 6917SOL     OW32212   2.660   1.129   7.785  0.1248  0.3048 -0.0016
 6917SOL    HW132213   2.575   1.166   7.761  0.4304  0.7378 -0.4262
 6917SOL    HW232214   2.631   1.049   7.828 -1.1716 -0.0712 -1.5711
 6918SOL     OW32215   3.537   2.199   3.770  0.4142 -0.5158 -0.1153
 6918SOL    HW132216   3.629   2.171   3.769  0.5666 -0.0575  2.8821
 6918SOL    HW232217   3.518   2.236   3.856  0.0596  1.0601 -0.8714
 6919SOL     OW32218   3.266   2.042   5.248  0.2516 -0.1844  0.1485
 6919SOL    HW132219   3.307   2.126   5.224 -2.0394  0.3488 -1.9122
 6919SOL    HW232220   3.187   2.040   5.194 -0.3010 -2.5563  1.0447
 6920SOL     OW32221   2.412   2.532   7.877  0.6326  0.6757  0.0325
 6920SOL    HW132222   2.417   2.443   7.840  0.4613  0.1349  1.3244
 6920SOL    HW232223   2.336   2.530   7.934  0.7710 -0.0506  0.1909
 6921SOL     OW32224   4.249   4.519   2.989 -0.0701 -0.5256  0.3367
 6921SOL    HW132225   4.234   4.440   3.043  1.6459 -0.5999  0.6930
 6921SOL    HW232226   4.209   4.494   2.906 -0.2074  1.2736 -0.1342
 6922SOL     OW32227   3.938   1.115  12.628  0.1569 -0.4237  0.2194
 6922SOL    HW132228   3.915   1.143  12.717 -1.3902 -2.3374  0.4221
 6922SOL    HW232229   3.926   1.195  12.575  2.0965  0.0209  0.4768
 6923SOL     OW32230   2.889   1.371   7.889  0.0791  0.0658  0.2317
 6923SOL    HW132231   2.800   1.350   7.861  0.9295 -0.1868 -2.2161
 6923SOL    HW232232   2.876   1.394   7.981 -4.1724  0.1063 -0.3831
 6924SOL     OW32233   2.694   2.736   9.506  0.2619  0.0576 -0.2266
 6924SOL    HW132234   2.738   2.687   9.436  1.6770  1.3102 -0.2017
 6924SOL    HW232235   2.692   2.670   9.576  3.1220  0.8740  0.5874
 6925SOL     OW32236   3.755   0.921  12.168 -0.0357 -0.8203 -0.2381
 6925SOL    HW132237   3.806   0.905  12.248 -0.7281  0.7252  0.5173
 6925SOL    HW232238   3.829   0.944  12.111  1.2378 -3.0911  0.5076
 6926SOL     OW32239   2.522   2.150   8.373  0.2770  0.0643  0.0455
 6926SOL    HW132240   2.514   2.072   8.428 -0.2361  1.9056  2.5832
 6926SOL    HW232241   2.453   2.130   8.309  0.4326 -1.1781  0.2637
 6927SOL     OW32242   0.652   3.141   2.855  0.4156 -0.2393  0.9484
 6927SOL    HW132243   0.562   3.110   2.849  0.2890  0.1268  0.9428
 6927SOL    HW232244   0.702   3.064   2.882  1.7604  0.1067 -0.5679
 6928SOL     OW32245   2.202   3.186  10.083  0.2551  0.8982 -0.6289
 6928SOL    HW132246   2.189   3.101  10.125  1.5933  0.7524 -0.4983
 6928SOL    HW232247   2.291   3.170  10.052  0.1732 -0.8409  0.0037
 6929SOL     OW32248   3.213   0.266  12.549  0.1279 -0.0169 -0.4044
 6929SOL    HW132249   3.185   0.298  12.463  2.4839 -0.7361 -1.4335
 6929SOL    HW232250   3.206   0.174  12.525 -1.8526 -0.3630  1.4605
 6930SOL     OW32251   4.568   4.178   4.675 -0.5513 -0.6367 -0.0340
 6930SOL    HW132252   4.567   4.168   4.770  1.1602 -0.7404 -0.0144
 6930SOL    HW232253   4.520   4.261   4.675  1.1925  0.3765  0.1584
 6931SOL     OW32254   2.519   3.901   9.420 -0.2659  0.0821 -0.0298
 6931SOL    HW132255   2.465   3.836   9.463 -1.4534  0.3322 -1.1290
 6931SOL    HW232256   2.548   3.856   9.340  3.2195  1.1329  0.6389
 6932SOL     OW32257   3.150   3.184   7.481 -0.0749  0.0823  0.1843
 6932SOL    HW132258   3.240   3.161   7.505 -1.1888 -3.8835  0.5484
 6932SOL    HW232259   3.171   3.196   7.388  0.2494  1.1191  0.3892
 6933SOL     OW32260   0.751   3.147   9.165 -0.5515  0.2055 -0.1238
 6933SOL    HW132261   0.783   3.071   9.213 -0.6641  0.7915  0.8778
 6933SOL    HW232262   0.657   3.127   9.170 -0.3746 -0.4971  0.3463
 6934SOL     OW32263   2.838   1.802   9.040  0.1827  0.6605 -0.0116
 6934SOL    HW132264   2.841   1.755   8.957 -1.2231 -0.2235  0.4213
 6934SOL    HW232265   2.842   1.729   9.102 -0.6065 -0.3426 -1.1562
 6935SOL     OW32266   2.813   3.930  13.579 -0.9601 -0.4532  0.3913
 6935SOL    HW132267   2.769   4.002  13.623  0.3638  0.5421  0.0781
 6935SOL    HW232268   2.830   3.973  13.495  0.8530  0.7502  1.4035
 6936SOL     OW32269   1.414   0.432   1.209  0.2656  0.0700 -0.1090
 6936SOL    HW132270   1.387   0.457   1.121  1.9369  3.7196  0.4043
 6936SOL    HW232271   1.347   0.369   1.237 -0.7602  1.4812  0.5876
 6937SOL     OW32272   2.870   2.686   4.621 -0.2791  0.4813  0.3831
 6937SOL    HW132273   2.921   2.735   4.556  2.3276 -0.8313  1.4500
 6937SOL    HW232274   2.943   2.642   4.665 -0.1824  0.8028  0.5462
 6938SOL     OW32275   0.553   0.255   2.517 -0.2268  0.7379 -0.2525
 6938SOL    HW132276   0.475   0.311   2.511 -0.4974  0.3704 -0.1630
 6938SOL    HW232277   0.624   0.318   2.513  0.6546 -0.3394 -1.5370
 6939SOL     OW32278   3.212   1.128  11.327 -0.3889 -0.0427  0.3582
 6939SOL    HW132279   3.159   1.181  11.386 -1.0175 -0.2965  0.0217
 6939SOL    HW232280   3.265   1.082  11.392 -0.2106  1.2995  1.1696
 6940SOL     OW32281   0.180   3.988   4.162 -0.1432  0.4946  0.1849
 6940SOL    HW132282   0.121   3.981   4.237  0.5542 -0.3279  0.6636
 6940SOL    HW232283   0.233   3.909   4.177  0.3968  1.2488  2.3261
 6941SOL     OW32284   2.877   3.390  16.565 -0.4328 -0.5352 -0.7250
 6941SOL    HW132285   2.959   3.437  16.553 -0.9759  0.7668  0.8362
 6941SOL    HW232286   2.910   3.337  16.637  0.9884  0.5132 -0.6158
 6942SOL     OW32287   2.162   0.516   6.784 -0.4488  0.3629  0.2502
 6942SOL    HW132288   2.096   0.473   6.838 -1.0014  1.9489  0.8221
 6942SOL    HW232289   2.200   0.575   6.848 -1.8013 -0.6635  1.9887
 6943SOL     OW32290   4.010   3.209   4.591  0.5207  0.7084 -0.3011
 6943SOL    HW132291   4.091   3.258   4.579  0.8679  0.2426  0.1383
 6943SOL    HW232292   3.946   3.269   4.554  0.5207 -0.7638 -2.6601
 6944SOL     OW32293   4.193   4.329   3.154  0.3954  0.7226 -0.0380
 6944SOL    HW132294   4.253   4.288   3.217 -1.3768 -1.0646  0.4828
 6944SOL    HW232295   4.125   4.262   3.159  0.9312  0.2330  0.6924
 6945SOL     OW32296   3.694   3.880   5.427  0.1448  0.2086  0.0471
 6945SOL    HW132297   3.651   3.888   5.512  0.9973  0.0364  0.4985
 6945SOL    HW232298   3.707   3.967   5.388 -1.0860  0.4938  0.2882
 6946SOL     OW32299   0.470   1.620   3.400 -0.0361 -0.3004  0.0530
 6946SOL    HW132300   0.532   1.682   3.439  0.6618 -1.8121  1.3415
 6946SOL    HW232301   0.390   1.626   3.452  0.2267 -0.0555  0.4235
 6947SOL     OW32302   2.070   0.229   9.894 -0.0681 -0.2720 -0.3881
 6947SOL    HW132303   2.055   0.210   9.987 -3.4655  0.4578 -0.7954
 6947SOL    HW232304   1.978   0.235   9.868  0.2503  1.9157 -0.9306
 6948SOL     OW32305   2.604   1.823   5.513 -0.2422  0.3806  0.3679
 6948SOL    HW132306   2.555   1.742   5.529 -0.4489  0.6749  1.2287
 6948SOL    HW232307   2.696   1.795   5.512 -0.7311 -1.1423 -1.5910
 6949SOL     OW32308   2.454   1.833   6.436  0.3361 -0.1699 -0.3370
 6949SOL    HW132309   2.449   1.757   6.378  1.1622 -0.7604  0.3544
 6949SOL    HW232310   2.485   1.802   6.521 -0.2138  0.3744  0.0597
 6950SOL     OW32311   1.366   0.285  11.048 -0.5158  0.1330  0.0601
 6950SOL    HW132312   1.346   0.239  11.130 -2.7838 -0.4389 -0.8136
 6950SOL    HW232313   1.363   0.213  10.984 -0.3948  1.5811 -1.5764
 6951SOL     OW32314   3.889   3.402   6.188 -0.5500 -0.3754 -0.1968
 6951SOL    HW132315   3.864   3.329   6.245 -0.1745  0.9434  1.6712
 6951SOL    HW232316   3.966   3.364   6.146  1.1407  1.2664  1.4076
 6952SOL     OW32317   2.808   4.568   2.822  0.6991 -0.1228  0.3563
 6952SOL    HW132318   2.890   4.600   2.783 -0.5512  1.9833 -0.4996
 6952SOL    HW232319   2.752   4.559   2.745  0.8936 -0.5037  0.2619
 6953SOL     OW32320   4.578   0.081  17.241 -0.2336  0.1683 -0.0656
 6953SOL    HW132321   4.539   0.163  17.273  0.7709 -0.0154  1.6662
 6953SOL    HW232322   4.556   0.028  17.318 -0.0737  0.3397  0.0998
 6954SOL     OW32323   3.980   0.133  12.877  0.0956  0.4924  0.1012
 6954SOL    HW132324   3.926   0.144  12.798 -0.8327 -0.2257  0.6390
 6954SOL    HW232325   4.026   0.216  12.884  1.0610  0.1050 -1.7246
 6955SOL     OW32326   0.564   3.393   7.339 -0.1667  0.2188 -0.5766
 6955SOL    HW132327   0.581   3.389   7.245 -1.6578  0.5632 -0.8586
 6955SOL    HW232328   0.577   3.301   7.362 -0.4317  0.1110 -0.8656
 6956SOL     OW32329   4.666   0.377   0.295  0.4690 -0.2474  0.1449
 6956SOL    HW132330   4.655   0.389   0.201  0.3321  0.1979  0.2165
 6956SOL    HW232331   4.695   0.465   0.319 -1.7738  0.7470 -0.8344
 6957SOL     OW32332   0.728   3.501  15.861  0.5010  0.1609 -0.3979
 6957SOL    HW132333   0.655   3.468  15.808  0.2147  2.1705 -1.2750
 6957SOL    HW232334   0.703   3.588  15.892  0.4072 -0.0133  0.0141
 6958SOL     OW32335   2.567   3.919   8.316 -0.1342  0.0501  0.2328
 6958SOL    HW132336   2.660   3.934   8.333  0.3563 -2.2155 -0.4615
 6958SOL    HW232337   2.575   3.831   8.279 -0.3286 -0.5266  1.5675
 6959SOL     OW32338   1.424   3.116  17.544  0.4279  0.4044 -0.7568
 6959SOL    HW132339   1.455   3.174  17.614  0.9145 -1.8770  0.9134
 6959SOL    HW232340   1.329   3.118  17.551  0.5838  1.1577  1.0791
 6960SOL     OW32341   3.448   2.909   8.304  0.1947 -0.1783  0.6942
 6960SOL    HW132342   3.504   2.900   8.228 -1.8259  2.1776 -1.0933
 6960SOL    HW232343   3.457   3.001   8.330  2.1541 -0.1736 -0.0086
 6961SOL     OW32344   3.485   4.587   5.005  0.3001 -0.3021 -0.0538
 6961SOL    HW132345   3.429   4.562   5.078 -1.3001 -2.0289 -1.8508
 6961SOL    HW232346   3.463   4.679   4.997  2.2020 -0.0456 -2.2875
 6962SOL     OW32347   4.552   4.531  11.954 -0.0374  0.1437 -0.6761
 6962SOL    HW132348   4.540   4.530  11.859 -1.0422  1.1609 -0.5578
 6962SOL    HW232349   4.601   4.612  11.965  1.1005 -0.3580 -2.0021
 6963SOL     OW32350   4.109   0.363  12.116  0.5826  0.0625  0.1474
 6963SOL    HW132351   4.049   0.326  12.051 -0.1265 -2.4878  2.2786
 6963SOL    HW232352   4.123   0.446  12.069  0.5517  0.4318  0.7998
 6964SOL     OW32353   3.069   4.147   4.945  0.2989  0.5284 -0.1290
 6964SOL    HW132354   3.087   4.054   4.935  1.5858  0.5206  2.3893
 6964SOL    HW232355   2.974   4.153   4.938  0.4020  1.6875 -0.5691
 6965SOL     OW32356   2.370   0.262   1.403 -0.1689 -0.1579 -0.1527
 6965SOL    HW132357   2.284   0.226   1.422  2.0420 -3.4123  3.7319
 6965SOL    HW232358   2.365   0.309   1.319  1.0441  1.3868  0.6503
 6966SOL     OW32359   4.619   4.195   0.581  0.4318 -0.6589 -0.6079
 6966SOL    HW132360   4.659   4.282   0.589 -1.8354  0.4055 -0.7280
 6966SOL    HW232361   4.535   4.226   0.548  0.6169 -1.1140 -1.4987
 6967SOL     OW32362   2.508   2.425   4.463 -0.1330 -0.4683 -0.2949
 6967SOL    HW132363   2.569   2.488   4.425  1.3523 -1.9918 -0.4230
 6967SOL    HW232364   2.474   2.388   4.381 -1.4289  1.5743 -0.6882
 6968SOL     OW32365   4.391   4.267   5.553 -0.3987  0.4457 -0.0672
 6968SOL    HW132366   4.391   4.354   5.513 -1.0179  1.0599  1.2683
 6968SOL    HW232367   4.301   4.260   5.584 -0.9741 -0.9941 -2.0460
 6969SOL     OW32368   0.288   3.071  12.154 -0.2160 -0.6558 -0.3065
 6969SOL    HW132369   0.371   3.037  12.189  0.7432  1.1217 -0.8803
 6969SOL    HW232370   0.295   3.164  12.134 -1.1334  0.2285  3.3744
 6970SOL     OW32371   3.832   0.636   4.009  0.2969  0.3996  0.1215
 6970SOL    HW132372   3.844   0.559   4.063 -3.4496  0.5574  1.2119
 6970SOL    HW232373   3.904   0.619   3.949  0.4740  0.5821  0.2798
 6971SOL     OW32374   3.513   0.657   6.769  0.0339  0.1066 -0.4404
 6971SOL    HW132375   3.516   0.641   6.674 -1.3914  0.1189 -0.4787
 6971SOL    HW232376   3.514   0.569   6.806  2.8402 -1.1289 -3.4326
 6972SOL     OW32377   2.367   2.236   3.119  0.1952 -0.2166  0.2448
 6972SOL    HW132378   2.346   2.142   3.124  0.2526 -0.1385  1.9024
 6972SOL    HW232379   2.292   2.272   3.167  0.7629  1.8553 -0.4208
 6973SOL     OW32380   4.200   0.009   9.341  0.1222 -0.5184 -0.1806
 6973SOL    HW132381   4.216   0.081   9.280  0.4541 -0.2321  0.2459
 6973SOL    HW232382   4.294   4.714   9.343  0.3917  0.7892  0.3162
 6974SOL     OW32383   3.437   0.888   6.902 -0.0915  0.1562  0.3832
 6974SOL    HW132384   3.346   0.880   6.873  0.3503  0.7828 -1.1794
 6974SOL    HW232385   3.477   0.840   6.829 -1.8506 -1.4666  0.4874
 6975SOL     OW32386   2.524   4.440  15.209 -0.2475 -0.2140  0.2585
 6975SOL    HW132387   2.464   4.513  15.226  1.1095  0.0200  4.1702
 6975SOL    HW232388   2.460   4.386  15.163 -0.1096 -1.4893  1.5569
 6976SOL     OW32389   3.509   0.259   3.584 -0.7989  0.2663 -0.0696
 6976SOL    HW132390   3.600   0.274   3.611 -0.6305 -1.5808  0.3823
 6976SOL    HW232391   3.501   0.164   3.594  1.9310  0.0477  0.1977
 6977SOL     OW32392   4.550   1.252  12.992  0.0680  0.2494 -0.1615
 6977SOL    HW132393   4.529   1.165  12.958 -0.0882  0.5742 -0.8949
 6977SOL    HW232394   4.607   1.274  12.919 -0.1508 -3.8753 -1.5492
 6978SOL     OW32395   2.847   2.669   7.422  0.2714 -0.0764 -0.4783
 6978SOL    HW132396   2.904   2.687   7.497 -0.2152  0.6290 -0.2838
 6978SOL    HW232397   2.902   2.686   7.346 -0.7384  1.8234 -0.7723
 6979SOL     OW32398   1.016   0.661   6.230  0.6274 -0.0483 -0.1581
 6979SOL    HW132399   0.949   0.679   6.164 -0.4290 -1.0662  0.6225
 6979SOL    HW232400   1.057   0.579   6.205  1.0425  0.1462 -0.1189
 6980SOL     OW32401   0.939   3.832  17.306  0.8066  0.3627 -0.2260
 6980SOL    HW132402   0.949   3.820  17.212 -1.4955 -0.0743 -0.4208
 6980SOL    HW232403   0.875   3.902  17.318  0.5810  0.3383 -1.3385
 6981SOL     OW32404   0.772   1.055   1.905  0.2501 -0.5784  0.5602
 6981SOL    HW132405   0.760   0.961   1.906 -1.0365 -0.4086  0.0677
 6981SOL    HW232406   0.866   1.060   1.886 -0.2884  0.1958 -1.9181
 6982SOL     OW32407   1.968   4.718   1.269  0.0663  0.1012  0.1093
 6982SOL    HW132408   1.927   0.017   1.352  1.8549  0.9194  0.7721
 6982SOL    HW232409   1.959   0.071   1.214 -2.4542 -1.1104 -1.1565
 6983SOL     OW32410   4.044   0.815   7.640 -0.2107  0.3024  0.1292
 6983SOL    HW132411   3.998   0.754   7.583 -1.8818  0.1515  1.6345
 6983SOL    HW232412   4.054   0.757   7.716 -3.0139 -1.5878 -0.9569
 6984SOL     OW32413   1.545   1.272  13.544  0.4737  0.2729  0.3160
 6984SOL    HW132414   1.621   1.229  13.505  2.1605  1.5869  2.1172
 6984SOL    HW232415   1.573   1.363  13.541 -0.6463  0.6718  1.8560
 6985SOL     OW32416   3.220   1.242   8.171 -0.2806 -0.1760  0.5164
 6985SOL    HW132417   3.311   1.221   8.191 -1.5629 -3.2497  3.0489
 6985SOL    HW232418   3.238   1.271   8.082  0.3393 -1.2847  0.2808
 6986SOL     OW32419   0.446   2.044   2.173  0.0700 -0.1585 -0.5301
 6986SOL    HW132420   0.468   2.124   2.221 -0.4797 -0.2253 -0.1649
 6986SOL    HW232421   0.531   2.001   2.186 -0.0734  0.3288  2.1173
 6987SOL     OW32422   0.681   3.370   3.605 -0.0783 -0.2809  0.0908
 6987SOL    HW132423   0.736   3.391   3.681  0.3610  2.3924 -0.9525
 6987SOL    HW232424   0.753   3.351   3.545 -1.5676 -3.4412 -0.7208
 6988SOL     OW32425   2.070   3.968  14.065 -0.5288 -0.2821 -0.2228
 6988SOL    HW132426   1.999   3.906  14.083 -1.0223  1.3310  3.5767
 6988SOL    HW232427   2.072   3.968  13.970  1.0416  0.3253 -0.1984
 6989SOL     OW32428   4.685   1.427  10.445  0.1284 -0.3764 -0.2582
 6989SOL    HW132429   4.615   1.471  10.397  0.7199 -0.7920 -1.5347
 6989SOL    HW232430   0.001   1.496  10.496 -1.5271  2.4233 -2.6900
 6990SOL     OW32431   2.577   1.132  16.604 -0.1996 -0.0916  0.1917
 6990SOL    HW132432   2.579   1.196  16.533 -0.4076 -0.3495 -0.0490
 6990SOL    HW232433   2.650   1.160  16.658  0.4590 -1.8417  0.2176
 6991SOL     OW32434   2.412   0.056   1.230  0.1334 -0.6828 -0.2381
 6991SOL    HW132435   2.330   0.062   1.180 -0.1101  3.2555  0.6721
 6991SOL    HW232436   2.394   0.110   1.307 -0.2929 -1.1701  0.0051
 6992SOL     OW32437   4.556   2.897   3.681  0.6794  0.2182  0.4019
 6992SOL    HW132438   4.490   2.919   3.747  0.5779  3.2001 -0.6954
 6992SOL    HW232439   4.565   2.806   3.709  0.9963 -1.1726 -4.2100
 6993SOL     OW32440   3.011   2.653  13.516  0.5512  0.0196  0.2049
 6993SOL    HW132441   3.047   2.564  13.514  1.3740  0.3136  1.9701
 6993SOL    HW232442   3.083   2.704  13.479  0.2246  0.4798  0.2038
 6994SOL     OW32443   0.084   3.130  17.609  0.6848 -0.1470 -0.3158
 6994SOL    HW132444   0.120   3.055  17.656  0.6048 -0.9266 -1.5124
 6994SOL    HW232445   0.045   3.090  17.531 -1.0282  1.3109 -0.2086
 6995SOL     OW32446   2.140   2.232   6.854 -0.2379  0.0246  0.1294
 6995SOL    HW132447   2.127   2.198   6.942  2.4271  2.0471  1.3195
 6995SOL    HW232448   2.221   2.191   6.824  0.7245  0.3378  2.3244
 6996SOL     OW32449   3.986   4.310  11.487 -0.2434 -0.6966  0.0467
 6996SOL    HW132450   4.009   4.390  11.535  0.1671 -1.1051  0.5378
 6996SOL    HW232451   3.996   4.335  11.395 -0.0892 -0.6046  0.0871
 6997SOL     OW32452   0.268   0.577   1.318 -0.2534 -0.3310 -0.3742
 6997SOL    HW132453   0.183   0.598   1.355 -0.1946 -0.4317 -0.1827
 6997SOL    HW232454   0.320   0.652   1.348  1.0465 -0.6974 -1.6981
 6998SOL     OW32455   0.727   3.228   5.556 -0.0894  0.6371  0.4217
 6998SOL    HW132456   0.655   3.192   5.608 -1.8607  1.7233 -1.2614
 6998SOL    HW232457   0.689   3.305   5.512  3.0921  1.1614 -1.4438
 6999SOL     OW32458   3.980   1.765   0.353  0.0065 -0.3820 -0.5559
 6999SOL    HW132459   4.047   1.716   0.399 -0.0252  0.7191  0.6473
 6999SOL    HW232460   3.994   1.744   0.260 -2.0161  2.4154 -1.4826
 7000SOL     OW32461   1.465   3.025   6.244 -0.0969 -0.6273  0.0440
 7000SOL    HW132462   1.453   2.931   6.257 -0.5932 -0.6282 -0.4094
 7000SOL    HW232463   1.385   3.046   6.196  1.3749  2.7871 -0.9024
 7001SOL     OW32464   3.131   2.415  13.439 -0.2582  0.4866 -0.3971
 7001SOL    HW132465   3.115   2.372  13.523  2.2275 -0.5917 -0.5049
 7001SOL    HW232466   3.207   2.370  13.405  1.4342  3.1226 -0.1224
 7002SOL     OW32467   1.893   1.611   1.502 -0.4106 -0.6151  0.0517
 7002SOL    HW132468   1.949   1.534   1.493 -1.8142 -1.5900 -0.5100
 7002SOL    HW232469   1.888   1.635   1.409  2.6319  0.6317  0.2223
 7003SOL     OW32470   0.910   1.965   4.988  0.6057  0.6840  0.2676
 7003SOL    HW132471   0.927   2.005   4.903  0.6958  3.0766  1.4064
 7003SOL    HW232472   0.943   1.876   4.978 -1.6650  0.0839 -1.7180
 7004SOL     OW32473   4.400   0.709  10.894  0.2634  0.4181 -0.5788
 7004SOL    HW132474   4.371   0.696  10.804 -1.2371 -0.3159  0.0073
 7004SOL    HW232475   4.322   0.742  10.940 -0.9654 -0.5889 -1.9519
 7005SOL     OW32476   2.669   1.689   9.296 -0.0239 -0.3386  0.1293
 7005SOL    HW132477   2.609   1.712   9.367  0.7433 -2.1372  1.3736
 7005SOL    HW232478   2.746   1.716   9.346 -0.1672  0.7070 -0.2251
 7006SOL     OW32479   4.699   4.120   6.655  0.2435 -0.0746 -0.0254
 7006SOL    HW132480   0.006   4.030   6.649  1.8277  0.4300  1.0717
 7006SOL    HW232481   0.047   4.157   6.704  0.2659  1.7842 -1.4627
 7007SOL     OW32482   3.975   0.822  15.119 -0.0203 -0.1977 -0.2020
 7007SOL    HW132483   4.013   0.786  15.039 -4.7469  1.1623 -3.0649
 7007SOL    HW232484   4.036   0.891  15.145 -0.1977 -0.0651 -0.1408
 7008SOL     OW32485   4.151   3.489  10.626  0.4095  0.2106  0.2732
 7008SOL    HW132486   4.194   3.406  10.607 -0.8006 -0.8220  2.0355
 7008SOL    HW232487   4.219   3.550  10.596  2.5266 -0.8759  2.7661
 7009SOL     OW32488   0.266   4.091   3.272  0.5693  0.3137  0.4710
 7009SOL    HW132489   0.346   4.137   3.247  0.6003  1.6269  2.9737
 7009SOL    HW232490   0.293   4.000   3.269  1.1883  0.5204 -0.3160
 7010SOL     OW32491   3.567   4.102   6.889  0.7616 -1.0436 -0.4472
 7010SOL    HW132492   3.611   4.084   6.806 -0.1157 -2.1056 -0.6896
 7010SOL    HW232493   3.556   4.197   6.887 -0.8150 -1.1871  1.3797
 7011SOL     OW32494   2.028   2.206   6.605 -0.4740 -0.0549  0.3697
 7011SOL    HW132495   2.083   2.145   6.557 -0.8579  0.1406 -0.3260
 7011SOL    HW232496   2.046   2.182   6.696 -0.9526 -0.0292  0.4724
 7012SOL     OW32497   3.138   2.427   0.597 -0.9368  0.5615  0.0809
 7012SOL    HW132498   3.219   2.439   0.645  0.2053 -0.6515 -1.5462
 7012SOL    HW232499   3.159   2.448   0.506 -1.9368  2.8493  0.3677
 7013SOL     OW32500   0.704   4.067   5.304 -0.1460 -0.3091  0.1282
 7013SOL    HW132501   0.659   4.098   5.382 -0.0733 -0.0450  0.0633
 7013SOL    HW232502   0.791   4.033   5.326  0.3550  2.0371  1.7905
 7014SOL     OW32503   0.114   4.295   2.091  0.2951 -0.2564  0.2071
 7014SOL    HW132504   0.137   4.388   2.095  2.8483 -0.8051 -2.2356
 7014SOL    HW232505   0.125   4.270   2.000 -1.4099 -2.5669  0.6375
 7015SOL     OW32506   1.662   2.109   8.713 -0.0388  0.2035  0.3261
 7015SOL    HW132507   1.744   2.061   8.723 -1.2684 -1.7106  1.1649
 7015SOL    HW232508   1.605   2.063   8.774  0.2755 -0.3573  0.1972
 7016SOL     OW32509   3.298   1.653   5.204  0.5746 -0.8495 -0.1812
 7016SOL    HW132510   3.207   1.656   5.233  0.2768  1.4929 -1.3328
 7016SOL    HW232511   3.335   1.730   5.248 -2.2037  0.8388 -0.7936
 7017SOL     OW32512   3.109   3.513   9.422  0.0394 -0.2847  0.0173
 7017SOL    HW132513   3.032   3.563   9.449 -0.8972 -1.2980 -0.7691
 7017SOL    HW232514   3.092   3.500   9.328  2.0063 -1.8586 -0.1298
 7018SOL     OW32515   2.579   1.637  11.078  1.1530  0.9671  0.3497
 7018SOL    HW132516   2.498   1.599  11.045  2.2208 -0.0395 -1.0875
 7018SOL    HW232517   2.637   1.561  11.075  0.5717  0.4779  1.2778
 7019SOL     OW32518   1.134   3.719  16.581  0.3875  0.6783 -0.0884
 7019SOL    HW132519   1.082   3.662  16.525  0.9167 -0.5614  0.6808
 7019SOL    HW232520   1.205   3.751  16.525  0.5497  1.3061  0.4700
 7020SOL     OW32521   1.542   1.333   5.388 -0.0734  0.1495  0.3692
 7020SOL    HW132522   1.611   1.312   5.450 -0.3928 -0.5265  0.4984
 7020SOL    HW232523   1.583   1.399   5.333  0.4839  0.6448  1.4021
 7021SOL     OW32524   0.202   0.462   0.004  0.8858 -0.1142 -0.3237
 7021SOL    HW132525   0.228   0.553  17.695  2.0479 -0.2300  1.3943
 7021SOL    HW232526   0.203   0.442  17.613  2.3348  2.6661 -0.8807
 7022SOL     OW32527   0.203   2.790   2.068 -0.3859  0.2605 -0.3808
 7022SOL    HW132528   0.109   2.776   2.067 -0.2987 -0.4934  1.5522
 7022SOL    HW232529   0.220   2.884   2.074 -1.6768  0.4946 -0.5968
 7023SOL     OW32530   0.893   1.562   3.636 -0.5856 -0.3670 -0.3022
 7023SOL    HW132531   0.827   1.629   3.654 -1.2195 -1.6412  2.0989
 7023SOL    HW232532   0.854   1.474   3.637  1.7182 -1.3788  0.6386
 7024SOL     OW32533   1.175   1.732   1.598  0.4340  0.3729 -0.0219
 7024SOL    HW132534   1.087   1.763   1.577  1.0056  1.2652 -1.0955
 7024SOL    HW232535   1.218   1.809   1.635  3.0787 -1.0955 -0.0362
 7025SOL     OW32536   3.099   2.687  15.595  0.0750 -0.0283  0.4148
 7025SOL    HW132537   3.017   2.638  15.607  0.0155  0.1080  0.5735
 7025SOL    HW232538   3.160   2.614  15.588  0.3636  0.5192 -2.8464
 7026SOL     OW32539   2.654   0.850   1.057  0.2000 -0.1809 -0.1183
 7026SOL    HW132540   2.599   0.928   1.049 -1.5497 -1.4982 -1.1285
 7026SOL    HW232541   2.732   0.893   1.092  0.1735 -0.5800  0.4293
 7027SOL     OW32542   2.738   0.099  11.548 -0.2844  0.0998 -0.1669
 7027SOL    HW132543   2.776   0.176  11.506  1.6461 -0.6036  0.2733
 7027SOL    HW232544   2.796   0.090  11.624  0.6764 -2.3493 -1.1868
 7028SOL     OW32545   3.775   1.060   2.837 -0.5591 -0.1603  0.3271
 7028SOL    HW132546   3.712   1.102   2.896 -1.5731 -1.4144  0.1550
 7028SOL    HW232547   3.751   0.969   2.856  2.0545 -0.9845 -0.3171
 7029SOL     OW32548   2.457   0.381   7.133 -0.0278  0.2635  0.2902
 7029SOL    HW132549   2.367   0.413   7.134 -0.6354 -1.4903  1.1496
 7029SOL    HW232550   2.450   0.304   7.190  2.9922 -0.6166 -0.5116
 7030SOL     OW32551   2.967   0.687   3.316  0.1409  0.7988  0.3415
 7030SOL    HW132552   2.895   0.652   3.264  1.7927  2.2715 -2.8881
 7030SOL    HW232553   2.913   0.725   3.386  0.9489  2.2455  0.1793
 7031SOL     OW32554   1.413   1.040  14.400  0.4877 -0.0851 -0.0330
 7031SOL    HW132555   1.480   1.068  14.337  0.4918  1.5611  0.7240
 7031SOL    HW232556   1.456   0.959  14.428  4.3626  1.5964 -1.0575
 7032SOL     OW32557   4.620   2.154   8.585 -0.3326 -0.6812  0.6925
 7032SOL    HW132558   4.618   2.172   8.679 -0.8752 -1.1254  0.7686
 7032SOL    HW232559   4.544   2.096   8.575 -1.6942  1.0793  0.7109
 7033SOL     OW32560   3.223   0.855   8.792 -0.4745 -0.4405  0.6535
 7033SOL    HW132561   3.303   0.866   8.741 -1.3694  2.6507 -0.0839
 7033SOL    HW232562   3.170   0.932   8.772  1.2605  0.2464 -1.2761
 7034SOL     OW32563   3.877   0.471   9.140 -0.4031  0.4714 -0.0999
 7034SOL    HW132564   3.784   0.489   9.126 -0.5608 -0.0006  0.3601
 7034SOL    HW232565   3.892   0.536   9.208  2.1778 -0.0052 -0.2164
 7035SOL     OW32566   1.777   4.333   6.771 -0.0869 -0.3926  0.4351
 7035SOL    HW132567   1.840   4.261   6.773 -0.7357 -0.9818  0.0217
 7035SOL    HW232568   1.768   4.355   6.864 -3.0114 -0.9724  0.3022
 7036SOL     OW32569   4.449   4.308   0.237 -0.1103  0.4444 -0.3196
 7036SOL    HW132570   4.379   4.274   0.292 -1.4439  2.1645 -0.9465
 7036SOL    HW232571   4.509   4.234   0.235 -0.7321 -0.0889  1.2968
 7037SOL     OW32572   0.406   1.741  16.435  0.2379  0.2543 -0.2370
 7037SOL    HW132573   0.454   1.747  16.353  0.8104  0.8093  0.1423
 7037SOL    HW232574   0.416   1.833  16.459 -0.3999  0.5938 -1.3030
 7038SOL     OW32575   2.588   3.790  17.451 -0.3058 -0.2316  0.1601
 7038SOL    HW132576   2.590   3.785  17.355 -1.6188 -1.4974  0.2071
 7038SOL    HW232577   2.581   3.884  17.467  2.1236 -0.2603  1.4257
 7039SOL     OW32578   1.537   1.557   6.081 -0.2393  0.1146 -0.3173
 7039SOL    HW132579   1.550   1.588   5.991  4.8581  0.8747  0.6715
 7039SOL    HW232580   1.457   1.506   6.084 -0.8328  0.9593 -1.6794
 7040SOL     OW32581   2.768   3.273  17.593  0.2448  0.0415  0.1420
 7040SOL    HW132582   2.723   3.352  17.563  0.8788  0.1313 -0.5722
 7040SOL    HW232583   2.860   3.282  17.568 -0.5536  3.4886 -1.5870
 7041SOL     OW32584   0.648   2.262   7.117 -0.8067 -0.1768 -0.9602
 7041SOL    HW132585   0.697   2.300   7.044 -0.9372  0.8484 -0.5178
 7041SOL    HW232586   0.709   2.189   7.127  0.6698  1.2581  0.5190
 7042SOL     OW32587   2.201   2.807   3.275  0.2399  0.1714  0.6876
 7042SOL    HW132588   2.132   2.740   3.283 -1.5016  1.9728  0.7874
 7042SOL    HW232589   2.146   2.877   3.310 -1.4582 -1.2067  0.7881
 7043SOL     OW32590   4.005   0.617   6.181  0.4364  0.0706  0.3305
 7043SOL    HW132591   4.032   0.526   6.171 -1.1238 -0.2926 -0.5960
 7043SOL    HW232592   3.983   0.646   6.092 -0.6969 -2.3255 -0.1720
 7044SOL     OW32593   4.176   3.399   4.270 -0.2532 -0.3236  0.7967
 7044SOL    HW132594   4.179   3.350   4.353 -0.4389 -3.5153 -1.0821
 7044SOL    HW232595   4.193   3.492   4.285  3.9830 -0.8112 -0.9044
 7045SOL     OW32596   0.821   4.681  13.848 -0.1470 -0.0340 -0.3288
 7045SOL    HW132597   0.854   0.045  13.862 -1.6844  0.1740  1.9527
 7045SOL    HW232598   0.891   4.637  13.896 -0.1705  0.2001 -0.0806
 7046SOL     OW32599   1.897   3.584   3.775  0.3024 -0.2674  0.5687
 7046SOL    HW132600   1.984   3.584   3.737 -0.5795 -1.7957 -1.4589
 7046SOL    HW232601   1.880   3.677   3.790  0.3605 -0.3386  1.0806
 7047SOL     OW32602   0.519   1.265   7.820  0.1903  0.4406 -0.1762
 7047SOL    HW132603   0.583   1.222   7.763 -0.8602 -0.5387 -0.6055
 7047SOL    HW232604   0.449   1.201   7.810  0.3390  0.4181 -1.0528
 7048SOL     OW32605   4.497   3.250   6.790 -0.0672 -0.3732  0.6921
 7048SOL    HW132606   4.553   3.312   6.743  0.6521 -1.3742  0.2423
 7048SOL    HW232607   4.444   3.208   6.723 -0.3013  1.9415 -0.5954
 7049SOL     OW32608   3.003   4.040   1.994  0.4966  0.8398  0.1455
 7049SOL    HW132609   2.953   4.120   1.979 -1.2277 -0.3927 -0.6425
 7049SOL    HW232610   2.938   3.974   1.971  0.4345  1.3482 -1.1604
 7050SOL     OW32611   1.115   2.767  15.532 -0.2727  0.1674  0.1861
 7050SOL    HW132612   1.036   2.724  15.500  0.9894 -2.0915  0.0485
 7050SOL    HW232613   1.086   2.858  15.523 -0.6422 -0.0292 -0.6186
 7051SOL     OW32614   1.582   1.092   2.040  0.5509  0.2677 -0.6499
 7051SOL    HW132615   1.514   1.108   2.105  1.1265 -0.9239  0.2422
 7051SOL    HW232616   1.544   1.135   1.963  0.8634 -2.5039 -2.3389
 7052SOL     OW32617   4.314   0.925   5.176  0.1047 -0.1507  0.1943
 7052SOL    HW132618   4.251   0.997   5.168 -0.1429 -0.4231 -0.2906
 7052SOL    HW232619   4.399   0.964   5.194 -0.1261  0.5737 -0.2647
 7053SOL     OW32620   1.898   2.093  11.856  0.1674  0.2882  0.6003
 7053SOL    HW132621   1.939   2.105  11.770  0.1237 -2.2822  0.2380
 7053SOL    HW232622   1.826   2.039  11.822 -0.2666  2.0211 -1.2638
 7054SOL     OW32623   2.370   2.392   3.777 -0.2515  0.3509  0.2311
 7054SOL    HW132624   2.283   2.428   3.793 -0.6468  0.2316 -1.6534
 7054SOL    HW232625   2.416   2.415   3.857  1.3625  0.8621 -0.8269
 7055SOL     OW32626   3.660   0.102   9.559  0.1014  0.3469 -1.0382
 7055SOL    HW132627   3.643   0.177   9.617 -1.3771  1.1071 -2.4576
 7055SOL    HW232628   3.743   0.079   9.602 -0.0031  3.3556  0.8520
 7056SOL     OW32629   2.110   2.599  10.591 -0.4587  0.1061 -0.8368
 7056SOL    HW132630   2.171   2.659  10.634 -0.4020 -0.1341 -0.5804
 7056SOL    HW232631   2.180   2.545  10.553 -0.0981  0.2652 -0.4071
 7057SOL     OW32632   3.283   1.456   5.701  0.1547 -0.0986 -0.1699
 7057SOL    HW132633   3.248   1.534   5.744  1.9752  0.6098  0.0028
 7057SOL    HW232634   3.377   1.471   5.707 -0.1003  1.0186  0.9981
 7058SOL     OW32635   2.433   1.762   0.006 -0.1906 -0.3811 -0.1257
 7058SOL    HW132636   2.528   1.767   0.001 -0.1314 -2.5871 -1.5932
 7058SOL    HW232637   2.421   1.792   0.096 -2.3808 -0.3842 -0.4210
 7059SOL     OW32638   0.349   0.129  17.483  0.1223  0.6849 -0.2622
 7059SOL    HW132639   0.291   0.204  17.483 -1.8924 -0.8825 -0.1696
 7059SOL    HW232640   0.382   0.128  17.573  0.3226 -0.4742 -0.3404
 7060SOL     OW32641   4.028   1.097  14.424 -0.5003 -0.0128 -0.2112
 7060SOL    HW132642   3.949   1.044  14.419 -0.8363  0.6108 -1.5041
 7060SOL    HW232643   4.009   1.149  14.502 -0.6209  1.1209 -0.9883
 7061SOL     OW32644   1.251   0.868   9.284  0.0658 -0.4548  0.1243
 7061SOL    HW132645   1.176   0.927   9.289  0.8336  0.2846  3.1896
 7061SOL    HW232646   1.312   0.914   9.226 -0.8496  0.4714 -0.0955
 7062SOL     OW32647   3.039   0.593   6.356 -0.0311 -0.4586 -0.1913
 7062SOL    HW132648   3.117   0.647   6.362  2.3535 -3.3895 -4.8619
 7062SOL    HW232649   3.002   0.591   6.267  1.9096 -0.9376 -0.9838
 7063SOL     OW32650   2.262   3.424   3.411 -0.0059 -0.3952 -0.3624
 7063SOL    HW132651   2.285   3.512   3.442  1.4612 -0.5673 -0.9276
 7063SOL    HW232652   2.181   3.451   3.369  2.0420  0.2616 -3.8836
 7064SOL     OW32653   2.886   2.003   7.838  0.4417  0.0447 -0.3009
 7064SOL    HW132654   2.978   1.995   7.866 -0.2911 -3.2764  1.1297
 7064SOL    HW232655   2.869   2.097   7.833 -0.3468 -0.0725  0.2588
 7065SOL     OW32656   3.632   0.337   8.905 -0.5347  0.7116 -0.6329
 7065SOL    HW132657   3.619   0.399   8.976 -1.1395  0.2776 -0.3623
 7065SOL    HW232658   3.566   0.271   8.926 -0.3294  0.1822 -1.6859
 7066SOL     OW32659   4.704   4.191   2.582  0.4804  0.1302 -0.0126
 7066SOL    HW132660   0.042   4.130   2.619  0.2099  1.9581  3.5093
 7066SOL    HW232661   0.003   4.180   2.490  2.2963  1.0260  0.3596
 7067SOL     OW32662   2.284   4.068  12.270 -0.2564 -0.3835  0.2234
 7067SOL    HW132663   2.308   4.158  12.295 -0.8712  0.0086 -0.5802
 7067SOL    HW232664   2.331   4.026  12.341  0.9711 -0.0705 -0.3976
 7068SOL     OW32665   4.441   1.966   5.354  0.9780  0.3256  0.0221
 7068SOL    HW132666   4.376   1.996   5.291  0.1590 -0.6702  0.3977
 7068SOL    HW232667   4.397   1.979   5.438  1.9321  4.1569 -0.0263
 7069SOL     OW32668   2.398   0.798   6.392 -0.2034 -0.7742  0.1737
 7069SOL    HW132669   2.308   0.772   6.372 -0.1840  0.3440 -1.4365
 7069SOL    HW232670   2.439   0.713   6.380  1.9597  0.7481 -3.1128
 7070SOL     OW32671   0.128   0.542  13.384  0.0322  0.6606 -0.2048
 7070SOL    HW132672   0.154   0.535  13.476 -0.0611  1.4311 -0.1163
 7070SOL    HW232673   0.033   0.539  13.395  0.2801 -0.8284  1.4543
 7071SOL     OW32674   0.170   2.992   3.368  0.4541 -0.3282  0.1607
 7071SOL    HW132675   0.172   2.919   3.306 -2.1746 -0.6011  0.4230
 7071SOL    HW232676   0.085   2.985   3.412  0.2737 -1.3017 -0.3320
 7072SOL     OW32677   2.222   0.338   7.898  0.2894 -0.3345 -0.2406
 7072SOL    HW132678   2.315   0.347   7.876 -0.1037 -1.6003 -2.4228
 7072SOL    HW232679   2.221   0.273   7.968  2.3063  0.7401  0.8031
 7073SOL     OW32680   0.824   2.066   4.118  0.4416  0.1697  0.1887
 7073SOL    HW132681   0.789   1.979   4.097  0.3353  0.2273  0.1256
 7073SOL    HW232682   0.915   2.052   4.091  0.0150  0.7793 -1.5712
 7074SOL     OW32683   2.847   0.342  15.564 -0.0666  0.2293  0.3953
 7074SOL    HW132684   2.839   0.396  15.486 -3.2235  0.7707  1.1261
 7074SOL    HW232685   2.760   0.319  15.595 -0.1174  1.6217  1.2981
 7075SOL     OW32686   1.159   3.405  17.248 -0.2562  0.2232 -0.6032
 7075SOL    HW132687   1.218   3.352  17.195 -0.5445  1.4415 -2.1230
 7075SOL    HW232688   1.122   3.328  17.292  1.8095 -0.7545 -0.5648
 7076SOL     OW32689   1.364   0.906   2.407  0.1615  0.0310  0.8064
 7076SOL    HW132690   1.368   0.840   2.338 -0.4052 -0.3978  1.1791
 7076SOL    HW232691   1.317   0.852   2.470 -0.6175 -1.5665 -1.1659
 7077SOL     OW32692   3.110   4.192   3.607 -0.3456  0.3193  0.2956
 7077SOL    HW132693   3.086   4.227   3.693  0.5699  2.8136 -0.4796
 7077SOL    HW232694   3.053   4.247   3.554  1.0489  1.1075 -0.3840
 7078SOL     OW32695   3.822   4.307   4.942 -0.0209  0.1687  0.0382
 7078SOL    HW132696   3.817   4.369   5.014  0.0256 -0.0872  0.2643
 7078SOL    HW232697   3.773   4.233   4.979 -0.4661 -0.1656 -1.2425
 7079SOL     OW32698   4.540   2.518  16.662 -0.0085 -0.9103  0.0310
 7079SOL    HW132699   4.599   2.451  16.696  0.5494  0.9272  2.7334
 7079SOL    HW232700   4.497   2.551  16.742  1.0189  1.0573 -0.2254
 7080SOL     OW32701   2.920   3.415  13.802 -0.0611  0.6193 -0.2085
 7080SOL    HW132702   2.929   3.321  13.816  1.7294  0.6213 -1.2979
 7080SOL    HW232703   2.824   3.413  13.798 -0.1851  3.6695  1.1606
 7081SOL     OW32704   4.038   1.285  16.675  0.2776 -0.1182  0.3428
 7081SOL    HW132705   4.110   1.323  16.625 -1.1189  0.2056 -1.4034
 7081SOL    HW232706   3.965   1.315  16.622  1.4089  1.2916 -0.4255
 7082SOL     OW32707   2.694   4.210   3.302 -0.3598  0.4443 -0.3163
 7082SOL    HW132708   2.716   4.130   3.255  2.0813  0.9680 -0.0388
 7082SOL    HW232709   2.650   4.166   3.375  0.2002  1.5820  0.7070
 7083SOL     OW32710   4.352   3.347   4.055 -0.2015  0.5510  0.7258
 7083SOL    HW132711   4.393   3.270   4.014 -0.6211  1.2621 -1.0097
 7083SOL    HW232712   4.305   3.315   4.132 -1.7045 -1.3130 -0.9507
 7084SOL     OW32713   2.023   3.004   7.989 -0.1287  0.5875 -0.0538
 7084SOL    HW132714   2.106   3.045   7.969 -0.4681  1.3419  0.0897
 7084SOL    HW232715   1.998   3.055   8.066 -2.6792  0.0964 -0.5510
 7085SOL     OW32716   0.759   3.055   4.855  0.8236  0.4552 -0.5136
 7085SOL    HW132717   0.768   3.150   4.863 -0.1731  0.6083 -1.1887
 7085SOL    HW232718   0.818   3.034   4.782  3.0799  0.6070  1.2671
 7086SOL     OW32719   0.058   1.361   4.705 -0.3808 -0.0385 -0.3078
 7086SOL    HW132720   0.029   1.447   4.677  0.8458  0.6342  0.5016
 7086SOL    HW232721   0.143   1.379   4.745  0.2627 -0.4903 -1.4504
 7087SOL     OW32722   2.519   3.877   3.412 -0.5832  0.5827  0.0373
 7087SOL    HW132723   2.501   3.870   3.318 -3.7184  1.4861  0.5486
 7087SOL    HW232724   2.480   3.963   3.428  0.0438  0.6056  1.4481
 7088SOL     OW32725   4.594   0.251   1.924 -0.0479 -0.5910 -0.3916
 7088SOL    HW132726   4.509   0.257   1.968  0.7094  1.7218  0.7520
 7088SOL    HW232727   4.616   0.344   1.931 -1.1244 -0.3226 -0.4392
 7089SOL     OW32728   0.707   4.042   9.567 -0.3624  0.6548  0.2009
 7089SOL    HW132729   0.736   3.951   9.562 -3.2540 -0.2994  0.8311
 7089SOL    HW232730   0.612   4.033   9.570 -0.5361  1.8465 -1.7515
 7090SOL     OW32731   2.357   1.395   8.776 -0.2550 -0.6812  0.1521
 7090SOL    HW132732   2.366   1.487   8.799 -0.6488 -0.7725  0.6754
 7090SOL    HW232733   2.262   1.387   8.763  0.0543 -1.7409 -1.4947
 7091SOL     OW32734   3.995   3.543   5.602 -0.0761 -0.0533 -0.0895
 7091SOL    HW132735   3.971   3.627   5.641 -0.3795 -1.6885  3.2411
 7091SOL    HW232736   3.909   3.506   5.581  0.7847 -1.3718 -1.3105
 7092SOL     OW32737   0.483   3.622   2.793  0.1046 -0.2714  0.0337
 7092SOL    HW132738   0.427   3.559   2.748 -0.8571  0.3745  0.3422
 7092SOL    HW232739   0.561   3.568   2.810 -0.0311 -0.2764  0.6177
 7093SOL     OW32740   2.160   4.614   3.991 -0.8852  0.0556 -0.7631
 7093SOL    HW132741   2.253   4.605   4.010 -1.3358 -3.3229 -0.1632
 7093SOL    HW232742   2.151   4.595   3.898 -0.2955  0.6754 -0.9437
 7094SOL     OW32743   4.423   0.218   6.349  0.3379 -0.0680  0.1264
 7094SOL    HW132744   4.432   0.199   6.442  0.3156  1.3109  0.4066
 7094SOL    HW232745   4.492   0.276   6.318  0.1971 -0.6665 -1.3110
 7095SOL     OW32746   4.372   1.375  11.533 -0.1486  0.2746  0.0104
 7095SOL    HW132747   4.457   1.336  11.513 -0.7805 -0.8941 -0.3950
 7095SOL    HW232748   4.382   1.470  11.541 -0.6583  0.4420 -1.4312
 7096SOL     OW32749   3.246   4.420   8.632  0.7523 -0.4515 -0.4001
 7096SOL    HW132750   3.319   4.459   8.583 -0.4657  0.0615 -1.7957
 7096SOL    HW232751   3.267   4.457   8.719 -0.3635 -0.1390 -0.2658
 7097SOL     OW32752   4.447   0.086   4.582  0.2085 -0.1781  0.2156
 7097SOL    HW132753   4.452   0.036   4.664  1.7338  0.5104  0.5477
 7097SOL    HW232754   4.538   0.117   4.578  0.8099 -1.8802  0.6064
 7098SOL     OW32755   1.727   2.011   2.190  1.0993  0.1279  0.0822
 7098SOL    HW132756   1.771   1.971   2.115  1.6121 -1.8974  1.4405
 7098SOL    HW232757   1.716   1.934   2.247  0.3937  0.2026  0.0438
 7099SOL     OW32758   3.700   4.506   9.441  0.1423 -0.1740 -0.0001
 7099SOL    HW132759   3.649   4.587   9.439 -0.7817 -0.7341  0.5736
 7099SOL    HW232760   3.787   4.545   9.428 -0.3068  0.9169  0.2669
 7100SOL     OW32761   3.284   4.512   0.236  0.1996  0.2839 -0.3161
 7100SOL    HW132762   3.295   4.446   0.304 -0.0970  1.6861  1.1039
 7100SOL    HW232763   3.358   4.490   0.179 -0.6127  0.1406 -1.3088
 7101SOL     OW32764   0.606   2.963  17.155 -0.3003 -0.3504 -0.8074
 7101SOL    HW132765   0.531   2.992  17.206  0.8028 -0.6969  1.0056
 7101SOL    HW232766   0.591   2.871  17.135 -0.1102 -0.9378  1.7695
 7102SOL     OW32767   4.576   1.067   3.589  0.1332  0.0308 -0.1334
 7102SOL    HW132768   4.504   1.006   3.604 -0.6543  0.6309 -1.5177
 7102SOL    HW232769   4.521   1.141   3.612 -0.5791 -0.5929  0.1717
 7103SOL     OW32770   2.706   0.758   4.610 -0.3237 -0.4108 -0.0849
 7103SOL    HW132771   2.795   0.728   4.631  0.4015  1.0373 -1.0745
 7103SOL    HW232772   2.653   0.679   4.617  0.1627 -0.8002 -0.7261
 7104SOL     OW32773   2.353   2.058   1.424  0.6064 -0.0874 -0.2744
 7104SOL    HW132774   2.447   2.047   1.441  0.8732  0.7410 -1.2585
 7104SOL    HW232775   2.327   1.965   1.425 -1.8690  0.6205  1.9541
 7105SOL     OW32776   2.561   1.384   3.709 -0.1342 -0.3371 -0.4774
 7105SOL    HW132777   2.597   1.328   3.640 -0.9420  1.5635 -2.4489
 7105SOL    HW232778   2.493   1.423   3.653 -1.1112  1.0683  1.6786
 7106SOL     OW32779   0.268   0.683  14.919 -0.2445 -0.3438  0.3868
 7106SOL    HW132780   0.252   0.599  14.964  0.4275 -0.3673  0.5825
 7106SOL    HW232781   0.175   0.703  14.910 -0.3653 -0.6617  0.9413
 7107SOL     OW32782   4.391   1.977  14.640  0.7888 -0.2092 -0.3695
 7107SOL    HW132783   4.375   2.071  14.634 -0.8145 -0.5234 -1.1443
 7107SOL    HW232784   4.305   1.943  14.613  0.8293 -1.1434  0.6978
 7108SOL     OW32785   1.212   3.207   5.050 -0.1362  0.7386  0.6869
 7108SOL    HW132786   1.142   3.271   5.036  1.4137  1.9983 -1.3202
 7108SOL    HW232787   1.175   3.142   5.110  1.1047 -0.7497 -0.1346
 7109SOL     OW32788   1.152   1.603   8.719  0.2846 -0.1206 -0.1999
 7109SOL    HW132789   1.213   1.556   8.662  1.7242  1.1399  0.3187
 7109SOL    HW232790   1.123   1.540   8.784 -0.9467  1.3166  0.6504
 7110SOL     OW32791   1.968   4.294  12.697  0.0978  0.0927 -0.1221
 7110SOL    HW132792   2.027   4.261  12.765  2.2888  1.8276 -1.1643
 7110SOL    HW232793   2.022   4.280  12.619  0.3444  0.0082  0.0626
 7111SOL     OW32794   2.497   0.948   3.831 -0.3304  0.6412  0.9531
 7111SOL    HW132795   2.479   0.975   3.921  0.8782  0.5424  1.2270
 7111SOL    HW232796   2.564   0.880   3.841  1.6493  2.6429  1.2476
 7112SOL     OW32797   3.925   1.073   2.137  0.1512 -0.4921  0.5294
 7112SOL    HW132798   3.915   0.983   2.167  1.9476 -0.0980  2.2539
 7112SOL    HW232799   3.933   1.120   2.220  0.7711  1.9626 -0.9201
 7113SOL     OW32800   3.071   2.380   6.669 -0.5730 -0.2436 -0.1670
 7113SOL    HW132801   3.050   2.418   6.584 -1.0128  0.8579  0.4405
 7113SOL    HW232802   3.006   2.312   6.687 -2.1460  1.2783 -0.1877
 7114SOL     OW32803   1.148   1.012  14.846  0.3013 -0.7349  0.1599
 7114SOL    HW132804   1.173   0.921  14.858  1.0812 -0.4765  0.4803
 7114SOL    HW232805   1.215   1.042  14.786 -1.3903  2.5450 -0.0833
 7115SOL     OW32806   0.180   0.849   0.172  0.0071  0.4570 -0.2338
 7115SOL    HW132807   0.166   0.849   0.078  2.9361 -0.3410 -0.6610
 7115SOL    HW232808   0.217   0.761   0.182  0.3576  0.5314 -0.9194
 7116SOL     OW32809   1.804   0.354   3.326  0.0598 -0.0316  0.0813
 7116SOL    HW132810   1.817   0.360   3.421  2.3710 -0.2939 -0.2291
 7116SOL    HW232811   1.878   0.300   3.301  0.1140 -0.2262  0.6674
 7117SOL     OW32812   1.313   2.384   5.349 -0.0090  0.5480  0.9176
 7117SOL    HW132813   1.298   2.457   5.409 -0.5225  1.0364  0.2016
 7117SOL    HW232814   1.276   2.427   5.272 -0.8125 -2.7253 -0.5493
 7118SOL     OW32815   4.653   0.814   7.626 -0.8520  0.5046 -0.0131
 7118SOL    HW132816   4.682   0.762   7.550  0.3852 -0.3683  1.0539
 7118SOL    HW232817   0.013   0.841   7.661  0.7482 -4.0017 -0.3997
 7119SOL     OW32818   3.331   3.594   8.559 -0.1955 -0.2709 -0.3088
 7119SOL    HW132819   3.344   3.535   8.633 -0.5239 -1.2902 -1.0703
 7119SOL    HW232820   3.305   3.538   8.486 -0.1252  0.7451 -1.1115
 7120SOL     OW32821   1.467   1.015   4.227 -1.1952 -0.0594  0.0316
 7120SOL    HW132822   1.396   1.052   4.173  0.1647 -0.2801 -1.8865
 7120SOL    HW232823   1.540   1.029   4.167 -0.5223  0.7548  1.0288
 7121SOL     OW32824   2.651   1.152   4.755 -0.4463  0.0086 -0.0673
 7121SOL    HW132825   2.636   1.177   4.664  1.7531 -2.0340 -0.9779
 7121SOL    HW232826   2.560   1.149   4.786 -0.5372 -2.2984 -0.5759
 7122SOL     OW32827   2.439   0.692   1.375 -0.2524  0.2868 -0.5324
 7122SOL    HW132828   2.373   0.637   1.417 -0.0269 -0.5642 -1.2787
 7122SOL    HW232829   2.380   0.761   1.343  0.4615  0.1722 -2.1135
 7123SOL     OW32830   4.614   2.960   3.174 -0.0687  0.3069 -0.2057
 7123SOL    HW132831   4.534   2.913   3.151  0.1432 -0.3077  0.2957
 7123SOL    HW232832   4.614   2.933   3.266 -1.3252  1.2343  0.0606
 7124SOL     OW32833   2.950   0.240  12.376  0.1559 -0.7409 -0.2761
 7124SOL    HW132834   2.860   0.231  12.345 -0.2698  0.5654  0.5505
 7124SOL    HW232835   2.975   0.148  12.371 -1.1587 -1.0914 -0.1754
 7125SOL     OW32836   3.518   3.299   2.472 -0.3845  0.1145 -0.3604
 7125SOL    HW132837   3.580   3.227   2.481  1.1224  1.4531  0.0319
 7125SOL    HW232838   3.487   3.324   2.559  1.9547 -0.3779  0.6029
 7126SOL     OW32839   1.761   1.773   3.196 -0.0413 -0.5961  0.5640
 7126SOL    HW132840   1.709   1.804   3.270  0.9014  0.3048  0.8495
 7126SOL    HW232841   1.710   1.772   3.115 -1.2398 -1.4815  1.3298
 7127SOL     OW32842   3.059   2.380   7.561  0.6226 -0.0600  0.2832
 7127SOL    HW132843   2.970   2.411   7.577  1.1111  1.2097  0.5538
 7127SOL    HW232844   3.083   2.396   7.470  1.4731 -1.3230  0.2897
 7128SOL     OW32845   2.746   3.099   3.009 -0.5943  0.1139 -0.9115
 7128SOL    HW132846   2.765   3.075   2.918  0.2307  1.6085 -1.1210
 7128SOL    HW232847   2.651   3.114   3.011 -0.7887 -1.0267 -1.8923
 7129SOL     OW32848   1.717   3.263   6.482  0.0146  0.2119 -0.1608
 7129SOL    HW132849   1.683   3.257   6.392 -0.7299 -0.2407  0.1546
 7129SOL    HW232850   1.809   3.278   6.459  0.0268  1.5300  0.7805
 7130SOL     OW32851   3.602   3.258   8.638  0.2859  0.5080  0.0245
 7130SOL    HW132852   3.515   3.291   8.659  0.2567  0.6367 -0.2987
 7130SOL    HW232853   3.638   3.257   8.727 -0.0771  0.8016  0.1717
 7131SOL     OW32854   4.211   2.716   3.723  0.3365  0.5250 -0.0702
 7131SOL    HW132855   4.285   2.657   3.734  1.4259  1.5971 -1.7269
 7131SOL    HW232856   4.243   2.775   3.791 -0.0175 -0.6205  1.0985
 7132SOL     OW32857   3.571   3.796   6.136  0.4771 -0.2231  0.3629
 7132SOL    HW132858   3.646   3.773   6.081  0.2400  1.5517 -0.6924
 7132SOL    HW232859   3.604   3.802   6.226  0.7782  0.7989  0.1821
 7133SOL     OW32860   2.284   0.613   4.087  0.9665  0.4501 -0.0337
 7133SOL    HW132861   2.246   0.582   4.170 -2.0965 -0.5280 -1.8261
 7133SOL    HW232862   2.378   0.600   4.102  0.9259 -1.9987 -1.8556
 7134SOL     OW32863   3.343   0.408   7.030  0.1616  0.2291 -0.0764
 7134SOL    HW132864   3.353   0.502   7.038 -0.7254  0.5439 -2.8085
 7134SOL    HW232865   3.433   0.375   7.034 -0.0243 -0.3673 -0.7054
 7135SOL     OW32866   0.773   1.890   1.166 -0.0151  0.2685 -0.1044
 7135SOL    HW132867   0.710   1.889   1.093  0.3962  1.5190 -0.4670
 7135SOL    HW232868   0.720   1.892   1.245  1.5334  0.6034  0.9260
 7136SOL     OW32869   0.639   2.082  17.323  0.4371  0.1260 -0.2972
 7136SOL    HW132870   0.661   2.155  17.266  1.1706 -0.9007 -1.3378
 7136SOL    HW232871   0.544   2.085  17.337  0.7400 -0.7675  1.9321
 7137SOL     OW32872   0.811   3.893   4.732 -0.0993 -0.2945 -0.0029
 7137SOL    HW132873   0.752   3.886   4.656 -2.0550 -2.1715  1.7046
 7137SOL    HW232874   0.879   3.828   4.715 -0.9299 -1.2450  0.2929
 7138SOL     OW32875   1.683   0.303   1.847 -0.4609 -0.0008  0.0909
 7138SOL    HW132876   1.725   0.218   1.846 -3.0837 -1.2730 -1.6322
 7138SOL    HW232877   1.600   0.287   1.893 -0.3832  2.4066  1.1080
 7139SOL     OW32878   3.488   3.595   3.796  0.2590 -0.8930 -0.1183
 7139SOL    HW132879   3.431   3.670   3.814 -0.3996 -1.2162 -0.8797
 7139SOL    HW232880   3.471   3.541   3.873  1.9591  0.9220  1.5472
 7140SOL     OW32881   1.172   2.993   4.849 -0.1685 -0.2153 -0.3058
 7140SOL    HW132882   1.193   3.070   4.902 -2.1329 -1.2216  1.9437
 7140SOL    HW232883   1.166   3.038   4.764 -0.3422 -1.5832 -1.0146
 7141SOL     OW32884   2.605   0.797   5.903  0.1486 -0.7228  0.4107
 7141SOL    HW132885   2.647   0.795   5.989  0.3965 -2.0933  0.2736
 7141SOL    HW232886   2.523   0.842   5.920 -0.4555 -0.6797 -2.5983
 7142SOL     OW32887   0.712   1.736   4.978 -0.2485 -0.3932 -0.3589
 7142SOL    HW132888   0.792   1.745   5.030 -1.2617 -2.4048  1.5846
 7142SOL    HW232889   0.673   1.820   5.003  1.6009  0.3309  0.1005
 7143SOL     OW32890   4.601   2.008   0.928 -0.0218 -0.6620  0.5415
 7143SOL    HW132891   4.633   2.069   0.861 -4.0471 -0.2165 -0.9960
 7143SOL    HW232892   4.604   1.919   0.892 -3.7569 -0.1696 -0.9731
 7144SOL     OW32893   2.182   3.906  14.697 -0.6640  0.2715 -0.4238
 7144SOL    HW132894   2.253   3.948  14.745 -0.7796 -0.8589  0.7352
 7144SOL    HW232895   2.115   3.974  14.692 -1.6082 -0.6509 -0.2736
 7145SOL     OW32896   0.662   4.598  16.018 -0.4001  0.3737  0.1135
 7145SOL    HW132897   0.746   4.641  16.034  0.3801 -1.3656  0.7349
 7145SOL    HW232898   0.632   4.593  16.109  1.4136  0.0309  0.6901
 7146SOL     OW32899   3.837   1.605   6.788  0.0950  0.1079  0.5055
 7146SOL    HW132900   3.922   1.561   6.792 -0.5141 -1.0281  1.0682
 7146SOL    HW232901   3.870   1.690   6.818 -0.2910 -0.0648  1.4253
 7147SOL     OW32902   3.883   1.459  16.076 -0.5031 -0.0301 -0.2640
 7147SOL    HW132903   3.943   1.408  16.131  0.4891  1.1480 -0.2492
 7147SOL    HW232904   3.859   1.524  16.142  0.7296  2.7607 -2.5650
 7148SOL     OW32905   0.632   1.771   0.573 -0.2698 -0.1400  0.1859
 7148SOL    HW132906   0.702   1.829   0.603  0.4083 -1.4337  1.0815
 7148SOL    HW232907   0.556   1.826   0.592  0.9054  1.6120 -0.1491
 7149SOL     OW32908   3.779   0.541   1.133 -0.1407 -0.9000 -0.2657
 7149SOL    HW132909   3.849   0.540   1.198 -0.7972 -0.2354  0.4532
 7149SOL    HW232910   3.809   0.574   1.048  0.8942 -1.8210 -0.2609
 7150SOL     OW32911   3.971   1.735   1.624 -0.0858 -0.4546  0.6718
 7150SOL    HW132912   3.985   1.812   1.568 -0.9120 -0.4702  0.4457
 7150SOL    HW232913   3.975   1.670   1.553 -1.9271  1.3890 -1.1407
 7151SOL     OW32914   2.440   0.601  13.490 -0.2597 -0.0417  0.0193
 7151SOL    HW132915   2.415   0.693  13.484 -2.2265 -0.4611  1.9106
 7151SOL    HW232916   2.435   0.591  13.585  0.2353  2.1606  0.2904
 7152SOL     OW32917   4.134   0.727   3.467 -0.4264  0.7783 -0.1843
 7152SOL    HW132918   4.222   0.695   3.449 -0.3564  1.0447 -0.3209
 7152SOL    HW232919   4.117   0.698   3.556 -0.8789  0.4789 -0.3659
 7153SOL     OW32920   2.396   2.830   2.852  0.1766 -0.0231  0.2784
 7153SOL    HW132921   2.483   2.793   2.869 -0.6365 -0.7031  2.9582
 7153SOL    HW232922   2.382   2.793   2.765  0.8006  0.5494 -0.0577
 7154SOL     OW32923   3.416   2.699   1.795  0.0806  0.0213  0.1614
 7154SOL    HW132924   3.377   2.710   1.708  0.8526 -1.3682 -0.3553
 7154SOL    HW232925   3.494   2.650   1.771  0.8518  1.3606 -0.0625
 7155SOL     OW32926   1.400   3.384   8.479  0.7061  0.1953 -0.2710
 7155SOL    HW132927   1.422   3.293   8.497 -1.0493 -0.3754 -0.9907
 7155SOL    HW232928   1.479   3.418   8.437 -0.4962 -0.3231 -2.9754
 7156SOL     OW32929   2.210   2.747   8.572 -0.2442 -0.1559  0.3259
 7156SOL    HW132930   2.172   2.660   8.561  0.9018 -0.6873  0.5825
 7156SOL    HW232931   2.231   2.755   8.479  0.1506  0.5143  0.4682
 7157SOL     OW32932   3.188   2.402  11.439  0.0317  0.7311 -0.0739
 7157SOL    HW132933   3.222   2.417  11.527 -0.0504  1.8323 -0.2284
 7157SOL    HW232934   3.219   2.484  11.399 -1.6185  0.7474 -1.3030
 7158SOL     OW32935   1.660   3.916   6.353  0.0211  0.3024  0.6168
 7158SOL    HW132936   1.687   3.827   6.331  1.6979  0.2667  2.8910
 7158SOL    HW232937   1.731   3.963   6.309 -0.1447  0.7940  0.8694
 7159SOL     OW32938   0.195   1.302   0.191 -0.1096  0.5471  0.3195
 7159SOL    HW132939   0.279   1.348   0.197  0.0601  0.1251  1.2101
 7159SOL    HW232940   0.223   1.211   0.181 -2.7537 -0.6028  3.3467
 7160SOL     OW32941   3.081   0.381   5.997 -0.4352  0.8511 -0.3936
 7160SOL    HW132942   3.118   0.347   6.078  0.2222 -0.8926 -1.4158
 7160SOL    HW232943   3.014   0.438   6.034 -0.4996  0.1709  0.5273
 7161SOL     OW32944   3.816   4.011  15.378 -0.0684 -0.0429  0.0490
 7161SOL    HW132945   3.842   4.077  15.314 -1.1952 -1.2241 -1.6080
 7161SOL    HW232946   3.830   4.053  15.463  0.3804  0.1793 -0.1320
 7162SOL     OW32947   2.832   0.369  11.241 -0.3439  0.0165 -0.0717
 7162SOL    HW132948   2.752   0.329  11.276 -0.8155 -0.4340 -1.6637
 7162SOL    HW232949   2.894   0.324  11.298 -0.6252  1.0851  1.0778
 7163SOL     OW32950   4.466   0.974  16.077 -0.1028  0.1313  0.0564
 7163SOL    HW132951   4.515   0.975  15.995 -2.9148 -1.6319 -1.6569
 7163SOL    HW232952   4.407   0.909  16.038 -0.3775  1.5055 -1.8178
 7164SOL     OW32953   1.838   3.502  16.156 -0.8897  0.2617 -0.4194
 7164SOL    HW132954   1.860   3.424  16.105  0.4221  0.3017  0.0958
 7164SOL    HW232955   1.920   3.518  16.202 -1.5896 -1.8958  1.5741
 7165SOL     OW32956   1.084   1.629  13.855 -0.6350 -0.0773  0.2573
 7165SOL    HW132957   1.111   1.570  13.784 -0.4944 -0.2150  0.4254
 7165SOL    HW232958   1.022   1.683  13.807 -1.9003 -2.0300 -0.2897
 7166SOL     OW32959   2.871   3.238  15.201 -0.3202 -0.4679  0.0004
 7166SOL    HW132960   2.778   3.258  15.195  0.0502  1.5781  0.9821
 7166SOL    HW232961   2.874   3.160  15.256  1.2324 -0.9958 -0.8224
 7167SOL     OW32962   2.467   0.467   6.026  0.4045  0.4665 -0.1652
 7167SOL    HW132963   2.520   0.479   5.946  1.2978 -1.0629  0.1982
 7167SOL    HW232964   2.435   0.377   6.014  0.1478  1.1206 -4.4732
 7168SOL     OW32965   2.344   1.443  16.786 -0.0974  0.3493  0.1227
 7168SOL    HW132966   2.313   1.524  16.745  0.5043  0.8842  0.7174
 7168SOL    HW232967   2.351   1.473  16.877  1.3024 -1.1371  0.5118
 7169SOL     OW32968   1.732   1.034   6.775 -0.6466 -0.3789 -0.2317
 7169SOL    HW132969   1.780   0.964   6.818 -0.7943 -1.9797 -2.6132
 7169SOL    HW232970   1.803   1.085   6.738 -0.8693 -1.0698 -1.6209
 7170SOL     OW32971   0.103   2.778   0.243 -0.0094 -0.5027  0.3080
 7170SOL    HW132972   0.010   2.795   0.257  0.1149  0.5745 -0.2117
 7170SOL    HW232973   0.124   2.714   0.312  0.5715 -0.6521 -0.0075
 7171SOL     OW32974   0.209   1.888   6.826  0.0071 -0.9080  0.3563
 7171SOL    HW132975   0.288   1.852   6.787  1.4118  2.3718  0.1388
 7171SOL    HW232976   0.246   1.971   6.856 -2.5271 -0.2256  1.6236
 7172SOL     OW32977   1.172   0.512   0.810 -0.7222  0.3068 -0.1642
 7172SOL    HW132978   1.168   0.540   0.718 -2.7091  1.4762  0.2829
 7172SOL    HW232979   1.236   0.571   0.849  2.7112 -2.4258 -1.6338
 7173SOL     OW32980   2.061   1.995   4.282  0.3759  0.4231  0.1539
 7173SOL    HW132981   2.079   2.031   4.196  1.9784  1.0208  0.7425
 7173SOL    HW232982   2.138   2.021   4.331  0.7195 -0.2185 -0.0449
 7174SOL     OW32983   1.710   4.686   5.833  0.7194  0.2513  0.1043
 7174SOL    HW132984   1.706   4.645   5.919 -2.9115  1.3400  0.4596
 7174SOL    HW232985   1.616   4.701   5.821  0.7102  2.2990  2.7120
 7175SOL     OW32986   1.611   3.200  12.948 -0.1183  0.2338 -0.2009
 7175SOL    HW132987   1.607   3.220  12.854  1.0483  0.4740 -0.2017
 7175SOL    HW232988   1.582   3.284  12.984  0.2432 -0.3957  1.5222
 7176SOL     OW32989   3.122   0.020   7.466  0.3717 -0.3754  0.0640
 7176SOL    HW132990   3.064   4.688   7.416  0.9550 -2.0513  1.2868
 7176SOL    HW232991   3.207   0.015   7.423  1.6494  0.1111  2.5385
 7177SOL     OW32992   0.637   2.934   7.613  0.5761 -0.6616  0.4422
 7177SOL    HW132993   0.613   3.025   7.629  0.0796 -0.4155 -1.6622
 7177SOL    HW232994   0.589   2.906   7.534 -0.8858 -1.5828  1.6595
 7178SOL     OW32995   1.109   3.220   7.650  0.3690  0.1533  0.0512
 7178SOL    HW132996   1.180   3.186   7.705 -1.0374 -0.0134  1.7384
 7178SOL    HW232997   1.048   3.260   7.711 -0.0153  1.0737 -0.9334
 7179SOL     OW32998   1.435   1.829   2.427  0.3493  0.0256  0.5045
 7179SOL    HW132999   1.516   1.831   2.478  0.2964  3.1896  0.4797
 7179SOL    HW233000   1.440   1.918   2.392 -0.4636 -0.0456  0.2060
 7180SOL     OW33001   4.132   0.400   9.407 -0.8278 -0.1582  0.4825
 7180SOL    HW133002   4.075   0.475   9.387 -1.6306 -1.8199 -3.4786
 7180SOL    HW233003   4.078   0.330   9.444 -0.3807  0.3293  2.0263
 7181SOL     OW33004   2.783   3.592   6.331  0.5365  0.1326  0.0784
 7181SOL    HW133005   2.760   3.499   6.324  1.1493 -0.0476  0.4358
 7181SOL    HW233006   2.707   3.647   6.312  1.3334  0.6896 -1.4315
 7182SOL     OW33007   1.961   4.084   7.729 -0.4887  0.5560 -0.4412
 7182SOL    HW133008   1.943   4.152   7.664  0.2230  1.2672  0.0953
 7182SOL    HW233009   1.939   4.136   7.807 -0.2825  0.2980 -0.2113
 7183SOL     OW33010   4.152   0.849   0.316 -0.2263  0.0878  0.4079
 7183SOL    HW133011   4.068   0.836   0.273 -1.5328  2.0544  2.3932
 7183SOL    HW233012   4.178   0.758   0.332 -0.2586 -0.2598 -1.4383
 7184SOL     OW33013   2.860   4.392   3.650  0.1963 -0.0435 -0.3233
 7184SOL    HW133014   2.893   4.334   3.581  1.8189  1.8977 -1.1853
 7184SOL    HW233015   2.767   4.401   3.627 -0.6320 -1.3946  2.5436
 7185SOL     OW33016   0.977   2.628   5.610 -0.2801 -0.2800  0.0628
 7185SOL    HW133017   0.984   2.554   5.670 -0.7528 -0.7878 -0.5096
 7185SOL    HW233018   1.011   2.699   5.664  1.3003 -0.6723 -0.4159
 7186SOL     OW33019   4.507   2.237  15.982 -0.0691  0.4420  0.4014
 7186SOL    HW133020   4.598   2.264  15.969  0.3947 -1.4731 -0.3116
 7186SOL    HW233021   4.453   2.291  15.924  0.6509  0.8679  0.1319
 7187SOL     OW33022   4.214   2.219  13.688 -0.5177 -0.1613 -0.9525
 7187SOL    HW133023   4.150   2.156  13.653  0.1670 -1.3100 -0.1167
 7187SOL    HW233024   4.271   2.153  13.727 -2.3344  0.1177  2.1776
 7188SOL     OW33025   2.996   1.073   1.594  0.6370 -0.3601  0.3022
 7188SOL    HW133026   2.953   1.054   1.511  0.3630 -0.9120  0.5704
 7188SOL    HW233027   2.926   1.036   1.649  1.6151 -1.3065  0.9343
 7189SOL     OW33028   0.672   4.116   8.414 -0.6020  0.2131 -0.1580
 7189SOL    HW133029   0.655   4.129   8.321 -1.7325 -2.1428 -0.2723
 7189SOL    HW233030   0.737   4.180   8.444 -1.3418  0.7672  0.2832
 7190SOL     OW33031   4.263   1.866  14.171  0.0605 -0.0916 -0.1032
 7190SOL    HW133032   4.333   1.931  14.169  0.2345 -0.2609  0.4112
 7190SOL    HW233033   4.317   1.787  14.181  1.1690  0.7344  0.4735
 7191SOL     OW33034   4.155   0.778   5.749 -0.4012 -0.1912  0.0629
 7191SOL    HW133035   4.246   0.777   5.779 -1.0901 -1.0747  2.1337
 7191SOL    HW233036   4.137   0.870   5.768 -0.0129  0.2479 -1.6906
 7192SOL     OW33037   0.747   0.810   8.169  0.5628  0.7799 -0.4690
 7192SOL    HW133038   0.683   0.880   8.172 -1.3460 -1.0294  1.5988
 7192SOL    HW233039   0.774   0.818   8.261  0.1360 -0.8298 -0.1987
 7193SOL     OW33040   3.578   1.559  16.069  0.0662  0.1752 -0.6769
 7193SOL    HW133041   3.654   1.583  16.123  0.7702  0.2697 -1.7060
 7193SOL    HW233042   3.605   1.609  15.992 -1.4694  1.8514 -0.1322
 7194SOL     OW33043   2.466   2.366   1.175 -0.0270 -0.2322  0.4396
 7194SOL    HW133044   2.374   2.369   1.202  0.3040 -0.7619  1.6273
 7194SOL    HW233045   2.469   2.426   1.101  1.9458  0.2719  0.9324
 7195SOL     OW33046   2.723   3.416  13.484  0.0518 -0.5111  0.2893
 7195SOL    HW133047   2.808   3.373  13.474  0.7263  0.7070  0.7898
 7195SOL    HW233048   2.762   3.500  13.507  1.7355 -1.4522  0.8653
 7196SOL     OW33049   2.104   4.198  12.083  0.8759 -0.3427  0.4734
 7196SOL    HW133050   2.147   4.149  12.153  0.1577 -1.0420  0.4312
 7196SOL    HW233051   2.143   4.158  12.005 -0.5703 -0.4742 -0.1787
 7197SOL     OW33052   1.017   2.375   7.044  0.0739 -0.1337  0.2350
 7197SOL    HW133053   0.931   2.386   7.003  0.0505  1.0117  0.5705
 7197SOL    HW233054   1.060   2.454   7.010  0.3473  0.7667  2.6815
 7198SOL     OW33055   0.722   3.946   3.765  0.1421  0.0236 -0.2070
 7198SOL    HW133056   0.715   4.031   3.722 -0.0943 -0.4281 -1.0640
 7198SOL    HW233057   0.816   3.928   3.776  0.1922  0.6861  0.3953
 7199SOL     OW33058   3.241   2.733   5.975  0.1703 -0.0193 -0.6431
 7199SOL    HW133059   3.219   2.734   6.068  1.0199 -1.5544 -0.4395
 7199SOL    HW233060   3.270   2.647   5.947  1.3873 -0.2828  1.4431
 7200SOL     OW33061   3.888   4.489   4.608  0.3250  0.0075  0.1648
 7200SOL    HW133062   3.871   4.446   4.524  0.3313 -0.7627  0.5602
 7200SOL    HW233063   3.976   4.527   4.602  0.5907 -0.5309  0.7926
 7201SOL     OW33064   0.967   1.350   4.124 -0.0157 -0.1150  0.0492
 7201SOL    HW133065   0.896   1.402   4.163  0.5862 -0.0208  1.0317
 7201SOL    HW233066   1.030   1.417   4.097  0.0065 -0.3586 -0.4911
 7202SOL     OW33067   1.994   0.244   2.967 -0.0905  0.1163  0.4161
 7202SOL    HW133068   1.974   0.333   2.937  0.0029 -0.7722 -2.2838
 7202SOL    HW233069   1.963   0.255   3.057  0.3863 -0.3570  0.6315
 7203SOL     OW33070   2.781   2.881   2.498 -0.5110  0.3160  0.3607
 7203SOL    HW133071   2.747   2.792   2.491 -0.8664  0.4792  0.0172
 7203SOL    HW233072   2.735   2.910   2.419 -1.8672 -1.0844  0.6521
 7204SOL     OW33073   0.541   3.016   2.208 -0.5124 -0.0776  0.1380
 7204SOL    HW133074   0.539   3.066   2.126  2.0304 -1.3550 -0.6963
 7204SOL    HW233075   0.563   2.924   2.193 -2.0075  0.1476 -3.6365
 7205SOL     OW33076   2.986   0.608   4.971  0.1738 -0.2094 -0.2828
 7205SOL    HW133077   3.027   0.688   5.005 -0.2865 -1.5844  3.4663
 7205SOL    HW233078   3.009   0.620   4.879  0.2705  2.3267  0.0568
 7206SOL     OW33079   3.705   1.036   7.273  0.4149  0.1044 -0.3501
 7206SOL    HW133080   3.722   1.096   7.200  0.2604 -1.3433 -1.5839
 7206SOL    HW233081   3.787   0.986   7.273  1.2025  1.4072  0.4782
 7207SOL     OW33082   1.056   2.002  11.554  0.4524 -0.3703  0.1405
 7207SOL    HW133083   1.126   2.004  11.489  1.8706 -1.9449  1.6386
 7207SOL    HW233084   1.093   1.929  11.603 -0.6017 -0.6909  0.4575
 7208SOL     OW33085   2.950   0.212   6.865 -0.5345  0.0341 -0.5331
 7208SOL    HW133086   3.038   0.248   6.862  0.3497 -2.0335  0.5273
 7208SOL    HW233087   2.915   0.266   6.794 -0.9828  0.4579  0.0119
 7209SOL     OW33088   2.320   4.545  10.116  0.5358  0.4691  0.4236
 7209SOL    HW133089   2.392   4.502  10.069 -1.5173  0.4998 -2.7060
 7209SOL    HW233090   2.252   4.478  10.118  2.0025 -1.0875 -3.8236
 7210SOL     OW33091   1.427   0.616  15.548  0.2416 -0.1540 -0.0130
 7210SOL    HW133092   1.347   0.571  15.574 -0.2510 -0.5920 -2.2284
 7210SOL    HW233093   1.406   0.641  15.458 -0.1061  0.6395  0.2902
 7211SOL     OW33094   0.796   0.140   2.597 -0.9906  0.3198  0.1788
 7211SOL    HW133095   0.701   0.153   2.604 -1.0595 -0.1916  0.1657
 7211SOL    HW233096   0.799   0.098   2.511  2.6508 -0.4222  0.6674
 7212SOL     OW33097   2.391   2.910   4.737 -0.9120 -0.0516 -0.0272
 7212SOL    HW133098   2.336   2.977   4.780 -3.8860 -1.9113 -0.9591
 7212SOL    HW233099   2.475   2.913   4.783 -0.6074  1.3240 -0.6639
 7213SOL     OW33100   3.541   4.487   9.741  0.0553  0.4660  0.0542
 7213SOL    HW133101   3.501   4.446   9.818  0.3706 -1.9654 -1.0846
 7213SOL    HW233102   3.490   4.568   9.748  1.3686  1.1647  1.5022
 7214SOL     OW33103   4.344   4.676   8.852  0.4558  0.5765  0.5699
 7214SOL    HW133104   4.414   4.621   8.818 -2.9003 -2.6715 -1.2047
 7214SOL    HW233105   4.291   4.610   8.898 -0.2278 -0.0473 -1.0945
 7215SOL     OW33106   0.118   1.802   5.650  0.1371 -0.0388 -0.1339
 7215SOL    HW133107   0.156   1.860   5.584  0.9030 -1.2056 -0.7148
 7215SOL    HW233108   0.098   1.734   5.586 -0.4626  0.1348 -0.1351
 7216SOL     OW33109   1.951   3.878   4.918 -0.2628 -0.2276 -0.0392
 7216SOL    HW133110   1.960   3.973   4.921 -0.5223 -0.2304  0.9332
 7216SOL    HW233111   1.939   3.843   5.007  1.6170 -0.8024 -0.0236
 7217SOL     OW33112   3.977   3.909   6.884  0.1962  0.1409  0.3877
 7217SOL    HW133113   4.043   3.922   6.951  0.7596  2.5389 -0.6370
 7217SOL    HW233114   3.902   3.922   6.942 -0.4756 -1.3855 -0.1183
 7218SOL     OW33115   3.637   1.586   6.505  0.2270  0.1822 -0.0580
 7218SOL    HW133116   3.708   1.592   6.568  1.9422  0.3507 -1.9886
 7218SOL    HW233117   3.584   1.522   6.552  0.6776 -0.0310  0.1561
 7219SOL     OW33118   3.660   0.275   2.552 -0.1572  0.2223  0.5862
 7219SOL    HW133119   3.637   0.367   2.537 -3.4253 -0.6447  0.1145
 7219SOL    HW233120   3.611   0.239   2.477  1.3771  2.5694 -1.5608
 7220SOL     OW33121   1.244   3.042   0.486  0.0792  0.0949  0.3038
 7220SOL    HW133122   1.173   3.074   0.542  0.1453 -2.4116  1.7909
 7220SOL    HW233123   1.241   3.085   0.400 -2.6553 -0.0535  0.3026
 7221SOL     OW33124   0.265   1.243   2.705 -0.3609  0.0319  0.3226
 7221SOL    HW133125   0.203   1.183   2.664  0.4096  1.0479 -2.2955
 7221SOL    HW233126   0.212   1.320   2.724  2.3642  1.8706  0.5064
 7222SOL     OW33127   1.281   0.032   2.896  0.1252  0.1056  0.1547
 7222SOL    HW133128   1.263   0.126   2.888  0.5729  0.0912 -0.9436
 7222SOL    HW233129   1.338   0.031   2.974  1.9273  1.3297 -1.1576
 7223SOL     OW33130   0.468   3.763   8.971  0.2375 -0.1506 -0.0352
 7223SOL    HW133131   0.418   3.780   8.892  0.0995 -0.0188  0.0805
 7223SOL    HW233132   0.413   3.822   9.022  1.9300  1.2534  0.1802
 7224SOL     OW33133   4.595   3.227   2.100 -0.0454  0.1700 -0.0150
 7224SOL    HW133134   4.652   3.294   2.062  0.4326 -0.3892 -0.2761
 7224SOL    HW233135   4.575   3.260   2.187  0.4594 -2.0735  0.9348
 7225SOL     OW33136   2.944   0.382   8.134  0.3860  0.4813 -0.2373
 7225SOL    HW133137   3.035   0.368   8.161  0.2294  3.8574  1.9597
 7225SOL    HW233138   2.909   0.412   8.218  1.1841  1.9674 -0.4499
 7226SOL     OW33139   1.198   2.452   2.067 -0.1647 -0.2512 -0.8793
 7226SOL    HW133140   1.230   2.536   2.034  2.3944  0.1483  2.5799
 7226SOL    HW233141   1.267   2.435   2.130 -0.6080 -0.5808 -0.4806
 7227SOL     OW33142   0.131   4.101   3.650 -0.3544 -0.0681  0.1643
 7227SOL    HW133143   0.057   4.073   3.597  1.3081 -0.6914 -1.8379
 7227SOL    HW233144   0.103   4.076   3.738 -1.3902 -0.5447 -0.3077
 7228SOL     OW33145   1.243   2.559   5.140  0.4841  0.1219  0.0007
 7228SOL    HW133146   1.165   2.503   5.135 -0.1001  1.0842 -1.8608
 7228SOL    HW233147   1.233   2.617   5.064 -0.3249 -0.6568 -0.5020
 7229SOL     OW33148   2.866   1.789   9.481  0.0339 -0.2703  0.0789
 7229SOL    HW133149   2.948   1.823   9.516  0.4490  1.0569 -2.1962
 7229SOL    HW233150   2.807   1.797   9.556  0.6068  0.9586  0.3939
 7230SOL     OW33151   3.430   4.649   9.145  0.0134 -0.4190 -0.3255
 7230SOL    HW133152   3.435   4.557   9.122  2.0255 -0.6896  1.2267
 7230SOL    HW233153   3.513   4.676   9.184 -0.8673  0.7104  0.7870
 7231SOL     OW33154   0.759   1.701   2.765  0.3831 -0.0748  0.1697
 7231SOL    HW133155   0.807   1.744   2.694  2.5294  0.8035  2.1857
 7231SOL    HW233156   0.817   1.643   2.813 -0.9422 -2.7844 -1.4656
 7232SOL     OW33157   2.851   2.487  16.169 -0.2214 -0.6465  0.0102
 7232SOL    HW133158   2.828   2.579  16.161  2.1601 -0.0258  0.2548
 7232SOL    HW233159   2.903   2.482  16.088 -0.4592  1.4612 -0.2717
 7233SOL     OW33160   3.868   3.745  11.894  0.1602  0.0129 -0.4535
 7233SOL    HW133161   3.862   3.724  11.801 -1.8922  0.0552 -0.3208
 7233SOL    HW233162   3.882   3.840  11.895 -3.8574  0.5766  0.5239
 7234SOL     OW33163   1.014   1.808   6.931  0.1672  0.2028 -0.4809
 7234SOL    HW133164   1.025   1.807   6.836 -2.0740 -0.8113 -0.7246
 7234SOL    HW233165   1.036   1.899   6.952  1.4174 -0.2046 -0.0297
 7235SOL     OW33166   3.027   0.764   8.056 -0.6943 -0.2967  0.6942
 7235SOL    HW133167   3.041   0.850   8.097  1.7709 -1.3024  2.0068
 7235SOL    HW233168   2.993   0.721   8.135  1.0218 -2.9379 -0.0121
 7236SOL     OW33169   1.915   4.339   9.003  0.1799 -0.6843  0.7892
 7236SOL    HW133170   1.956   4.252   9.003 -0.3137 -0.9154  1.5236
 7236SOL    HW233171   1.983   4.381   8.950  0.6240 -1.3836  0.7956
 7237SOL     OW33172   2.816   3.220   8.199  0.4292 -0.2823 -0.3093
 7237SOL    HW133173   2.751   3.156   8.227 -0.5775 -0.0772 -2.1648
 7237SOL    HW233174   2.901   3.178   8.194 -0.4212 -1.7649 -2.4653
 7238SOL     OW33175   1.967   0.960   4.762  0.5564  0.3176 -0.6299
 7238SOL    HW133176   1.954   0.907   4.684 -0.3184  1.2002 -1.0895
 7238SOL    HW233177   1.971   1.048   4.724  0.5641  0.7057  0.2486
 7239SOL     OW33178   1.037   2.904   2.734 -0.1977 -0.0315  0.3438
 7239SOL    HW133179   0.954   2.869   2.701 -1.3511  0.4905  2.6747
 7239SOL    HW233180   1.103   2.840   2.709 -1.4916 -1.4771  0.5997
 7240SOL     OW33181   2.795   3.908   8.055  0.3489  0.1730 -0.4099
 7240SOL    HW133182   2.854   3.930   8.128  0.1351 -0.3643 -0.0801
 7240SOL    HW233183   2.724   3.971   8.065 -0.3869 -0.9564  1.3341
 7241SOL     OW33184   1.664   3.560   5.319  0.0243  0.1810  0.5976
 7241SOL    HW133185   1.702   3.538   5.233 -0.1744  0.6969  0.3747
 7241SOL    HW233186   1.687   3.476   5.358 -0.4034  0.0533  0.5799
 7242SOL     OW33187   3.326   1.921   8.276  0.2368  0.1649 -0.4522
 7242SOL    HW133188   3.285   1.837   8.298 -0.6739 -0.1511 -3.4246
 7242SOL    HW233189   3.388   1.890   8.210  1.1727  2.6645 -0.7545
 7243SOL     OW33190   1.002   1.871   1.014  0.7364  0.4049  0.1802
 7243SOL    HW133191   0.950   1.883   1.093  0.3559  0.7017 -0.1118
 7243SOL    HW233192   0.929   1.874   0.951  1.8880 -1.3701 -1.2190
 7244SOL     OW33193   1.931   3.487  14.498  0.3733 -0.4145 -0.5149
 7244SOL    HW133194   1.994   3.535  14.553 -0.8233  0.0989  0.4057
 7244SOL    HW233195   1.943   3.540  14.419 -0.8969  1.5327  0.5906
 7245SOL     OW33196   1.511   4.700   5.534  0.6800 -0.1795 -0.1341
 7245SOL    HW133197   1.511   4.652   5.451 -0.1142 -0.7989  0.2269
 7245SOL    HW233198   1.585   0.034   5.520  0.8964 -0.3828  0.1467
 7246SOL     OW33199   2.383   1.466  10.991  0.6738 -0.5275 -0.2843
 7246SOL    HW133200   2.290   1.454  10.974  0.5713  1.5879 -1.2573
 7246SOL    HW233201   2.418   1.489  10.905 -1.6948  1.0419 -0.8378
 7247SOL     OW33202   2.559   2.870   6.125  0.0764 -0.2093  0.2346
 7247SOL    HW133203   2.597   2.845   6.040 -1.5596 -2.5041  0.2038
 7247SOL    HW233204   2.494   2.800   6.134 -0.5882  0.2767 -0.8647
 7248SOL     OW33205   0.261   0.066   3.192  0.1365  0.0474 -0.1287
 7248SOL    HW133206   0.226   4.708   3.158 -2.4373  0.7046  0.9226
 7248SOL    HW233207   0.190   0.103   3.244 -1.0222 -0.1901 -1.5327
 7249SOL     OW33208   3.483   0.948   3.928 -0.5090 -0.1040 -0.1162
 7249SOL    HW133209   3.496   0.853   3.924 -0.0264 -0.0100 -0.7197
 7249SOL    HW233210   3.408   0.942   3.988 -0.7472  0.2791 -0.3725
 7250SOL     OW33211   3.176   1.381  15.937  0.6850  0.5045  0.3099
 7250SOL    HW133212   3.115   1.320  15.979  0.4189 -0.7021 -1.8451
 7250SOL    HW233213   3.178   1.354  15.846  0.9741 -0.9944  0.7608
 7251SOL     OW33214   3.733   0.712   3.312 -0.3470  0.0067  0.3067
 7251SOL    HW133215   3.699   0.625   3.331  0.4259 -0.1634  0.8945
 7251SOL    HW233216   3.780   0.714   3.395 -1.8307 -2.0623  1.1780
 7252SOL     OW33217   1.332   3.277  15.473 -0.3013  0.3334  0.1890
 7252SOL    HW133218   1.254   3.326  15.447  0.1202  1.7812  1.7445
 7252SOL    HW233219   1.331   3.214  15.400 -1.2262  0.1970  0.3098
 7253SOL     OW33220   0.119   0.931   6.405  0.5216 -0.1482  0.0995
 7253SOL    HW133221   0.174   0.990   6.355  0.2254  0.2406  0.2271
 7253SOL    HW233222   0.180   0.873   6.450  0.1621 -0.2863  0.4172
 7254SOL     OW33223   0.327   4.273   6.911 -0.2705  0.3736 -0.2141
 7254SOL    HW133224   0.347   4.359   6.947  2.5842 -1.0471  1.5331
 7254SOL    HW233225   0.415   4.255   6.881  0.0468  1.0907  0.2843
 7255SOL     OW33226   2.175   4.616  12.394 -0.1660  0.1683  0.1801
 7255SOL    HW133227   2.113   4.580  12.332  2.1183 -1.7175 -0.9933
 7255SOL    HW233228   2.255   4.629  12.343  0.9398 -1.3524  1.5001
 7256SOL     OW33229   1.853   3.843  14.398  0.8887  0.1614  0.1690
 7256SOL    HW133230   1.847   3.795  14.481  3.0858 -0.2108  0.1167
 7256SOL    HW233231   1.928   3.790  14.372 -0.7268 -1.8204 -0.5234
 7257SOL     OW33232   0.268   0.471   9.458  0.1216 -0.2773  0.3583
 7257SOL    HW133233   0.239   0.488   9.368  2.1751  0.3770 -0.1834
 7257SOL    HW233234   0.349   0.523   9.461 -0.1573  0.2730 -1.5670
 7258SOL     OW33235   0.206   1.705  11.262  0.1014 -0.2725  0.6362
 7258SOL    HW133236   0.295   1.676  11.245 -0.1994 -0.2512 -0.9170
 7258SOL    HW233237   0.217   1.727  11.355 -1.8362  2.4431  0.2223
 7259SOL     OW33238   2.575   1.919  15.276  0.2491  0.1670 -0.1754
 7259SOL    HW133239   2.510   1.860  15.237 -0.7518  0.6487  0.7580
 7259SOL    HW233240   2.526   1.959  15.348  2.8551  0.4127  1.4668
 7260SOL     OW33241   4.578   4.531   0.320  0.3490 -0.0276  0.0237
 7260SOL    HW133242   4.625   4.568   0.245  2.3500 -0.5376  1.0037
 7260SOL    HW233243   4.551   4.446   0.286 -2.5236  0.8331  0.1974
 7261SOL     OW33244   4.718   2.418  14.452  0.5689  0.3313  0.1441
 7261SOL    HW133245   0.031   2.386  14.534  2.1616  0.4493 -0.5397
 7261SOL    HW233246   0.017   2.511  14.456 -0.0749  0.5459 -0.8848
 7262SOL     OW33247   2.981   0.456  10.969  0.5091 -0.1251 -0.2054
 7262SOL    HW133248   2.916   0.525  10.960  0.1748 -0.4131  0.0215
 7262SOL    HW233249   2.946   0.431  11.055  3.2269 -1.4393  0.5296
 7263SOL     OW33250   2.745   3.489   3.686 -0.5906  0.1815 -0.0322
 7263SOL    HW133251   2.812   3.557   3.676  0.0281 -0.1895  1.7299
 7263SOL    HW233252   2.718   3.490   3.777  0.1762 -0.9023  0.2053
 7264SOL     OW33253   3.341   1.379   6.887  0.3331  0.0270 -0.4146
 7264SOL    HW133254   3.387   1.300   6.915 -0.2938  0.3892  1.6963
 7264SOL    HW233255   3.417   1.433   6.867  1.1965 -0.1172  2.4661
 7265SOL     OW33256   0.802   2.029   0.885  0.6011  0.0708  0.4139
 7265SOL    HW133257   0.823   2.111   0.931 -0.9796  1.7091 -1.7881
 7265SOL    HW233258   0.712   2.020   0.916  0.4742 -1.1087 -0.3141
 7266SOL     OW33259   4.254   3.204   8.668  0.2242 -0.3226 -0.1013
 7266SOL    HW133260   4.230   3.126   8.718  1.1165 -1.4548 -1.4473
 7266SOL    HW233261   4.347   3.186   8.652  0.1323 -0.5798 -0.3433
 7267SOL     OW33262   3.535   1.082   4.983  0.4868 -0.4923  0.5097
 7267SOL    HW133263   3.530   1.005   4.927  0.0671  0.4812 -0.7755
 7267SOL    HW233264   3.443   1.096   5.005  0.7957  1.1345  0.7794
 7268SOL     OW33265   3.154   0.033   5.254  0.2498  0.3911 -0.0972
 7268SOL    HW133266   3.087   4.694   5.275 -0.5247  1.0238 -0.6380
 7268SOL    HW233267   3.100   0.103   5.218 -0.3025 -1.8790 -3.6045
 7269SOL     OW33268   2.801   1.787   3.301 -0.3915  0.5822  0.2184
 7269SOL    HW133269   2.782   1.866   3.251  0.9678  1.2995  0.8228
 7269SOL    HW233270   2.897   1.788   3.297 -0.3896  1.4271  0.6118
 7270SOL     OW33271   0.877   3.838  13.341  0.3584 -0.6349 -0.1615
 7270SOL    HW133272   0.820   3.891  13.285  0.7566  0.4989  0.5255
 7270SOL    HW233273   0.813   3.773  13.372 -3.3794  2.8582 -0.5660
 7271SOL     OW33274   0.568   0.534   0.329 -0.3237  0.4371  0.1284
 7271SOL    HW133275   0.587   0.451   0.373 -0.5740  1.1206  1.5212
 7271SOL    HW233276   0.569   0.517   0.235  0.5744  0.7522  0.0793
 7272SOL     OW33277   4.237   3.567   2.351 -0.4233 -0.0160  0.0591
 7272SOL    HW133278   4.294   3.567   2.427  1.2008  0.8059 -1.1679
 7272SOL    HW233279   4.287   3.622   2.291 -0.8795  0.8865  0.4953
 7273SOL     OW33280   0.138   2.888   9.012  0.1112 -0.1652 -0.3090
 7273SOL    HW133281   0.067   2.835   8.976 -0.0680  0.0763 -0.3094
 7273SOL    HW233282   0.214   2.835   8.985  0.8313 -0.3308  1.9939
 7274SOL     OW33283   1.595   1.221   3.335  0.5964  0.6641 -0.2634
 7274SOL    HW133284   1.667   1.277   3.366  1.6830  0.3088 -2.1714
 7274SOL    HW233285   1.554   1.281   3.273 -1.5456 -0.2036  0.3144
 7275SOL     OW33286   3.379   2.106   6.837  0.4014 -0.1174 -0.6278
 7275SOL    HW133287   3.452   2.069   6.787 -0.0875 -1.2785 -0.4671
 7275SOL    HW233288   3.435   2.149   6.902 -1.1532 -1.1809  1.4069
 7276SOL     OW33289   0.275   3.500   3.118 -0.7179 -0.3624  0.6191
 7276SOL    HW133290   0.240   3.460   3.039  0.6895 -1.5682  0.5996
 7276SOL    HW233291   0.216   3.575   3.124  0.1067  0.4071 -0.7354
 7277SOL     OW33292   1.221   1.981   1.770 -0.0682 -0.1416 -0.4188
 7277SOL    HW133293   1.179   2.067   1.776  0.5458  0.1578 -0.3968
 7277SOL    HW233294   1.312   2.004   1.789 -0.1544 -1.7712  2.0917
 7278SOL     OW33295   0.588   4.202   2.428  0.1537  0.0344  0.0025
 7278SOL    HW133296   0.680   4.183   2.413  0.6197  2.8644 -0.6371
 7278SOL    HW233297   0.592   4.286   2.475 -0.9464  1.6042 -2.7332
 7279SOL     OW33298   4.043   0.055   7.473  1.0380 -0.4065  0.2829
 7279SOL    HW133299   4.019   0.140   7.509 -0.7412 -0.5562 -0.5278
 7279SOL    HW233300   4.136   0.059   7.453  0.5251  1.2767 -1.7461
 7280SOL     OW33301   2.121   0.661   9.224  0.1602 -0.5831 -0.9362
 7280SOL    HW133302   2.056   0.592   9.207 -2.5418  1.6976  0.1323
 7280SOL    HW233303   2.196   0.607   9.201  0.4054 -0.9993  0.8554
 7281SOL     OW33304   0.512   1.191   1.842  0.1653 -0.3335 -0.1481
 7281SOL    HW133305   0.508   1.267   1.901  2.3826 -1.1323  1.0318
 7281SOL    HW233306   0.601   1.157   1.855 -0.3420 -0.8360  1.9211
 7282SOL     OW33307   1.016   4.634  10.374  0.4120  0.2536  0.7359
 7282SOL    HW133308   0.976   4.553  10.405 -2.9931  1.2996 -0.9988
 7282SOL    HW233309   0.941   4.691  10.390  0.1813  0.0613  0.3214
 7283SOL     OW33310   0.053   4.161   2.327 -0.4343 -0.0986  0.0367
 7283SOL    HW133311   0.054   4.232   2.263  0.3842  0.4500  0.6657
 7283SOL    HW233312   0.140   4.162   2.367 -0.5669  2.1980  0.2770
 7284SOL     OW33313   4.528   2.502   9.040 -0.4808  0.4743 -0.1521
 7284SOL    HW133314   4.477   2.552   9.104 -1.4367  1.1190 -1.3993
 7284SOL    HW233315   4.611   2.490   9.086 -0.2823 -0.1230 -0.6662
 7285SOL     OW33316   0.521   2.583   4.038 -0.1145  0.5846 -0.2072
 7285SOL    HW133317   0.476   2.660   4.004 -0.0127 -0.0764 -1.8412
 7285SOL    HW233318   0.508   2.594   4.133 -0.9335  0.5231 -0.3174
 7286SOL     OW33319   1.254   2.917   6.957  0.0067  0.0957  0.0175
 7286SOL    HW133320   1.320   2.942   7.021  1.0499  0.3383 -1.1662
 7286SOL    HW233321   1.192   2.871   7.014  0.8471 -0.6432  0.3351
 7287SOL     OW33322   3.664   1.822   7.841 -0.0976  0.2990  0.1392
 7287SOL    HW133323   3.685   1.777   7.923  0.1949 -0.5061 -0.3744
 7287SOL    HW233324   3.637   1.747   7.788  0.2750  0.1981  0.0871
 7288SOL     OW33325   0.781   2.192  15.967 -1.0664  0.5113  0.2581
 7288SOL    HW133326   0.751   2.124  15.907  0.0287  0.7050 -0.5181
 7288SOL    HW233327   0.837   2.239  15.905 -1.3052 -1.0898 -1.1690
 7289SOL     OW33328   4.147   2.988   2.252  0.1808 -0.3906  0.2313
 7289SOL    HW133329   4.068   2.949   2.290  0.5562 -0.5624  0.8456
 7289SOL    HW233330   4.111   3.052   2.191  0.4216  0.5282  1.0418
 7290SOL     OW33331   4.604   3.642   5.010 -0.2223  0.3860 -0.5786
 7290SOL    HW133332   4.687   3.610   5.044 -1.3483 -0.1717  1.6505
 7290SOL    HW233333   4.605   3.600   4.924  0.9104  0.1560 -0.4506
 7291SOL     OW33334   4.671   2.508   5.931  0.7343  0.0465  0.4225
 7291SOL    HW133335   4.706   2.436   5.983 -0.1938  0.7102  1.9542
 7291SOL    HW233336   4.616   2.458   5.871  1.3801  1.0596 -1.0099
 7292SOL     OW33337   1.351   4.241   3.224 -0.3807 -0.1372 -0.0882
 7292SOL    HW133338   1.435   4.196   3.217  0.5439  1.6680 -0.7327
 7292SOL    HW233339   1.338   4.225   3.318  0.2060  0.0882  0.0280
 7293SOL     OW33340   2.634   2.048   3.366  0.0702 -0.6119  0.0288
 7293SOL    HW133341   2.544   2.016   3.361 -0.5876  1.3913 -0.8114
 7293SOL    HW233342   2.658   2.040   3.274  0.0544  1.8155 -0.1834
 7294SOL     OW33343   0.570   4.185   8.154  0.1138 -0.0263  0.4889
 7294SOL    HW133344   0.563   4.268   8.201  0.3705 -0.5484  1.4382
 7294SOL    HW233345   0.492   4.187   8.098  0.6104 -1.4595 -0.2641
 7295SOL     OW33346   4.366   1.124  16.515 -0.5976  0.7010  0.3491
 7295SOL    HW133347   4.373   1.153  16.424  1.9141 -1.2617 -0.0830
 7295SOL    HW233348   4.330   1.205  16.551 -1.6317  1.4222 -2.3301
 7296SOL     OW33349   3.790   4.412   1.423 -0.7035  0.2051 -0.3944
 7296SOL    HW133350   3.715   4.438   1.370 -1.3747  0.4002  0.6404
 7296SOL    HW233351   3.744   4.353   1.483  0.0249  0.0014 -0.0370
 7297SOL     OW33352   2.027   1.332  16.900 -0.3890  0.3175  0.2281
 7297SOL    HW133353   2.058   1.377  16.821 -1.5301 -0.6965 -0.7900
 7297SOL    HW233354   2.044   1.243  16.870 -0.9139  0.2109  0.2567
 7298SOL     OW33355   3.380   4.079  13.036  0.7442  0.1096  0.4044
 7298SOL    HW133356   3.444   4.109  13.100  1.1620  0.1696 -0.0443
 7298SOL    HW233357   3.303   4.069  13.092 -1.8520  0.8183 -3.0383
 7299SOL     OW33358   3.715   1.991   2.418  0.5226  0.6069 -0.6338
 7299SOL    HW133359   3.795   1.946   2.448 -0.6635 -1.0259  0.0811
 7299SOL    HW233360   3.653   1.940   2.469  1.9308  1.5899  2.0920
 7300SOL     OW33361   4.309   4.000   9.331  0.3757  0.3524  0.6464
 7300SOL    HW133362   4.302   3.950   9.249 -3.3009  0.0870  1.1432
 7300SOL    HW233363   4.248   3.952   9.386 -1.8261  1.1610 -1.1216
 7301SOL     OW33364   2.656   3.558  17.573 -0.4462 -0.3600 -0.4845
 7301SOL    HW133365   2.571   3.541  17.613 -1.3541  1.8602 -1.4987
 7301SOL    HW233366   2.632   3.648  17.550 -1.5669 -0.5055  0.1169
 7302SOL     OW33367   1.966   1.565  13.482 -0.4703 -0.1598 -0.1138
 7302SOL    HW133368   1.984   1.547  13.390 -0.7524 -0.3900 -0.1226
 7302SOL    HW233369   1.932   1.478  13.499 -2.3136  0.7287  0.7565
 7303SOL     OW33370   2.925   3.168  15.797  0.4065 -0.3146  0.6446
 7303SOL    HW133371   2.864   3.138  15.729 -0.2752  0.7240  0.8045
 7303SOL    HW233372   2.930   3.261  15.775  1.0064 -0.8298 -1.3941
 7304SOL     OW33373   2.726   1.454   4.150  0.0327 -0.0189 -0.0010
 7304SOL    HW133374   2.638   1.473   4.185 -0.2603 -1.8730  0.2311
 7304SOL    HW233375   2.694   1.439   4.061 -0.5761 -2.5259  0.6470
 7305SOL     OW33376   1.097   2.598   8.510  0.1356 -0.6681  0.0673
 7305SOL    HW133377   1.045   2.584   8.589 -0.6429  0.3486 -0.2697
 7305SOL    HW233378   1.170   2.645   8.551 -0.0760 -2.4090  2.4602
 7306SOL     OW33379   3.497   3.432   4.003  0.0942 -0.3924 -0.0399
 7306SOL    HW133380   3.463   3.344   3.985  0.1560 -0.2053 -1.0578
 7306SOL    HW233381   3.586   3.409   4.031  1.5422  4.3829 -0.7854
 7307SOL     OW33382   4.711   1.068  10.390  0.3142 -0.2513 -0.5040
 7307SOL    HW133383   0.054   1.005  10.412  0.9751  0.3233 -0.9009
 7307SOL    HW233384   4.701   1.045  10.297  1.1842 -0.5516 -0.5162
 7308SOL     OW33385   1.981   3.186   8.169 -0.2289  0.1389 -0.1434
 7308SOL    HW133386   1.886   3.203   8.166  0.0242  1.2604 -2.3913
 7308SOL    HW233387   2.019   3.266   8.132  0.4899 -0.4826 -0.7488
 7309SOL     OW33388   2.920   3.032   5.036  0.0705  0.6993 -0.6959
 7309SOL    HW133389   2.883   2.975   5.103  0.7142 -1.0533 -1.8370
 7309SOL    HW233390   2.906   3.119   5.073 -0.5994 -0.2138  1.1878
 7310SOL     OW33391   0.662   1.604   6.988  0.0815  0.2658  0.3131
 7310SOL    HW133392   0.688   1.536   6.925  2.0180 -0.1445  1.5672
 7310SOL    HW233393   0.743   1.600   7.038 -0.2135 -0.0049  0.7652
 7311SOL     OW33394   1.680   3.806   8.555  0.8256 -0.2928 -0.4877
 7311SOL    HW133395   1.747   3.772   8.614  0.4129  2.2818  1.4458
 7311SOL    HW233396   1.626   3.850   8.620 -1.5483 -0.9825 -1.9858
 7312SOL     OW33397   3.535   2.415   6.721 -0.2675 -0.6032 -0.4719
 7312SOL    HW133398   3.581   2.449   6.798  0.2159  0.3002 -1.1661
 7312SOL    HW233399   3.445   2.422   6.753 -0.6653 -1.6404 -1.4062
 7313SOL     OW33400   2.565   4.173   3.644 -0.3404 -0.2993 -0.2627
 7313SOL    HW133401   2.528   4.253   3.681  0.0403 -1.0289  1.6686
 7313SOL    HW233402   2.497   4.147   3.581  0.7390  1.0941 -2.0045
 7314SOL     OW33403   1.020   3.024  15.531 -0.0795  0.3301 -0.1079
 7314SOL    HW133404   0.972   3.065  15.459  1.5697  1.0860 -0.7850
 7314SOL    HW233405   0.975   3.073  15.599 -0.6222 -0.2530 -0.0543
 7315SOL     OW33406   4.611   0.142   5.315 -0.6079 -0.7819 -0.0766
 7315SOL    HW133407   4.653   0.171   5.396 -0.0197 -2.1093  0.0977
 7315SOL    HW233408   4.680   0.147   5.248 -1.6273  3.5148 -0.7735
 7316SOL     OW33409   3.492   2.309   3.273  0.1755 -0.3354 -0.0523
 7316SOL    HW133410   3.496   2.396   3.313 -0.5009 -0.3784  0.1179
 7316SOL    HW233411   3.562   2.264   3.320  0.8699  4.7841  3.7968
 7317SOL     OW33412   1.755   4.337   3.948  0.2969 -0.4101 -0.4452
 7317SOL    HW133413   1.802   4.376   4.022  0.5133  0.9410 -1.2963
 7317SOL    HW233414   1.820   4.354   3.881  0.6020  0.7470  0.1335
 7318SOL     OW33415   1.643   2.088   5.612 -0.4448 -0.3222  0.2995
 7318SOL    HW133416   1.550   2.107   5.603 -0.2576 -0.5917 -2.3082
 7318SOL    HW233417   1.681   2.146   5.546 -0.5447  1.1332  1.5381
 7319SOL     OW33418   4.594   4.023  17.214  0.0764  0.4202  0.0530
 7319SOL    HW133419   4.571   4.005  17.305 -0.6765  0.0964 -0.1952
 7319SOL    HW233420   4.509   4.042  17.175 -1.0446 -1.7334  1.4103
 7320SOL     OW33421   2.976   0.517   8.999  0.7930  0.1531 -0.1390
 7320SOL    HW133422   3.067   0.495   9.016  0.5126 -0.0794  1.0085
 7320SOL    HW233423   2.979   0.612   8.988 -3.0908  0.2223 -0.7924
 7321SOL     OW33424   1.524   0.787   1.951  0.4668  0.1720  0.1259
 7321SOL    HW133425   1.446   0.774   2.005 -0.7847  1.3549 -1.3892
 7321SOL    HW233426   1.553   0.696   1.961  0.1273  0.0902  0.3533
 7322SOL     OW33427   2.751   3.044   3.323  0.0462  0.0242  0.3768
 7322SOL    HW133428   2.753   2.970   3.383  1.4350  0.4616  0.8800
 7322SOL    HW233429   2.661   3.046   3.292  0.3917 -2.3460 -0.8116
 7323SOL     OW33430   3.492   2.636   7.739 -0.2364 -0.0455 -0.1795
 7323SOL    HW133431   3.509   2.670   7.651  3.2928 -0.5391  0.3273
 7323SOL    HW233432   3.450   2.551   7.731  0.2675 -0.1086 -2.0519
 7324SOL     OW33433   1.603   2.913   2.784  0.2598 -0.2523  0.3376
 7324SOL    HW133434   1.647   2.984   2.736 -0.8028  1.1851  1.4725
 7324SOL    HW233435   1.628   2.935   2.874  2.4565  2.3357 -0.9050
 7325SOL     OW33436   0.534   4.376   4.716  0.0724  0.0996 -0.4889
 7325SOL    HW133437   0.547   4.417   4.630  0.9736  0.4446 -0.1810
 7325SOL    HW233438   0.522   4.285   4.686  0.9671  0.2303 -1.2639
 7326SOL     OW33439   3.845   2.436   5.133 -0.1495  0.7580  0.4711
 7326SOL    HW133440   3.839   2.481   5.048  0.3947 -0.7912 -0.3902
 7326SOL    HW233441   3.847   2.512   5.191 -1.3056 -0.0928  1.6179
 7327SOL     OW33442   1.172   0.151   2.500 -0.0638 -0.2076 -0.3819
 7327SOL    HW133443   1.215   0.182   2.421 -0.5348 -0.7570 -0.8476
 7327SOL    HW233444   1.144   0.228   2.549  0.4117  0.1639 -0.6926
 7328SOL     OW33445   4.704   1.068   3.193  0.4999  0.0620  0.0170
 7328SOL    HW133446   4.685   1.151   3.236 -2.0082 -1.4430  1.8710
 7328SOL    HW233447   4.720   1.003   3.262  1.6600  0.7997  0.4214
 7329SOL     OW33448   3.329   4.378  13.596 -0.5502 -0.2518  0.2737
 7329SOL    HW133449   3.289   4.339  13.518 -5.4911 -0.1225  2.6844
 7329SOL    HW233450   3.413   4.332  13.596  0.8842  2.4074 -1.4554
 7330SOL     OW33451   2.574   0.055   0.716 -0.2509 -0.2390  0.7639
 7330SOL    HW133452   2.620   0.127   0.757 -0.0035 -0.2111  0.4373
 7330SOL    HW233453   2.602   4.703   0.766  2.1576 -1.5188 -2.5484
 7331SOL     OW33454   3.980   0.621   6.846 -0.3913 -0.2565  0.9953
 7331SOL    HW133455   3.904   0.679   6.846 -1.2199 -1.3392 -0.9010
 7331SOL    HW233456   4.052   0.674   6.811  0.5352  0.7860  4.4768
 7332SOL     OW33457   1.116   2.213  15.792 -0.5440 -0.3309 -0.0303
 7332SOL    HW133458   1.112   2.177  15.881  1.5726  1.5235  0.8050
 7332SOL    HW233459   1.184   2.277  15.812 -0.2182 -1.9180  3.9555
 7333SOL     OW33460   3.801   2.278   6.912  0.9065 -0.1171 -0.5384
 7333SOL    HW133461   3.828   2.234   6.993  2.7103  2.3772  0.2193
 7333SOL    HW233462   3.747   2.346   6.952  0.4896 -1.0459  0.5088
 7334SOL     OW33463   3.907   1.630   9.104 -0.7494  0.5821  0.1148
 7334SOL    HW133464   4.003   1.631   9.113 -0.6805 -1.7039 -0.4454
 7334SOL    HW233465   3.870   1.684   9.174 -0.9901  1.4296 -0.6659
 7335SOL     OW33466   3.634   2.820   6.599  0.3329 -0.3492  0.4713
 7335SOL    HW133467   3.583   2.751   6.556  0.9408 -0.2456 -0.4098
 7335SOL    HW233468   3.723   2.808   6.566 -0.5859 -3.3409 -0.8839
 7336SOL     OW33469   2.394   1.798   0.283 -0.0396 -0.8123 -0.0604
 7336SOL    HW133470   2.458   1.832   0.345  0.2139 -1.8212  0.2308
 7336SOL    HW233471   2.317   1.823   0.335  1.6918 -1.7036  2.9594
 7337SOL     OW33472   1.253   1.048   0.492  0.3882  0.0206  0.3942
 7337SOL    HW133473   1.246   1.013   0.403 -1.6449  0.1514  0.5095
 7337SOL    HW233474   1.165   1.053   0.529  0.8308 -0.2143  1.4766
 7338SOL     OW33475   3.246   3.395   9.630  0.1715  0.1598 -0.3500
 7338SOL    HW133476   3.195   3.422   9.553  2.0847 -1.9442 -2.3367
 7338SOL    HW233477   3.324   3.451   9.621 -0.5781  1.6123  2.4380
 7339SOL     OW33478   0.817   0.705  12.911  0.1315  0.7346 -0.0192
 7339SOL    HW133479   0.910   0.701  12.889 -0.2052 -1.6481 -1.0181
 7339SOL    HW233480   0.819   0.610  12.924  0.9251  0.5623 -1.3368
 7340SOL     OW33481   3.335   3.148   7.953  0.2922 -0.4709 -0.0089
 7340SOL    HW133482   3.396   3.113   7.888 -0.1074 -3.1091  1.0253
 7340SOL    HW233483   3.346   3.243   7.956 -0.1567 -0.3932 -0.7361
 7341SOL     OW33484   2.811   4.722   4.795  0.3935 -0.1350 -0.0228
 7341SOL    HW133485   2.905   4.704   4.795  0.5280  0.5321  0.4765
 7341SOL    HW233486   2.776   4.661   4.860 -0.5062 -0.0962 -0.4656
 7342SOL     OW33487   2.210   0.322   9.654  0.3260  0.7557 -0.5194
 7342SOL    HW133488   2.286   0.357   9.701 -0.0919 -1.0121  1.5121
 7342SOL    HW233489   2.165   0.277   9.726  0.0887 -0.7558 -1.6306
 7343SOL     OW33490   0.121   2.313   3.066  0.1105  0.6036 -0.1601
 7343SOL    HW133491   0.101   2.223   3.038  0.7569 -0.4721  2.8403
 7343SOL    HW233492   0.201   2.330   3.016  0.3281  0.3716  0.1153
 7344SOL     OW33493   2.508   2.669   1.500  0.4332  0.1955 -0.2746
 7344SOL    HW133494   2.432   2.662   1.443  0.1527  0.9290  0.0158
 7344SOL    HW233495   2.561   2.734   1.453  0.1404 -1.7584 -3.3027
 7345SOL     OW33496   2.928   4.555   1.518 -0.1288  0.2325  0.8240
 7345SOL    HW133497   2.859   4.554   1.584 -0.3142  1.7203  0.6654
 7345SOL    HW233498   2.877   4.576   1.439  1.6995  0.8629 -0.2036
 7346SOL     OW33499   2.662   1.506   0.313 -0.3392 -0.3922 -0.4766
 7346SOL    HW133500   2.652   1.601   0.319 -1.7020 -0.6147  0.7644
 7346SOL    HW233501   2.619   1.497   0.228  0.2391  1.0146 -0.9252
 7347SOL     OW33502   4.605   0.864   4.829 -0.1058 -0.4790 -0.4065
 7347SOL    HW133503   4.688   0.911   4.835 -0.8161  0.5813  1.0738
 7347SOL    HW233504   4.606   0.838   4.737  0.4076 -3.1674  0.3408
 7348SOL     OW33505   0.766   1.349   9.789  0.3688 -0.4955  0.1579
 7348SOL    HW133506   0.849   1.398   9.792 -0.7185  1.3634  0.0551
 7348SOL    HW233507   0.801   1.267   9.755 -1.8086 -2.2468  2.2039
 7349SOL     OW33508   3.867   2.845   1.163  0.3793 -0.1110  0.4327
 7349SOL    HW133509   3.793   2.855   1.103 -0.4695 -0.1522  1.4841
 7349SOL    HW233510   3.842   2.755   1.182  2.1702 -1.0494 -1.5947
 7350SOL     OW33511   2.537   0.892   4.312  0.4415 -0.6197 -0.3267
 7350SOL    HW133512   2.481   0.912   4.387  1.9142  1.3413  0.2809
 7350SOL    HW233513   2.527   0.798   4.298  3.6238 -1.1956  1.0877
 7351SOL     OW33514   1.509   0.370   5.529  0.0953 -0.1277 -0.3043
 7351SOL    HW133515   1.445   0.344   5.595  0.1184  0.4898 -0.0351
 7351SOL    HW233516   1.450   0.364   5.454 -0.8267 -0.1430  0.4234
 7352SOL     OW33517   4.109   1.400   8.985  0.4442 -0.0201  0.4185
 7352SOL    HW133518   4.175   1.453   9.029 -0.1677  1.6394 -0.6786
 7352SOL    HW233519   4.132   1.309   9.004  0.6930 -0.4048 -1.7806
 7353SOL     OW33520   1.420   2.727  14.496  0.7810  0.5084 -0.8778
 7353SOL    HW133521   1.501   2.709  14.545 -0.2962  2.6434  1.6663
 7353SOL    HW233522   1.348   2.725  14.558  0.5054  1.1042 -1.1764
 7354SOL     OW33523   1.265   1.460  14.403 -0.1073  0.3599 -0.4543
 7354SOL    HW133524   1.250   1.366  14.392 -3.2066  0.7730  0.0146
 7354SOL    HW233525   1.357   1.452  14.425 -0.2915 -0.2704  0.0902
 7355SOL     OW33526   0.604   0.596  16.599 -0.3744 -0.6752  0.3942
 7355SOL    HW133527   0.667   0.589  16.670 -1.6167 -2.2026  1.3375
 7355SOL    HW233528   0.515   0.576  16.630 -0.1817  0.6604  1.7728
 7356SOL     OW33529   2.699   0.953   3.311 -0.2117 -0.5200  0.0350
 7356SOL    HW133530   2.625   0.896   3.333  0.5511 -1.3235  0.5329
 7356SOL    HW233531   2.682   0.974   3.219 -1.7342 -1.2612  0.1546
 7357SOL     OW33532   1.467   4.270   1.139  0.5820  0.2893 -0.5033
 7357SOL    HW133533   1.378   4.269   1.174  0.1511 -0.9560 -1.6282
 7357SOL    HW233534   1.463   4.222   1.057 -2.0279  0.5470 -0.5372
 7358SOL     OW33535   4.683   1.452  11.981  0.0747 -0.1683 -0.0182
 7358SOL    HW133536   4.627   1.521  11.947  0.1675  0.0954  0.3636
 7358SOL    HW233537   0.007   1.442  11.900 -0.8735  1.4940 -0.7894
 7359SOL     OW33538   0.038   2.967   1.730  0.1493 -0.3148 -0.1417
 7359SOL    HW133539   4.719   3.040   1.772  1.0884 -0.9760  2.0253
 7359SOL    HW233540   4.693   2.908   1.702 -0.7936  1.4439 -1.4450
 7360SOL     OW33541   0.293   0.753   5.610 -0.6932  0.6086  0.0772
 7360SOL    HW133542   0.198   0.744   5.620 -0.2970 -1.4654  1.9602
 7360SOL    HW233543   0.307   0.848   5.609  3.7720 -0.0597 -2.1511
 7361SOL     OW33544   1.004   3.807   6.580 -0.4866 -0.0669 -0.5867
 7361SOL    HW133545   1.044   3.849   6.656  3.7076 -1.3642 -2.1120
 7361SOL    HW233546   0.944   3.878   6.557  0.1874  0.6447 -0.0994
 7362SOL     OW33547   1.010   4.230   5.554 -0.5953 -0.3741  1.1659
 7362SOL    HW133548   0.938   4.286   5.527  0.5360 -0.2292 -1.5988
 7362SOL    HW233549   0.964   4.146   5.549 -1.6415  0.3008 -0.1416
 7363SOL     OW33550   3.647   2.766   5.972  0.1825 -0.7608 -0.0101
 7363SOL    HW133551   3.645   2.754   6.067  0.9155  0.0118  0.0960
 7363SOL    HW233552   3.561   2.798   5.946  0.3266 -1.9896 -1.9635
 7364SOL     OW33553   1.330   1.283  14.010 -0.0892  0.1170 -0.3533
 7364SOL    HW133554   1.382   1.300  13.932  0.6906 -0.0034  0.1301
 7364SOL    HW233555   1.345   1.189  14.001  0.0381  0.1527 -0.5066
 7365SOL     OW33556   0.685   0.705   2.534  0.2798  0.4553  0.1360
 7365SOL    HW133557   0.700   0.771   2.601  3.2238 -0.0333 -0.0216
 7365SOL    HW233558   0.721   0.755   2.461  1.1668  1.2728  1.1429
 7366SOL     OW33559   4.046   3.030   4.012  0.0987  0.0644 -0.1710
 7366SOL    HW133560   3.973   2.976   4.040  0.1586  0.3823  0.5939
 7366SOL    HW233561   4.026   3.120   4.040  0.6193  0.0719  0.1753
 7367SOL     OW33562   0.505   0.006   3.989 -0.2667 -0.1999  0.7088
 7367SOL    HW133563   0.580   4.712   3.932  0.3788  1.0088  1.1546
 7367SOL    HW233564   0.426   4.700   3.945 -0.4658  0.4086  0.6448
 7368SOL     OW33565   1.431   2.177   4.770  0.1589  0.1581  0.1054
 7368SOL    HW133566   1.367   2.181   4.841 -0.2769  4.1437 -0.4764
 7368SOL    HW233567   1.422   2.086   4.743 -0.3486  0.5880 -1.2198
 7369SOL     OW33568   0.867   1.794  13.094  0.1810  0.2624 -0.0295
 7369SOL    HW133569   0.775   1.790  13.120 -0.2549 -0.7825 -1.7581
 7369SOL    HW233570   0.889   1.873  13.143  0.6856 -0.2550  0.5899
 7370SOL     OW33571   1.450   3.423   6.124 -0.2651  0.0747 -0.5123
 7370SOL    HW133572   1.419   3.468   6.202 -0.8775  0.9404 -1.2568
 7370SOL    HW233573   1.406   3.473   6.055 -1.5237 -3.9999 -2.7039
 7371SOL     OW33574   3.836   4.114   6.081  0.3404 -0.7718 -0.5616
 7371SOL    HW133575   3.925   4.126   6.047 -0.6360  1.0356 -2.5041
 7371SOL    HW233576   3.834   4.173   6.157 -0.8863 -1.4630 -0.0584
 7372SOL     OW33577   2.597   4.274   9.029 -0.3805 -0.3205 -0.3934
 7372SOL    HW133578   2.552   4.203   9.075 -1.9744  0.6656 -0.4082
 7372SOL    HW233579   2.545   4.292   8.949 -0.5429 -3.5635 -1.0095
 7373SOL     OW33580   0.000   2.615  17.636 -0.5222  0.3858  1.1741
 7373SOL    HW133581   4.666   2.688  17.619 -1.2961 -0.0151  2.2108
 7373SOL    HW233582   4.662   2.544  17.639  0.1521 -0.3192 -1.4913
 7374SOL     OW33583   0.255   1.595  14.391  0.2011 -0.7399 -0.1304
 7374SOL    HW133584   0.350   1.603  14.390  0.1780 -0.4484 -0.1227
 7374SOL    HW233585   0.233   1.679  14.432 -1.5200 -1.1028 -0.3214
 7375SOL     OW33586   4.376   1.595   4.298 -0.0662  0.9248 -0.1354
 7375SOL    HW133587   4.413   1.508   4.283 -1.1792  0.5698 -0.9044
 7375SOL    HW233588   4.452   1.636   4.338 -0.0607  0.0633  0.7292
 7376SOL     OW33589   0.826   2.641  12.950  0.2975  0.9379  0.3365
 7376SOL    HW133590   0.901   2.593  12.985  2.1899  1.8239 -2.4902
 7376SOL    HW233591   0.790   2.572  12.894 -1.8515  1.7379  0.7460
 7377SOL     OW33592   3.666   0.218  14.565 -0.3847  0.0240  0.1466
 7377SOL    HW133593   3.592   0.259  14.608 -1.2850 -1.2371 -0.1829
 7377SOL    HW233594   3.666   0.276  14.489 -1.8011  0.3377  0.3989
 7378SOL     OW33595   3.816   1.333   6.047  0.4854  0.5372  0.2832
 7378SOL    HW133596   3.732   1.374   6.027  0.5771 -0.0635 -1.3461
 7378SOL    HW233597   3.824   1.319   6.141 -0.7959 -0.7522  0.2003
 7379SOL     OW33598   0.797   3.145   3.832 -0.3287  0.3811  0.0509
 7379SOL    HW133599   0.737   3.179   3.765 -1.5509 -4.3589 -1.2471
 7379SOL    HW233600   0.735   3.147   3.905 -1.0222 -0.8103 -0.4973
 7380SOL     OW33601   3.590   0.970   9.748  0.0527 -0.1532  0.3893
 7380SOL    HW133602   3.578   0.970   9.653 -0.4973  1.6471  0.4502
 7380SOL    HW233603   3.521   0.907   9.771 -0.9528  1.0775  0.7456
 7381SOL     OW33604   0.986   3.522   4.312 -0.3301 -0.2831  0.0235
 7381SOL    HW133605   1.027   3.546   4.229 -0.2197  0.9074  0.4192
 7381SOL    HW233606   0.947   3.606   4.340 -1.8342 -1.0737  0.3171
 7382SOL     OW33607   1.680   0.684   7.863 -0.0699 -0.1951  0.5045
 7382SOL    HW133608   1.589   0.666   7.886  0.1826  0.3013  1.8884
 7382SOL    HW233609   1.725   0.707   7.945  2.4402 -0.3926 -0.8043
 7383SOL     OW33610   1.834   3.416   8.741  0.1761 -0.5256 -0.4713
 7383SOL    HW133611   1.861   3.447   8.828 -1.7062 -1.4421  0.4336
 7383SOL    HW233612   1.782   3.489   8.705  0.3279 -0.0167  0.3288
 7384SOL     OW33613   3.026   0.223   1.164  0.0849 -0.3336  0.0201
 7384SOL    HW133614   3.079   0.203   1.086  0.8711 -0.8756  0.6877
 7384SOL    HW233615   2.949   0.269   1.130 -0.1198 -1.0015 -0.4441
 7385SOL     OW33616   0.075   2.241  16.081  0.2785  0.2946  0.3572
 7385SOL    HW133617   0.161   2.236  16.122  0.1897  0.6055  0.5780
 7385SOL    HW233618   0.017   2.283  16.145 -2.4456 -2.8352 -0.0625
 7386SOL     OW33619   2.805   2.719   0.880  0.1570 -0.4281 -0.2335
 7386SOL    HW133620   2.825   2.741   0.789  2.0696 -2.5220 -0.3235
 7386SOL    HW233621   2.881   2.771   0.908 -1.6239  2.4140 -0.7177
 7387SOL     OW33622   0.037   3.572   8.855  0.5360  0.6858  0.5097
 7387SOL    HW133623   0.031   3.559   8.950  1.3415  2.3541  0.7881
 7387SOL    HW233624   0.118   3.525   8.836 -0.5287 -1.9354  2.4004
 7388SOL     OW33625   3.058   3.279   5.830  0.6237  0.3118  0.0654
 7388SOL    HW133626   3.007   3.317   5.758 -1.7134 -1.1161  0.9483
 7388SOL    HW233627   3.082   3.356   5.882  1.6282  0.2708 -0.3366
 7389SOL     OW33628   1.283   1.354   5.094 -0.0600  0.0131  0.0164
 7389SOL    HW133629   1.292   1.382   5.003 -1.9994 -0.2637 -0.2726
 7389SOL    HW233630   1.372   1.354   5.128 -0.3532 -0.6226  0.7955
 7390SOL     OW33631   0.901   0.531   7.014  0.3866 -0.2800  0.1848
 7390SOL    HW133632   0.808   0.526   7.035  0.9962 -0.0193  3.0810
 7390SOL    HW233633   0.938   0.477   7.084  0.2878  2.4017  2.3148
 7391SOL     OW33634   0.345   1.028   2.232 -0.1366  0.2101  0.3791
 7391SOL    HW133635   0.288   0.961   2.195  1.0899 -1.3701  1.4081
 7391SOL    HW233636   0.432   0.990   2.231  0.4372  1.5340  0.4061
 7392SOL     OW33637   1.046   1.207   3.602 -0.0066 -0.6850 -0.3129
 7392SOL    HW133638   0.961   1.242   3.628  0.0084 -1.0832  0.2597
 7392SOL    HW233639   1.074   1.187   3.691  0.2645  0.4398 -0.1419
 7393SOL     OW33640   0.292   3.157   4.942  0.0964  0.3746 -0.2037
 7393SOL    HW133641   0.365   3.219   4.937  0.3942  0.1130  1.0395
 7393SOL    HW233642   0.218   3.215   4.922  0.0779 -0.0232 -1.2681
 7394SOL     OW33643   1.272   2.134   2.947  0.4239  0.2603 -0.2310
 7394SOL    HW133644   1.307   2.079   2.878  0.3888  2.0477 -1.6775
 7394SOL    HW233645   1.179   2.138   2.923  0.4431  3.4413  0.1907
 7395SOL     OW33646   2.742   1.276  16.768 -0.2766  0.0054 -0.1028
 7395SOL    HW133647   2.725   1.370  16.772  0.3428  0.0542  1.4438
 7395SOL    HW233648   2.705   1.246  16.851  0.7358 -1.4765 -0.1896
 7396SOL     OW33649   1.274   0.428   3.755 -0.4010 -0.3089  0.2545
 7396SOL    HW133650   1.288   0.335   3.774 -0.6504 -0.4912 -0.4690
 7396SOL    HW233651   1.367   0.452   3.745  0.3516 -2.4877  1.9265
 7397SOL     OW33652   2.094   0.513  12.028 -0.2365  0.6607  0.5773
 7397SOL    HW133653   2.186   0.516  12.054 -0.3383 -0.9787  1.1442
 7397SOL    HW233654   2.051   0.554  12.103  0.9835  1.4119  0.8473
 7398SOL     OW33655   0.222   2.100  13.918 -0.0534  0.3303  0.1513
 7398SOL    HW133656   0.178   2.107  13.834  0.0848  1.3365  0.1614
 7398SOL    HW233657   0.223   2.194  13.937 -0.0092  0.8339 -2.3673
 7399SOL     OW33658   0.153   3.914   7.176 -0.6839  0.1401  0.0779
 7399SOL    HW133659   0.194   3.828   7.184 -1.8608 -0.6301 -2.1892
 7399SOL    HW233660   0.074   3.891   7.226  0.1407  2.0038  2.2009
 7400SOL     OW33661   3.878   3.721   2.740  0.0173  0.4173 -0.6944
 7400SOL    HW133662   3.890   3.810   2.709  2.4069  0.5312  0.6188
 7400SOL    HW233663   3.860   3.667   2.662 -1.2177  1.0280 -0.8479
 7401SOL     OW33664   4.130   0.033   6.689 -0.6516 -0.8507  0.1599
 7401SOL    HW133665   4.103   4.674   6.727  0.6614 -0.3391  2.2717
 7401SOL    HW233666   4.203   0.002   6.635  0.9357  0.6325  1.4329
 7402SOL     OW33667   0.719   2.522  17.529  0.0502 -0.0224 -0.3934
 7402SOL    HW133668   0.731   2.594  17.590 -0.6131  1.1229 -1.6183
 7402SOL    HW233669   0.795   2.539  17.475  0.3232  0.6760  0.2163
 7403SOL     OW33670   0.323   4.392  10.199 -0.3798 -0.4720 -0.5177
 7403SOL    HW133671   0.294   4.474  10.237  0.4488 -1.2727  1.8279
 7403SOL    HW233672   0.336   4.346  10.282 -1.6797 -1.3567 -0.7999
 7404SOL     OW33673   1.154   4.056  11.687  0.8393 -0.0503 -0.3909
 7404SOL    HW133674   1.203   4.135  11.664  1.7158  0.1962  2.2756
 7404SOL    HW233675   1.082   4.063  11.625  0.2633 -1.5233  0.1235
 7405SOL     OW33676   1.424   0.276   2.026 -0.7876  1.0833  0.4957
 7405SOL    HW133677   1.487   0.220   2.071 -0.9201  1.7119  1.4564
 7405SOL    HW233678   1.414   0.230   1.943  1.7226  1.7248 -0.1445
 7406SOL     OW33679   2.399   4.222   6.835  0.3935 -0.1265 -0.6759
 7406SOL    HW133680   2.357   4.253   6.755 -2.3170 -1.2901  0.2785
 7406SOL    HW233681   2.491   4.239   6.815  0.8839 -1.6489  0.2428
 7407SOL     OW33682   1.181   1.350   7.316 -0.0373 -0.4494 -0.5104
 7407SOL    HW133683   1.258   1.368   7.369  0.0660 -0.6131 -0.6044
 7407SOL    HW233684   1.217   1.357   7.227  0.1613 -2.1790 -0.5621
 7408SOL     OW33685   3.711   1.307   6.347 -0.4474  0.3039 -0.2400
 7408SOL    HW133686   3.745   1.217   6.356 -0.7720  0.1489 -0.5914
 7408SOL    HW233687   3.782   1.356   6.388 -0.4728 -0.8654  1.2279
 7409SOL     OW33688   4.151   2.623  16.836 -0.5458 -0.0643 -0.5130
 7409SOL    HW133689   4.231   2.599  16.881  0.2147 -0.3608 -2.0391
 7409SOL    HW233690   4.181   2.632  16.746  0.8743  1.3973  0.1230
 7410SOL     OW33691   0.306   1.045   1.840  0.0233  0.1380 -0.1258
 7410SOL    HW133692   0.262   1.084   1.915  0.3501  0.9651 -0.3587
 7410SOL    HW233693   0.378   1.108   1.847 -0.1985  0.3062  0.6352
 7411SOL     OW33694   2.002   0.878   9.725 -0.7541  0.0879  0.1277
 7411SOL    HW133695   1.915   0.911   9.749 -1.8522 -2.4660 -0.2545
 7411SOL    HW233696   1.968   0.800   9.681 -0.8475 -1.0197  2.1571
 7412SOL     OW33697   1.753   1.231   9.018  0.5114  0.4727 -0.2373
 7412SOL    HW133698   1.724   1.228   9.109 -0.4981  1.2855 -0.5277
 7412SOL    HW233699   1.775   1.324   9.014  0.9049  0.4373  1.2369
 7413SOL     OW33700   3.309   4.151   4.471 -0.0132 -0.5463  0.0351
 7413SOL    HW133701   3.260   4.158   4.552  0.4774 -0.0974  0.2946
 7413SOL    HW233702   3.385   4.095   4.490 -0.5967 -1.4902 -0.3746
 7414SOL     OW33703   3.711   3.851   6.489  0.2741 -0.2141 -0.1702
 7414SOL    HW133704   3.765   3.774   6.470  3.8979  1.4656  3.2390
 7414SOL    HW233705   3.786   3.908   6.502  0.6375 -0.3179 -1.8775
 7415SOL     OW33706   3.442   2.757  13.623  0.2946  0.1304 -0.3632
 7415SOL    HW133707   3.477   2.696  13.557 -0.9306 -0.6744 -0.2612
 7415SOL    HW233708   3.515   2.775  13.682 -0.3811  2.1552 -0.1468
 7416SOL     OW33709   2.093   4.676   2.724 -0.6793 -0.2267  0.5399
 7416SOL    HW133710   2.182   4.645   2.741 -0.4407  0.5548  0.7469
 7416SOL    HW233711   2.088   0.006   2.802  0.1143  0.2707  0.2432
 7417SOL     OW33712   2.307   3.104   2.328 -0.8123  0.4313  0.3668
 7417SOL    HW133713   2.307   3.153   2.410  0.7828  0.8527  0.1219
 7417SOL    HW233714   2.304   3.011   2.351  0.8315  0.2662 -0.1022
 7418SOL     OW33715   2.796   3.160  11.110 -0.0554  0.4422  0.6387
 7418SOL    HW133716   2.884   3.121  11.108 -0.1911  0.1874 -0.9289
 7418SOL    HW233717   2.795   3.208  11.027 -0.0704 -0.6253  0.0235
 7419SOL     OW33718   1.143   0.127   1.851 -0.2440  0.1757  0.2678
 7419SOL    HW133719   1.110   0.039   1.869 -0.0390 -0.1280 -0.8128
 7419SOL    HW233720   1.067   0.165   1.806  1.3295  2.8329 -0.1489
 7420SOL     OW33721   4.369   3.716  15.832 -0.1327  0.0265  0.2282
 7420SOL    HW133722   4.326   3.776  15.892  0.0549 -1.1532  1.5261
 7420SOL    HW233723   4.405   3.641  15.879  1.1521  0.2269 -0.4517
 7421SOL     OW33724   3.136   2.072   0.559 -0.4983  0.0002  0.6678
 7421SOL    HW133725   3.222   2.114   0.553  0.2575 -1.4965  1.0018
 7421SOL    HW233726   3.162   1.995   0.508 -0.1103  0.3902  0.2758
 7422SOL     OW33727   3.538   1.135  15.013  0.1141 -0.3160 -0.3277
 7422SOL    HW133728   3.609   1.153  14.952 -0.7462 -2.4132 -1.9190
 7422SOL    HW233729   3.591   1.106  15.088  2.2597 -0.0570 -1.7701
 7423SOL     OW33730   1.974   1.654   2.800 -0.2193  0.1674 -0.3835
 7423SOL    HW133731   1.996   1.630   2.709 -2.4345 -0.3727 -0.7680
 7423SOL    HW233732   2.009   1.743   2.791  0.1747 -0.1046 -1.5377
 7424SOL     OW33733   0.397   2.946  16.357  0.2707 -0.2016  0.1451
 7424SOL    HW133734   0.307   2.926  16.332 -0.2823  0.7173  1.4019
 7424SOL    HW233735   0.390   2.944  16.453  0.0278 -1.3825  0.0982
 7425SOL     OW33736   2.336   1.898   1.114  0.7919 -0.5359 -0.2870
 7425SOL    HW133737   2.348   1.855   1.199  1.6000 -1.5489 -0.9077
 7425SOL    HW233738   2.287   1.978   1.129  0.7991 -0.5594 -0.1366
 7426SOL     OW33739   4.112   3.590   8.199 -0.0407  0.1922  0.5948
 7426SOL    HW133740   4.044   3.639   8.152 -1.1138  0.6860  2.6547
 7426SOL    HW233741   4.060   3.564   8.274 -2.8673  1.1955 -1.0186
 7427SOL     OW33742   1.467   3.672   8.912 -0.5081  0.7076  0.6188
 7427SOL    HW133743   1.430   3.608   8.973 -0.9664 -0.0556 -0.4666
 7427SOL    HW233744   1.470   3.621   8.832 -1.2022  0.7441  0.5651
 7428SOL     OW33745   2.692   2.579   9.120 -0.0971  0.4191 -0.5826
 7428SOL    HW133746   2.751   2.617   9.055  1.6622 -1.6074 -0.1915
 7428SOL    HW233747   2.742   2.586   9.202 -1.8967  0.0059  0.5548
 7429SOL     OW33748   3.775   2.377   5.686 -0.9693 -0.0883  0.2417
 7429SOL    HW133749   3.734   2.462   5.671  0.7407  0.5722 -0.6537
 7429SOL    HW233750   3.866   2.395   5.663 -0.4454  1.2509  3.2972
 7430SOL     OW33751   3.424   1.926   2.900 -0.7145 -0.1578  0.1107
 7430SOL    HW133752   3.467   1.893   2.980 -0.4445 -1.5319 -0.5927
 7430SOL    HW233753   3.340   1.882   2.909  0.8491 -2.8946  1.4809
 7431SOL     OW33754   1.172   4.177  12.459 -0.6647  0.2802 -0.6520
 7431SOL    HW133755   1.231   4.251  12.451 -0.6350  0.3871  0.5647
 7431SOL    HW233756   1.193   4.152  12.549 -2.4755  1.7652  0.1910
 7432SOL     OW33757   0.353   3.673   3.867  0.2251 -0.8499  0.4380
 7432SOL    HW133758   0.393   3.758   3.883  0.3810 -0.2953 -2.9573
 7432SOL    HW233759   0.410   3.624   3.807  1.0228 -0.3541  0.7883
 7433SOL     OW33760   2.243   2.905   5.142 -0.2086 -0.1622  0.1690
 7433SOL    HW133761   2.168   2.901   5.202  2.5161  0.6382  3.6667
 7433SOL    HW233762   2.304   2.930   5.212  2.0115  1.7641 -2.4415
 7434SOL     OW33763   3.536   4.136   0.618  0.0509  0.1763 -0.0083
 7434SOL    HW133764   3.453   4.184   0.606 -0.6157 -1.1429 -0.6025
 7434SOL    HW233765   3.556   4.107   0.529  3.0985  1.1165  0.3947
 7435SOL     OW33766   3.797   4.220   3.995 -0.2258 -0.0632 -0.4545
 7435SOL    HW133767   3.874   4.234   3.940 -0.9669  0.8486 -1.2616
 7435SOL    HW233768   3.761   4.144   3.950 -0.0973 -1.1177  1.2028
 7436SOL     OW33769   1.963   0.819  16.842 -0.1272 -0.3152  0.0274
 7436SOL    HW133770   2.014   0.899  16.833  1.1195 -0.7864  2.9188
 7436SOL    HW233771   1.874   0.850  16.855  1.0698  2.5357  1.4545
 7437SOL     OW33772   1.007   1.886   2.976  0.2401  0.0979  0.0728
 7437SOL    HW133773   1.076   1.870   3.040 -1.1357  0.9910  1.7898
 7437SOL    HW233774   0.959   1.805   2.993  0.0764  0.0094 -0.8126
 7438SOL     OW33775   1.324   2.489  16.077  0.1112 -0.3779 -0.1252
 7438SOL    HW133776   1.393   2.446  16.025  0.1197 -2.0599  1.3058
 7438SOL    HW233777   1.378   2.540  16.137 -0.8568  1.0394 -0.4785
 7439SOL     OW33778   1.690   3.347  10.295  0.2475  0.2594 -0.1008
 7439SOL    HW133779   1.665   3.303  10.376  0.2872  2.2562  0.9883
 7439SOL    HW233780   1.639   3.427  10.307 -1.1250 -0.8875  1.6696
 7440SOL     OW33781   0.166   2.012  11.616 -0.0951 -0.4467 -0.3081
 7440SOL    HW133782   0.141   2.100  11.587 -0.4851 -1.3575 -2.8031
 7440SOL    HW233783   0.213   1.975  11.541  0.4463 -0.8270  0.2256
 7441SOL     OW33784   0.003   1.082   6.598 -0.1231 -0.0155 -0.7061
 7441SOL    HW133785   0.065   1.086   6.671 -0.5588  0.3759 -0.3547
 7441SOL    HW233786   0.042   1.015   6.542 -0.6184 -2.0395  1.3863
 7442SOL     OW33787   2.688   1.453   7.468  0.2482 -0.1331 -0.4625
 7442SOL    HW133788   2.723   1.500   7.544  0.2648 -0.1567 -0.4556
 7442SOL    HW233789   2.699   1.362   7.496 -1.0133 -0.6907 -1.7956
 7443SOL     OW33790   2.368   2.074  17.464  0.0876 -0.5277  0.3473
 7443SOL    HW133791   2.282   2.062  17.425 -0.8486 -1.1247  2.6144
 7443SOL    HW233792   2.376   2.169  17.468  1.2969 -0.5233 -1.9204
 7444SOL     OW33793   4.622   4.447   3.699  0.1029  0.2682 -0.0275
 7444SOL    HW133794   4.651   4.537   3.681  0.0385  0.1063 -0.9823
 7444SOL    HW233795   4.623   4.408   3.611 -0.4664  1.9290 -0.7798
 7445SOL     OW33796   4.023   2.575  15.649 -0.6653  0.4631 -0.5794
 7445SOL    HW133797   4.055   2.658  15.612  1.1318 -1.5569 -3.5085
 7445SOL    HW233798   4.088   2.564  15.719 -0.1578  0.7747 -1.0066
 7446SOL     OW33799   2.472   3.085   0.544 -0.2377 -0.5563 -0.4006
 7446SOL    HW133800   2.535   3.033   0.593  0.2295  2.2370  2.0084
 7446SOL    HW233801   2.468   3.158   0.606  0.8692  1.0537 -2.2200
 7447SOL     OW33802   0.584   2.653   5.493  0.2436 -0.0549 -0.1965
 7447SOL    HW133803   0.590   2.646   5.398 -1.7657 -3.1636 -0.1138
 7447SOL    HW233804   0.565   2.747   5.496 -0.7334 -0.2803  0.9421
 7448SOL     OW33805   3.762   3.248   2.058 -0.3137  0.0641  0.1713
 7448SOL    HW133806   3.708   3.301   2.000  0.9924  0.4227 -0.7063
 7448SOL    HW233807   3.717   3.166   2.037 -1.3193  0.7505 -0.3173
 7449SOL     OW33808   2.636   2.648   4.373  0.0204 -0.2765 -0.9352
 7449SOL    HW133809   2.601   2.674   4.287 -1.6979 -1.8687 -0.6963
 7449SOL    HW233810   2.628   2.726   4.428 -1.5368 -2.6272  2.1259
 7450SOL     OW33811   1.853   0.564   4.577  0.1379 -0.1763 -0.4164
 7450SOL    HW133812   1.762   0.543   4.555  0.2241  3.5414 -4.1731
 7450SOL    HW233813   1.860   0.646   4.530  1.1984 -0.6676 -1.1191
 7451SOL     OW33814   0.036   4.409   0.657 -0.1122  0.2187 -0.7053
 7451SOL    HW133815   0.113   4.409   0.714  0.0396 -1.5075 -0.9213
 7451SOL    HW233816   0.020   4.503   0.663  1.7792  0.6609 -2.4402
 7452SOL     OW33817   4.062   3.366   2.915 -0.7376  0.6593 -0.9154
 7452SOL    HW133818   3.980   3.413   2.897 -0.3367  2.2868  1.4674
 7452SOL    HW233819   4.050   3.273   2.898  0.4736 -0.1003  2.2475
 7453SOL     OW33820   3.452   0.515   1.668  0.4401  0.5999 -0.2651
 7453SOL    HW133821   3.405   0.592   1.700 -1.2642 -0.4523 -0.2448
 7453SOL    HW233822   3.402   0.486   1.592 -0.7897  0.5791  0.5624
 7454SOL     OW33823   2.297   3.186   2.065  0.1442  0.1012 -0.0155
 7454SOL    HW133824   2.357   3.114   2.050  0.5062  0.8093 -1.9589
 7454SOL    HW233825   2.272   3.161   2.155  0.0477  0.0555 -0.0545
 7455SOL     OW33826   2.160   0.918   0.331  0.5202 -0.3905  0.8072
 7455SOL    HW133827   2.189   0.954   0.247 -0.5608  1.2197  1.1225
 7455SOL    HW233828   2.233   0.960   0.374  0.6455  0.7568 -0.5198
 7456SOL     OW33829   3.225   4.146   4.217 -0.0623  0.2458  0.6851
 7456SOL    HW133830   3.222   4.125   4.311  0.8078  1.0676  0.8984
 7456SOL    HW233831   3.276   4.226   4.223 -1.1962  1.0528 -0.5331
 7457SOL     OW33832   1.757   4.289   1.249  0.0988  0.0673 -0.1554
 7457SOL    HW133833   1.798   4.358   1.197  1.2521 -0.4663  0.0497
 7457SOL    HW233834   1.664   4.309   1.237 -0.4222 -1.7425  0.9207
 7458SOL     OW33835   3.582   1.354  17.183 -0.3447  0.4329 -0.4117
 7458SOL    HW133836   3.594   1.287  17.251  2.3364  0.5023 -0.8060
 7458SOL    HW233837   3.621   1.311  17.107  0.0209  0.1803 -0.0827
 7459SOL     OW33838   3.033   2.425   1.727  0.1176 -0.2804 -0.3933
 7459SOL    HW133839   2.948   2.454   1.692  0.0395 -0.2425 -0.1723
 7459SOL    HW233840   3.071   2.512   1.740 -0.5167 -0.3329  1.8402
 7460SOL     OW33841   2.705   2.716  13.077  0.8631  0.1410 -0.4770
 7460SOL    HW133842   2.773   2.754  13.132 -0.3315 -0.6112  1.5039
 7460SOL    HW233843   2.750   2.647  13.027 -0.1715 -2.3404  2.0265
 7461SOL     OW33844   1.017   1.602   8.188 -0.2275  0.4338  0.5618
 7461SOL    HW133845   1.005   1.556   8.105 -0.2736 -2.4126  2.1629
 7461SOL    HW233846   1.018   1.692   8.154  1.5216  0.1598 -0.1072
 7462SOL     OW33847   0.236   1.928   5.377 -0.0744 -0.5021  0.3729
 7462SOL    HW133848   0.145   1.955   5.361  0.0773 -0.4705 -0.3961
 7462SOL    HW233849   0.237   1.838   5.343  1.2634 -1.3100  2.5389
 7463SOL     OW33850   4.443   4.282  10.594  0.3258 -0.2462  0.1628
 7463SOL    HW133851   4.440   4.191  10.622 -0.5404 -0.2071  0.1878
 7463SOL    HW233852   4.455   4.331  10.675  2.0745  0.8696 -0.7457
 7464SOL     OW33853   0.562   1.338  13.118 -0.1597  0.2028 -0.0849
 7464SOL    HW133854   0.497   1.268  13.119  1.5390 -1.3820 -0.1083
 7464SOL    HW233855   0.548   1.383  13.034  3.1633  0.4208 -0.5321
 7465SOL     OW33856   0.129   2.071   2.714 -0.3541 -0.1525  0.5201
 7465SOL    HW133857   0.070   2.003   2.683  1.5907 -0.4545 -2.4612
 7465SOL    HW233858   0.088   2.078   2.801 -0.9765  1.3784  0.0956
 7466SOL     OW33859   0.533   0.416   5.453  0.3917  0.1477  0.0955
 7466SOL    HW133860   0.569   0.329   5.466  0.3220  0.0334 -0.4810
 7466SOL    HW233861   0.505   0.433   5.543  1.3441 -1.5111  0.7019
 7467SOL     OW33862   1.038   1.083   1.891  0.0834 -0.0222  0.3092
 7467SOL    HW133863   1.108   1.031   1.852  0.9326  1.4537 -0.1558
 7467SOL    HW233864   1.020   1.143   1.818 -0.4788 -1.5146 -0.7679
 7468SOL     OW33865   2.791   1.031   5.943  0.2575 -0.2365 -0.0089
 7468SOL    HW133866   2.753   1.096   5.883 -2.7606 -0.6744  1.4292
 7468SOL    HW233867   2.838   1.084   6.007  0.9885  1.2587 -1.7472
 7469SOL     OW33868   4.025   3.137   2.055 -0.0383  0.0145  0.2110
 7469SOL    HW133869   3.932   3.155   2.071  0.0695  0.3087  0.5186
 7469SOL    HW233870   4.051   3.207   1.996 -1.9932  2.0350  1.7181
 7470SOL     OW33871   0.625   0.823   0.612  0.1302 -0.3211  0.1723
 7470SOL    HW133872   0.709   0.845   0.573  0.0760  1.2010  0.9333
 7470SOL    HW233873   0.587   0.907   0.588  2.0961  0.2374 -0.9948
 7471SOL     OW33874   2.945   2.055   4.389  0.1179  0.2207  0.2636
 7471SOL    HW133875   2.919   1.965   4.409 -0.6697  0.9906  2.7064
 7471SOL    HW233876   2.917   2.061   4.298  2.5167  0.3955 -0.4547
 7472SOL     OW33877   3.633   2.849   8.060 -0.3561 -0.1524  0.1301
 7472SOL    HW133878   3.674   2.805   8.135  1.6671 -1.1615 -1.5845
 7472SOL    HW233879   3.667   2.793   7.991 -0.4048  0.2336 -0.2095
 7473SOL     OW33880   0.531   0.632  14.381 -0.1484 -0.0465 -0.1249
 7473SOL    HW133881   0.479   0.649  14.459 -0.4896 -0.0040 -0.3609
 7473SOL    HW233882   0.582   0.556  14.409 -2.5817 -2.2657 -1.7126
 7474SOL     OW33883   1.948   4.420   1.436 -0.4646  0.3689  0.1364
 7474SOL    HW133884   1.880   4.353   1.440 -0.0225 -0.2609 -3.2679
 7474SOL    HW233885   1.894   4.498   1.450 -0.9726 -0.3610  2.2011
 7475SOL     OW33886   3.151   3.591   5.297  0.2500  0.3398  0.6502
 7475SOL    HW133887   3.177   3.671   5.342 -1.5979  1.4138 -0.1671
 7475SOL    HW233888   3.060   3.579   5.323  0.5087  0.2704  1.5338
 7476SOL     OW33889   1.673   1.448   2.442  0.0457 -0.1684  0.5809
 7476SOL    HW133890   1.720   1.364   2.444  1.3896  0.5622  0.0894
 7476SOL    HW233891   1.606   1.425   2.378 -0.3281 -1.4412  1.4458
 7477SOL     OW33892   3.791   3.301   4.816 -0.3490  0.1182 -0.0013
 7477SOL    HW133893   3.881   3.323   4.840  0.5507 -1.0234 -2.3785
 7477SOL    HW233894   3.757   3.383   4.781 -1.1735 -0.7034 -1.1299
 7478SOL     OW33895   3.768   2.526   0.521  1.0851  0.2931 -0.1812
 7478SOL    HW133896   3.817   2.443   0.522  0.3951 -0.1211 -0.6122
 7478SOL    HW233897   3.762   2.541   0.426  0.3327  3.6379  0.3953
 7479SOL     OW33898   0.580   2.469   5.009 -0.1831  0.3556 -0.0495
 7479SOL    HW133899   0.646   2.463   4.940  2.3862  1.2878  2.3190
 7479SOL    HW233900   0.621   2.425   5.084 -1.0757  2.6096  1.7518
 7480SOL     OW33901   2.090   3.003  11.116  0.5354  0.5473  0.1586
 7480SOL    HW133902   2.085   2.907  11.114  0.8387  0.5320  0.1259
 7480SOL    HW233903   2.144   3.018  11.038  0.8442 -1.6735 -0.0515
 7481SOL     OW33904   1.350   0.863   4.688 -0.2892  0.1319 -0.4560
 7481SOL    HW133905   1.345   0.777   4.729  2.0436 -0.3960 -1.2957
 7481SOL    HW233906   1.364   0.837   4.597 -0.9808 -0.2822 -0.4443
 7482SOL     OW33907   0.266   2.598   3.820 -0.0189 -0.1492 -0.3777
 7482SOL    HW133908   0.276   2.613   3.726 -0.0671 -1.9228 -0.6754
 7482SOL    HW233909   0.301   2.680   3.854 -0.7601 -0.9545  2.3458
 7483SOL     OW33910   2.518   4.203   6.497 -0.1350 -0.2034 -0.2264
 7483SOL    HW133911   2.478   4.277   6.544 -0.6147  0.0563 -1.0495
 7483SOL    HW233912   2.570   4.162   6.566  1.8662  2.2115 -0.3116
 7484SOL     OW33913   1.170   2.500   8.276  0.3937  0.1377 -0.1649
 7484SOL    HW133914   1.087   2.473   8.238  0.1148  0.0887  0.4742
 7484SOL    HW233915   1.144   2.529   8.363  0.1904 -1.5935  0.3561
 7485SOL     OW33916   1.416   1.614  17.010  0.8886 -0.3230 -0.2526
 7485SOL    HW133917   1.350   1.562  16.964  1.9783  1.3273 -3.6593
 7485SOL    HW233918   1.488   1.553  17.027  2.1211  2.0719  3.1790
 7486SOL     OW33919   4.401   0.272   0.447 -0.2837  0.2141 -0.3742
 7486SOL    HW133920   4.313   0.235   0.439  0.1174 -1.1499  1.4901
 7486SOL    HW233921   4.424   0.285   0.355  2.2178  0.4819  0.2858
 7487SOL     OW33922   0.923   1.250   7.326  0.0511  0.0560 -0.3780
 7487SOL    HW133923   0.923   1.159   7.299  0.1130 -0.5562  1.6932
 7487SOL    HW233924   1.015   1.276   7.323 -0.1235  1.0685  2.3744
 7488SOL     OW33925   2.565   2.816   6.833  0.2565  0.3638 -0.2179
 7488SOL    HW133926   2.571   2.856   6.746 -1.2223  0.3272 -0.3437
 7488SOL    HW233927   2.593   2.727   6.811 -2.2434 -0.4170 -0.2193
 7489SOL     OW33928   4.257   4.414   3.416  0.1676  0.3918 -0.5499
 7489SOL    HW133929   4.327   4.355   3.388  0.6801  2.0638 -2.7616
 7489SOL    HW233930   4.209   4.422   3.333  0.9457 -1.4859 -1.1718
 7490SOL     OW33931   2.465   3.218   8.749 -0.4229 -0.1032  0.0548
 7490SOL    HW133932   2.370   3.206   8.745 -0.3019 -0.3365 -2.0440
 7490SOL    HW233933   2.484   3.231   8.842 -0.1945 -0.7105  0.0954
 7491SOL     OW33934   0.089   0.127  15.483  0.0194  0.4706 -0.4281
 7491SOL    HW133935   0.013   0.162  15.437 -1.1239 -2.7278 -0.9036
 7491SOL    HW233936   0.095   0.037  15.452 -2.5637 -0.0280  0.5914
 7492SOL     OW33937   3.475   0.527  11.441  0.2347 -0.4455 -0.6661
 7492SOL    HW133938   3.429   0.578  11.375 -0.2444 -3.1134 -2.4265
 7492SOL    HW233939   3.556   0.513  11.391 -0.7784 -1.1560 -2.1045
 7493SOL     OW33940   3.441   1.349   7.562 -0.2105  0.4973 -0.3158
 7493SOL    HW133941   3.502   1.285   7.526 -1.0779 -0.3881 -0.2309
 7493SOL    HW233942   3.352   1.313   7.556  0.1835 -0.6195  0.6676
 7494SOL     OW33943   4.676   4.116   7.396  0.4002  0.1295 -0.7487
 7494SOL    HW133944   0.023   4.141   7.338  0.6057 -0.6591 -0.8244
 7494SOL    HW233945   0.001   4.065   7.459  3.6674  1.1866 -2.4887
 7495SOL     OW33946   0.822   1.591   8.882 -0.3725 -0.2895  0.3315
 7495SOL    HW133947   0.839   1.585   8.976  0.7433 -3.1172 -0.0569
 7495SOL    HW233948   0.852   1.681   8.868  1.5222 -0.7313  1.5260
 7496SOL     OW33949   2.754   0.010  12.269  0.1387 -0.3816  0.5874
 7496SOL    HW133950   2.677   0.054  12.304 -0.9065 -1.7243 -0.0333
 7496SOL    HW233951   2.748   4.640  12.279 -1.0673 -0.2493  1.0704
 7497SOL     OW33952   0.572   1.082   0.502  0.2529 -0.2546 -0.4117
 7497SOL    HW133953   0.590   1.080   0.408  0.4648 -0.4396 -0.3661
 7497SOL    HW233954   0.503   1.148   0.501  0.1405 -0.3679 -0.1613
 7498SOL     OW33955   0.437   2.217   2.703  0.0172  0.4735 -0.0150
 7498SOL    HW133956   0.419   2.251   2.615  0.3005  1.5810  0.3561
 7498SOL    HW233957   0.532   2.233   2.708 -0.2003  2.4168 -1.8818
 7499SOL     OW33958   2.915   1.845   6.555  0.0124  0.1685  0.0114
 7499SOL    HW133959   2.885   1.804   6.636  2.4016  1.1400  1.3979
 7499SOL    HW233960   3.004   1.867   6.585  1.0248 -1.4321 -1.8411
 7500SOL     OW33961   1.010   1.968  11.047  0.2628 -0.0890 -0.4677
 7500SOL    HW133962   1.010   1.937  10.957  1.4979 -1.2167 -0.0821
 7500SOL    HW233963   0.934   2.026  11.048  1.0588  0.9494  0.4680
 7501SOL     OW33964   1.104   3.248   3.816 -0.0059  0.1942 -0.2367
 7501SOL    HW133965   1.045   3.184   3.856 -1.8255  1.8759 -0.2234
 7501SOL    HW233966   1.044   3.293   3.757  1.5101  1.1105 -1.0707
 7502SOL     OW33967   3.071   1.155   7.015 -0.4069 -0.3565  0.1210
 7502SOL    HW133968   3.107   1.090   7.075  0.1047 -0.3683 -0.1955
 7502SOL    HW233969   3.098   1.131   6.926  1.2824  3.0319 -0.2773
 7503SOL     OW33970   0.847   1.569   2.399  0.3642 -0.4147 -0.1254
 7503SOL    HW133971   0.802   1.487   2.422  1.3174 -0.9570 -0.1592
 7503SOL    HW233972   0.772   1.625   2.381  0.4563 -0.7957 -1.6981
 7504SOL     OW33973   4.477   4.119  13.960 -0.0425  1.4503 -0.1876
 7504SOL    HW133974   4.455   4.037  13.916 -0.6874  1.9745 -0.8371
 7504SOL    HW233975   4.500   4.101  14.052  1.5503 -1.7736 -1.2339
 7505SOL     OW33976   1.738   1.618   3.901  0.0921  0.1100  0.0683
 7505SOL    HW133977   1.797   1.544   3.914  1.3364  0.7939 -1.7285
 7505SOL    HW233978   1.793   1.689   3.936  1.0632  0.0916 -1.4556
 7506SOL     OW33979   3.309   0.589   8.088 -0.0347  0.3366  0.2233
 7506SOL    HW133980   3.227   0.624   8.053 -0.7511  1.2071  2.7653
 7506SOL    HW233981   3.293   0.494   8.091 -0.7523  0.4864  0.9463
 7507SOL     OW33982   0.843   3.677  12.342  0.2865  0.1198 -0.0555
 7507SOL    HW133983   0.858   3.709  12.253  0.3589 -2.1372 -0.8428
 7507SOL    HW233984   0.897   3.739  12.392 -0.4003  0.5948  0.1019
 7508SOL     OW33985   1.251   0.984   1.724 -0.1327 -0.1394  0.8978
 7508SOL    HW133986   1.277   1.014   1.637 -2.5239  0.5539  0.4287
 7508SOL    HW233987   1.316   1.034   1.774  0.3169  1.1070 -0.9463
 7509SOL     OW33988   0.016   0.956   1.552  0.2916  0.0532  0.1365
 7509SOL    HW133989   0.021   1.047   1.580 -1.5369 -0.1891  1.2642
 7509SOL    HW233990   0.100   0.915   1.574 -0.2732 -0.2704  1.7224
 7510SOL     OW33991   2.746   1.268   8.884  0.4338 -0.0045  0.3418
 7510SOL    HW133992   2.777   1.276   8.974 -1.9145 -1.2937  1.2754
 7510SOL    HW233993   2.652   1.254   8.896  0.4639  1.2887  1.9631
 7511SOL     OW33994   3.313   0.580  13.586  0.1649 -0.0687 -0.6376
 7511SOL    HW133995   3.359   0.648  13.636  1.7111 -2.2927  1.0010
 7511SOL    HW233996   3.337   0.618  13.502 -2.4413 -1.1107 -1.8220
 7512SOL     OW33997   0.332   2.308   1.966  0.1578 -0.1106 -0.8168
 7512SOL    HW133998   0.361   2.378   2.023 -1.1792  0.7092 -1.1564
 7512SOL    HW233999   0.241   2.327   1.943 -0.2030 -0.8949 -0.0505
 7513SOL     OW34000   4.565   3.942   7.731 -0.3674 -0.5102  0.1084
 7513SOL    HW134001   4.570   4.037   7.716 -1.6373 -0.3252  0.8313
 7513SOL    HW234002   4.470   3.932   7.743 -0.5366 -1.8216 -2.3113
 7514SOL     OW34003   3.213   3.384  14.467  0.3485  0.2268  0.0107
 7514SOL    HW134004   3.186   3.294  14.486 -0.5408  0.1401 -1.6505
 7514SOL    HW234005   3.185   3.392  14.376  0.0488  2.4972  0.3018
 7515SOL     OW34006   1.226   3.456   6.554  0.2994  0.1946  0.3541
 7515SOL    HW134007   1.252   3.506   6.632 -0.7541 -0.9070  1.4163
 7515SOL    HW234008   1.131   3.451   6.559  0.2037  2.4167  0.7544
 7516SOL     OW34009   2.807   1.445   0.932 -0.1359  0.0513 -0.3339
 7516SOL    HW134010   2.754   1.432   1.010 -2.2668 -0.0601 -1.8096
 7516SOL    HW234011   2.846   1.358   0.921 -1.1189 -0.6741  1.8839
 7517SOL     OW34012   1.974   1.537   3.715  0.2368  0.1798 -0.2785
 7517SOL    HW134013   1.986   1.465   3.652 -0.3586 -0.4710  0.3475
 7517SOL    HW234014   1.909   1.496   3.772 -0.0966 -0.2617 -0.9695
 7518SOL     OW34015   0.626   1.535   9.601  0.4233  0.4632 -0.3088
 7518SOL    HW134016   0.615   1.492   9.686  1.7818 -0.7272 -0.7314
 7518SOL    HW234017   0.642   1.465   9.538  0.5883 -0.3757  0.6615
 7519SOL     OW34018   2.471   3.739   4.522 -0.1862 -0.3140  0.1214
 7519SOL    HW134019   2.485   3.661   4.575  1.1754 -0.4931 -0.5038
 7519SOL    HW234020   2.532   3.731   4.449 -0.8349 -1.0428 -0.3395
 7520SOL     OW34021   2.520   0.119  12.402  0.0749 -0.9363 -0.2983
 7520SOL    HW134022   2.521   0.212  12.381  0.2546 -0.7862  0.3644
 7520SOL    HW234023   2.466   0.128  12.480  0.3041  1.1067 -0.3652
 7521SOL     OW34024   0.780   2.350   6.615 -0.0205 -0.0634  0.6020
 7521SOL    HW134025   0.718   2.287   6.651  1.6579 -1.9922  0.0649
 7521SOL    HW234026   0.729   2.392   6.545 -0.0483  0.6511  1.0465
 7522SOL     OW34027   1.692   0.449   1.154  0.1629  0.9737 -0.4788
 7522SOL    HW134028   1.709   0.366   1.110 -0.0391  0.2143  0.8530
 7522SOL    HW234029   1.603   0.433   1.185  0.0157 -0.9356 -1.8464
 7523SOL     OW34030   3.463   2.906   8.571  0.1240  0.2189 -0.5141
 7523SOL    HW134031   3.472   2.888   8.477 -1.3024  0.1572 -0.6370
 7523SOL    HW234032   3.556   2.920   8.586 -0.0438  1.0264 -0.2353
 7524SOL     OW34033   4.315   0.296   7.170  0.1558  0.4707 -0.2605
 7524SOL    HW134034   4.250   0.367   7.170 -0.3198  0.0365  1.2762
 7524SOL    HW234035   4.270   0.239   7.107  0.6485  1.0147 -1.0988
 7525SOL     OW34036   1.796   2.131   6.070  0.2489 -0.4233 -0.0503
 7525SOL    HW134037   1.733   2.085   6.126 -0.1485 -2.0729 -1.8591
 7525SOL    HW234038   1.741   2.208   6.055  1.3728  0.5795  0.9822
 7526SOL     OW34039   0.729   1.654   8.151  0.2686 -0.2539  0.0639
 7526SOL    HW134040   0.821   1.651   8.179  0.5190  1.3730 -0.5668
 7526SOL    HW234041   0.738   1.627   8.059 -1.6757 -3.4404  0.7980
 7527SOL     OW34042   2.644   2.967   6.599  0.5210  0.2015 -0.0926
 7527SOL    HW134043   2.708   3.023   6.644 -0.1685  1.0120 -0.1266
 7527SOL    HW234044   2.692   2.970   6.516 -1.5333  0.0953 -1.2647
 7528SOL     OW34045   2.935   2.081   1.937  0.3915 -0.1462 -0.1132
 7528SOL    HW134046   3.000   2.150   1.934  0.5241 -0.2590  0.2281
 7528SOL    HW234047   2.979   2.001   1.967  1.3097  0.9159  1.3557
 7529SOL     OW34048   2.040   0.266   8.655  0.3106  0.3127 -0.0656
 7529SOL    HW134049   1.960   0.246   8.606  0.1202  0.6586  0.1041
 7529SOL    HW234050   2.036   0.361   8.662  0.8892  0.3341  0.0013
 7530SOL     OW34051   3.364   4.326   0.455 -0.4545  0.2273  0.0694
 7530SOL    HW134052   3.417   4.405   0.460  1.5082 -1.0019 -1.1147
 7530SOL    HW234053   3.277   4.345   0.489  0.1355 -1.1354  2.3540
 7531SOL     OW34054   0.246   1.805   0.763  0.0357  0.3677 -0.4332
 7531SOL    HW134055   0.271   1.815   0.855 -2.4955 -1.8908  0.4934
 7531SOL    HW234056   0.212   1.716   0.761  0.2155  0.2570  0.9992
 7532SOL     OW34057   3.766   1.404   5.657 -0.1571  0.2337 -0.0550
 7532SOL    HW134058   3.800   1.468   5.719  1.6151 -1.5262  0.7779
 7532SOL    HW234059   3.793   1.323   5.700 -3.1658 -0.6553  0.1164
 7533SOL     OW34060   0.837   2.692   8.626 -0.3387  0.4231  0.0125
 7533SOL    HW134061   0.805   2.704   8.715 -0.8738 -0.7980 -0.0218
 7533SOL    HW234062   0.777   2.621   8.604 -0.4278  0.5910 -0.3007
 7534SOL     OW34063   1.393   3.833   4.900 -0.6983 -0.0021 -0.3363
 7534SOL    HW134064   1.418   3.742   4.917 -1.2533 -0.2947 -1.0592
 7534SOL    HW234065   1.298   3.824   4.906 -0.5402 -0.8396  1.2131
 7535SOL     OW34066   4.146   1.879   4.437 -0.0964 -0.1527  0.0826
 7535SOL    HW134067   4.237   1.878   4.408 -0.0420  0.5039  0.2384
 7535SOL    HW234068   4.100   1.811   4.388  2.0500  0.2225 -2.4452
 7536SOL     OW34069   0.648   3.425   5.408 -0.7965 -0.0104  0.0102
 7536SOL    HW134070   0.692   3.449   5.327  1.0606  1.9483  1.5988
 7536SOL    HW234071   0.569   3.478   5.402  1.3578  2.9848 -1.6643
 7537SOL     OW34072   1.317   3.862   2.425 -1.0123  0.4480  0.3253
 7537SOL    HW134073   1.305   3.833   2.334 -0.4963  1.1387  0.0358
 7537SOL    HW234074   1.408   3.892   2.428 -2.0030  3.4914 -0.2194
 7538SOL     OW34075   4.690   2.247   7.210  0.3370 -0.6650 -0.2372
 7538SOL    HW134076   0.020   2.283   7.279  1.1565  1.3622 -1.9702
 7538SOL    HW234077   0.022   2.176   7.179  0.7517 -0.5492  0.2698
 7539SOL     OW34078   3.137   2.943   2.474 -0.0948 -0.2382 -0.1165
 7539SOL    HW134079   3.091   3.026   2.468  2.1550  1.2130  2.9404
 7539SOL    HW234080   3.059   2.889   2.461  0.1516 -0.8178  0.7511
 7540SOL     OW34081   2.444   1.518   9.500  0.2886  0.3125  0.4166
 7540SOL    HW134082   2.460   1.467   9.580 -0.6131 -3.2684 -1.7061
 7540SOL    HW234083   2.486   1.601   9.522 -0.7342  0.9333  0.0415
 7541SOL     OW34084   0.958   3.779   6.901 -0.3347  0.0417  0.4573
 7541SOL    HW134085   0.924   3.704   6.852 -0.6439 -0.0385  0.7978
 7541SOL    HW234086   0.976   3.746   6.989 -1.3218  0.5225  0.8428
 7542SOL     OW34087   3.099   3.749  15.126  0.3926  0.3638  0.1432
 7542SOL    HW134088   3.009   3.723  15.109 -0.0081  0.3586  2.2369
 7542SOL    HW234089   3.089   3.841  15.103  0.5170  0.0785 -1.0297
 7543SOL     OW34090   3.709   0.830  13.635  0.1403 -0.0977  0.5474
 7543SOL    HW134091   3.729   0.770  13.563 -1.1244 -0.8237  0.7993
 7543SOL    HW234092   3.788   0.883  13.642  0.6979 -0.8480 -0.0855
 7544SOL     OW34093   1.416   1.850   1.357 -0.2813 -0.2707  0.0737
 7544SOL    HW134094   1.357   1.843   1.283 -1.2190  4.3524  0.3583
 7544SOL    HW234095   1.400   1.941   1.383  3.0252 -0.3252  2.4204
 7545SOL     OW34096   1.637   1.386   1.680 -0.0400  0.8853  0.3839
 7545SOL    HW134097   1.631   1.480   1.701 -1.0320  0.7420  0.7409
 7545SOL    HW234098   1.618   1.391   1.586 -4.1022  1.0857  1.1992
 7546SOL     OW34099   0.519   1.020   3.325 -0.2415  0.7712 -0.5019
 7546SOL    HW134100   0.441   0.996   3.374 -0.1757 -0.6272 -1.0996
 7546SOL    HW234101   0.582   1.016   3.396 -1.8031 -2.3937  0.6879
 7547SOL     OW34102   0.664   0.771  11.291  0.0231 -0.6051 -0.3705
 7547SOL    HW134103   0.726   0.834  11.328 -2.5190  2.2876 -1.0016
 7547SOL    HW234104   0.687   0.693  11.340  0.7553  0.7389  1.4299
 7548SOL     OW34105   2.179   3.274   6.168  0.5843 -0.8951  0.0405
 7548SOL    HW134106   2.208   3.184   6.152  1.0935 -1.2706  3.1368
 7548SOL    HW234107   2.256   3.317   6.204 -0.7798  1.6417 -0.0732
 7549SOL     OW34108   0.910   4.621   4.268 -1.0272 -0.1261 -0.1022
 7549SOL    HW134109   1.000   4.653   4.277 -1.0864  0.2927 -0.9598
 7549SOL    HW234110   0.867   4.705   4.254  0.0846  0.2745 -1.1402
 7550SOL     OW34111   4.377   4.197   3.318 -0.2979 -0.4005  0.3056
 7550SOL    HW134112   4.395   4.113   3.360  3.7657  0.0334 -0.5000
 7550SOL    HW234113   4.465   4.213   3.284  0.1468  0.6840  1.9393
 7551SOL     OW34114   4.179   2.925   9.271 -0.0074 -0.0411  1.0453
 7551SOL    HW134115   4.131   2.904   9.351 -1.0959 -3.0485 -0.4430
 7551SOL    HW234116   4.130   2.877   9.206 -0.5954  1.5535  0.3016
 7552SOL     OW34117   3.628   0.938   4.217 -1.0390  0.4603 -0.0838
 7552SOL    HW134118   3.646   1.007   4.153 -0.4426  0.6655  0.3079
 7552SOL    HW234119   3.712   0.896   4.236  0.1831  3.2441  0.5158
 7553SOL     OW34120   4.443   1.191   5.273  0.0856 -0.6248 -0.6181
 7553SOL    HW134121   4.486   1.110   5.298  2.0787  0.5927 -0.1143
 7553SOL    HW234122   4.410   1.221   5.357  0.3578 -0.9818 -0.3859
 7554SOL     OW34123   2.477   0.299  15.163  0.3030  0.2392 -0.3516
 7554SOL    HW134124   2.504   0.216  15.201  0.2342  0.5322  0.3367
 7554SOL    HW234125   2.390   0.263  15.148  1.2430 -2.5319  0.8556
 7555SOL     OW34126   2.852   0.036   6.566  0.8269 -0.3259 -0.9388
 7555SOL    HW134127   2.840   4.675   6.607  3.3661 -0.8331 -1.3224
 7555SOL    HW234128   2.765   0.074   6.555  0.7727 -0.0009  0.5635
 7556SOL     OW34129   3.197   4.491  17.685  0.1336 -0.4234 -0.0841
 7556SOL    HW134130   3.133   4.562  17.678 -0.4582 -0.9494 -0.1149
 7556SOL    HW234131   3.222   4.508   0.073  1.4670  1.8211 -0.8687
 7557SOL     OW34132   2.287   2.188  15.642 -0.0693  0.3397  0.3797
 7557SOL    HW134133   2.359   2.214  15.699 -0.8087  0.3941  1.2965
 7557SOL    HW234134   2.229   2.264  15.650 -0.1401  0.6452 -2.8898
 7558SOL     OW34135   0.151   0.076   0.167  0.2691 -0.1148  0.4521
 7558SOL    HW134136   0.111   4.714   0.172 -0.0048 -0.0235 -0.1401
 7558SOL    HW234137   0.197   0.080   0.083 -0.4151 -1.1910  0.0113
 7559SOL     OW34138   4.697   1.224  17.147  0.4880 -0.1588  0.1665
 7559SOL    HW134139   4.724   1.242  17.058  1.4586  1.4779  0.8064
 7559SOL    HW234140   4.634   1.292  17.170  0.8574 -0.3772  1.8116
 7560SOL     OW34141   0.155   1.993   8.951 -0.4785  0.2651  0.3652
 7560SOL    HW134142   0.221   1.927   8.933  1.2350  1.9639  0.4940
 7560SOL    HW234143   0.160   2.054   8.878 -2.5796  1.5799  1.2845
 7561SOL     OW34144   1.383   4.027   6.693  0.1472 -0.3866 -0.2259
 7561SOL    HW134145   1.315   4.011   6.759 -0.2827 -0.9876 -0.8067
 7561SOL    HW234146   1.366   4.120   6.682  1.3013 -0.0195  1.1395
 7562SOL     OW34147   1.123   0.525  13.170 -0.3041 -0.1044 -0.0083
 7562SOL    HW134148   1.195   0.507  13.230  0.0729  0.4499 -0.3075
 7562SOL    HW234149   1.162   0.584  13.106  2.7266  0.5207  2.4609
 7563SOL     OW34150   4.012   0.997   7.828 -0.5415  0.4076 -0.1223
 7563SOL    HW134151   4.031   0.938   7.754 -2.0639  0.4636 -0.5592
 7563SOL    HW234152   3.984   0.938   7.898 -1.2843  0.5392 -0.3070
 7564SOL     OW34153   2.826   3.595   6.875 -0.0882  0.5075 -0.5073
 7564SOL    HW134154   2.821   3.595   6.780  0.9662 -0.9541 -0.5800
 7564SOL    HW234155   2.907   3.644   6.890 -0.5486  1.0189  0.3246
 7565SOL     OW34156   3.188   0.923   5.689 -0.0204  0.2325  0.1931
 7565SOL    HW134157   3.175   1.005   5.736 -2.5174 -0.6927  1.1472
 7565SOL    HW234158   3.265   0.886   5.732  0.9610 -0.0823 -1.8346
 7566SOL     OW34159   0.953   3.694   5.532 -0.2199 -0.1321  0.0301
 7566SOL    HW134160   1.042   3.685   5.567  0.1000 -2.6908 -1.4969
 7566SOL    HW234161   0.910   3.615   5.563 -1.3835 -0.0880 -1.4647
 7567SOL     OW34162   3.597   0.701  12.145  0.1567 -0.3930  0.1195
 7567SOL    HW134163   3.642   0.784  12.129  1.9467 -1.4324 -0.2200
 7567SOL    HW234164   3.632   0.686  12.232 -1.7614  0.6649  1.0760
 7568SOL     OW34165   1.429   0.624   2.310 -0.2530  0.7182 -0.0355
 7568SOL    HW134166   1.437   0.550   2.370  0.9540  0.3244 -0.7060
 7568SOL    HW234167   1.411   0.584   2.226 -0.2013  0.1335  0.2342
 7569SOL     OW34168   2.449   0.734  16.984 -0.0196  0.0606 -0.1164
 7569SOL    HW134169   2.465   0.645  17.015  3.4776  0.4655 -0.6625
 7569SOL    HW234170   2.384   0.729  16.914 -1.3775  2.1894  0.9915
 7570SOL     OW34171   1.489   4.060   1.391  0.5734 -0.1014  0.2486
 7570SOL    HW134172   1.412   4.106   1.425  0.3811  0.1893 -0.5811
 7570SOL    HW234173   1.554   4.089   1.455  0.7782 -0.2442  0.1055
 7571SOL     OW34174   2.199   1.305  15.085  0.2560  0.0420  0.5714
 7571SOL    HW134175   2.177   1.214  15.102 -0.5975  0.2686  0.6516
 7571SOL    HW234176   2.192   1.331  15.178 -1.9651  0.3006  0.3201
 7572SOL     OW34177   1.899   3.916   7.248 -0.7039  0.5119  0.2576
 7572SOL    HW134178   1.868   4.002   7.278 -0.3063  0.3856  1.0283
 7572SOL    HW234179   1.993   3.924   7.265 -0.8841  2.3826  0.4701
 7573SOL     OW34180   3.290   2.611   4.617  0.9390 -0.5822  0.1989
 7573SOL    HW134181   3.319   2.634   4.529  0.3800  0.1811  0.2102
 7573SOL    HW234182   3.341   2.533   4.637  1.3887  0.1963  2.1090
 7574SOL     OW34183   1.843   3.808   8.119 -0.7889  0.2819 -0.3385
 7574SOL    HW134184   1.896   3.729   8.128 -3.0150 -1.0633  0.9661
 7574SOL    HW234185   1.874   3.867   8.188 -2.3515 -0.5744  1.0846
 7575SOL     OW34186   2.763   0.608  17.545 -0.6176 -0.1311  0.0470
 7575SOL    HW134187   2.721   0.675  17.599  0.8576 -0.3714  1.4715
 7575SOL    HW234188   2.760   0.534  17.605 -0.3031 -0.4891 -0.3789
 7576SOL     OW34189   0.687   4.543  11.973  0.1749  0.2923  0.5421
 7576SOL    HW134190   0.755   4.510  12.033 -2.1705  1.3422  3.7851
 7576SOL    HW234191   0.613   4.491  12.006  0.9392 -1.3147 -0.2763
 7577SOL     OW34192   4.491   0.200   9.017  0.3103 -0.1724 -0.0170
 7577SOL    HW134193   4.397   0.184   9.016  0.3814 -0.6143  0.7282
 7577SOL    HW234194   4.531   0.143   8.951  0.8594 -1.1592  1.1747
 7578SOL     OW34195   3.230   2.823  13.470  0.6045 -0.2674 -0.4883
 7578SOL    HW134196   3.292   2.817  13.542  0.9523 -0.1932 -0.7840
 7578SOL    HW234197   3.292   2.820  13.398  1.7178  1.5975  0.3931
 7579SOL     OW34198   4.000   0.332   7.533 -0.4151 -0.8359  0.0034
 7579SOL    HW134199   3.948   0.394   7.584 -0.1807  0.8475 -1.7995
 7579SOL    HW234200   4.081   0.379   7.551  0.0029 -1.7998  0.6311
 7580SOL     OW34201   4.513   1.163   8.088  0.3642  0.2027 -0.2438
 7580SOL    HW134202   4.494   1.121   8.172 -0.9948 -0.7138 -1.0069
 7580SOL    HW234203   4.550   1.093   8.035  1.6916  1.9724 -1.6411
 7581SOL     OW34204   0.660   4.707   5.790 -0.2678  0.1066 -0.0708
 7581SOL    HW134205   0.641   4.669   5.704  0.2745 -0.0134 -0.1391
 7581SOL    HW234206   0.592   4.668   5.844 -0.2709  1.4351  0.8861
 7582SOL     OW34207   2.390   3.354  11.146 -0.2939  0.4346  0.0865
 7582SOL    HW134208   2.319   3.355  11.083 -2.0259 -0.0548  2.0319
 7582SOL    HW234209   2.343   3.322  11.223  1.0066 -2.3185 -0.2714
 7583SOL     OW34210   3.821   3.135   0.616  0.0246 -0.7594 -1.0509
 7583SOL    HW134211   3.891   3.120   0.552 -0.9455 -0.4507 -2.1723
 7583SOL    HW234212   3.782   3.217   0.586 -0.8079  0.1616  2.5555
 7584SOL     OW34213   2.943   2.058  11.164 -0.5615  0.4814 -0.5102
 7584SOL    HW134214   2.853   2.054  11.195  0.3145 -1.9126  1.7004
 7584SOL    HW234215   2.963   2.151  11.173  1.4407 -0.0324  0.4222
 7585SOL     OW34216   2.367   1.279   6.379 -0.3735  0.5002  0.1417
 7585SOL    HW134217   2.325   1.242   6.456 -1.5853 -0.5537 -1.0238
 7585SOL    HW234218   2.296   1.308   6.321  0.3965 -0.0419 -1.0895
 7586SOL     OW34219   0.582   1.944   2.718 -0.1558  0.1447 -0.0864
 7586SOL    HW134220   0.622   1.859   2.738 -0.9916 -0.4378 -0.8950
 7586SOL    HW234221   0.632   1.998   2.779  0.6008  0.1030 -0.6741
 7587SOL     OW34222   4.627   0.794  15.910 -0.7253  0.8860 -0.2687
 7587SOL    HW134223   4.693   0.861  15.928  1.0295 -0.7592 -0.5834
 7587SOL    HW234224   4.644   0.742  15.988 -2.0578  1.0153  0.1157
 7588SOL     OW34225   0.370   0.500   5.673  0.3101  0.0847 -0.4608
 7588SOL    HW134226   0.295   0.449   5.642  0.2172 -0.9904  1.4780
 7588SOL    HW234227   0.341   0.588   5.651  2.2189  0.0100 -3.1091
 7589SOL     OW34228   2.240   4.542   4.527 -0.0945  0.2758 -0.0954
 7589SOL    HW134229   2.183   4.585   4.463  0.3527  3.1407  1.4594
 7589SOL    HW234230   2.304   4.495   4.473  0.0745 -1.7910  1.9291
 7590SOL     OW34231   0.762   0.879   9.581 -0.0182 -0.2728 -0.5497
 7590SOL    HW134232   0.767   0.816   9.509 -1.2628  1.0043 -1.7659
 7590SOL    HW234233   0.750   0.817   9.652 -1.4704  0.9584  0.2792
 7591SOL     OW34234   0.160   4.666  17.393  0.3733  0.2848 -0.2412
 7591SOL    HW134235   0.156   4.653  17.298 -0.4879  1.8682 -0.4095
 7591SOL    HW234236   0.230   0.005  17.400 -0.4973  1.0283  1.4604
 7592SOL     OW34237   1.134   3.816   1.950 -0.3090 -0.3801 -0.4615
 7592SOL    HW134238   1.069   3.825   1.879  0.7743 -2.5658 -1.7428
 7592SOL    HW234239   1.082   3.840   2.026  0.7870 -3.1740  1.1700
 7593SOL     OW34240   3.382   1.804   2.032 -0.6408  0.0837 -0.3747
 7593SOL    HW134241   3.378   1.787   2.126 -2.4261  0.7613 -0.3358
 7593SOL    HW234242   3.474   1.827   2.014 -0.2214  0.4638  2.2307
 7594SOL     OW34243   2.526   4.451   0.682  0.0901 -0.2553 -0.4393
 7594SOL    HW134244   2.431   4.467   0.677 -0.3615 -2.5357  0.4066
 7594SOL    HW234245   2.552   4.458   0.590 -1.0573 -2.2653 -0.9240
 7595SOL     OW34246   2.847   4.155  10.750  0.5163 -0.0861 -0.7414
 7595SOL    HW134247   2.852   4.109  10.834 -1.4752 -0.0193 -0.5791
 7595SOL    HW234248   2.924   4.211  10.762  1.7881 -2.2708  1.3182
 7596SOL     OW34249   1.868   0.325   1.496  0.6168  0.6701  0.3521
 7596SOL    HW134250   1.812   0.389   1.541 -4.5977 -2.4761 -1.6144
 7596SOL    HW234251   1.804   0.261   1.465 -0.0212  1.4171  0.1034
 7597SOL     OW34252   1.887   3.100   5.195  0.1473  0.5426 -0.6393
 7597SOL    HW134253   1.797   3.070   5.207  1.3845 -3.1341 -0.7252
 7597SOL    HW234254   1.915   3.020   5.152 -3.4397 -1.2605  0.3876
 7598SOL     OW34255   1.572   3.951   7.667 -0.1067 -0.1267 -0.1226
 7598SOL    HW134256   1.635   4.011   7.625  1.5163 -1.2741  0.6831
 7598SOL    HW234257   1.591   3.977   7.757  0.4543 -0.5270 -0.1291
 7599SOL     OW34258   3.455   2.654   3.929 -0.5984 -0.2493 -0.0499
 7599SOL    HW134259   3.459   2.566   3.968 -0.7898 -0.5785 -0.7760
 7599SOL    HW234260   3.449   2.634   3.836 -0.2569 -1.4507  0.1816
 7600SOL     OW34261   4.109   2.718   7.527  0.4988 -0.4148 -0.1768
 7600SOL    HW134262   4.062   2.801   7.535 -0.3130 -1.0278  1.4734
 7600SOL    HW234263   4.190   2.747   7.570  0.2584 -1.1347  0.7662
 7601SOL     OW34264   1.287   1.624   0.992 -0.1458  0.1913  0.3953
 7601SOL    HW134265   1.298   1.529   0.991 -1.7944 -0.0185  1.4218
 7601SOL    HW234266   1.371   1.664   1.015 -0.2383  0.2408  0.6467
 7602SOL     OW34267   2.901   2.966   0.952 -0.1997 -0.1873  0.3455
 7602SOL    HW134268   2.824   3.015   0.978 -0.6752 -1.4817  1.3364
 7602SOL    HW234269   2.926   3.019   0.875  0.0650 -1.4585 -0.4490
 7603SOL     OW34270   3.492   2.434  16.159  0.2227  0.5465 -0.2024
 7603SOL    HW134271   3.499   2.403  16.250 -0.6531  0.5535 -0.1352
 7603SOL    HW234272   3.410   2.482  16.153  0.1850  0.5325  0.2017
 7604SOL     OW34273   0.053   2.683  11.990  0.4008 -0.3094  0.0243
 7604SOL    HW134274   4.721   2.692  12.066  0.6523 -0.7003  0.2558
 7604SOL    HW234275   0.080   2.774  11.983  1.2118 -0.5158  0.5767
 7605SOL     OW34276   3.564   4.200   3.678  0.5695 -0.6175 -0.1283
 7605SOL    HW134277   3.556   4.144   3.756  1.6315 -0.7178 -0.0967
 7605SOL    HW234278   3.577   4.283   3.724 -2.0529 -0.1768 -0.1464
 7606SOL     OW34279   2.280   4.446   2.763  0.1215  0.3280  1.1680
 7606SOL    HW134280   2.371   4.423   2.743 -0.1712  0.2354 -0.0524
 7606SOL    HW234281   2.234   4.413   2.686  0.1273 -1.0691  1.7582
 7607SOL     OW34282   0.663   4.081   1.699  0.0688  0.6470  0.3007
 7607SOL    HW134283   0.736   4.087   1.637 -2.3384  0.6703 -2.5081
 7607SOL    HW234284   0.706   4.057   1.782 -0.1042  1.1657  0.5382
 7608SOL     OW34285   0.167   4.182   8.130  0.0208 -0.0102 -0.2720
 7608SOL    HW134286   0.239   4.148   8.183  0.9028  0.4365 -1.1880
 7608SOL    HW234287   0.086   4.158   8.175  0.5019  0.8030  1.0131
 7609SOL     OW34288   4.047   0.751   7.285 -0.0225 -0.1264  0.3349
 7609SOL    HW134289   3.959   0.717   7.273  0.0626 -0.1159 -0.3019
 7609SOL    HW234290   4.040   0.846   7.290 -2.7527 -0.3106 -0.0633
 7610SOL     OW34291   1.741   1.601  15.904 -0.2130  0.2860 -0.1449
 7610SOL    HW134292   1.834   1.584  15.921 -0.4883 -1.7396 -0.7595
 7610SOL    HW234293   1.742   1.612  15.809  0.8585 -0.9649 -0.2793
 7611SOL     OW34294   0.077   3.310   4.904  0.0914 -0.0142  0.2181
 7611SOL    HW134295   4.725   3.261   4.875 -1.4716  2.4029  0.3039
 7611SOL    HW234296   0.052   3.395   4.866  1.1030 -0.6453 -1.8547
 7612SOL     OW34297   3.550   2.428   7.401  0.4993  0.2640  0.1171
 7612SOL    HW134298   3.471   2.396   7.446 -0.2844 -1.4883 -2.5406
 7612SOL    HW234299   3.608   2.354   7.412  1.1820  1.2111  3.0035
 7613SOL     OW34300   0.883   1.976   9.699 -0.1637 -0.1291  0.8315
 7613SOL    HW134301   0.970   1.961   9.735  0.0565  0.9772  0.7424
 7613SOL    HW234302   0.842   1.894   9.730 -2.3899  1.0279  0.9752
 7614SOL     OW34303   4.376   2.762   9.428 -0.3951 -0.0885 -0.0687
 7614SOL    HW134304   4.315   2.697   9.393  1.7892 -0.7298 -2.6606
 7614SOL    HW234305   4.346   2.840   9.382  2.6133 -0.2062 -2.2274
 7615SOL     OW34306   2.621   2.016   1.440  0.5766  0.0577  0.1573
 7615SOL    HW134307   2.597   2.009   1.348  0.0509 -2.5564  0.4691
 7615SOL    HW234308   2.685   1.945   1.446 -1.2540 -1.5099  1.0418
 7616SOL     OW34309   0.649   1.094   4.971  0.4568 -0.1372 -0.0707
 7616SOL    HW134310   0.665   1.117   5.062 -1.5330  1.1342 -0.0473
 7616SOL    HW234311   0.722   1.033   4.960  0.2409 -0.1089 -1.6331
 7617SOL     OW34312   3.079   3.883   7.138 -0.1605 -0.0209  0.2136
 7617SOL    HW134313   3.070   3.833   7.057  0.2780  0.4473 -0.1237
 7617SOL    HW234314   3.052   3.821   7.206 -0.3562 -0.3664 -0.1776
 7618SOL     OW34315   0.431   4.141  16.643  0.1804 -0.3261 -0.6513
 7618SOL    HW134316   0.354   4.198  16.652  0.3902 -0.1468 -0.0085
 7618SOL    HW234317   0.493   4.199  16.598 -0.8895  0.3695 -1.2183
 7619SOL     OW34318   4.074   0.394  15.902  0.1424 -0.2382  0.6357
 7619SOL    HW134319   4.119   0.431  15.978  0.0552  0.8499  0.1505
 7619SOL    HW234320   3.999   0.349  15.942  0.6530 -1.3429  0.3506
 7620SOL     OW34321   2.364   2.427   3.493  0.2442  0.1077  0.3227
 7620SOL    HW134322   2.360   2.425   3.589  3.0213  0.0304  0.4368
 7620SOL    HW234323   2.416   2.349   3.472  1.2090  1.0044 -0.6262
 7621SOL     OW34324   4.171   2.522  16.343  0.1895  0.0754  0.1579
 7621SOL    HW134325   4.076   2.522  16.337  0.1277  2.7602  1.2425
 7621SOL    HW234326   4.188   2.455  16.409 -0.0956 -1.1033 -0.9646
 7622SOL     OW34327   3.633   3.232   4.562 -0.2720  0.2944 -0.1475
 7622SOL    HW134328   3.701   3.281   4.608  0.8354 -0.7799 -0.6468
 7622SOL    HW234329   3.654   3.255   4.471  1.1431 -0.9592 -0.1309
 7623SOL     OW34330   0.226   1.312  15.752 -0.6878 -0.1495  0.0277
 7623SOL    HW134331   0.181   1.385  15.710  1.0910 -0.2442 -2.0449
 7623SOL    HW234332   0.160   1.246  15.732  2.2046 -3.4339  1.3678
 7624SOL     OW34333   1.995   3.532  13.719  0.0583  0.0750  0.0070
 7624SOL    HW134334   2.010   3.438  13.718  1.8229  0.3476  1.2539
 7624SOL    HW234335   1.965   3.540  13.629  0.8318  1.0409 -0.1564
 7625SOL     OW34336   0.775   4.141  10.633  0.2937 -0.5400  0.0222
 7625SOL    HW134337   0.819   4.160  10.550 -0.7636 -0.5733 -0.5476
 7625SOL    HW234338   0.688   4.163  10.598  0.5143  0.8349  0.3682
 7626SOL     OW34339   3.938   1.359   6.530 -0.0272  0.2769  0.2838
 7626SOL    HW134340   4.005   1.302   6.570 -1.3710 -0.7512  1.0764
 7626SOL    HW234341   3.995   1.406   6.469  1.3610  1.0644  2.1721
 7627SOL     OW34342   1.008   4.610  15.912  0.1254 -0.0136  0.4382
 7627SOL    HW134343   1.092   4.654  15.923  0.0646  0.2207 -0.0545
 7627SOL    HW234344   0.948   4.666  15.961 -0.6614 -0.3072 -0.1940
 7628SOL     OW34345   1.045   0.670   6.631  0.1948 -0.3899  0.0935
 7628SOL    HW134346   1.085   0.726   6.564  0.0137 -0.4401 -0.0577
 7628SOL    HW234347   0.958   0.660   6.594 -0.3445  0.0043  1.2891
 7629SOL     OW34348   2.970   3.421   2.777  0.0603  0.1684 -0.7987
 7629SOL    HW134349   3.000   3.488   2.716 -0.2946 -1.1759 -2.4389
 7629SOL    HW234350   2.897   3.383   2.728  1.1670 -0.6073 -1.8369
 7630SOL     OW34351   4.568   0.858   4.313  0.0159  0.5097  0.4904
 7630SOL    HW134352   4.490   0.814   4.347  0.4080 -0.3249  0.3033
 7630SOL    HW234353   4.569   0.820   4.225 -2.9872 -1.1562  1.1619
 7631SOL     OW34354   1.562   4.024   5.771  0.1926  0.3207 -0.1840
 7631SOL    HW134355   1.610   4.060   5.846 -1.4016 -1.9341  1.9264
 7631SOL    HW234356   1.554   4.094   5.706 -0.3221  0.3637 -0.0771
 7632SOL     OW34357   4.398   4.431   3.845 -1.0807 -0.5872  0.2487
 7632SOL    HW134358   4.405   4.526   3.855 -2.1717 -0.4039 -0.7404
 7632SOL    HW234359   4.481   4.407   3.805 -1.4024  0.3321 -0.9448
 7633SOL     OW34360   0.505   2.938   8.513  0.1665 -0.1111 -0.3090
 7633SOL    HW134361   0.573   2.981   8.564  0.9735 -1.0046 -0.6460
 7633SOL    HW234362   0.444   2.915   8.583 -0.0203  0.5893 -0.2446
 7634SOL     OW34363   0.759   1.735   9.811  0.0362 -0.2328  0.7567
 7634SOL    HW134364   0.678   1.686   9.825 -1.0669  1.5387  0.5944
 7634SOL    HW234365   0.815   1.694   9.876 -0.1973 -0.2647  0.9356
 7635SOL     OW34366   4.049   2.176   2.911  0.2245 -0.5571 -0.0978
 7635SOL    HW134367   4.004   2.255   2.881 -2.1795 -1.9037 -0.0123
 7635SOL    HW234368   4.082   2.161   2.822  0.4632 -1.2636  0.1071
 7636SOL     OW34369   2.594   2.224   4.856 -0.2342  0.7978  0.3246
 7636SOL    HW134370   2.647   2.244   4.779  0.4947  1.5662  1.0264
 7636SOL    HW234371   2.509   2.214   4.813 -0.0682 -2.7942  0.7990
 7637SOL     OW34372   2.938   3.167   2.476  0.1590  1.0715 -0.9486
 7637SOL    HW134373   2.889   3.141   2.398 -0.8466 -0.1876  0.1065
 7637SOL    HW234374   2.867   3.223   2.507 -0.9187 -0.7430 -0.1720
 7638SOL     OW34375   2.730   1.992   3.610 -0.2979 -0.2308 -0.1956
 7638SOL    HW134376   2.709   1.987   3.517 -0.4297  1.0615 -0.2436
 7638SOL    HW234377   2.645   2.010   3.648  1.2734  2.0663  2.2566
 7639SOL     OW34378   4.696   0.370  16.999  0.3472 -0.2056  0.2660
 7639SOL    HW134379   4.681   0.385  16.906  1.8873  0.3030  0.1082
 7639SOL    HW234380   4.723   0.459  17.022 -1.0776  0.3563 -0.2401
 7640SOL     OW34381   2.591   0.701   3.715  0.3861 -0.7870  0.3342
 7640SOL    HW134382   2.628   0.649   3.786  1.0477 -0.8458 -0.0543
 7640SOL    HW234383   2.669   0.712   3.661 -0.7880 -0.5179 -1.3049
 7641SOL     OW34384   4.103   2.190   1.767 -1.1048 -0.2271 -0.1738
 7641SOL    HW134385   4.060   2.273   1.746 -1.3452 -0.7036 -1.5946
 7641SOL    HW234386   4.161   2.180   1.691  2.0570  0.5939  2.1200
 7642SOL     OW34387   2.036   4.416   4.613  0.1314 -0.6001  0.3880
 7642SOL    HW134388   2.108   4.479   4.608 -0.6567  0.2075 -0.7725
 7642SOL    HW234389   2.039   4.378   4.525 -2.3988 -0.6161  0.3146
 7643SOL     OW34390   3.743   3.279  12.623 -0.1856 -0.3811  0.0303
 7643SOL    HW134391   3.811   3.341  12.649 -0.6172 -1.1945  3.1198
 7643SOL    HW234392   3.672   3.342  12.609  0.4912 -0.0907 -1.9773
 7644SOL     OW34393   4.302   1.172   4.030  0.2936 -0.0465 -0.0803
 7644SOL    HW134394   4.239   1.117   4.077 -0.2796  1.2166  0.6478
 7644SOL    HW234395   4.254   1.209   3.955  0.6790 -1.2865 -0.9351
 7645SOL     OW34396   2.930   2.035   8.933  0.0114 -0.1550  0.3272
 7645SOL    HW134397   2.851   2.088   8.945 -0.7733 -0.9561 -1.2298
 7645SOL    HW234398   2.898   1.945   8.937  0.1747 -0.2748 -0.9309
 7646SOL     OW34399   3.235   2.661   6.255  0.6848 -0.2855 -0.4780
 7646SOL    HW134400   3.152   2.677   6.299 -0.3554 -0.1013 -2.4854
 7646SOL    HW234401   3.266   2.575   6.281 -1.3395 -1.4091 -1.7637
 7647SOL     OW34402   4.326   0.177   1.665  0.2803 -0.0608 -0.1688
 7647SOL    HW134403   4.332   0.255   1.720  2.2949 -0.0964 -0.3398
 7647SOL    HW234404   4.420   0.160   1.663  0.5305  1.1306  1.0215
 7648SOL     OW34405   1.219   3.099   5.548  0.4767  0.1156  0.1293
 7648SOL    HW134406   1.125   3.113   5.560  0.4379  0.6623 -0.8311
 7648SOL    HW234407   1.228   3.004   5.552  0.2916  0.0465 -1.1646
 7649SOL     OW34408   3.189   1.738   9.205 -0.3519 -0.6038 -0.1337
 7649SOL    HW134409   3.227   1.737   9.117  2.7890 -0.2202  1.2211
 7649SOL    HW234410   3.205   1.828   9.231 -1.6020 -1.0120  2.1331
 7650SOL     OW34411   0.152   0.962   5.846  0.1524 -0.2017  0.7072
 7650SOL    HW134412   0.224   0.941   5.786 -1.5507 -1.3233 -0.9251
 7650SOL    HW234413   0.117   1.035   5.795  0.0256 -2.4284 -2.3838
 7651SOL     OW34414   3.955   2.037   5.314 -0.1793  0.0811 -0.3455
 7651SOL    HW134415   3.982   2.068   5.228 -2.0790  0.2253 -0.8892
 7651SOL    HW234416   3.860   2.047   5.308 -0.4798 -0.4295  3.2884
 7652SOL     OW34417   3.340   3.505   2.342  0.2421 -0.4669 -0.1461
 7652SOL    HW134418   3.262   3.450   2.352 -1.1591  1.7201  0.9571
 7652SOL    HW234419   3.393   3.469   2.413  0.6824  2.3611  0.9579
 7653SOL     OW34420   4.579   4.125  15.177 -0.2053 -0.0043  0.8732
 7653SOL    HW134421   4.607   4.216  15.186 -1.3541  0.4899 -0.4912
 7653SOL    HW234422   4.544   4.104  15.264  0.2092 -0.6250  0.8899
 7654SOL     OW34423   2.620   0.002  15.855  0.1599 -0.0187 -0.1299
 7654SOL    HW134424   2.661   4.648  15.888  1.5759  0.7335 -0.0894
 7654SOL    HW234425   2.648   0.019  15.765 -1.7098  2.3095 -0.2767
 7655SOL     OW34426   1.066   2.108   8.337  0.1824  0.4686  0.7343
 7655SOL    HW134427   1.086   2.192   8.295  0.8978  1.6119  3.3584
 7655SOL    HW234428   1.153   2.069   8.331 -1.3604 -2.7518 -0.5761
 7656SOL     OW34429   4.132   0.515   8.520 -0.7959  0.1298  0.1820
 7656SOL    HW134430   4.088   0.461   8.454  1.5523 -1.2112 -0.2965
 7656SOL    HW234431   4.151   0.592   8.467 -1.3324 -0.1709 -0.4542
 7657SOL     OW34432   2.097   3.300  13.661 -0.0715 -0.0076 -0.1379
 7657SOL    HW134433   2.122   3.229  13.720 -0.9719 -0.7403 -0.6574
 7657SOL    HW234434   2.032   3.254  13.609  0.0349 -0.9295  0.5378
 7658SOL     OW34435   3.686   2.532   9.215 -0.2296  0.1551  0.0670
 7658SOL    HW134436   3.591   2.543   9.211 -0.4556 -1.5475  0.8116
 7658SOL    HW234437   3.723   2.616   9.187 -0.1340  0.4591  1.1215
 7659SOL     OW34438   1.452   2.922   5.481  0.3823  0.1060  0.0112
 7659SOL    HW134439   1.506   2.911   5.402 -1.4996  0.9327 -1.4020
 7659SOL    HW234440   1.438   3.017   5.474  0.8425  0.0153 -2.1357
 7660SOL     OW34441   0.752   3.945  10.967  0.6146  0.1924  0.2901
 7660SOL    HW134442   0.730   3.910  11.053 -0.6430 -1.3438 -0.6479
 7660SOL    HW234443   0.689   3.899  10.911  2.1052  1.0312 -2.0754
 7661SOL     OW34444   4.622   2.457   3.064  0.1761 -0.0025 -0.5111
 7661SOL    HW134445   4.654   2.498   3.144  0.1776 -0.3896 -0.3154
 7661SOL    HW234446   4.695   2.396   3.051 -0.3458 -0.7484  0.0589
 7662SOL     OW34447   4.022   0.501  12.346  0.5797 -0.1653  0.1074
 7662SOL    HW134448   3.935   0.460  12.346 -0.2000  1.4738 -0.8797
 7662SOL    HW234449   4.059   0.456  12.270  1.6668  2.9828 -1.2302
 7663SOL     OW34450   3.491   3.832   1.850 -0.0229 -0.1968 -0.2211
 7663SOL    HW134451   3.409   3.875   1.872 -0.0174  0.9305 -2.4865
 7663SOL    HW234452   3.558   3.899   1.862 -1.3974  1.0019  0.6312
 7664SOL     OW34453   2.857   2.958   6.994 -0.2387  0.0652 -0.4952
 7664SOL    HW134454   2.941   3.004   6.999  0.2722 -0.8608 -0.7329
 7664SOL    HW234455   2.823   3.005   6.917 -1.0321 -1.8152 -1.2833
 7665SOL     OW34456   0.419   4.686   6.556  0.1209  0.5882  0.2927
 7665SOL    HW134457   0.359   0.024   6.516 -1.3758 -0.0521  1.5138
 7665SOL    HW234458   0.361   4.658   6.627 -1.2152 -1.4439 -1.5730
 7666SOL     OW34459   2.996   1.701   2.282  0.0151 -0.1853 -0.1860
 7666SOL    HW134460   3.001   1.658   2.368 -2.9304 -1.1916 -0.4886
 7666SOL    HW234461   2.935   1.640   2.239 -0.5612  0.9779 -1.0211
 7667SOL     OW34462   3.120   2.219   5.516  0.4638 -0.0660  0.1695
 7667SOL    HW134463   3.203   2.183   5.548  0.5169  0.2084  0.3454
 7667SOL    HW234464   3.098   2.271   5.593 -0.7990  2.2265 -1.7561
 7668SOL     OW34465   4.120   2.940   9.628  0.6391 -0.2871 -0.4617
 7668SOL    HW134466   4.085   2.994   9.698  0.0782  0.7937 -1.5876
 7668SOL    HW234467   4.197   2.903   9.673 -1.0347 -0.7685  2.0051
 7669SOL     OW34468   3.649   2.151   7.463 -0.4330  0.2853  0.0475
 7669SOL    HW134469   3.732   2.106   7.446 -0.7088  0.8075 -2.6973
 7669SOL    HW234470   3.596   2.074   7.483 -0.3771  0.0554 -0.6596
 7670SOL     OW34471   3.194   0.778   5.986  0.0926 -0.0128 -0.1755
 7670SOL    HW134472   3.115   0.730   6.011 -0.3068 -1.2233 -3.8412
 7670SOL    HW234473   3.172   0.856   6.038  2.3425 -0.0892  0.8695
 7671SOL     OW34474   1.293   2.428   2.871  0.3213  0.1024  0.3087
 7671SOL    HW134475   1.282   2.343   2.914 -0.3788  0.3815  0.6936
 7671SOL    HW234476   1.372   2.415   2.820  0.0568 -0.4173  0.0369
 7672SOL     OW34477   1.544   3.212   5.914 -0.3152  0.8363  0.4455
 7672SOL    HW134478   1.508   3.296   5.942  1.0744  2.3249 -2.3330
 7672SOL    HW234479   1.514   3.159   5.988  2.3133 -1.4447 -0.1238
 7673SOL     OW34480   4.300   0.965   3.000 -0.1018  0.0236 -0.1500
 7673SOL    HW134481   4.244   0.940   3.073 -1.1643 -0.7438 -1.2345
 7673SOL    HW234482   4.334   1.047   3.036  2.1071 -0.8421 -0.2304
 7674SOL     OW34483   0.738   1.006   5.739 -0.4094  0.5613  0.0008
 7674SOL    HW134484   0.821   0.959   5.733 -0.7807  0.1062 -1.7548
 7674SOL    HW234485   0.692   0.925   5.761  1.4897 -0.3412  0.6746
 7675SOL     OW34486   2.408   1.196   7.419  0.6823  0.1447 -0.0287
 7675SOL    HW134487   2.434   1.104   7.413 -1.4553 -0.4025 -1.2548
 7675SOL    HW234488   2.349   1.201   7.343 -0.2814 -1.2171  0.6271
 7676SOL     OW34489   2.845   2.107   8.352  0.3032  0.1062  0.0412
 7676SOL    HW134490   2.926   2.101   8.301  0.7774  1.2272  0.6564
 7676SOL    HW234491   2.796   2.040   8.303  0.2757 -1.6111  2.4056
 7677SOL     OW34492   0.506   0.639   9.506  0.1329  0.6019 -0.2598
 7677SOL    HW134493   0.539   0.653   9.594 -1.6192  0.5062  0.4137
 7677SOL    HW234494   0.585   0.621   9.455 -0.5987  3.8446 -2.5537
 7678SOL     OW34495   0.584   0.575   1.212  0.1414  0.1215 -0.4056
 7678SOL    HW134496   0.489   0.589   1.213  0.1213 -0.1416  1.5058
 7678SOL    HW234497   0.614   0.665   1.221 -1.7038  0.6792  0.3003
 7679SOL     OW34498   2.796   2.777  13.625  0.1039 -0.0953 -0.1114
 7679SOL    HW134499   2.775   2.810  13.537  0.1687  2.3533  0.7734
 7679SOL    HW234500   2.882   2.740  13.607  0.6523  0.9841  0.3350
 7680SOL     OW34501   3.273   1.944   9.914  0.0243 -0.9033  0.4954
 7680SOL    HW134502   3.301   2.009   9.850 -1.3061 -0.0801  0.7525
 7680SOL    HW234503   3.179   1.951   9.903  0.1032 -1.0723 -0.2359
 7681SOL     OW34504   1.943   3.572  13.474  0.7536 -0.0820  0.0584
 7681SOL    HW134505   1.978   3.566  13.385 -2.0862 -2.5298 -0.8837
 7681SOL    HW234506   1.902   3.658  13.473  0.6494 -0.1605 -1.6108
 7682SOL     OW34507   1.249   1.244   4.353 -0.0488 -0.3280 -0.8183
 7682SOL    HW134508   1.334   1.200   4.348  1.5450  2.5806  0.7273
 7682SOL    HW234509   1.264   1.291   4.270  1.7171  1.5379  0.5615
 7683SOL     OW34510   1.247   4.437  16.934 -0.6628 -0.1918 -0.3457
 7683SOL    HW134511   1.193   4.513  16.912 -1.5320 -0.5142  0.6846
 7683SOL    HW234512   1.244   4.421  17.028 -1.3057  2.4265  0.0991
 7684SOL     OW34513   2.752   2.863  13.883  0.3127 -0.1659  0.4265
 7684SOL    HW134514   2.662   2.877  13.911  0.3420  1.2950 -0.2037
 7684SOL    HW234515   2.747   2.821  13.797  2.2114  0.6569 -0.0840
 7685SOL     OW34516   3.047   0.467   1.845  0.5902  0.3180 -0.4493
 7685SOL    HW134517   3.006   0.444   1.762  1.2610  3.6969 -1.7232
 7685SOL    HW234518   3.069   0.379   1.875  0.4117  0.6473  0.6458
 7686SOL     OW34519   0.915   2.580  12.609  0.0186  0.0687 -0.3422
 7686SOL    HW134520   0.967   2.562  12.687  1.2630 -1.2715 -1.4836
 7686SOL    HW234521   0.950   2.516  12.547 -2.1781 -2.4802  1.1011
 7687SOL     OW34522   3.105   0.303   0.495  0.3615 -0.2811 -0.0801
 7687SOL    HW134523   3.189   0.280   0.535 -0.5325 -2.2778  0.6557
 7687SOL    HW234524   3.052   0.316   0.573  2.7413  2.1425  1.1271
 7688SOL     OW34525   4.381   3.920   7.489  0.0397 -0.2262  0.9328
 7688SOL    HW134526   4.373   3.960   7.575  0.3590  1.6324  0.1102
 7688SOL    HW234527   4.331   3.839   7.502  2.0129 -1.7346 -0.8389
 7689SOL     OW34528   1.422   2.953   4.522 -0.1723 -0.5402 -0.3699
 7689SOL    HW134529   1.360   2.900   4.471  1.8010 -2.0940 -1.1819
 7689SOL    HW234530   1.507   2.933   4.484 -0.5505 -0.5883 -1.1868
 7690SOL     OW34531   2.266   3.106   4.493 -0.0224  0.5166 -0.1351
 7690SOL    HW134532   2.195   3.049   4.525  0.2427  0.6280  0.6600
 7690SOL    HW234533   2.307   3.130   4.576  2.1901 -0.1019 -1.0412
 7691SOL     OW34534   1.453   0.850   0.550  0.8413 -0.0501  0.0667
 7691SOL    HW134535   1.532   0.895   0.581  1.7292 -1.2690 -0.4330
 7691SOL    HW234536   1.395   0.924   0.536  0.4753  0.0534  2.0491
 7692SOL     OW34537   3.573   2.670   4.791 -0.2544 -0.3313  0.6754
 7692SOL    HW134538   3.641   2.732   4.763 -1.4162  0.5729 -0.1386
 7692SOL    HW234539   3.514   2.723   4.844 -1.4203 -1.2279  0.2806
 7693SOL     OW34540   3.708   4.463  14.055  0.3037  0.3731 -0.2410
 7693SOL    HW134541   3.747   4.544  14.089  2.2875 -0.3021 -0.9508
 7693SOL    HW234542   3.740   4.392  14.111 -2.2687 -0.8283 -0.3207
 7694SOL     OW34543   2.485   4.241  16.047 -0.2211  0.5003  0.4138
 7694SOL    HW134544   2.513   4.325  16.085  0.3544  0.6818 -0.3973
 7694SOL    HW234545   2.569   4.203  16.020  0.4023  2.8438 -0.9680
 7695SOL     OW34546   3.497   2.930   4.465 -0.1789 -0.5345 -0.2302
 7695SOL    HW134547   3.480   2.994   4.396  0.3279  0.3464  0.4674
 7695SOL    HW234548   3.469   2.975   4.544  3.0680  1.8450 -0.4363
 7696SOL     OW34549   1.032   0.412  13.695  0.6159 -1.1203  0.5011
 7696SOL    HW134550   1.108   0.465  13.674  0.2641 -1.2537 -1.1350
 7696SOL    HW234551   0.963   0.479  13.690  0.5462 -1.2515 -0.3378
 7697SOL     OW34552   4.352   1.262   7.236 -0.2069  0.3494  0.0747
 7697SOL    HW134553   4.361   1.168   7.252 -2.7801 -0.1584 -1.5125
 7697SOL    HW234554   4.381   1.305   7.316  0.9381  0.4998 -0.4256
 7698SOL     OW34555   2.549   1.392   1.816  0.4046  0.3078 -0.2806
 7698SOL    HW134556   2.615   1.355   1.875  1.0291 -1.6638 -2.2093
 7698SOL    HW234557   2.508   1.313   1.782 -0.4573  1.3285 -1.5845
 7699SOL     OW34558   1.381   0.684   6.001  0.6553  0.0406 -0.1457
 7699SOL    HW134559   1.433   0.664   6.079  0.3330  0.3989  0.1626
 7699SOL    HW234560   1.449   0.707   5.938  0.6458 -0.7018 -0.4324
 7700SOL     OW34561   0.728   1.781  11.169  0.7765 -0.1686  0.5836
 7700SOL    HW134562   0.643   1.751  11.202  0.7831  0.4060  1.1221
 7700SOL    HW234563   0.733   1.731  11.088  0.2237  0.2856  0.2634
 7701SOL     OW34564   1.164   1.927   8.622 -0.2007 -0.0021  0.3273
 7701SOL    HW134565   1.096   1.879   8.575  0.8378 -0.8136 -0.3278
 7701SOL    HW234566   1.241   1.874   8.604 -1.3236 -1.8421  0.9295
 7702SOL     OW34567   3.883   1.481   3.561  0.2558  0.2197 -0.1861
 7702SOL    HW134568   3.944   1.470   3.487 -1.5270 -0.1363 -1.6006
 7702SOL    HW234569   3.927   1.434   3.632 -0.1493  0.6118  0.3250
 7703SOL     OW34570   3.782   2.097   3.764  0.0517 -0.8078 -0.0666
 7703SOL    HW134571   3.802   2.074   3.855  2.0593 -1.1344 -0.5902
 7703SOL    HW234572   3.788   2.013   3.717  2.8899 -1.3020  1.2110
 7704SOL     OW34573   2.321   2.743  10.633  0.1601 -0.0614  0.3059
 7704SOL    HW134574   2.414   2.731  10.654 -0.4664  0.2430  3.2324
 7704SOL    HW234575   2.318   2.836  10.609 -1.1739 -0.1047  0.3068
 7705SOL     OW34576   4.046   0.463   1.202  0.3719  0.0977 -0.0411
 7705SOL    HW134577   4.081   0.518   1.273  0.0221  1.2107 -0.7288
 7705SOL    HW234578   4.126   0.419   1.172 -0.2257 -1.1475  0.1962
 7706SOL     OW34579   2.123   3.723   2.731  0.3741  0.3195  0.9436
 7706SOL    HW134580   2.083   3.730   2.644 -0.2259  1.1522  1.2815
 7706SOL    HW234581   2.067   3.782   2.782 -0.0057  2.1455 -1.5758
 7707SOL     OW34582   4.527   1.496   2.417 -0.1491 -0.1190 -0.0344
 7707SOL    HW134583   4.573   1.423   2.377  1.0950  0.1220  0.9589
 7707SOL    HW234584   4.477   1.443   2.479  1.1061  0.2720  1.3105
 7708SOL     OW34585   1.858   3.932  10.534 -0.3499  0.2118  0.0388
 7708SOL    HW134586   1.765   3.927  10.555 -0.4799  1.9188 -0.1190
 7708SOL    HW234587   1.856   3.965  10.444  3.2191  2.1549  0.6855
 7709SOL     OW34588   0.108   2.079   4.537  0.2459  0.6420 -0.1912
 7709SOL    HW134589   0.049   2.155   4.535 -0.3875  0.2369  2.4402
 7709SOL    HW234590   0.193   2.115   4.561 -0.8563  2.6282  0.7204
 7710SOL     OW34591   0.783   0.139   4.169  0.5459 -0.1056  0.7834
 7710SOL    HW134592   0.775   0.210   4.233 -0.0542 -0.4762  1.1123
 7710SOL    HW234593   0.725   0.175   4.102  4.1613  0.1103 -2.2401
 7711SOL     OW34594   4.071   3.843   8.908  0.2457 -0.4317  0.9860
 7711SOL    HW134595   4.147   3.798   8.871 -0.8796 -1.1894 -0.4235
 7711SOL    HW234596   4.080   3.938   8.901 -1.7729 -0.3284 -0.4046
 7712SOL     OW34597   2.280   1.387   3.139  0.5705  0.7124  0.1027
 7712SOL    HW134598   2.212   1.384   3.072  0.1988 -2.0437  0.6186
 7712SOL    HW234599   2.261   1.468   3.187  0.1792  0.7925 -0.1909
 7713SOL     OW34600   3.033   4.203   1.712 -0.0189  0.3338 -0.1733
 7713SOL    HW134601   3.087   4.124   1.719 -1.9822 -0.9328  0.5019
 7713SOL    HW234602   3.098   4.270   1.688  0.5947 -1.2096 -2.7418
 7714SOL     OW34603   2.337   2.843   2.345 -0.0249  0.4062  0.2028
 7714SOL    HW134604   2.406   2.889   2.297 -2.2077  1.4550 -1.8920
 7714SOL    HW234605   2.284   2.801   2.279  0.6282  0.0262 -0.0814
 7715SOL     OW34606   2.363   1.077   8.396 -1.0316 -0.3741  0.1558
 7715SOL    HW134607   2.301   1.014   8.433 -0.5590 -1.3840 -0.7815
 7715SOL    HW234608   2.443   1.024   8.388  0.8900  2.6441 -0.7745
 7716SOL     OW34609   0.010   0.313   0.935  0.3259 -0.3755  0.5168
 7716SOL    HW134610   0.038   0.250   0.870 -2.3308 -0.5417 -0.4572
 7716SOL    HW234611   0.096   0.342   0.965  1.3974 -1.2295 -1.7603
 7717SOL     OW34612   3.457   0.308   4.692  0.2664 -0.0272  0.1920
 7717SOL    HW134613   3.489   0.374   4.752  0.9149  0.6426 -0.8768
 7717SOL    HW234614   3.509   0.330   4.615 -0.9021  1.3677 -0.1834
 7718SOL     OW34615   1.698   4.299   4.955  0.1383  0.2282  0.2128
 7718SOL    HW134616   1.623   4.240   4.949  0.2541  0.1427 -0.3707
 7718SOL    HW234617   1.689   4.330   5.045 -2.2486  1.2842 -0.3880
 7719SOL     OW34618   1.119   0.773  12.095  0.3313  0.2753 -0.2977
 7719SOL    HW134619   1.084   0.862  12.099 -1.0373 -0.2523 -0.6159
 7719SOL    HW234620   1.044   0.734  12.051  0.3553 -0.7937  0.6369
 7720SOL     OW34621   0.475   0.806   1.856  0.0604 -0.3480 -0.3796
 7720SOL    HW134622   0.514   0.830   1.940 -0.7169 -1.2158  0.2270
 7720SOL    HW234623   0.424   0.887   1.849 -0.0569 -0.5366 -1.7213
 7721SOL     OW34624   1.768   4.346  12.213 -0.6181 -0.2882  0.3562
 7721SOL    HW134625   1.785   4.305  12.298  0.3857  1.7192  1.1438
 7721SOL    HW234626   1.854   4.387  12.200 -0.2848 -1.2807 -0.5449
 7722SOL     OW34627   2.090   0.424   4.615  0.6591  1.0233 -0.0433
 7722SOL    HW134628   2.048   0.510   4.605  1.9154  1.4121 -1.9695
 7722SOL    HW234629   2.138   0.426   4.697 -0.5633 -0.2839  0.6995
 7723SOL     OW34630   3.996   1.362   4.851  0.0900 -0.0060 -0.5370
 7723SOL    HW134631   3.918   1.319   4.887 -0.8389  1.6769 -0.5222
 7723SOL    HW234632   4.062   1.327   4.910 -1.0656 -0.4295  0.5176
 7724SOL     OW34633   4.395   2.793   6.092  0.1576  0.1239 -0.1630
 7724SOL    HW134634   4.339   2.785   6.014  1.7647 -0.0118 -1.2969
 7724SOL    HW234635   4.483   2.800   6.055  0.3398  0.6207  0.3619
 7725SOL     OW34636   1.946   3.546  10.377 -0.2812  0.0038 -0.0134
 7725SOL    HW134637   1.980   3.566  10.290  1.4112  1.4360  0.9674
 7725SOL    HW234638   1.978   3.456  10.377 -1.4376 -0.4105 -1.1909
 7726SOL     OW34639   4.527   3.628   8.739 -0.1357 -0.1796  0.5298
 7726SOL    HW134640   4.509   3.534   8.737  0.2583 -0.2226 -0.9777
 7726SOL    HW234641   4.605   3.623   8.793  1.7223  0.6526 -2.0904
 7727SOL     OW34642   4.095   0.732   4.688 -0.1726  0.0131 -0.0481
 7727SOL    HW134643   4.136   0.672   4.751 -2.4659 -1.2972  0.2138
 7727SOL    HW234644   4.164   0.746   4.623 -0.1184 -1.2936 -0.2756
 7728SOL     OW34645   1.031   3.712   4.632 -0.0682  0.0853  0.6102
 7728SOL    HW134646   1.043   3.617   4.633 -3.6162 -0.3435 -0.3467
 7728SOL    HW234647   1.124   3.734   4.639  0.7457 -2.5296 -1.5220
 7729SOL     OW34648   0.852   3.325   4.772  0.4275  0.2215  0.6178
 7729SOL    HW134649   0.903   3.346   4.694  1.1296  0.3311  1.1051
 7729SOL    HW234650   0.775   3.373   4.743  0.0453 -1.8263 -1.7582
 7730SOL     OW34651   2.295   2.272   7.470 -0.6591  0.1284  0.1104
 7730SOL    HW134652   2.284   2.261   7.565 -1.3703  1.1087  0.1490
 7730SOL    HW234653   2.268   2.363   7.458 -1.1851 -0.1867 -1.0359
 7731SOL     OW34654   4.365   0.946   6.343  0.3331  0.8523  0.2932
 7731SOL    HW134655   4.380   0.946   6.437 -1.9384 -0.8506  0.6531
 7731SOL    HW234656   4.372   0.854   6.315  0.4544  1.2034 -0.8359
 7732SOL     OW34657   4.087   0.291   5.235 -0.2282 -0.0460 -0.1939
 7732SOL    HW134658   4.009   0.252   5.274 -0.3441 -0.0297 -0.4143
 7732SOL    HW234659   4.087   0.262   5.144  0.9485  0.9952 -0.5375
 7733SOL     OW34660   0.257   1.246   5.421  0.0839  1.3280 -0.3873
 7733SOL    HW134661   0.348   1.236   5.394 -0.2951  0.7948 -1.4433
 7733SOL    HW234662   0.201   1.240   5.344 -0.6916 -0.4408  0.3220
 7734SOL     OW34663   1.039   4.165   6.598 -0.4934 -0.1283 -0.0651
 7734SOL    HW134664   1.056   4.252   6.634 -2.5139  0.4037 -0.4118
 7734SOL    HW234665   1.026   4.116   6.680 -2.7510  1.2816  0.4361
 7735SOL     OW34666   4.123   1.200   6.649 -0.1620  0.9183  0.1608
 7735SOL    HW134667   4.217   1.185   6.643 -0.5279 -0.9062 -1.1037
 7735SOL    HW234668   4.071   1.120   6.638  2.3719 -0.4317 -2.1019
 7736SOL     OW34669   1.136   1.055   1.234  0.0961 -0.1236  0.2077
 7736SOL    HW134670   1.047   1.063   1.200  0.5229 -1.1244 -1.1126
 7736SOL    HW234671   1.178   1.134   1.200 -0.7249 -0.3966 -1.4307
 7737SOL     OW34672   3.440   0.940   0.787 -0.6922  0.1665 -0.4181
 7737SOL    HW134673   3.362   0.964   0.838 -1.6107  1.1416 -2.2495
 7737SOL    HW234674   3.422   0.974   0.699 -1.2360  0.2873 -0.2621
 7738SOL     OW34675   2.217   4.440   9.332  0.1695 -0.5062  0.2143
 7738SOL    HW134676   2.268   4.392   9.267  1.7827  1.7607 -0.1723
 7738SOL    HW234677   2.269   4.519   9.341 -0.2295 -0.0549 -1.3769
 7739SOL     OW34678   0.218   0.238   6.412 -0.2457 -0.3200 -0.0170
 7739SOL    HW134679   0.157   0.307   6.436 -0.4749  0.1152 -1.8615
 7739SOL    HW234680   0.168   0.199   6.340  0.1372 -0.7633 -0.0410
 7740SOL     OW34681   0.499   0.157   2.869  0.3289  1.2656 -0.2939
 7740SOL    HW134682   0.540   0.243   2.858  0.3169  1.2763 -0.2525
 7740SOL    HW234683   0.413   0.163   2.828 -0.0776 -2.9062 -0.0460
 7741SOL     OW34684   4.415   1.177  16.257  0.7056 -0.2119  0.1976
 7741SOL    HW134685   4.405   1.239  16.185  1.6229  0.7074  0.8598
 7741SOL    HW234686   4.429   1.096  16.209  0.1294  0.4891 -1.1522
 7742SOL     OW34687   0.593   3.539   9.033  0.2664  1.1166 -0.0365
 7742SOL    HW134688   0.515   3.484   9.028  1.2628 -0.4599  1.8156
 7742SOL    HW234689   0.558   3.622   9.002 -1.4315  1.5157  2.8858
 7743SOL     OW34690   3.804   1.212  12.910  0.2139  0.0197  0.4007
 7743SOL    HW134691   3.737   1.194  12.976 -0.9730 -1.3999 -1.1830
 7743SOL    HW234692   3.859   1.276  12.955  1.9517 -0.7608 -0.5843
 7744SOL     OW34693   3.955   1.173  14.663 -0.0917  0.2025  0.2678
 7744SOL    HW134694   4.021   1.173  14.732 -0.5998 -0.4223  0.7575
 7744SOL    HW234695   3.888   1.116  14.701  0.4258 -0.9167 -0.5087
 7745SOL     OW34696   3.050   4.152   8.822 -0.0301  0.0945  0.6008
 7745SOL    HW134697   2.964   4.138   8.863 -0.6568  0.7161 -0.4859
 7745SOL    HW234698   3.073   4.242   8.840 -0.6559  0.9106 -2.5441
 7746SOL     OW34699   3.542   0.452  16.574  0.2412 -0.1416 -0.0376
 7746SOL    HW134700   3.624   0.497  16.554  1.8277 -1.3993  3.4270
 7746SOL    HW234701   3.532   0.472  16.667  1.1408  1.3255 -0.2512
 7747SOL     OW34702   0.433   4.371   8.340 -0.3334 -0.2289 -0.2992
 7747SOL    HW134703   0.371   4.312   8.383 -0.1719 -0.6818 -0.6837
 7747SOL    HW234704   0.491   4.400   8.409 -0.4870  2.3524 -1.2558
 7748SOL     OW34705   3.539   1.612   7.730 -0.1265 -0.3232 -0.2629
 7748SOL    HW134706   3.494   1.537   7.691  1.7011 -1.6142  0.1209
 7748SOL    HW234707   3.492   1.676   7.677 -0.4880 -0.3393  0.0374
 7749SOL     OW34708   0.577   2.687   5.218  0.1328 -0.7954  0.7798
 7749SOL    HW134709   0.567   2.636   5.137  0.0208  0.4534  0.0035
 7749SOL    HW234710   0.498   2.741   5.212  0.9191  0.3575  0.8147
 7750SOL     OW34711   2.854   0.327   5.805 -0.2712  0.9643  0.0379
 7750SOL    HW134712   2.813   0.252   5.849 -1.1937  1.6979  0.4323
 7750SOL    HW234713   2.934   0.339   5.856  0.3413 -2.0326 -0.2280
 7751SOL     OW34714   4.680   3.199   8.430  0.1575 -0.4015  0.5220
 7751SOL    HW134715   0.041   3.203   8.470 -0.3519 -0.5017  1.6434
 7751SOL    HW234716   4.696   3.263   8.361 -2.4607 -0.8092 -0.5008
 7752SOL     OW34717   0.294   2.976  10.211 -0.0055  0.1685 -0.0014
 7752SOL    HW134718   0.363   2.998  10.149  0.7779 -0.0112  0.8146
 7752SOL    HW234719   0.333   3.013  10.290  0.6832 -0.6008  0.0138
 7753SOL     OW34720   3.962   1.758  16.437 -0.6708 -0.0717  0.0190
 7753SOL    HW134721   3.927   1.846  16.426 -0.5291  0.1916  1.6536
 7753SOL    HW234722   4.000   1.768  16.524  0.8629  0.9625 -0.7719
 7754SOL     OW34723   3.659   2.882   0.351  0.1238 -0.0455 -0.9721
 7754SOL    HW134724   3.616   2.968   0.359  1.8565  0.9126 -1.9195
 7754SOL    HW234725   3.616   2.850   0.272 -0.4355 -1.2449 -0.1778
 7755SOL     OW34726   2.992   3.033  16.810  0.1316  0.2440  0.2017
 7755SOL    HW134727   2.966   2.941  16.819 -0.4936  0.3959 -0.0820
 7755SOL    HW234728   3.025   3.056  16.723  1.3437  0.8843  0.8242
 7756SOL     OW34729   2.567   4.467  11.826  0.7288  0.1906 -1.0145
 7756SOL    HW134730   2.501   4.412  11.783  1.2451 -1.5314  0.4103
 7756SOL    HW234731   2.551   4.429  11.913  0.7328  1.7884 -0.3257
 7757SOL     OW34732   4.388   3.495  15.397 -0.2629  0.5582 -0.0369
 7757SOL    HW134733   4.315   3.526  15.344 -1.8757  0.7158  2.3049
 7757SOL    HW234734   4.414   3.580  15.433 -0.4319 -0.5483  2.6489
 7758SOL     OW34735   4.344   3.395   2.097  0.2929 -0.3831  0.0540
 7758SOL    HW134736   4.403   3.448   2.149 -0.0433  1.8026 -1.8114
 7758SOL    HW234737   4.404   3.320   2.100 -0.6980 -1.2298 -0.9288
 7759SOL     OW34738   4.192   0.585   1.408  0.3978 -0.0006 -0.5417
 7759SOL    HW134739   4.223   0.584   1.498  1.1683 -1.1645 -0.8219
 7759SOL    HW234740   4.226   0.670   1.380  1.0023 -0.1421 -0.2165
 7760SOL     OW34741   4.429   3.023   2.921  0.4019  0.0612  0.0459
 7760SOL    HW134742   4.447   3.114   2.946 -1.3128  0.7254 -1.0609
 7760SOL    HW234743   4.337   3.033   2.895  0.3838 -0.0344  0.0753
 7761SOL     OW34744   0.001   2.525  14.837 -0.0119 -0.0143 -0.4022
 7761SOL    HW134745   4.683   2.560  14.759  1.6356 -1.2724 -1.8678
 7761SOL    HW234746   0.029   2.441  14.800 -1.4109 -0.4226 -0.5528
 7762SOL     OW34747   0.513   1.697   7.832  0.3648  0.5236 -0.0773
 7762SOL    HW134748   0.421   1.723   7.841  0.3876  0.6774 -0.2774
 7762SOL    HW234749   0.537   1.743   7.752 -1.1465  0.0660 -0.7934
 7763SOL     OW34750   0.578   1.894   4.334  0.1314 -0.2694  0.3084
 7763SOL    HW134751   0.576   1.873   4.241 -4.2891  4.8012 -0.7633
 7763SOL    HW234752   0.487   1.883   4.362 -0.2018  2.4178  0.2780
 7764SOL     OW34753   2.317   1.211   3.954 -0.0142 -0.2092  0.1522
 7764SOL    HW134754   2.388   1.240   3.896  1.2402 -2.3529  0.6422
 7764SOL    HW234755   2.365   1.176   4.028  0.8706 -0.1262 -0.3790
 7765SOL     OW34756   3.769   1.321  11.651 -0.2387 -1.2521 -0.3738
 7765SOL    HW134757   3.675   1.329  11.632 -0.4316  0.7086  1.3144
 7765SOL    HW234758   3.771   1.354  11.741 -2.5749  0.0420 -0.7924
 7766SOL     OW34759   1.942   3.868   6.981 -0.6570 -0.2734  0.1147
 7766SOL    HW134760   1.913   3.777   6.981  1.0746 -0.8299  1.1765
 7766SOL    HW234761   1.925   3.886   7.073  1.3153 -0.1012  0.4513
 7767SOL     OW34762   3.387   2.120   5.556  0.3500  0.1517  0.2846
 7767SOL    HW134763   3.478   2.096   5.570  1.1902  2.7156 -0.7445
 7767SOL    HW234764   3.392   2.215   5.564 -2.3722  0.4962 -1.9845
 7768SOL     OW34765   3.218   2.309   8.076 -0.6970 -0.6057  0.6660
 7768SOL    HW134766   3.289   2.373   8.082 -0.4879 -0.7257 -0.5139
 7768SOL    HW234767   3.244   2.250   8.005  2.2037  0.3173  0.9500
 7769SOL     OW34768   1.343   1.937  10.250  0.3208 -0.5744 -0.1532
 7769SOL    HW134769   1.350   1.968  10.340  0.0623  0.8216 -0.5970
 7769SOL    HW234770   1.406   1.865  10.247  2.1008  1.0039 -0.8204
 7770SOL     OW34771   3.901   0.581   7.594 -0.3173  0.3074 -0.0666
 7770SOL    HW134772   3.831   0.642   7.568 -0.5912  0.1977  0.4227
 7770SOL    HW234773   3.858   0.552   7.674 -2.0547 -0.2421 -1.1916
 7771SOL     OW34774   3.713   1.314   8.441  0.5125 -0.0192 -0.9208
 7771SOL    HW134775   3.791   1.263   8.416  0.9494  0.4975 -0.6045
 7771SOL    HW234776   3.655   1.268   8.381 -0.8598 -2.9321  2.6055
 7772SOL     OW34777   3.782   1.622  14.824  0.1541 -0.1589 -0.6083
 7772SOL    HW134778   3.795   1.593  14.914 -1.2022 -3.3981 -1.4465
 7772SOL    HW234779   3.764   1.546  14.769 -0.0179 -0.0014 -0.7727
 7773SOL     OW34780   2.324   1.679   8.766  0.0379 -0.5140  0.3080
 7773SOL    HW134781   2.290   1.650   8.682 -0.1203  0.9246 -0.1306
 7773SOL    HW234782   2.338   1.773   8.754  1.4050 -0.6367  0.9574
 7774SOL     OW34783   0.574   3.934  12.424 -0.0019  0.5277  0.1692
 7774SOL    HW134784   0.570   3.838  12.416  0.1759  0.4759  0.7065
 7774SOL    HW234785   0.483   3.956  12.404 -0.1113  0.5666  0.7086
 7775SOL     OW34786   0.535   0.842  17.701 -0.4079 -0.1641  0.0116
 7775SOL    HW134787   0.576   0.820   0.083  2.0170 -0.8658 -1.3619
 7775SOL    HW234788   0.547   0.936   0.008  1.8169 -0.3809 -0.5908
 7776SOL     OW34789   2.845   2.025  15.123 -0.2149  0.2759 -0.6143
 7776SOL    HW134790   2.780   2.002  15.058  1.6419 -2.0281 -1.6654
 7776SOL    HW234791   2.913   2.069  15.072  0.9376 -0.3509  0.3569
 7777SOL     OW34792   4.013   3.079   7.181 -0.0267  0.1626  0.2607
 7777SOL    HW134793   4.100   3.094   7.144 -1.2078  0.5076 -2.4080
 7777SOL    HW234794   3.975   3.042   7.101  1.2720  0.0089 -0.2879
 7778SOL     OW34795   2.423   0.866   9.166  0.1167 -0.1185 -0.2831
 7778SOL    HW134796   2.328   0.858   9.174  0.5902 -4.2455  1.0589
 7778SOL    HW234797   2.426   0.956   9.135  2.4583 -0.5000 -1.2022
 7779SOL     OW34798   1.090   4.406  14.325  0.1908 -0.2531 -0.1447
 7779SOL    HW134799   1.034   4.328  14.322  1.7404 -1.3804  0.3020
 7779SOL    HW234800   1.143   4.403  14.246  0.3998 -2.3807  0.0825
 7780SOL     OW34801   0.093   0.552   8.701 -0.1054  0.8720 -0.2951
 7780SOL    HW134802   0.157   0.484   8.723  1.3934  2.1170 -0.8256
 7780SOL    HW234803   0.044   0.511   8.629  0.9910 -0.4499 -0.2894
 7781SOL     OW34804   4.520   3.436   1.729 -0.0605  0.1000  0.2286
 7781SOL    HW134805   4.500   3.529   1.721  0.3637  0.0102 -1.9189
 7781SOL    HW234806   4.433   3.397   1.723 -0.3990  0.8173  0.4786
 7782SOL     OW34807   3.664   1.900   1.990  0.0078  0.1098 -0.5413
 7782SOL    HW134808   3.708   1.878   1.908 -0.3281  0.0692 -0.7120
 7782SOL    HW234809   3.689   1.991   2.001 -2.7264  0.8273 -0.2124
 7783SOL     OW34810   3.555   3.629   8.385  0.4045 -0.4841  0.0333
 7783SOL    HW134811   3.558   3.722   8.365  1.0235 -0.2634  1.1653
 7783SOL    HW234812   3.531   3.631   8.477  0.7360  1.0381  0.0892
 7784SOL     OW34813   1.485   0.730   3.633 -0.0536 -0.1172 -0.1969
 7784SOL    HW134814   1.417   0.698   3.574  1.1724 -1.4257 -0.9033
 7784SOL    HW234815   1.441   0.813   3.649 -0.6564 -0.8910  2.1167
 7785SOL     OW34816   4.638   1.778  14.418  0.0235  0.4704  0.0571
 7785SOL    HW134817   0.006   1.798  14.421  0.2903 -0.8874  0.7724
 7785SOL    HW234818   4.619   1.716  14.488 -2.8451  1.1526 -0.1234
 7786SOL     OW34819   1.377   1.760   6.531  0.3382  0.3715 -0.5473
 7786SOL    HW134820   1.374   1.734   6.439  1.5875  0.7771 -0.6884
 7786SOL    HW234821   1.446   1.825   6.521  0.8092 -0.0004  0.3067
 7787SOL     OW34822   1.743   0.145   7.112 -0.3510 -0.8345  0.2319
 7787SOL    HW134823   1.730   0.212   7.179  0.4815 -2.3281  1.9099
 7787SOL    HW234824   1.812   0.103   7.165  1.1577  1.9539  0.4654
 7788SOL     OW34825   0.973   4.316  12.901 -0.1262  0.0953 -0.7369
 7788SOL    HW134826   0.881   4.294  12.912  0.4817 -2.2045 -0.2706
 7788SOL    HW234827   0.979   4.343  12.810  0.7624  1.6586 -0.2110
 7789SOL     OW34828   1.300   2.427   3.505  0.0528 -0.3907  0.2983
 7789SOL    HW134829   1.351   2.433   3.586  1.9802  0.5574 -0.9775
 7789SOL    HW234830   1.374   2.428   3.444 -1.2640  0.2711 -1.2839
 7790SOL     OW34831   1.274   4.584   6.533  0.1300 -0.4439  0.3263
 7790SOL    HW134832   1.229   4.515   6.485 -2.3160  1.9148 -0.7048
 7790SOL    HW234833   1.236   4.659   6.487  1.6681  0.7151  0.9439
 7791SOL     OW34834   1.318   2.141  11.709  0.5116  0.6679  0.0607
 7791SOL    HW134835   1.341   2.145  11.616 -0.5399  0.9962 -0.1788
 7791SOL    HW234836   1.290   2.231  11.727  0.8556  0.8708 -0.4165
 7792SOL     OW34837   3.371   2.805  11.113  0.3203 -0.2030  0.1440
 7792SOL    HW134838   3.395   2.868  11.181  4.0359  0.9768 -2.2888
 7792SOL    HW234839   3.400   2.839  11.029 -1.7151  1.9594  0.3034
 7793SOL     OW34840   2.501   1.828  11.993 -0.0105 -0.0781  0.2659
 7793SOL    HW134841   2.487   1.789  11.907  1.9247  0.6474 -0.3811
 7793SOL    HW234842   2.573   1.773  12.025 -1.5737 -1.0302  2.1103
 7794SOL     OW34843   1.292   1.994   8.250  0.4695 -0.6483 -0.3831
 7794SOL    HW134844   1.354   2.019   8.318 -0.3421  0.6530 -0.1193
 7794SOL    HW234845   1.347   2.009   8.173 -0.9630 -1.3159 -1.5552
 7795SOL     OW34846   4.313   1.731   7.169  0.3697 -0.2930  0.2797
 7795SOL    HW134847   4.368   1.661   7.205 -0.3792 -1.9590 -1.8251
 7795SOL    HW234848   4.383   1.797   7.174  0.8655 -0.5893 -3.0784
 7796SOL     OW34849   1.883   4.711   5.164  0.0610 -1.0752 -0.4217
 7796SOL    HW134850   1.968   4.714   5.206  0.3352 -0.5816 -1.0156
 7796SOL    HW234851   1.908   0.003   5.073  0.4798 -0.7956 -0.2478
 7797SOL     OW34852   1.791   1.405  14.874 -0.1436 -0.1501 -0.7282
 7797SOL    HW134853   1.716   1.408  14.934  1.9116 -0.3394  1.8147
 7797SOL    HW234854   1.752   1.346  14.808 -0.7309  0.8835 -1.3128
 7798SOL     OW34855   3.637   2.336   5.927 -0.1412  0.7054  0.3043
 7798SOL    HW134856   3.664   2.383   6.005 -0.2754  3.8528 -1.5722
 7798SOL    HW234857   3.702   2.376   5.869  0.0205 -0.1612 -0.1207
 7799SOL     OW34858   0.428   0.484   7.502 -0.1645  0.5316 -0.1787
 7799SOL    HW134859   0.411   0.530   7.584  0.6387 -0.6359  0.6409
 7799SOL    HW234860   0.523   0.480   7.512 -0.1887 -0.2824 -0.2599
 7800SOL     OW34861   1.028   3.253  13.089 -0.1286  0.1687  0.7158
 7800SOL    HW134862   1.017   3.330  13.145  0.3785  0.3696  0.5440
 7800SOL    HW234863   0.957   3.198  13.119 -2.0526  1.7564 -0.9362
 7801SOL     OW34864   1.189   4.710   5.081  0.2382  0.1109  0.3498
 7801SOL    HW134865   1.142   0.033   5.013 -1.0570 -1.6394  0.0123
 7801SOL    HW234866   1.119   4.689   5.142 -1.2848 -0.7227 -1.6982
 7802SOL     OW34867   1.461   0.353   5.962  0.2491  0.3455 -0.0086
 7802SOL    HW134868   1.528   0.407   5.919  1.0412 -1.3955 -0.9715
 7802SOL    HW234869   1.433   0.417   6.027 -2.7593 -0.5007 -0.4615
 7803SOL     OW34870   4.491   3.361   6.401  0.5101  0.4063  0.4374
 7803SOL    HW134871   4.534   3.327   6.480  1.1009 -1.5884 -0.7499
 7803SOL    HW234872   4.493   3.280   6.349  3.0885 -0.1886  1.4812
 7804SOL     OW34873   0.635   4.403   8.524 -0.8210  0.4007  0.4981
 7804SOL    HW134874   0.675   4.355   8.597  0.8461  1.4055  0.2478
 7804SOL    HW234875   0.698   4.474   8.522 -0.7432  0.3238  0.2628
 7805SOL     OW34876   1.089   0.973  10.145 -0.0397  0.4504 -0.5346
 7805SOL    HW134877   1.129   0.891  10.174 -0.3397  0.4234 -0.2005
 7805SOL    HW234878   1.000   0.940  10.133 -0.9702  2.4672  0.8312
 7806SOL     OW34879   3.267   2.852   6.714  0.5823  0.0692 -0.3352
 7806SOL    HW134880   3.289   2.847   6.807  1.2816 -0.6700 -0.5318
 7806SOL    HW234881   3.183   2.807   6.722  1.1356 -1.5652 -3.4971
 7807SOL     OW34882   0.014   1.488   2.642  0.3598 -0.6661  0.2472
 7807SOL    HW134883   4.653   1.505   2.606  0.4597 -0.7941 -0.0528
 7807SOL    HW234884   0.060   1.441   2.572  2.1169  1.5568 -0.1039
 7808SOL     OW34885   1.452   3.572  10.539 -0.0696  0.6188 -0.2299
 7808SOL    HW134886   1.535   3.605  10.504 -0.3301  1.1457 -0.3503
 7808SOL    HW234887   1.477   3.483  10.567 -1.3837  1.3024  3.0933
 7809SOL     OW34888   2.141   2.191   7.708 -0.5932  0.0422 -0.3451
 7809SOL    HW134889   2.192   2.207   7.788  1.4538 -1.0929 -1.4050
 7809SOL    HW234890   2.094   2.271   7.685  1.1033  0.3512 -2.7505
 7810SOL     OW34891   3.671   2.895   0.626 -0.1826  0.1354 -0.8415
 7810SOL    HW134892   3.652   2.987   0.607 -0.3156  0.4755  0.9053
 7810SOL    HW234893   3.683   2.861   0.538  0.0321  0.6484 -1.0100
 7811SOL     OW34894   4.564   0.457   4.327  0.1804 -0.1706 -0.3250
 7811SOL    HW134895   4.495   0.399   4.360 -1.2298  1.7993  0.1842
 7811SOL    HW234896   4.649   0.418   4.349 -0.0098 -0.7375 -0.5972
 7812SOL     OW34897   1.802   1.955   8.317  0.6161 -0.0862 -0.1324
 7812SOL    HW134898   1.750   1.936   8.240 -0.8259 -0.3173  0.9057
 7812SOL    HW234899   1.815   1.866   8.349 -0.4709 -0.0160  0.4995
 7813SOL     OW34900   4.190   3.581  15.654  0.1153  0.0562 -0.2329
 7813SOL    HW134901   4.256   3.513  15.645  0.1932  0.5321 -3.2495
 7813SOL    HW234902   4.244   3.648  15.696 -1.1593  0.2487  1.1021
 7814SOL     OW34903   1.542   3.493   7.329 -0.5151  0.0893  0.1736
 7814SOL    HW134904   1.520   3.560   7.394  1.1373  1.4757 -0.7112
 7814SOL    HW234905   1.485   3.427   7.369 -2.1318  1.4499  0.0839
 7815SOL     OW34906   0.806   3.167   7.361 -0.2231 -0.2700 -0.0468
 7815SOL    HW134907   0.774   3.151   7.272  2.0912  0.5976 -1.0141
 7815SOL    HW234908   0.901   3.171   7.350 -0.0522 -0.8197  1.2027
 7816SOL     OW34909   4.609   3.527   2.853  0.1515 -0.5506  0.3692
 7816SOL    HW134910   4.616   3.527   2.948  1.5451 -0.6184  0.2687
 7816SOL    HW234911   4.539   3.464   2.836  0.0819 -0.8356  1.7451
 7817SOL     OW34912   4.251   0.392   7.838  0.0807 -0.0947 -0.0201
 7817SOL    HW134913   4.295   0.317   7.799  0.9150  0.7414 -0.6981
 7817SOL    HW234914   4.272   0.387   7.932 -0.2604  0.9677  0.1134
 7818SOL     OW34915   2.158   1.224   3.318  0.2660  0.3227 -0.1679
 7818SOL    HW134916   2.148   1.161   3.248  3.4376 -2.2754  1.7293
 7818SOL    HW234917   2.196   1.299   3.272  2.9728 -1.4328 -0.7811
 7819SOL     OW34918   4.612   1.978  13.824  0.0780 -0.3500 -0.0465
 7819SOL    HW134919   4.598   1.928  13.905  0.7631 -1.7022 -0.7666
 7819SOL    HW234920   4.700   2.016  13.830 -0.9713  2.0308  0.4637
 7820SOL     OW34921   4.348   3.723   4.566 -0.1462 -0.1892 -0.2451
 7820SOL    HW134922   4.416   3.714   4.499  2.5322 -3.3038  2.9077
 7820SOL    HW234923   4.274   3.756   4.516 -0.5482  1.9141  1.7221
 7821SOL     OW34924   4.446   3.685   5.611  0.5891 -0.3899  0.3658
 7821SOL    HW134925   4.521   3.626   5.598  0.0761 -1.0463  0.3917
 7821SOL    HW234926   4.423   3.722   5.526  1.0593  2.1266  1.3573
 7822SOL     OW34927   0.146   2.051   5.140 -0.2711  0.1962  0.0520
 7822SOL    HW134928   0.103   1.997   5.073  1.4737 -0.6635 -0.3872
 7822SOL    HW234929   0.189   1.988   5.198 -0.2960 -1.3527 -1.5892
 7823SOL     OW34930   3.215   2.506   7.341 -0.0141 -0.7049 -0.4663
 7823SOL    HW134931   3.269   2.577   7.376 -1.4063  0.5255 -0.8216
 7823SOL    HW234932   3.207   2.537   7.251 -0.4417  0.1323 -0.1447
 7824SOL     OW34933   4.468   3.063   9.412  0.2780  0.1338 -0.3899
 7824SOL    HW134934   4.388   3.084   9.459  0.3777 -2.3261  0.8530
 7824SOL    HW234935   4.534   3.126   9.443 -0.6675  0.6477  0.6006
 7825SOL     OW34936   0.470   3.765  13.589 -0.1033  0.2378 -0.0963
 7825SOL    HW134937   0.522   3.835  13.628  0.1649  0.3917 -0.7311
 7825SOL    HW234938   0.508   3.751  13.503 -0.1622 -0.2756 -0.0406
 7826SOL     OW34939   0.967   3.345   2.499  0.0270 -0.1485 -0.6538
 7826SOL    HW134940   0.942   3.425   2.545  0.1641  0.2719 -1.3252
 7826SOL    HW234941   0.995   3.294   2.576  1.2020 -0.8099 -1.5127
 7827SOL     OW34942   1.487   3.672   4.470 -0.0591 -0.2567  0.2287
 7827SOL    HW134943   1.473   3.738   4.403 -1.0664 -1.8645 -1.1466
 7827SOL    HW234944   1.577   3.686   4.497  0.7564 -1.7501 -1.7274
 7828SOL     OW34945   1.535   0.787  16.726  0.1551  0.1642 -0.0187
 7828SOL    HW134946   1.531   0.731  16.648 -0.0708 -2.4693  1.8568
 7828SOL    HW234947   1.460   0.751  16.773  1.0324 -0.8130  0.6265
 7829SOL     OW34948   0.085   1.078   3.745  0.2167 -0.4044 -0.1969
 7829SOL    HW134949   0.015   1.089   3.680  0.8689 -0.9387 -0.9897
 7829SOL    HW234950   0.155   1.053   3.685  1.4200 -1.5859  1.7008
 7830SOL     OW34951   3.773   3.138   8.358 -0.1361 -0.1428  0.0479
 7830SOL    HW134952   3.759   3.233   8.364 -0.5376 -0.3802  2.5146
 7830SOL    HW234953   3.728   3.126   8.274 -1.3717  0.1391  0.6762
 7831SOL     OW34954   1.692   3.545   5.736 -0.2569 -0.4882  0.5767
 7831SOL    HW134955   1.691   3.465   5.683 -0.3803 -1.6368  2.3324
 7831SOL    HW234956   1.743   3.523   5.814  2.1198  2.0021 -0.2884
 7832SOL     OW34957   4.013   1.146   6.018 -0.5472  0.0247 -1.7599
 7832SOL    HW134958   4.019   1.114   6.108  1.9989 -1.1936 -2.3713
 7832SOL    HW234959   3.962   1.226   6.034 -1.7628 -1.3975  1.4384
 7833SOL     OW34960   1.840   3.359   3.949  0.2625 -0.3452  0.1957
 7833SOL    HW134961   1.874   3.431   3.895  3.7566 -1.9304  0.2917
 7833SOL    HW234962   1.792   3.312   3.881  0.9988 -0.1358 -0.4726
 7834SOL     OW34963   1.737   2.843   0.136 -0.2253 -0.3122  0.2623
 7834SOL    HW134964   1.828   2.829   0.159  0.6913  1.7277 -2.0281
 7834SOL    HW234965   1.690   2.809   0.212  1.1156  0.2795  1.3384
 7835SOL     OW34966   0.512   2.076   7.912 -0.5296 -0.5840  0.0976
 7835SOL    HW134967   0.567   2.071   7.990 -1.6804  0.9051  1.0011
 7835SOL    HW234968   0.428   2.106   7.947 -0.5136 -1.6665  1.0421
 7836SOL     OW34969   0.599   3.601  10.604 -0.5572 -0.9071  0.1272
 7836SOL    HW134970   0.520   3.636  10.563  0.3246  1.2283  0.2311
 7836SOL    HW234971   0.579   3.511  10.628  0.3500 -1.4636 -1.2111
 7837SOL     OW34972   3.337   2.071  17.286  0.1107 -0.4995  0.0024
 7837SOL    HW134973   3.399   2.066  17.213  2.5180 -2.0187  2.1546
 7837SOL    HW234974   3.291   2.154  17.276  1.1730 -0.2395 -2.7691
 7838SOL     OW34975   0.563   4.208   6.806 -0.1843 -0.0223 -0.3858
 7838SOL    HW134976   0.619   4.281   6.778 -0.3923 -0.3368 -1.5987
 7838SOL    HW234977   0.602   4.122   6.790 -0.4690 -0.1672 -0.2981
 7839SOL     OW34978   1.731   1.054   7.401 -0.5096  0.5168  0.6709
 7839SOL    HW134979   1.817   1.092   7.382 -0.6654  0.7847  0.4953
 7839SOL    HW234980   1.708   1.099   7.482  1.1050 -0.2119  1.5209
 7840SOL     OW34981   0.598   3.911   4.515  0.7134 -0.5907 -0.1305
 7840SOL    HW134982   0.551   3.994   4.518  2.9889  0.6706  0.3320
 7840SOL    HW234983   0.631   3.912   4.425  0.0773 -0.6876 -0.3685
 7841SOL     OW34984   3.235   4.087   6.348  0.1421 -0.3815  0.2173
 7841SOL    HW134985   3.194   4.021   6.292 -1.8481  0.6514  0.4474
 7841SOL    HW234986   3.328   4.064   6.349 -0.1968 -1.7521  0.4078
 7842SOL     OW34987   2.299   1.500   2.746 -0.0997 -0.0319  0.3607
 7842SOL    HW134988   2.340   1.552   2.677  1.5842  0.0694  1.4353
 7842SOL    HW234989   2.361   1.430   2.767  0.9251  1.2048  1.4985
 7843SOL     OW34990   3.066   3.717   6.897  0.0714  0.6346 -0.4938
 7843SOL    HW134991   3.152   3.678   6.885 -1.8348 -4.1097  1.1143
 7843SOL    HW234992   3.068   3.785   6.830  0.1072  0.7585 -0.3658
 7844SOL     OW34993   1.026   2.310   8.681  0.2988  0.0211 -0.4762
 7844SOL    HW134994   1.079   2.366   8.738 -1.0805  0.4754  0.3824
 7844SOL    HW234995   1.091   2.245   8.655 -0.3321 -1.7536  2.2939
 7845SOL     OW34996   4.372   2.568   5.283 -0.1985 -0.5221  0.2014
 7845SOL    HW134997   4.387   2.481   5.319  0.6610 -0.1751  0.6786
 7845SOL    HW234998   4.381   2.552   5.190 -0.0413  0.1379  0.1051
 7846SOL     OW34999   3.353   2.962   9.661  0.7262 -0.0211  0.2301
 7846SOL    HW135000   3.296   3.038   9.671  0.1202 -0.5812  1.0219
 7846SOL    HW235001   3.433   3.009   9.636  0.8079  0.4127  1.3351
 7847SOL     OW35002   1.440   1.332  17.389 -0.0431 -0.0888 -0.4820
 7847SOL    HW135003   1.399   1.416  17.367 -2.1389 -0.9924 -0.0548
 7847SOL    HW235004   1.415   1.307  17.478 -2.4360  0.2238 -1.0619
 7848SOL     OW35005   1.050   2.263   9.454 -0.1292  0.1788 -0.4055
 7848SOL    HW135006   1.070   2.270   9.547  1.5710 -2.2752 -0.5898
 7848SOL    HW235007   1.010   2.348   9.436  0.2706  0.0831 -1.7798
 7849SOL     OW35008   3.013   1.803   6.821  0.7352 -0.1201  0.3127
 7849SOL    HW135009   3.105   1.816   6.843  1.0670  1.0772 -1.7735
 7849SOL    HW235010   3.006   1.708   6.823 -2.7167  0.0198 -3.4977
 7850SOL     OW35011   3.376   0.924   4.336  0.1285 -0.5699 -0.4357
 7850SOL    HW135012   3.308   0.935   4.270  0.2578  1.4260 -0.2247
 7850SOL    HW235013   3.444   0.913   4.269  0.5181 -0.1312 -0.1116
 7851SOL     OW35014   3.381   0.699   4.498  0.1307  0.2613 -0.0812
 7851SOL    HW135015   3.299   0.666   4.462  0.1625 -1.5360  1.4932
 7851SOL    HW235016   3.367   0.791   4.478  3.6003  0.9243  0.5258
 7852SOL     OW35017   3.143   4.425   0.563  0.2103 -0.4075  0.0666
 7852SOL    HW135018   3.064   4.384   0.599 -0.3886 -0.7353 -1.6186
 7852SOL    HW235019   3.103   4.500   0.518  0.8923  0.2174  0.4805
 7853SOL     OW35020   0.919   0.642  17.080  0.4987  0.4157  0.5580
 7853SOL    HW135021   0.902   0.634  17.174 -0.5751  1.8366  0.4836
 7853SOL    HW235022   1.007   0.680  17.075  0.4528  0.2681 -1.4570
 7854SOL     OW35023   0.349   4.717   7.806 -0.8187 -0.2931  0.0767
 7854SOL    HW135024   0.280   0.048   7.840 -0.3776 -0.0433  0.5642
 7854SOL    HW235025   0.407   0.056   7.763  0.1051  1.0365  3.2605
 7855SOL     OW35026   1.457   3.680  16.355 -0.4560 -0.2436 -0.0859
 7855SOL    HW135027   1.414   3.754  16.398  0.6734  1.3870 -1.7903
 7855SOL    HW235028   1.495   3.725  16.280  1.5697  0.1126  1.1634
 7856SOL     OW35029   0.864   3.330  11.617  0.9179 -0.1040  0.7110
 7856SOL    HW135030   0.839   3.385  11.543  0.4592 -2.6968 -1.0471
 7856SOL    HW235031   0.897   3.257  11.564 -6.4568 -1.2353 -2.3848
 7857SOL     OW35032   2.326   0.389   5.147 -0.9121  0.1695  0.0570
 7857SOL    HW135033   2.397   0.447   5.174 -0.8729 -1.0306  2.5003
 7857SOL    HW235034   2.354   0.315   5.200 -0.6869  0.9320  0.9939
 7858SOL     OW35035   0.531   0.448   7.138 -0.0514 -0.1882 -0.2430
 7858SOL    HW135036   0.459   0.466   7.199 -2.4526 -0.6809 -2.9512
 7858SOL    HW235037   0.518   0.358   7.106  3.1775 -0.4458 -0.8541
 7859SOL     OW35038   2.397   4.631  12.216 -0.2479 -0.2153  0.7455
 7859SOL    HW135039   2.468   4.567  12.224  1.1895  1.0591 -1.6178
 7859SOL    HW235040   2.436   4.714  12.244  1.7325 -1.1811  0.8738
 7860SOL     OW35041   3.858   4.678   7.934 -0.1563  0.6394 -0.2244
 7860SOL    HW135042   3.795   4.607   7.916  0.7435 -0.4807  1.0520
 7860SOL    HW235043   3.898   4.691   7.848 -0.0137 -0.1142 -0.2738
 7861SOL     OW35044   3.952   2.806  13.822 -0.4723 -0.3856 -0.6087
 7861SOL    HW135045   3.955   2.901  13.830  0.7269 -0.5765  1.1300
 7861SOL    HW235046   4.041   2.785  13.851 -0.0108  1.7353 -0.5166
 7862SOL     OW35047   2.905   2.845   9.184 -0.5528  0.0326  0.2188
 7862SOL    HW135048   2.849   2.804   9.118 -1.7093  1.0978  0.5127
 7862SOL    HW235049   2.939   2.916   9.130  2.1825 -1.3758  0.0886
 7863SOL     OW35050   0.178   1.480   6.179 -0.6133  0.6705  0.0088
 7863SOL    HW135051   0.220   1.540   6.118  2.0490  0.5557  1.7531
 7863SOL    HW235052   0.246   1.468   6.245 -1.6601 -0.2533  0.9278
 7864SOL     OW35053   1.176   1.487   3.641  0.1303  0.0303 -0.2312
 7864SOL    HW135054   1.097   1.527   3.603  0.8343 -0.9735 -2.7641
 7864SOL    HW235055   1.183   1.401   3.601 -0.9828 -0.3625  0.4227
 7865SOL     OW35056   4.154   4.027   2.937 -0.5298  0.2539 -0.0695
 7865SOL    HW135057   4.196   3.944   2.914  1.2604  0.7540  1.4901
 7865SOL    HW235058   4.223   4.092   2.941  1.3902 -1.6376 -2.2661
 7866SOL     OW35059   4.643   0.289  14.270 -0.6281 -0.0179  0.6228
 7866SOL    HW135060   4.610   0.281  14.359  0.3678 -0.4344  0.9587
 7866SOL    HW235061   4.635   0.382  14.249  0.8988 -0.0351 -0.1079
 7867SOL     OW35062   4.515   4.648   6.653 -0.3437 -0.1749 -0.1612
 7867SOL    HW135063   4.521   0.018   6.654  0.9306 -0.2689  1.0551
 7867SOL    HW235064   4.570   4.614   6.582  0.7324 -0.5550  0.8654
 7868SOL     OW35065   2.983   0.240   5.174 -0.3466 -0.5998 -0.3151
 7868SOL    HW135066   2.889   0.243   5.192 -0.9836 -3.4784 -3.2819
 7868SOL    HW235067   2.994   0.267   5.083  0.5566  0.1889  0.0170
 7869SOL     OW35068   3.947   3.502   8.864 -0.2026 -0.7060  0.2782
 7869SOL    HW135069   3.921   3.540   8.948  0.2667 -1.7842  0.9046
 7869SOL    HW235070   3.896   3.557   8.804 -0.8930 -0.7834  0.7961
 7870SOL     OW35071   2.752   3.160   1.072  0.9831  0.2266  0.3595
 7870SOL    HW135072   2.705   3.185   0.992  2.6155  0.8239 -0.4126
 7870SOL    HW235073   2.820   3.227   1.075  1.1415  0.0407  0.8791
 7871SOL     OW35074   1.804   0.835   1.579 -0.3433  0.6257 -0.0525
 7871SOL    HW135075   1.765   0.887   1.650  0.7591  3.1416 -1.3004
 7871SOL    HW235076   1.873   0.898   1.560  0.8942 -0.3953  1.0975
 7872SOL     OW35077   0.679   2.041  15.756 -0.3027 -0.8340 -0.0559
 7872SOL    HW135078   0.625   2.021  15.680  0.4259 -0.0279 -0.7813
 7872SOL    HW235079   0.702   1.949  15.771 -2.0458 -1.4582 -1.2262
 7873SOL     OW35080   0.426   3.461  13.831 -0.0378 -0.3909 -0.2295
 7873SOL    HW135081   0.392   3.512  13.758 -2.9847 -1.1996  0.5417
 7873SOL    HW235082   0.341   3.459  13.877  0.8627  0.5223  1.4678
 7874SOL     OW35083   2.273   2.893  13.328  0.8494 -0.7269 -0.3787
 7874SOL    HW135084   2.245   2.969  13.278  0.5463 -1.0494 -0.7017
 7874SOL    HW235085   2.204   2.828  13.316 -0.5440  0.1642  2.8006
 7875SOL     OW35086   0.177   3.420   7.578  0.2814 -0.3975 -0.2727
 7875SOL    HW135087   0.258   3.376   7.603 -0.3439  0.5375  3.3843
 7875SOL    HW235088   0.118   3.432   7.652  3.7579  2.0393  2.1251
 7876SOL     OW35089   1.780   2.729   3.136 -0.1842 -0.7882 -0.1051
 7876SOL    HW135090   1.774   2.711   3.042  0.1097  1.3422 -0.5306
 7876SOL    HW235091   1.742   2.816   3.140  0.1114 -0.6391 -0.5203
 7877SOL     OW35092   1.505   1.571   1.243  0.2041  0.4001  0.5639
 7877SOL    HW135093   1.471   1.660   1.243 -1.2622 -0.1671  0.5981
 7877SOL    HW235094   1.539   1.554   1.155  1.7394  1.6531  0.9187
 7878SOL     OW35095   1.066   3.537  12.395  0.7759  0.3661  0.2580
 7878SOL    HW135096   1.039   3.468  12.455  2.3240  0.4171  1.0108
 7878SOL    HW235097   0.988   3.591  12.388  1.0923  0.8111  0.1228
 7879SOL     OW35098   0.400   3.939   8.253 -0.3529 -0.1600 -0.3283
 7879SOL    HW135099   0.473   3.997   8.232  0.1106 -0.7409 -0.3194
 7879SOL    HW235100   0.446   3.859   8.280 -1.3043 -0.1429  1.3811
 7880SOL     OW35101   4.206   2.956  15.790  0.5375 -0.2199  0.4367
 7880SOL    HW135102   4.221   2.865  15.765  0.1453 -0.0327 -0.4533
 7880SOL    HW235103   4.113   2.950  15.810  0.1221 -1.4497 -1.8143
 7881SOL     OW35104   2.316   2.226   8.895 -0.4841  0.6170  0.8817
 7881SOL    HW135105   2.327   2.312   8.935 -0.4157  0.6509  0.7918
 7881SOL    HW235106   2.394   2.225   8.839 -0.3178 -1.9136  1.1655
 7882SOL     OW35107   3.187   2.032   8.879 -0.2936 -0.4303  0.3775
 7882SOL    HW135108   3.202   2.025   8.974 -1.3179  0.7069  0.6213
 7882SOL    HW235109   3.093   2.046   8.884  0.0783  1.7466  1.0890
 7883SOL     OW35110   4.001   4.100  12.799  0.2356  0.7230 -0.3971
 7883SOL    HW135111   4.049   4.175  12.835  1.1593  0.6778 -1.5464
 7883SOL    HW235112   3.920   4.099  12.851  0.8623  2.1389  0.6239
 7884SOL     OW35113   3.928   0.158   4.497  0.0596 -0.2791 -0.0944
 7884SOL    HW135114   4.014   0.121   4.517  0.1479 -0.7103 -1.2411
 7884SOL    HW235115   3.883   0.083   4.456 -1.2357  0.3154  0.2376
 7885SOL     OW35116   0.585   2.643   8.074 -0.7633  0.2375  0.0093
 7885SOL    HW135117   0.609   2.729   8.040 -0.0818 -0.0877 -0.3287
 7885SOL    HW235118   0.574   2.672   8.165 -1.7781 -0.2477  0.0375
 7886SOL     OW35119   1.378   3.310   7.120 -0.3126 -0.5321 -0.0699
 7886SOL    HW135120   1.462   3.349   7.141 -1.0097  1.4645 -1.0296
 7886SOL    HW235121   1.375   3.243   7.188  0.8784 -2.1447 -1.5845
 7887SOL     OW35122   0.078   3.157   8.804 -0.4123 -0.5009 -0.1067
 7887SOL    HW135123   0.145   3.150   8.736 -1.1572  2.1952 -1.1217
 7887SOL    HW235124   0.028   3.081   8.775  1.6415 -1.0395 -2.2131
 7888SOL     OW35125   3.469   2.517  14.731 -0.4575  0.3767  0.3705
 7888SOL    HW135126   3.521   2.454  14.680  0.3480  0.7219  0.7794
 7888SOL    HW235127   3.484   2.482  14.819  1.0481  1.4707  0.5420
 7889SOL     OW35128   0.351   1.661   7.374 -0.1068  0.0618  0.8030
 7889SOL    HW135129   0.430   1.611   7.396 -2.0566 -2.6551  1.6225
 7889SOL    HW235130   0.392   1.746   7.360 -1.6853  0.2172 -2.6621
 7890SOL     OW35131   3.029   4.539  11.764 -0.4902 -0.2424 -0.2424
 7890SOL    HW135132   3.045   4.562  11.673  0.1337 -0.1362 -0.1057
 7890SOL    HW235133   2.939   4.569  11.774 -0.3350  0.4170 -0.8475
 7891SOL     OW35134   4.292   1.190   5.931  0.6460  0.2151 -0.3760
 7891SOL    HW135135   4.339   1.177   6.014  0.8792  0.6908 -0.4359
 7891SOL    HW235136   4.207   1.154   5.956  0.2477  1.7867  0.5525
 7892SOL     OW35137   1.091   4.442   2.609  0.3571  0.2717  0.6762
 7892SOL    HW135138   1.070   4.353   2.637  0.7559 -0.4113 -1.1872
 7892SOL    HW235139   1.088   4.489   2.693  0.7912 -0.0623  0.8796
 7893SOL     OW35140   0.113   1.134  11.915 -0.2571 -0.1630 -0.5567
 7893SOL    HW135141   0.156   1.216  11.890 -2.0383  0.7384 -0.7345
 7893SOL    HW235142   0.097   1.091  11.832 -0.2794 -2.1097  0.4633
 7894SOL     OW35143   3.578   0.407   6.830  0.8763 -0.5180  0.0021
 7894SOL    HW135144   3.597   0.386   6.739  1.0799 -0.9423  0.1388
 7894SOL    HW235145   3.554   0.318   6.859 -0.4718 -0.9207 -2.3055
 7895SOL     OW35146   3.013   3.572   9.146  0.0994  0.0937 -0.2323
 7895SOL    HW135147   2.973   3.488   9.123 -0.0524 -0.1985  1.1187
 7895SOL    HW235148   3.077   3.595   9.079  0.8691  2.2969  1.2451
 7896SOL     OW35149   1.900   4.392   3.733  0.3437  0.2666 -0.3466
 7896SOL    HW135150   1.931   4.334   3.663  0.4977 -0.2522  0.1548
 7896SOL    HW235151   1.973   4.453   3.740 -1.8762  2.9360 -0.1032
 7897SOL     OW35152   2.967   4.343   5.462  0.3334 -0.1814  0.7483
 7897SOL    HW135153   2.978   4.374   5.372  1.4008  1.2621  1.3730
 7897SOL    HW235154   2.997   4.424   5.503  0.4044  1.7136 -3.0753
 7898SOL     OW35155   3.976   0.205   9.912 -0.4644  0.4285 -0.2780
 7898SOL    HW135156   3.909   0.204   9.982  1.1909  1.5565  1.3314
 7898SOL    HW235157   3.962   0.292   9.874 -0.8374  0.8471  0.8066
 7899SOL     OW35158   3.941   2.613   3.189 -0.1703  0.6064 -0.1007
 7899SOL    HW135159   3.939   2.607   3.285 -0.4408  1.2223 -0.0667
 7899SOL    HW235160   3.858   2.656   3.168 -0.1524  1.0539  0.7190
 7900SOL     OW35161   4.113   1.859  13.891  0.2008 -0.1224  0.5470
 7900SOL    HW135162   4.114   1.882  13.984 -1.7636 -1.9419  1.0282
 7900SOL    HW235163   4.168   1.781  13.888  0.2072 -0.2280  2.8816
 7901SOL     OW35164   0.382   1.031   8.700  0.0717 -0.3405  0.1368
 7901SOL    HW135165   0.316   0.970   8.732  1.0700 -1.0302  0.8729
 7901SOL    HW235166   0.436   0.962   8.661  0.9237  0.5085 -0.2028
 7902SOL     OW35167   0.382   4.333  17.357 -0.3065  0.2599  0.2817
 7902SOL    HW135168   0.339   4.307  17.275  1.9558 -0.1062 -0.8050
 7902SOL    HW235169   0.349   4.422  17.373 -1.0815  0.2088 -1.0235
 7903SOL     OW35170   3.536   2.574  15.408  0.6462  1.2363 -0.1522
 7903SOL    HW135171   3.592   2.648  15.432  0.4607  1.0996  0.6947
 7903SOL    HW235172   3.601   2.507  15.386 -0.2672  0.5693 -0.7942
 7904SOL     OW35173   1.728   0.170  15.085 -0.6077 -0.0601 -0.0534
 7904SOL    HW135174   1.687   0.090  15.118 -0.7173  0.1329  0.2882
 7904SOL    HW235175   1.665   0.208  15.023 -0.6344 -1.1063 -0.6564
 7905SOL     OW35176   4.641   0.296  15.367 -0.2274  0.7500 -0.0885
 7905SOL    HW135177   4.601   0.277  15.451 -0.8097  1.5689 -0.1758
 7905SOL    HW235178   4.700   0.369  15.386 -0.7620  1.3438 -0.6679
 7906SOL     OW35179   3.910   4.357   2.819  0.0952  0.3235  0.0481
 7906SOL    HW135180   3.870   4.399   2.895  1.7703  1.5260  0.2536
 7906SOL    HW235181   3.844   4.291   2.798  0.6935  0.3719 -2.0098
 7907SOL     OW35182   1.025   2.687   4.220  0.0378 -0.3326 -0.0144
 7907SOL    HW135183   1.032   2.780   4.197  1.7732 -0.9688 -2.0344
 7907SOL    HW235184   0.937   2.669   4.185 -0.3271 -0.0734  0.7730
 7908SOL     OW35185   2.866   3.288   5.148  0.1000 -0.2393 -0.1992
 7908SOL    HW135186   2.774   3.274   5.170  0.0093  1.6600  0.6658
 7908SOL    HW235187   2.847   3.342   5.071 -1.2433  0.6166  0.7270
 7909SOL     OW35188   3.036   3.137   3.058  1.0365 -0.7158  0.4382
 7909SOL    HW135189   3.027   3.113   2.966  2.7855  1.3374 -0.2672
 7909SOL    HW235190   3.104   3.077   3.087  0.2060 -2.2564 -0.7750
 7910SOL     OW35191   0.859   4.601   8.459  0.0896  0.1510 -1.0221
 7910SOL    HW135192   0.952   4.577   8.453  0.2050  0.3245  0.1992
 7910SOL    HW235193   0.857   4.691   8.427  1.2673  0.7735  0.6781
 7911SOL     OW35194   1.127   4.460  13.287  0.3647 -0.0504  0.2588
 7911SOL    HW135195   1.163   4.535  13.240  2.9581 -1.0709  0.6402
 7911SOL    HW235196   1.063   4.414  13.232  0.2198 -1.1129  1.3234
 7912SOL     OW35197   3.459   2.585   5.126  0.4126 -0.9100  0.3432
 7912SOL    HW135198   3.528   2.575   5.191 -0.2472  0.3195  1.2303
 7912SOL    HW235199   3.456   2.500   5.081 -0.6996 -0.8398  0.2826
 7913SOL     OW35200   0.878   3.888   5.853 -0.0740  0.1440  0.1544
 7913SOL    HW135201   0.968   3.856   5.860 -0.2459 -0.0698  1.4242
 7913SOL    HW235202   0.891   3.982   5.849  2.3347 -0.1298  1.5751
 7914SOL     OW35203   1.946   3.649   9.040  0.1251 -0.3243 -0.2248
 7914SOL    HW135204   2.010   3.700   9.090 -3.5590  1.1014  3.0339
 7914SOL    HW235205   1.906   3.610   9.118 -0.7108  2.6765  0.8496
 7915SOL     OW35206   0.982   4.363   2.264  0.1449  0.3450 -0.7411
 7915SOL    HW135207   0.896   4.404   2.260 -0.2567 -0.3895  0.2919
 7915SOL    HW235208   1.036   4.438   2.288 -2.2206  1.5705  0.7076
 7916SOL     OW35209   1.479   4.586   5.295  0.2216 -0.0452 -0.1324
 7916SOL    HW135210   1.566   4.561   5.265  1.0060  1.1176  1.1799
 7916SOL    HW235211   1.431   4.588   5.212  1.9400  1.0597 -1.0907
 7917SOL     OW35212   3.819   3.499   2.889  0.2966  0.1965 -0.0842
 7917SOL    HW135213   3.726   3.520   2.900  0.1466 -0.4768 -0.0796
 7917SOL    HW235214   3.848   3.574   2.839  1.4330 -1.0062 -1.2086
 7918SOL     OW35215   2.663   4.190   2.215 -0.4662  0.1927 -0.0162
 7918SOL    HW135216   2.613   4.263   2.180  0.3892  1.0866  0.6257
 7918SOL    HW235217   2.712   4.159   2.138  1.0492  1.6613  0.3719
 7919SOL     OW35218   4.668   2.201   5.269  0.1205 -0.1216 -0.1868
 7919SOL    HW135219   4.641   2.151   5.346 -1.7684 -0.3481 -1.0081
 7919SOL    HW235220   0.015   2.152   5.230 -1.5041 -1.2994 -1.6800
 7920SOL     OW35221   4.112   4.275  17.150  0.1643  0.1116  0.1417
 7920SOL    HW135222   4.052   4.208  17.183  0.3890  0.0797  0.4825
 7920SOL    HW235223   4.062   4.356  17.142  0.8081  0.5480  0.5547
 7921SOL     OW35224   2.312   1.256  12.511  0.1747 -0.1040  0.3217
 7921SOL    HW135225   2.242   1.315  12.538 -0.0503  0.1988 -0.9323
 7921SOL    HW235226   2.370   1.320  12.471  1.5342  0.2086  2.7658
 7922SOL     OW35227   1.927   0.817   0.900 -0.7066 -0.2545 -0.0740
 7922SOL    HW135228   1.852   0.761   0.921 -1.1069 -0.1051 -1.1198
 7922SOL    HW235229   1.935   0.804   0.805  2.4759  0.5755  0.0609
 7923SOL     OW35230   3.892   3.918   5.012 -0.9670  0.1250  0.4706
 7923SOL    HW135231   3.946   3.975   5.066  0.9407 -1.6523  0.4195
 7923SOL    HW235232   3.929   3.922   4.923 -0.4889 -0.5279  0.6390
 7924SOL     OW35233   2.164   0.901   9.083  0.2024  0.1970  0.1486
 7924SOL    HW135234   2.133   0.819   9.121  0.0597  0.2774  0.2049
 7924SOL    HW235235   2.088   0.957   9.098  0.3845  0.4251  0.2309
 7925SOL     OW35236   0.965   1.613  14.462  0.2264 -0.1328  0.2782
 7925SOL    HW135237   0.870   1.603  14.460  0.2941 -0.9691  1.3492
 7925SOL    HW235238   0.971   1.708  14.478  0.6726 -0.1864  0.4283
 7926SOL     OW35239   1.328   1.299  15.962  0.2054 -0.2008 -0.5419
 7926SOL    HW135240   1.376   1.373  15.924  2.6466 -0.7423  1.4984
 7926SOL    HW235241   1.245   1.341  15.986  0.5267 -0.2649  0.7146
 7927SOL     OW35242   1.567   0.367   3.693  0.0941  0.3510  0.2214
 7927SOL    HW135243   1.612   0.429   3.636  0.0311  0.4649  0.2969
 7927SOL    HW235244   1.515   0.321   3.627 -1.8927  1.1018  1.2770
 7928SOL     OW35245   1.510   4.316   6.624  0.2214  0.1670 -0.0210
 7928SOL    HW135246   1.586   4.302   6.681 -0.2372 -1.6213  0.1334
 7928SOL    HW235247   1.547   4.343   6.540 -1.2207  0.0437 -0.6943
 7929SOL     OW35248   1.443   2.487   4.025 -0.4674  0.6990  0.3190
 7929SOL    HW135249   1.478   2.576   4.034 -1.2084  1.0413 -0.1522
 7929SOL    HW235250   1.380   2.482   4.097 -0.9466 -1.5119 -0.2624
 7930SOL     OW35251   2.755   0.033   3.500 -0.5286 -0.7359 -0.2767
 7930SOL    HW135252   2.843   0.007   3.526 -0.0285  0.3764 -0.8610
 7930SOL    HW235253   2.765   0.061   3.409 -1.6204 -1.2174 -0.5523
 7931SOL     OW35254   3.244   3.420   6.922  0.1628 -0.4034  0.5697
 7931SOL    HW135255   3.336   3.424   6.897 -0.0726  0.3093 -0.1711
 7931SOL    HW235256   3.207   3.430   6.834  1.8579 -3.5463 -0.5201
 7932SOL     OW35257   1.325   2.001  12.943 -0.9542  0.0251  0.0823
 7932SOL    HW135258   1.264   2.047  12.885  0.8032  1.2023 -0.8252
 7932SOL    HW235259   1.328   1.914  12.902 -1.1760 -0.4016  0.9775
 7933SOL     OW35260   3.535   1.562  15.457  0.2991 -0.0405 -0.2340
 7933SOL    HW135261   3.546   1.483  15.510 -1.9051  0.5645  1.0795
 7933SOL    HW235262   3.560   1.629  15.521  3.2157 -1.4800  0.1407
 7934SOL     OW35263   2.709   0.235   5.281 -0.2485  0.5352 -0.2862
 7934SOL    HW135264   2.728   0.222   5.374 -2.4900  2.3680  0.4304
 7934SOL    HW235265   2.618   0.265   5.284 -0.4398 -0.0769  0.1061
 7935SOL     OW35266   3.435   2.383   2.149 -0.7908  0.5365 -0.1361
 7935SOL    HW135267   3.436   2.469   2.107  0.3063 -0.6837 -2.5928
 7935SOL    HW235268   3.508   2.339   2.105 -0.3693 -0.5709  1.6342
 7936SOL     OW35269   0.699   1.304   5.169 -0.5223  0.6216  0.3876
 7936SOL    HW135270   0.711   1.368   5.239 -0.9524  0.9394  0.1725
 7936SOL    HW235271   0.659   1.359   5.102  1.0318 -0.1978 -1.2174
 7937SOL     OW35272   0.167   2.462   1.552  0.3114  0.1369  0.0138
 7937SOL    HW135273   0.167   2.522   1.626  0.5147  0.0784  0.0614
 7937SOL    HW235274   0.095   2.483   1.493 -0.4885  0.9011  1.2990
 7938SOL     OW35275   0.105   4.563  16.771  0.3127  0.6043 -0.4293
 7938SOL    HW135276   0.067   4.498  16.832 -1.3729 -2.0950 -4.3407
 7938SOL    HW235277   0.067   4.529  16.690 -1.9139 -0.9698  1.2361
 7939SOL     OW35278   2.697   2.743   5.885  0.0982 -0.3227 -0.6099
 7939SOL    HW135279   2.791   2.750   5.872  0.2343 -0.5850  0.2238
 7939SOL    HW235280   2.691   2.656   5.925  0.4803  0.2576  0.7198
 7940SOL     OW35281   4.551   3.042   9.127  0.4828  0.6664 -0.2864
 7940SOL    HW135282   4.508   3.043   9.213  1.5809 -2.0808  0.3208
 7940SOL    HW235283   4.574   2.949   9.124  1.7937  0.9767  0.3260
 7941SOL     OW35284   3.434   2.424   4.731 -0.3242  0.1271 -0.4437
 7941SOL    HW135285   3.410   2.397   4.819  0.9627 -0.7499 -0.3778
 7941SOL    HW235286   3.487   2.502   4.746  1.4300 -1.2395  0.3644
 7942SOL     OW35287   4.288   0.199  17.617  0.3307  0.1297  0.2407
 7942SOL    HW135288   4.245   0.155  17.690 -1.4786  1.0325 -0.2829
 7942SOL    HW235289   4.353   0.137  17.582  0.2962  1.0199 -1.4203
 7943SOL     OW35290   1.161   1.127   5.677  0.2063  0.0291  1.0783
 7943SOL    HW135291   1.089   1.179   5.642  1.5893  0.3248 -1.3036
 7943SOL    HW235292   1.229   1.157   5.616 -1.4886 -1.8481 -1.7518
 7944SOL     OW35293   4.494   3.461  15.846 -0.6883 -0.3584  0.5883
 7944SOL    HW135294   4.457   3.414  15.772 -1.1459  2.2673 -0.7989
 7944SOL    HW235295   4.580   3.495  15.821 -1.2594 -0.5165 -1.5862
 7945SOL     OW35296   4.505   0.448   6.186 -0.9653 -0.2441  0.5897
 7945SOL    HW135297   4.592   0.444   6.144 -0.2834 -0.7151  2.0552
 7945SOL    HW235298   4.447   0.435   6.111 -0.5523  1.7031 -0.0686
 7946SOL     OW35299   2.067   4.647   3.436  0.0809  0.1624  0.2930
 7946SOL    HW135300   1.978   4.680   3.445 -0.4797 -1.2272 -0.3062
 7946SOL    HW235301   2.107   4.677   3.354  1.0340 -1.0864  0.3013
 7947SOL     OW35302   4.592   3.953   4.509  0.0966 -0.0860  0.1584
 7947SOL    HW135303   4.581   3.950   4.414  0.0105 -1.2029  0.2055
 7947SOL    HW235304   4.559   4.041   4.528 -0.8263 -0.7804  1.6696
 7948SOL     OW35305   4.540   2.890   6.992 -0.1426 -0.6837 -0.0348
 7948SOL    HW135306   4.602   2.857   7.056  1.1907  1.4286 -0.2585
 7948SOL    HW235307   4.510   2.814   6.941  0.9666 -2.3364  1.7706
 7949SOL     OW35308   4.701   4.191   8.581  0.0348 -0.2941 -0.9290
 7949SOL    HW135309   4.719   4.100   8.558 -0.1236 -0.2048 -1.3928
 7949SOL    HW235310   4.626   4.190   8.641  0.5820 -3.5453 -0.3198
 7950SOL     OW35311   1.557   1.120   8.774  0.2913  0.2166 -0.4049
 7950SOL    HW135312   1.625   1.149   8.834 -0.8905 -1.5788  1.7947
 7950SOL    HW235313   1.471   1.138   8.813  0.8232 -0.2288  0.9510
 7951SOL     OW35314   1.029   0.980   4.626 -0.0959  0.1095  0.1959
 7951SOL    HW135315   1.092   1.048   4.652 -1.2333  0.6168  1.5979
 7951SOL    HW235316   0.977   0.968   4.706  0.0594  1.5600  0.5083
 7952SOL     OW35317   1.144   3.245  12.587 -0.3287  0.1327  0.1902
 7952SOL    HW135318   1.073   3.184  12.568 -0.8100  0.2512  1.6371
 7952SOL    HW235319   1.194   3.259  12.506 -0.9816  1.7993  0.0693
 7953SOL     OW35320   0.834   1.604   2.017  0.5096  0.6414  0.1994
 7953SOL    HW135321   0.912   1.651   1.987  1.6022 -1.1542  0.2351
 7953SOL    HW235322   0.765   1.632   1.956 -0.7179 -1.0624  0.8326
 7954SOL     OW35323   0.314   1.084  16.490 -0.0323 -0.2022 -0.1586
 7954SOL    HW135324   0.237   1.064  16.436  1.4125 -2.0869 -1.5177
 7954SOL    HW235325   0.388   1.086  16.430 -1.5541  1.9423 -1.9857
 7955SOL     OW35326   2.131   0.885   3.679 -0.2077 -0.3711 -0.6499
 7955SOL    HW135327   2.041   0.918   3.678 -0.0589  0.0359 -0.8574
 7955SOL    HW235328   2.129   0.799   3.720  0.3285  0.0026  0.1558
 7956SOL     OW35329   0.439   1.188   2.434 -0.5965 -0.4335  0.1924
 7956SOL    HW135330   0.434   1.148   2.521 -2.3335 -0.6130  0.0008
 7956SOL    HW235331   0.412   1.112   2.383 -1.9733 -0.8594  1.5574
 7957SOL     OW35332   2.625   3.810   6.625 -0.2120  0.7861 -0.7230
 7957SOL    HW135333   2.691   3.743   6.609  0.9558  1.1917  2.4296
 7957SOL    HW235334   2.562   3.760   6.677  0.7426  0.4528  0.1190
 7958SOL     OW35335   0.258   0.200   2.800 -0.0141  0.6011 -0.5013
 7958SOL    HW135336   0.182   0.169   2.850 -0.1866  0.9393 -0.5552
 7958SOL    HW235337   0.240   0.294   2.796 -1.6971  0.3664  1.7962
 7959SOL     OW35338   0.390   1.722   5.637  0.2932  0.5283 -0.6043
 7959SOL    HW135339   0.462   1.733   5.699 -0.3575  0.4122  0.1720
 7959SOL    HW235340   0.319   1.715   5.701  0.1804 -0.2283 -0.8150
 7960SOL     OW35341   2.257   3.766   7.249 -0.2644 -0.2707 -0.0674
 7960SOL    HW135342   2.192   3.737   7.313 -2.5178  3.5872 -0.6380
 7960SOL    HW235343   2.266   3.695   7.186 -0.2642 -1.3411  1.1296
 7961SOL     OW35344   1.261   1.586  12.518 -0.2234 -0.1199  0.5053
 7961SOL    HW135345   1.276   1.493  12.534 -1.6410 -0.8524 -2.4701
 7961SOL    HW235346   1.173   1.604  12.550 -1.1865 -1.1021 -1.6104
 7962SOL     OW35347   3.539   1.516   3.986 -0.4943 -0.2743  0.3996
 7962SOL    HW135348   3.512   1.532   4.076 -1.7846  0.6580 -0.1602
 7962SOL    HW235349   3.595   1.439   4.000  0.0104  0.2170  1.0529
 7963SOL     OW35350   1.592   2.305   7.327 -0.0742  0.1303 -0.1804
 7963SOL    HW135351   1.537   2.382   7.314  1.0242  1.2894  2.1449
 7963SOL    HW235352   1.599   2.315   7.422 -2.0181 -2.4877  0.2673
 7964SOL     OW35353   2.174   1.854   6.075 -0.0239 -0.9214 -0.2057
 7964SOL    HW135354   2.204   1.802   6.000 -0.4840 -2.2708  0.5508
 7964SOL    HW235355   2.086   1.869   6.040  0.6911  2.2226 -0.6632
 7965SOL     OW35356   0.890   2.447   4.499  0.6477  0.0376 -0.1802
 7965SOL    HW135357   0.873   2.457   4.593  1.8781 -0.4952  0.0941
 7965SOL    HW235358   0.984   2.451   4.482  0.0650  0.0308 -3.4535
 7966SOL     OW35359   2.573   0.494   4.681 -0.6483  0.8113 -0.2199
 7966SOL    HW135360   2.502   0.431   4.679  1.5901 -1.7463  1.4759
 7966SOL    HW235361   2.644   0.434   4.702  2.1256  3.3843 -2.1283
 7967SOL     OW35362   3.370   0.125   5.067  0.4329  0.8215 -0.3302
 7967SOL    HW135363   3.307   0.090   5.131  1.6240 -0.5865  0.0500
 7967SOL    HW235364   3.359   0.219   5.082 -2.2372  0.2631  1.2561
 7968SOL     OW35365   0.364   2.087  12.360 -0.2953  0.7643 -0.4232
 7968SOL    HW135366   0.272   2.059  12.355 -0.2768  0.6723 -0.2642
 7968SOL    HW235367   0.390   2.028  12.431 -2.2872  1.0646  0.5528
 7969SOL     OW35368   4.484   2.711  16.473 -0.4113  0.7829 -0.3169
 7969SOL    HW135369   4.539   2.652  16.422  0.2717  0.8048  0.4017
 7969SOL    HW235370   4.482   2.665  16.556 -1.9220  1.1703 -0.1384
 7970SOL     OW35371   3.109   2.361   6.367 -0.0697 -0.0555 -0.2921
 7970SOL    HW135372   3.140   2.372   6.277  1.5746 -0.5706  0.2129
 7970SOL    HW235373   3.015   2.355   6.349  0.2081  0.7310 -2.0274
 7971SOL     OW35374   2.335   0.832   3.117 -0.2073 -0.7049  0.0275
 7971SOL    HW135375   2.348   0.826   3.212  0.5713  1.9442  0.0790
 7971SOL    HW235376   2.357   0.924   3.102 -1.2765 -0.2888  0.9818
 7972SOL     OW35377   4.653   4.297  16.797  0.6660  0.0765 -0.0091
 7972SOL    HW135378   4.584   4.345  16.751  1.0913  2.2959  1.6603
 7972SOL    HW235379   4.619   4.276  16.883 -0.6977 -0.2389 -0.6265
 7973SOL     OW35380   4.142   0.673   1.908 -0.0773 -0.3964  0.1690
 7973SOL    HW135381   4.072   0.734   1.884  0.6314  0.5564  0.5619
 7973SOL    HW235382   4.119   0.648   1.998 -1.5864  1.7521  0.3610
 7974SOL     OW35383   2.793   4.517   6.127 -0.1316  0.1408 -0.9271
 7974SOL    HW135384   2.784   4.427   6.159 -2.1298  0.7620  0.1983
 7974SOL    HW235385   2.828   4.568   6.200  1.3134 -0.0881 -1.4592
 7975SOL     OW35386   0.038   2.685   3.548 -0.4039 -0.2004 -0.1967
 7975SOL    HW135387   0.133   2.687   3.561 -0.8697 -1.5328  3.4304
 7975SOL    HW235388   0.004   2.649   3.630 -0.1734 -0.7206 -0.3281
 7976SOL     OW35389   3.844   2.623  10.021 -0.0189  0.3448 -0.2164
 7976SOL    HW135390   3.860   2.691  10.086 -1.6182  1.0836 -0.6012
 7976SOL    HW235391   3.919   2.642   9.965  1.3762  0.3582  1.6957
 7977SOL     OW35392   2.852   1.132  12.683  0.2421 -0.0745  0.1381
 7977SOL    HW135393   2.769   1.172  12.657 -0.1986 -0.2606  1.2532
 7977SOL    HW235394   2.827   1.050  12.727 -1.3167 -0.7305 -1.9458
 7978SOL     OW35395   3.167   1.273   6.215 -0.2149 -0.2176  0.0264
 7978SOL    HW135396   3.215   1.337   6.162  0.0583 -0.6631 -0.2663
 7978SOL    HW235397   3.185   1.295   6.307  2.3544  0.6420 -0.6859
 7979SOL     OW35398   2.922   2.065   5.437 -0.2013 -0.4538  0.2291
 7979SOL    HW135399   2.942   2.048   5.529 -1.4380  2.6227  1.0662
 7979SOL    HW235400   2.991   2.131   5.434 -1.4698  0.8285 -0.8914
 7980SOL     OW35401   0.671   2.384   4.321  0.3917  0.4253 -0.2923
 7980SOL    HW135402   0.744   2.396   4.381  1.5339 -0.6219 -1.4761
 7980SOL    HW235403   0.713   2.400   4.237 -1.6272  1.4979 -1.0817
 7981SOL     OW35404   1.078   0.657   8.149  0.4976  0.3655 -0.7094
 7981SOL    HW135405   1.050   0.575   8.109 -0.3894 -0.3589  1.4036
 7981SOL    HW235406   0.990   0.690   8.171 -0.7883 -3.3780 -0.2751
 7982SOL     OW35407   1.311   0.638   4.825 -0.0050  0.7671  0.2787
 7982SOL    HW135408   1.218   0.620   4.838  0.3576 -1.7514 -0.4889
 7982SOL    HW235409   1.330   0.648   4.918 -0.2559 -2.3890  0.6813
 7983SOL     OW35410   3.014   2.085   9.910  0.1822  0.0801  0.1587
 7983SOL    HW135411   2.965   2.004   9.895 -1.9269  1.6000 -1.2217
 7983SOL    HW235412   2.986   2.101  10.000  0.0444 -0.5380  0.2281
 7984SOL     OW35413   3.942   2.950  15.811  0.1755  0.1504 -0.2060
 7984SOL    HW135414   3.890   3.020  15.850  3.7855  2.0835  1.1047
 7984SOL    HW235415   3.872   2.890  15.785 -1.8916  2.1161  0.7749
 7985SOL     OW35416   1.249   1.914   4.733 -0.2475 -0.0406  0.1679
 7985SOL    HW135417   1.155   1.926   4.728 -0.2738  0.1263  1.0519
 7985SOL    HW235418   1.256   1.848   4.802  0.3983 -1.7146 -1.4832
 7986SOL     OW35419   0.830   0.882   4.976  0.0108  0.3992 -0.2432
 7986SOL    HW135420   0.832   0.845   4.888  0.7063  2.1332 -0.9552
 7986SOL    HW235421   0.910   0.843   5.012 -0.8423 -1.3960 -0.3296
 7987SOL     OW35422   4.048   2.859   8.277 -0.3340  0.6163 -0.3026
 7987SOL    HW135423   4.118   2.875   8.214 -0.0368  2.2386  0.4423
 7987SOL    HW235424   4.101   2.837   8.354 -0.6973 -0.5915 -0.3960
 7988SOL     OW35425   4.514   0.279  17.415  0.2511 -0.0963 -1.3751
 7988SOL    HW135426   4.565   0.359  17.427  0.0935  0.2951 -3.4314
 7988SOL    HW235427   4.427   0.316  17.431  0.6489  0.9114 -1.4989
 7989SOL     OW35428   1.099   3.000   3.602 -0.0941 -0.0947  0.9115
 7989SOL    HW135429   1.020   3.024   3.552  1.4916  0.2732 -1.3904
 7989SOL    HW235430   1.066   2.993   3.692  2.3586  0.5815  1.8690
 7990SOL     OW35431   0.554   0.980   3.743  0.3958 -0.0020 -0.1699
 7990SOL    HW135432   0.602   0.976   3.826  1.8750 -0.4755 -1.0392
 7990SOL    HW235433   0.527   1.072   3.747 -2.1175 -0.8042  0.9902
 7991SOL     OW35434   2.081   2.052   7.407  0.0412 -0.3457 -0.0033
 7991SOL    HW135435   2.005   2.089   7.363 -0.4293  0.0195  1.1233
 7991SOL    HW235436   2.108   2.128   7.458 -1.4645 -1.3243  2.2617
 7992SOL     OW35437   0.136   0.261   9.506  0.3987  0.2994 -0.4048
 7992SOL    HW135438   0.071   0.317   9.463 -1.2696 -1.0411  0.3326
 7992SOL    HW235439   0.207   0.323   9.515 -0.5261  1.0759  1.7715
 7993SOL     OW35440   2.970   1.771   4.775  0.0965  0.2609 -0.0314
 7993SOL    HW135441   3.036   1.806   4.715 -0.6831  1.5229 -0.1468
 7993SOL    HW235442   2.967   1.678   4.751  2.1005  0.3096 -0.4726
 7994SOL     OW35443   0.739   3.217   7.111  0.4057 -0.1110 -0.3618
 7994SOL    HW135444   0.730   3.209   7.016 -2.1670 -1.2891  0.0064
 7994SOL    HW235445   0.825   3.260   7.110  0.4499 -0.1317  1.8197
 7995SOL     OW35446   0.114   1.385  11.748  0.1635 -0.3951  0.6043
 7995SOL    HW135447   0.201   1.423  11.732 -0.0938  0.3312  0.9529
 7995SOL    HW235448   0.100   1.312  11.688  0.4831  0.3327 -0.3718
 7996SOL     OW35449   4.637   4.443   8.918 -0.3614 -0.2230  0.2130
 7996SOL    HW135450   4.562   4.393   8.886 -0.8219  1.2098 -0.9621
 7996SOL    HW235451   4.666   4.485   8.837  1.3583 -1.4119  0.2353
 7997SOL     OW35452   3.839   4.460   2.158  0.2099  0.2514  0.1629
 7997SOL    HW135453   3.903   4.520   2.197  1.7164 -2.1099  1.3012
 7997SOL    HW235454   3.899   4.397   2.116 -0.0896 -0.8315  1.3898
 7998SOL     OW35455   0.917   1.228  10.045  0.3380  0.2615  0.0858
 7998SOL    HW135456   0.997   1.228  10.098  0.2465  2.5515  0.2286
 7998SOL    HW235457   0.944   1.148  10.001 -1.4502  0.9415 -2.2364
 7999SOL     OW35458   0.933   1.597   3.361  0.4920 -0.5453 -0.1980
 7999SOL    HW135459   0.948   1.562   3.450  0.1616  2.2578  0.9514
 7999SOL    HW235460   0.845   1.577   3.330  0.3105 -1.0506  0.6447
 8000SOL     OW35461   1.928   2.074  13.840  0.0850  0.0540 -0.1358
 8000SOL    HW135462   1.912   2.020  13.763 -2.6527  0.1525  0.3624
 8000SOL    HW235463   1.909   2.161  13.804  0.9306  0.4689  0.4195
 8001SOL     OW35464   1.636   3.961  17.310  0.2762 -0.0542  0.7088
 8001SOL    HW135465   1.632   3.867  17.291  1.8244 -0.0320  0.3497
 8001SOL    HW235466   1.555   3.974  17.361 -0.2484 -2.6268  0.5143
 8002SOL     OW35467   3.348   4.452   3.778  0.1435  0.5493  0.2740
 8002SOL    HW135468   3.294   4.498   3.844 -2.2065 -0.7058 -0.7650
 8002SOL    HW235469   3.323   4.369   3.818 -3.0614  0.3978 -2.0094
 8003SOL     OW35470   2.593   0.003  15.537  0.5489  0.8653  0.1753
 8003SOL    HW135471   2.636   4.649  15.569 -3.2640 -1.5991 -0.7911
 8003SOL    HW235472   2.601   4.722  15.441  2.0533  1.4538  0.2734
 8004SOL     OW35473   1.410   3.887   0.597 -0.1377 -0.3539 -0.1384
 8004SOL    HW135474   1.464   3.857   0.671  1.4771  1.9840 -0.3646
 8004SOL    HW235475   1.332   3.917   0.643  0.8937  1.8575  0.2109
 8005SOL     OW35476   0.641   0.061   4.753  0.2471  0.1199  0.2407
 8005SOL    HW135477   0.671   0.022   4.670 -1.1707  0.5183 -0.4597
 8005SOL    HW235478   0.561   0.010   4.765  0.1176  0.6187  1.3832
 8006SOL     OW35479   2.648   4.151   7.986 -0.2862 -0.0372  0.4008
 8006SOL    HW135480   2.706   4.225   7.968 -0.5952  0.3664  1.0483
 8006SOL    HW235481   2.561   4.188   7.999 -0.2593  0.4563 -0.7697
 8007SOL     OW35482   2.119   3.423   8.104 -0.3478 -0.0971  0.0022
 8007SOL    HW135483   2.079   3.501   8.064 -1.9832 -0.8621  0.1700
 8007SOL    HW235484   2.136   3.460   8.191  1.3535  0.2417 -0.4739
 8008SOL     OW35485   3.177   3.615   5.006  0.5305  0.3534  0.0893
 8008SOL    HW135486   3.272   3.629   5.010  0.5392  0.2121  0.3837
 8008SOL    HW235487   3.157   3.565   5.085 -0.2170 -1.1067 -1.0104
 8009SOL     OW35488   2.069   1.233   3.813 -0.1194  0.0030  0.2451
 8009SOL    HW135489   2.156   1.195   3.827 -1.1330 -1.9040  1.3840
 8009SOL    HW235490   2.083   1.285   3.734 -1.1418  1.7916  1.2397
 8010SOL     OW35491   0.070   0.643  17.064 -1.2854  0.2603 -0.2415
 8010SOL    HW135492   0.150   0.660  17.015 -1.8354  2.1190 -0.4917
 8010SOL    HW235493   0.047   0.728  17.101  0.5207 -0.3147  2.1832
 8011SOL     OW35494   1.262   3.360   3.592  1.0008  0.6622  0.1298
 8011SOL    HW135495   1.252   3.316   3.677 -1.8757  0.6588 -0.2179
 8011SOL    HW235496   1.281   3.289   3.531 -0.7967 -0.6833  1.1074
 8012SOL     OW35497   0.417   3.879   7.546 -0.3651  0.1462 -0.3791
 8012SOL    HW135498   0.500   3.883   7.594 -0.0268  0.6133 -0.9907
 8012SOL    HW235499   0.416   3.792   7.506 -0.4603  1.0373 -2.3295
 8013SOL     OW35500   4.315   3.791   5.008 -0.1466 -0.3542  0.1386
 8013SOL    HW135501   4.344   3.714   5.058 -0.7045 -0.8977 -0.3709
 8013SOL    HW235502   4.339   3.870   5.056 -0.6041 -1.6045  2.4521
 8014SOL     OW35503   3.629   1.570   5.908 -0.0180 -0.1329 -0.0094
 8014SOL    HW135504   3.620   1.596   6.000  2.2067 -1.8382  0.6935
 8014SOL    HW235505   3.598   1.482   5.930  0.8031  0.3007  2.9423
 8015SOL     OW35506   0.540   1.581   3.964  0.2347 -0.5474  0.7812
 8015SOL    HW135507   0.631   1.556   3.982  0.1421 -0.3936  1.4421
 8015SOL    HW235508   0.500   1.565   4.049  1.5467  0.0388  1.4984
 8016SOL     OW35509   2.153   4.170  11.076  0.4034  0.1026  0.6087
 8016SOL    HW135510   2.095   4.097  11.053  0.0269  0.3232  0.8448
 8016SOL    HW235511   2.236   4.154  11.033 -1.4479  0.7896 -3.2112
 8017SOL     OW35512   2.302   2.737   4.546 -0.1824  0.0567  0.8282
 8017SOL    HW135513   2.343   2.811   4.590  0.2753 -1.7169  3.3446
 8017SOL    HW235514   2.345   2.668   4.595 -0.7655 -0.5891  0.4349
 8018SOL     OW35515   4.528   0.183   7.486 -0.9322 -0.2168 -0.7147
 8018SOL    HW135516   4.601   0.123   7.502  0.7257  1.7552 -0.8301
 8018SOL    HW235517   4.568   0.267   7.461  0.6588 -0.2787  1.6162
 8019SOL     OW35518   1.716   0.458   6.238  0.8055 -0.2629 -0.3343
 8019SOL    HW135519   1.755   0.468   6.325 -0.0232  0.4829 -0.0493
 8019SOL    HW235520   1.669   0.540   6.223  0.3531 -0.2744  1.0715
 8020SOL     OW35521   1.250   1.309   1.184 -0.0271 -0.1018 -0.1941
 8020SOL    HW135522   1.255   1.403   1.202  1.4572 -0.3451  0.6886
 8020SOL    HW235523   1.323   1.300   1.122 -0.2727 -0.8207 -0.3716
 8021SOL     OW35524   0.932   0.395   8.286  0.1097 -0.1595  0.1282
 8021SOL    HW135525   0.895   0.475   8.323 -2.3602 -0.8812 -0.8105
 8021SOL    HW235526   0.892   0.396   8.199  0.0038 -0.5607  0.1714
 8022SOL     OW35527   4.076   0.227   3.023 -0.0505 -0.1359 -0.1606
 8022SOL    HW135528   4.082   0.301   2.962 -0.6964 -1.2553 -1.5873
 8022SOL    HW235529   4.088   0.148   2.971  2.9561  0.4226 -0.3530
 8023SOL     OW35530   2.022   0.083   1.669 -0.5128 -0.0593 -0.0459
 8023SOL    HW135531   2.091   0.038   1.621 -0.2034  0.2805  0.0767
 8023SOL    HW235532   1.960   0.068   1.598 -0.6085 -0.3034  0.0919
 8024SOL     OW35533   1.746   3.138  11.476  0.2303 -0.2712  0.0052
 8024SOL    HW135534   1.758   3.120  11.383  1.7982  2.8997 -0.4004
 8024SOL    HW235535   1.796   3.071  11.524  0.4978 -0.2023 -0.1803
 8025SOL     OW35536   4.505   0.762   2.064 -0.1829 -0.6485  0.2051
 8025SOL    HW135537   4.426   0.813   2.082 -2.2002 -3.4509 -0.6825
 8025SOL    HW235538   4.562   0.824   2.019 -1.0145  0.1851  0.3046
 8026SOL     OW35539   3.575   4.347  14.380  0.6374  0.5530  0.1145
 8026SOL    HW135540   3.507   4.281  14.364 -0.3413  1.1114  2.0703
 8026SOL    HW235541   3.630   4.338  14.302  1.1077 -4.1381  0.9778
 8027SOL     OW35542   0.894   3.488   6.837 -0.5714 -0.0086  0.5823
 8027SOL    HW135543   0.869   3.485   6.929  0.4568 -1.8391  0.7976
 8027SOL    HW235544   0.987   3.466   6.831 -0.8157  0.0313 -3.6151
 8028SOL     OW35545   3.792   3.213   5.708 -0.5463  0.2658  0.1042
 8028SOL    HW135546   3.706   3.228   5.746 -1.0641  2.5233 -1.9218
 8028SOL    HW235547   3.757   3.177   5.627 -1.1818  1.5368 -0.1765
 8029SOL     OW35548   3.421   4.528   8.834 -0.6105 -0.1103  0.0484
 8029SOL    HW135549   3.503   4.563   8.798  0.6417 -1.3756  1.6470
 8029SOL    HW235550   3.439   4.496   8.922 -0.7058  2.1556  0.8691
 8030SOL     OW35551   1.412   2.357   4.567  0.3737 -0.0047 -0.2757
 8030SOL    HW135552   1.480   2.312   4.517  0.7262 -0.1139  0.2970
 8030SOL    HW235553   1.424   2.308   4.649  0.6188 -2.4501 -1.7788
 8031SOL     OW35554   4.133   0.241  16.385 -0.6082 -0.3832 -0.1278
 8031SOL    HW135555   4.224   0.246  16.415  0.2885 -1.4917 -2.6110
 8031SOL    HW235556   4.101   0.320  16.428  2.4148  1.5578 -1.4485
 8032SOL     OW35557   0.255   3.041   4.178  0.1119 -0.0283 -0.0998
 8032SOL    HW135558   0.296   3.127   4.190  0.4055 -0.0497 -0.9743
 8032SOL    HW235559   0.285   2.990   4.254  3.9939  1.1500 -0.8516
 8033SOL     OW35560   4.708   0.917  17.459 -0.3487 -0.3449  0.1168
 8033SOL    HW135561   0.038   0.994  17.443  0.3843 -0.9303 -0.2165
 8033SOL    HW235562   4.684   0.895  17.369 -1.3424 -1.1140  0.5760
 8034SOL     OW35563   0.702   0.327   8.500 -0.0665 -0.2030 -0.0173
 8034SOL    HW135564   0.740   0.262   8.559  1.3373  0.1659 -0.5322
 8034SOL    HW235565   0.755   0.405   8.515 -0.7541  0.2160  0.2291
 8035SOL     OW35566   2.806   2.195   0.951 -0.1048 -0.3319  0.0746
 8035SOL    HW135567   2.848   2.132   0.893  2.1755  0.3153  1.0555
 8035SOL    HW235568   2.726   2.213   0.900 -0.3279 -0.7926  0.2626
 8036SOL     OW35569   4.501   4.098  14.273 -0.0931  0.4693  0.3641
 8036SOL    HW135570   4.493   4.133  14.361 -1.1539 -0.1622  0.5121
 8036SOL    HW235571   4.416   4.054  14.268  0.2521 -0.0228 -1.3352
 8037SOL     OW35572   3.514   0.134   6.914  0.6086 -0.2465 -0.0242
 8037SOL    HW135573   3.537   0.133   7.007  1.9362  1.1797 -0.3505
 8037SOL    HW235574   3.477   0.046   6.908  1.0883 -0.5220  1.0086
 8038SOL     OW35575   0.810   0.814   6.985  0.1780 -0.1360  0.2599
 8038SOL    HW135576   0.900   0.839   7.003 -0.0615  0.6205  0.3739
 8038SOL    HW235577   0.777   0.766   7.062  2.1474 -1.3278  0.3620
 8039SOL     OW35578   2.580   2.547   2.903 -0.0790  0.0621  0.2302
 8039SOL    HW135579   2.639   2.622   2.895  1.9302 -1.5190  0.1724
 8039SOL    HW235580   2.577   2.522   2.996 -0.3886 -0.9563 -0.0530
 8040SOL     OW35581   0.522   1.326   9.895 -0.3662  0.3320 -0.0504
 8040SOL    HW135582   0.612   1.332   9.861 -0.6775 -1.2396 -1.1475
 8040SOL    HW235583   0.545   1.274   9.973 -1.5035  1.4168  1.0141
 8041SOL     OW35584   3.447   4.577  14.015 -0.0486  0.1038 -0.1958
 8041SOL    HW135585   3.515   4.571  13.948  0.8694  1.6064  0.5947
 8041SOL    HW235586   3.487   4.525  14.085 -1.4541 -0.6999 -0.0018
 8042SOL     OW35587   0.493   3.179   4.718 -0.1326 -0.2772  0.0484
 8042SOL    HW135588   0.522   3.096   4.755 -0.0481 -1.3826 -2.5270
 8042SOL    HW235589   0.499   3.233   4.797  0.5443  0.8551 -0.7735
 8043SOL     OW35590   2.992   1.675   7.330 -0.0974  0.6525  0.3140
 8043SOL    HW135591   2.904   1.641   7.315 -0.1903  0.9082  0.2909
 8043SOL    HW235592   3.052   1.605   7.301  2.0464  1.2830  3.2675
 8044SOL     OW35593   0.368   2.942  12.930 -0.4791  0.0396 -0.4400
 8044SOL    HW135594   0.433   2.997  12.973  0.5262  0.9810 -3.1486
 8044SOL    HW235595   0.419   2.864  12.907  2.1833  1.7392 -0.1850
 8045SOL     OW35596   4.371   2.941   5.173 -0.1106 -0.1333 -0.1723
 8045SOL    HW135597   4.412   3.024   5.148 -0.9017  0.8485  1.7879
 8045SOL    HW235598   4.308   2.970   5.239 -0.0186  1.5690 -0.8375
 8046SOL     OW35599   3.885   3.798   5.665  0.0784  0.4731  0.3328
 8046SOL    HW135600   3.911   3.833   5.751  0.7257  3.2305 -0.9758
 8046SOL    HW235601   3.815   3.862   5.655 -0.1403  0.1864  0.0427
 8047SOL     OW35602   0.756   0.284   6.226 -0.0307  0.3929 -0.5382
 8047SOL    HW135603   0.714   0.364   6.258 -0.7392  1.2267 -3.5686
 8047SOL    HW235604   0.826   0.267   6.289  0.8828 -1.0745 -1.9609
 8048SOL     OW35605   1.126   3.644   9.803 -0.1912 -0.3859 -0.1631
 8048SOL    HW135606   1.064   3.695   9.854 -1.0235 -0.4692 -1.0858
 8048SOL    HW235607   1.077   3.621   9.723 -1.1183 -0.0897  0.3187
 8049SOL     OW35608   1.091   3.472  16.431  0.1851 -0.0570 -0.2223
 8049SOL    HW135609   1.184   3.466  16.408  0.3609  2.0084 -0.0539
 8049SOL    HW235610   1.073   3.389  16.473  0.3429 -0.2153 -0.4672
 8050SOL     OW35611   2.547   1.912   8.603 -0.4137  0.0205  0.0851
 8050SOL    HW135612   2.577   1.821   8.610  1.0649  0.6345  1.6511
 8050SOL    HW235613   2.614   1.954   8.657 -1.3125 -0.7090  1.7680
 8051SOL     OW35614   2.589   0.315   8.166  0.2056 -0.6421 -0.2417
 8051SOL    HW135615   2.536   0.273   8.234 -0.6824 -0.1945 -0.6724
 8051SOL    HW235616   2.543   0.294   8.085  1.9726 -1.0556 -1.1322
 8052SOL     OW35617   4.254   1.046  14.715 -0.3099  0.4136  0.0960
 8052SOL    HW135618   4.255   1.135  14.681  1.1752  0.0463 -0.7946
 8052SOL    HW235619   4.327   1.006  14.668  0.3600 -0.5636  1.9519
 8053SOL     OW35620   3.213   2.961   8.891  0.6610 -0.4132  0.1881
 8053SOL    HW135621   3.150   2.922   8.952 -0.4540 -3.6003 -3.0279
 8053SOL    HW235622   3.225   2.893   8.824 -0.7301  1.2954 -1.7770
 8054SOL     OW35623   1.191   3.927   0.742  0.9510 -0.3101 -0.2180
 8054SOL    HW135624   1.250   3.901   0.813 -0.1442  2.3490  1.6797
 8054SOL    HW235625   1.117   3.868   0.760  1.0596  0.3306  2.4329
 8055SOL     OW35626   4.166   0.649   7.855 -0.2361 -0.3782  0.9438
 8055SOL    HW135627   4.252   0.689   7.868 -0.2864  0.8290 -2.5004
 8055SOL    HW235628   4.185   0.560   7.826  1.5210  1.0876 -2.4016
 8056SOL     OW35629   3.570   3.122  13.504 -0.8688 -0.5274  0.5085
 8056SOL    HW135630   3.632   3.049  13.516  1.1494  0.7911 -1.8795
 8056SOL    HW235631   3.526   3.116  13.589 -0.6458  0.9022  0.7282
 8057SOL     OW35632   0.334   1.618   9.578 -0.6197  0.3051 -0.1901
 8057SOL    HW135633   0.324   1.571   9.661 -0.7918 -1.0582 -0.9881
 8057SOL    HW235634   0.424   1.591   9.558 -1.1752 -1.0501 -0.8502
 8058SOL     OW35635   2.390   2.872   4.293  0.0370 -0.1293  0.3428
 8058SOL    HW135636   2.445   2.847   4.368  0.1151  0.6611  0.5547
 8058SOL    HW235637   2.312   2.890   4.345 -0.6406 -0.8765 -0.4329
 8059SOL     OW35638   0.183   1.614  13.890 -0.2488 -0.5050  0.1139
 8059SOL    HW135639   0.249   1.577  13.949  1.2275 -1.8073 -2.3499
 8059SOL    HW235640   0.172   1.698  13.935 -0.1006  0.5799 -1.8845
 8060SOL     OW35641   0.889   2.539   2.217 -0.0771 -0.1137 -0.0180
 8060SOL    HW135642   0.885   2.514   2.124 -1.8135  1.3890 -0.3370
 8060SOL    HW235643   0.831   2.475   2.259  0.8198 -2.3681 -2.2116
 8061SOL     OW35644   4.482   2.596   2.236 -0.5141 -0.5148 -0.1950
 8061SOL    HW135645   4.403   2.639   2.205 -0.4775 -1.7677 -2.0540
 8061SOL    HW235646   4.514   2.669   2.289 -0.6097 -1.6518  1.4368
 8062SOL     OW35647   4.288   0.670   2.799  0.1200  0.2843 -0.5221
 8062SOL    HW135648   4.206   0.719   2.810 -0.0620 -0.1664  0.1184
 8062SOL    HW235649   4.277   0.625   2.716 -0.6586 -0.7237  0.1414
 8063SOL     OW35650   0.018   1.842   4.056  0.1109 -0.4148 -0.3184
 8063SOL    HW135651   0.006   1.747   4.050  0.0593 -0.5334  1.7585
 8063SOL    HW235652   0.113   1.838   4.062  0.0013 -2.4127  0.1196
 8064SOL     OW35653   1.798   0.559   1.978 -0.2520  0.3589 -0.1053
 8064SOL    HW135654   1.772   0.476   1.938 -1.1608  0.8253 -0.4779
 8064SOL    HW235655   1.841   0.599   1.902  0.9403  0.0465  0.4032
 8065SOL     OW35656   3.176   0.565   7.365  0.2296 -0.2552 -0.2403
 8065SOL    HW135657   3.173   0.476   7.330 -0.8249  0.5761 -2.2264
 8065SOL    HW235658   3.256   0.563   7.419 -0.6486  0.5731  1.0935
 8066SOL     OW35659   3.309   0.183   0.630 -0.5275  0.1027 -0.5370
 8066SOL    HW135660   3.404   0.184   0.623 -0.5008  0.8985 -0.0531
 8066SOL    HW235661   3.294   0.127   0.554  1.5761  1.0614 -1.6500
 8067SOL     OW35662   3.389   4.145   7.335  0.4994  0.1173  0.5572
 8067SOL    HW135663   3.305   4.185   7.354 -1.0553 -1.7350 -2.4149
 8067SOL    HW235664   3.384   4.071   7.395 -2.2598 -0.2612 -0.1408
 8068SOL     OW35665   2.919   1.436   5.848  0.0098 -0.3091  0.3456
 8068SOL    HW135666   2.833   1.429   5.806 -0.7856  3.0222  1.3466
 8068SOL    HW235667   2.908   1.376   5.922  0.8180  0.8354  1.3936
 8069SOL     OW35668   1.195   2.467   3.225  0.2291 -1.3644 -0.0644
 8069SOL    HW135669   1.211   2.449   3.317 -1.5610 -2.9064 -0.0670
 8069SOL    HW235670   1.274   2.427   3.189 -0.5934 -1.6031 -1.6346
 8070SOL     OW35671   0.265   1.416   1.397  0.2827 -0.4216  0.5564
 8070SOL    HW135672   0.359   1.402   1.397  0.5407  1.3130  1.1843
 8070SOL    HW235673   0.244   1.491   1.453  2.3521 -1.3173  2.5337
 8071SOL     OW35674   1.550   1.273  14.659  0.1783  0.0521  0.2607
 8071SOL    HW135675   1.630   1.232  14.627 -0.1669  1.0464 -1.8392
 8071SOL    HW235676   1.555   1.362  14.626 -0.2652 -0.3849 -0.9750
 8072SOL     OW35677   1.583   4.102   7.207 -0.6462  0.4680  0.1468
 8072SOL    HW135678   1.554   4.104   7.116 -1.4589  1.5313  0.4304
 8072SOL    HW235679   1.544   4.017   7.230 -1.4333  1.0145  0.8152
 8073SOL     OW35680   2.726   4.265   6.229 -0.0853 -0.0209  0.2380
 8073SOL    HW135681   2.653   4.243   6.286  0.1426 -1.7227 -0.1306
 8073SOL    HW235682   2.765   4.182   6.203  0.8542  0.6142 -0.4291
 8074SOL     OW35683   4.017   3.162  12.843  0.3522  0.4276  0.0310
 8074SOL    HW135684   4.101   3.117  12.832 -0.4819 -1.1818  0.3196
 8074SOL    HW235685   3.974   3.140  12.761  2.0459 -2.1179 -0.1913
 8075SOL     OW35686   4.017   0.516  15.124 -0.1466 -0.2020 -0.6261
 8075SOL    HW135687   4.032   0.429  15.162 -0.5639  0.3815  0.8830
 8075SOL    HW235688   4.090   0.522  15.063  1.1058 -1.8483  0.6883
 8076SOL     OW35689   2.107   4.696  10.154  0.1497 -0.2290 -0.3460
 8076SOL    HW135690   2.180   4.634  10.159 -2.3602 -3.1557  0.1115
 8076SOL    HW235691   2.058   4.677  10.234  0.6367 -1.1509 -0.2635
 8077SOL     OW35692   1.535   1.818   7.835  0.1866 -0.1256 -0.5542
 8077SOL    HW135693   1.596   1.808   7.762  0.6605  0.8556 -0.2893
 8077SOL    HW235694   1.535   1.723   7.846  1.0032  0.2906  3.0715
 8078SOL     OW35695   2.527   4.469   5.604  0.3120 -0.2588 -0.4612
 8078SOL    HW135696   2.479   4.455   5.685 -2.1764 -0.5841 -1.9969
 8078SOL    HW235697   2.608   4.424   5.628 -0.5348 -0.8149  1.3183
 8079SOL     OW35698   2.190   2.759   8.033 -0.0065 -0.0118  0.1826
 8079SOL    HW135699   2.104   2.800   8.041  0.1389  0.3962 -0.3301
 8079SOL    HW235700   2.226   2.794   7.951 -1.4888 -0.6163 -0.7252
 8080SOL     OW35701   3.798   0.548  12.700 -0.3457  0.5705 -0.0013
 8080SOL    HW135702   3.742   0.609  12.748  1.7611  0.1241  3.0049
 8080SOL    HW235703   3.884   0.589  12.708  0.0323  0.3712 -3.2384
 8081SOL     OW35704   3.046   0.335   4.896  0.2589 -0.1270  0.5467
 8081SOL    HW135705   3.096   0.334   4.814  0.3448  0.0796  0.5968
 8081SOL    HW235706   2.961   0.357   4.858  0.4017  0.0286  0.3183
 8082SOL     OW35707   0.356   1.547  14.059  0.1014  0.0881 -0.3235
 8082SOL    HW135708   0.404   1.467  14.080  0.4846  0.7908  1.5211
 8082SOL    HW235709   0.404   1.611  14.112 -1.1310  0.3097  0.5099
 8083SOL     OW35710   1.213   2.205   4.995  0.2958 -0.0918 -0.0435
 8083SOL    HW135711   1.163   2.132   5.034 -0.0129  1.1201  1.8360
 8083SOL    HW235712   1.293   2.193   5.046 -0.3352 -1.3711  0.6658
 8084SOL     OW35713   1.321   0.463  13.355 -0.3135 -0.3118  0.4592
 8084SOL    HW135714   1.298   0.437  13.444  0.8633 -2.0121  0.2873
 8084SOL    HW235715   1.397   0.409  13.331  0.0222 -0.4184  1.7602
 8085SOL     OW35716   0.301   0.228  10.189 -0.4351  0.3028  0.2472
 8085SOL    HW135717   0.339   0.311  10.218 -0.6175  1.0081 -1.5442
 8085SOL    HW235718   0.292   0.262  10.101 -0.1663  0.8294  0.4217
 8086SOL     OW35719   0.063   3.395   6.878 -0.7911 -0.2226 -0.0615
 8086SOL    HW135720   0.030   3.455   6.944 -0.5551 -1.1859  0.9284
 8086SOL    HW235721   0.101   3.319   6.923 -0.7775 -0.2490 -0.1176
 8087SOL     OW35722   1.984   1.917   4.682  0.6324 -0.3513 -0.2673
 8087SOL    HW135723   2.073   1.893   4.658  1.1808 -0.8056  2.2301
 8087SOL    HW235724   1.988   1.882   4.771  2.1521 -0.3142 -0.3278
 8088SOL     OW35725   1.286   3.850  11.769 -0.1392  0.2272  0.0775
 8088SOL    HW135726   1.214   3.905  11.740 -1.1135 -1.2912 -0.3923
 8088SOL    HW235727   1.358   3.904  11.736  0.7432 -1.7514 -1.2362
 8089SOL     OW35728   1.351   3.265   3.990  0.2845 -0.1825  0.4821
 8089SOL    HW135729   1.284   3.206   3.956 -0.0324 -0.0454  0.8629
 8089SOL    HW235730   1.400   3.212   4.052  0.1352  0.9417  1.5651
 8090SOL     OW35731   4.290   3.364   1.605 -0.6927 -0.2545  0.1777
 8090SOL    HW135732   4.326   3.370   1.517 -0.9631 -1.0685  0.0096
 8090SOL    HW235733   4.294   3.270   1.625  1.3152 -0.1969  0.0384
 8091SOL     OW35734   1.372   1.970  17.345  0.0921 -0.3230 -0.1096
 8091SOL    HW135735   1.326   1.904  17.293  0.3690 -1.7221  1.4538
 8091SOL    HW235736   1.298   2.031  17.351 -0.5680 -0.9607 -1.6814
 8092SOL     OW35737   1.889   0.210   8.987 -0.1207  0.2645 -0.5833
 8092SOL    HW135738   1.948   0.247   8.921 -0.5579 -2.3454 -2.4543
 8092SOL    HW235739   1.942   0.136   9.017 -1.0461  0.1035  0.6677
 8093SOL     OW35740   2.093   1.727  15.776  0.1711 -0.9833  0.5496
 8093SOL    HW135741   2.047   1.654  15.817 -3.6294  0.4515 -1.1269
 8093SOL    HW235742   2.081   1.725  15.681 -1.2712 -1.7152  0.7410
 8094SOL     OW35743   2.803   2.069   6.180  0.6179  0.1206  0.0113
 8094SOL    HW135744   2.795   2.159   6.211  3.1024 -0.0612  1.1858
 8094SOL    HW235745   2.722   2.037   6.219  0.3405 -0.4068 -1.0007
 8095SOL     OW35746   0.171   4.498   5.520  0.1712 -0.2418  0.3862
 8095SOL    HW135747   0.211   4.536   5.598 -2.6509 -1.3945  2.3795
 8095SOL    HW235748   0.248   4.486   5.465 -1.1686 -1.3588 -1.2211
 8096SOL     OW35749   4.095   3.433   2.576  0.1320  0.2837 -0.2566
 8096SOL    HW135750   4.124   3.456   2.488 -0.3960  0.5529 -0.3596
 8096SOL    HW235751   4.004   3.409   2.560  0.3705 -1.0554  0.3144
 8097SOL     OW35752   2.815   0.818   3.510 -0.0500  0.2756 -0.0127
 8097SOL    HW135753   2.820   0.879   3.584 -1.8176  0.8841 -0.3906
 8097SOL    HW235754   2.766   0.876   3.451  0.3225 -0.5564 -1.1393
 8098SOL     OW35755   3.811   4.067  12.278  0.4246  0.8245 -0.1797
 8098SOL    HW135756   3.812   4.039  12.370  1.8183 -0.9379 -0.7349
 8098SOL    HW235757   3.746   4.136  12.293  1.1044  0.7144  3.3053
 8099SOL     OW35758   2.408   2.585   1.823 -0.2488  0.3369  0.0451
 8099SOL    HW135759   2.389   2.655   1.887 -2.7932 -0.6320  0.3622
 8099SOL    HW235760   2.501   2.569   1.839 -0.4989  0.3795  1.5525
 8100SOL     OW35761   3.592   3.532   8.943  0.2353  0.0763 -0.0551
 8100SOL    HW135762   3.614   3.506   9.032  1.4143  0.0838 -0.3348
 8100SOL    HW235763   3.592   3.627   8.949  2.6230  0.2522 -2.4618
 8101SOL     OW35764   3.058   4.251   3.873 -0.0677 -0.3912  0.2409
 8101SOL    HW135765   3.032   4.191   3.943  0.7527 -0.1657  0.7489
 8101SOL    HW235766   3.059   4.341   3.907 -0.3164 -0.0119 -0.7719
 8102SOL     OW35767   0.166   1.471   7.342  0.0453 -0.0853  0.3216
 8102SOL    HW135768   0.216   1.550   7.361  0.0737 -0.0437  0.0652
 8102SOL    HW235769   0.242   1.416   7.360 -0.1171 -0.3157  0.3067
 8103SOL     OW35770   3.639   2.226   8.192  0.2312  0.3144 -0.5025
 8103SOL    HW135771   3.553   2.213   8.232 -0.0512  1.2201 -0.8204
 8103SOL    HW235772   3.619   2.206   8.101 -0.1691  3.1980 -1.0421
 8104SOL     OW35773   1.358   1.414   8.934 -0.5295 -0.9330  0.4427
 8104SOL    HW135774   1.376   1.321   8.941 -0.6579 -1.1870 -2.5616
 8104SOL    HW235775   1.266   1.417   8.960 -0.5771 -0.0848  0.1830
 8105SOL     OW35776   4.509   4.178   2.110 -0.2747  0.4172  0.1076
 8105SOL    HW135777   4.544   4.090   2.123  1.4623  1.0193 -0.5559
 8105SOL    HW235778   4.512   4.177   2.015 -2.4235  2.4747  0.0061
 8106SOL     OW35779   2.297   1.526   1.913 -0.1769 -0.1368  0.0067
 8106SOL    HW135780   2.226   1.466   1.935  0.1019 -0.9945 -1.4043
 8106SOL    HW235781   2.362   1.456   1.920  1.8329  1.6983 -0.2928
 8107SOL     OW35782   0.233   0.351   2.123 -0.8003  0.7331 -1.1084
 8107SOL    HW135783   0.249   0.432   2.171  1.7006  0.4262 -1.4138
 8107SOL    HW235784   0.230   0.296   2.201 -2.2017  1.6842 -0.4872
 8108SOL     OW35785   4.351   4.103  15.899  0.0460  0.4158  1.1600
 8108SOL    HW135786   4.315   4.027  15.943 -2.1738 -0.8957 -2.9472
 8108SOL    HW235787   4.434   4.107  15.946  0.8978 -3.3163 -0.0968
 8109SOL     OW35788   3.835   4.320   1.098  0.2966 -0.0731 -0.0493
 8109SOL    HW135789   3.877   4.332   1.184 -1.7777  1.2807  0.7706
 8109SOL    HW235790   3.750   4.282   1.119  0.6804  0.1531  1.9727
 8110SOL     OW35791   0.516   3.471  13.304  0.4744  0.1718 -0.2292
 8110SOL    HW135792   0.450   3.473  13.373  0.3951 -0.7154 -0.2756
 8110SOL    HW235793   0.521   3.380  13.276  1.0809 -0.2431  1.2298
 8111SOL     OW35794   0.027   1.860  12.024 -0.0474  0.6128  0.1987
 8111SOL    HW135795   0.058   1.949  12.007  0.7224  0.2278 -0.3851
 8111SOL    HW235796   0.071   1.807  11.958 -1.3546  0.1620 -0.3237
 8112SOL     OW35797   2.731   4.716   7.158 -0.3574 -0.0887  0.3163
 8112SOL    HW135798   2.784   4.666   7.220 -0.4169 -1.7300 -0.9769
 8112SOL    HW235799   2.648   4.669   7.151 -0.5612 -0.0314  2.2819
 8113SOL     OW35800   0.747   0.183   7.213  0.0430 -0.2181  0.4178
 8113SOL    HW135801   0.688   0.195   7.138  0.6572 -2.3144 -0.3927
 8113SOL    HW235802   0.754   0.088   7.208  0.6996 -0.0123 -2.7233
 8114SOL     OW35803   3.021   0.629   3.815  0.5061 -0.1057 -0.1961
 8114SOL    HW135804   3.088   0.637   3.882  1.2626 -2.0989 -0.7214
 8114SOL    HW235805   3.028   0.719   3.783  0.3937 -0.3613 -0.9528
 8115SOL     OW35806   0.922   4.490  15.621  0.3385 -0.2450  0.0695
 8115SOL    HW135807   0.898   4.415  15.567 -1.8070  1.9312 -2.0044
 8115SOL    HW235808   0.838   4.500  15.666  0.7050 -0.6541  0.8421
 8116SOL     OW35809   1.564   1.200   2.937  0.2105  0.0932 -1.0606
 8116SOL    HW135810   1.541   1.190   2.845  1.5859  1.6101 -1.5611
 8116SOL    HW235811   1.642   1.255   2.937 -0.2555  0.7203  3.9992
 8117SOL     OW35812   3.314   4.222   0.028  0.1004 -0.0899  0.5262
 8117SOL    HW135813   3.379   4.228  17.660  1.3168 -0.6854  1.5981
 8117SOL    HW235814   3.243   4.280   0.001 -0.8422 -0.2635  2.6467
 8118SOL     OW35815   2.408   3.052  12.365  0.3520 -0.3577 -0.1066
 8118SOL    HW135816   2.329   3.104  12.382  1.8778  1.7651  0.4367
 8118SOL    HW235817   2.429   3.044  12.458 -0.5450 -0.4507  0.0854
 8119SOL     OW35818   0.588   3.976   7.121 -0.0053 -0.1305 -0.0309
 8119SOL    HW135819   0.574   3.924   7.041 -0.8525  0.6589 -0.4013
 8119SOL    HW235820   0.611   3.908   7.184 -4.2599 -1.8842 -0.3524
 8120SOL     OW35821   1.213   2.832   4.384 -0.7062  0.1734  0.2385
 8120SOL    HW135822   1.144   2.790   4.435  0.2401  0.1079  1.4814
 8120SOL    HW235823   1.162   2.909   4.359 -0.5355  0.4532  0.7528
 8121SOL     OW35824   0.176   3.274   9.032  0.9628  0.5912  0.0577
 8121SOL    HW135825   0.146   3.205   9.091  0.1101 -0.2196 -1.3030
 8121SOL    HW235826   0.139   3.247   8.947  2.6966  0.1486 -0.5527
 8122SOL     OW35827   1.182   4.079   2.514 -0.4705 -0.1307 -0.6072
 8122SOL    HW135828   1.168   4.052   2.604  1.0893  1.2791  0.0533
 8122SOL    HW235829   1.240   4.011   2.480 -0.3183 -0.2823 -0.0300
 8123SOL     OW35830   3.620   0.518   5.639  0.0612 -0.3566 -0.2939
 8123SOL    HW135831   3.571   0.544   5.561  0.4045  0.2061 -0.3208
 8123SOL    HW235832   3.677   0.595   5.637  0.4588 -0.6870 -2.5874
 8124SOL     OW35833   3.603   3.540   3.341  0.0099  0.1661  0.2922
 8124SOL    HW135834   3.635   3.625   3.310 -0.7368  0.7337  1.0576
 8124SOL    HW235835   3.656   3.481   3.288 -0.5397  0.1551 -0.2495
 8125SOL     OW35836   2.842   1.774   6.308 -0.3768 -0.7246 -0.3201
 8125SOL    HW135837   2.860   1.798   6.399  0.1071 -1.0764 -0.3245
 8125SOL    HW235838   2.919   1.811   6.266  0.7237 -1.3905  1.0840
 8126SOL     OW35839   3.905   4.693   3.076  0.0019 -0.0174  0.4144
 8126SOL    HW135840   3.858   4.621   3.034  0.3608  1.1390 -1.9756
 8126SOL    HW235841   3.843   0.003   3.140 -0.8444  2.1816 -1.6330
 8127SOL     OW35842   1.071   2.766  14.411 -0.0078  0.1107 -0.3172
 8127SOL    HW135843   1.116   2.732  14.488  0.5150 -0.2070 -0.7641
 8127SOL    HW235844   1.005   2.821  14.452 -0.6850  0.1724 -1.4766
 8128SOL     OW35845   2.750   0.555   3.210  0.2227 -0.0050  0.0948
 8128SOL    HW135846   2.763   0.474   3.162  0.3574 -0.1797  0.4277
 8128SOL    HW235847   2.716   0.614   3.142  0.6636 -1.0177 -0.9923
 8129SOL     OW35848   4.550   0.948   0.208 -0.2158  0.1320  0.2555
 8129SOL    HW135849   4.480   0.971   0.269  0.0431  1.2952  0.0956
 8129SOL    HW235850   4.500   0.950   0.126  0.6169 -1.9702 -0.3144
 8130SOL     OW35851   1.152   1.138  15.148 -0.0927 -0.5657 -0.5945
 8130SOL    HW135852   1.134   1.147  15.242 -0.8063  1.9414 -0.9848
 8130SOL    HW235853   1.066   1.109  15.116 -0.3149 -2.4942  1.7212
 8131SOL     OW35854   4.300   0.405   4.514  0.2224  0.0159 -0.5874
 8131SOL    HW135855   4.222   0.387   4.568  2.2818  0.5705  2.5754
 8131SOL    HW235856   4.310   0.331   4.454 -0.1189  0.8010 -1.6092
 8132SOL     OW35857   1.661   4.295   2.869 -0.6313 -0.3507  0.4808
 8132SOL    HW135858   1.745   4.341   2.874 -0.7165 -0.1675  0.2424
 8132SOL    HW235859   1.623   4.349   2.800 -1.6864 -1.2642  0.3504
 8133SOL     OW35860   1.029   1.467   9.785  0.0873 -0.1973  0.1765
 8133SOL    HW135861   1.006   1.478   9.877  0.0873  0.8685  0.0548
 8133SOL    HW235862   1.007   1.550   9.743  0.5492 -0.6832 -1.0284
 8134SOL     OW35863   2.455   1.402  15.001  0.2123 -0.1952 -0.0679
 8134SOL    HW135864   2.368   1.364  15.013 -0.3394  0.9427 -0.5295
 8134SOL    HW235865   2.482   1.415  15.092  0.0239 -2.2850  0.2772
 8135SOL     OW35866   2.153   3.250   8.950 -0.1797  0.1818 -0.0588
 8135SOL    HW135867   2.093   3.179   8.973 -0.5191  0.1907 -0.9157
 8135SOL    HW235868   2.175   3.233   8.859 -1.4920 -2.3302  0.0827
 8136SOL     OW35869   2.886   1.030   6.305 -0.3922  0.3906  0.0803
 8136SOL    HW135870   2.806   1.082   6.308  0.6171  1.8794  2.0775
 8136SOL    HW235871   2.928   1.046   6.390 -0.0564 -0.6491  0.1094
 8137SOL     OW35872   2.012   0.519   8.554 -0.0497  0.0141 -0.3050
 8137SOL    HW135873   2.065   0.598   8.565  0.5272 -0.0561 -2.5959
 8137SOL    HW235874   1.941   0.555   8.501 -0.8102 -1.3232 -0.1915
 8138SOL     OW35875   0.712   4.518  11.399  0.0942  0.0946  0.4720
 8138SOL    HW135876   0.702   4.570  11.319 -0.2589 -1.4158 -0.4675
 8138SOL    HW235877   0.772   4.452  11.365 -1.3551 -0.8373 -0.3071
 8139SOL     OW35878   3.348   0.131   8.026  1.1361  0.2641  0.4694
 8139SOL    HW135879   3.374   0.159   7.938 -2.1153 -1.1725 -0.9275
 8139SOL    HW235880   3.396   0.048   8.030 -1.1845 -1.1589 -1.4661
 8140SOL     OW35881   3.653   3.627   1.956 -0.0189 -0.6863 -0.1131
 8140SOL    HW135882   3.598   3.571   2.010 -0.1437 -1.1055 -0.6822
 8140SOL    HW235883   3.592   3.669   1.895  0.9705  3.0111  1.4695
 8141SOL     OW35884   2.709   3.822   3.837 -0.3939  0.2151 -0.2365
 8141SOL    HW135885   2.770   3.763   3.794  0.1956 -0.6404  1.8004
 8141SOL    HW235886   2.640   3.835   3.771  1.2543 -0.1960 -2.0385
 8142SOL     OW35887   4.396   4.484   6.872 -0.3888  0.0331  0.6446
 8142SOL    HW135888   4.433   4.400   6.899 -0.3573  0.5692  2.2787
 8142SOL    HW235889   4.448   4.499   6.792 -1.5197  1.9741  0.2693
 8143SOL     OW35890   0.696   0.259   3.303  0.3359 -0.1221  0.5318
 8143SOL    HW135891   0.674   0.166   3.291 -1.0129  0.2941 -0.2410
 8143SOL    HW235892   0.618   0.308   3.277  1.3110  0.4104 -1.4365
 8144SOL     OW35893   3.990   2.793   9.443 -0.2016 -0.6207 -0.0150
 8144SOL    HW135894   4.037   2.825   9.521 -1.5914 -0.7985  0.9062
 8144SOL    HW235895   3.899   2.813   9.467  0.3006 -1.4865  2.6270
 8145SOL     OW35896   2.979   3.929   1.547 -0.1918  0.7618 -0.1858
 8145SOL    HW135897   3.039   3.854   1.543  1.6019  2.0053  2.9475
 8145SOL    HW235898   2.893   3.891   1.527 -0.8787  2.5259 -0.5771
 8146SOL     OW35899   4.552   4.541  10.676  0.0650  0.3299 -0.2794
 8146SOL    HW135900   4.558   4.604  10.604 -0.6224 -1.2968 -1.7477
 8146SOL    HW235901   4.589   4.462  10.638  0.2704  0.4828 -0.3985
 8147SOL     OW35902   0.696   1.765  15.714  0.0837 -0.4435 -0.6143
 8147SOL    HW135903   0.771   1.708  15.703  0.3115 -0.0760 -0.9559
 8147SOL    HW235904   0.646   1.720  15.646 -0.6348  1.0610 -1.0763
 8148SOL     OW35905   2.485   0.809   5.615  0.3960  0.0321  0.2237
 8148SOL    HW135906   2.498   0.766   5.700  0.4211 -0.2733  0.0651
 8148SOL    HW235907   2.567   0.786   5.572 -1.2822 -0.8291 -2.4820
 8149SOL     OW35908   0.596   2.722   3.404  0.2148 -0.2085 -0.0916
 8149SOL    HW135909   0.534   2.791   3.430 -0.7786 -0.8963 -0.6211
 8149SOL    HW235910   0.577   2.663   3.477  0.4846 -0.5697 -0.3181
 8150SOL     OW35911   2.799   0.137   3.834  0.8253  0.2645 -0.1783
 8150SOL    HW135912   2.775   0.137   3.741 -2.5524  0.3875  0.7148
 8150SOL    HW235913   2.857   0.213   3.834  1.8046 -0.4806 -2.7456
 8151SOL     OW35914   3.397   0.170  12.293 -0.1483 -0.1260 -0.0556
 8151SOL    HW135915   3.454   0.096  12.270  1.6858  1.4800 -0.7269
 8151SOL    HW235916   3.396   0.152  12.387  2.3043 -2.5683 -0.4730
 8152SOL     OW35917   4.556   0.191   6.633  0.3984  0.6020 -0.1381
 8152SOL    HW135918   4.476   0.240   6.651  0.5755  1.0891 -0.6850
 8152SOL    HW235919   4.619   0.226   6.697  0.0108 -3.1166  2.2625
 8153SOL     OW35920   1.494   3.863   7.245 -0.1964  0.3455 -0.2294
 8153SOL    HW135921   1.452   3.786   7.207  1.1127 -0.4445 -0.0614
 8153SOL    HW235922   1.530   3.828   7.327  0.2522 -0.3593 -0.7239
 8154SOL     OW35923   0.026   1.119  15.305  0.0147 -0.2299 -0.3259
 8154SOL    HW135924   4.660   1.140  15.287 -0.5142 -3.2675 -1.1991
 8154SOL    HW235925   0.032   1.083  15.394  0.9745  0.3085 -0.1672
 8155SOL     OW35926   4.318   3.753   8.827 -0.7589 -0.5270 -0.4070
 8155SOL    HW135927   4.310   3.829   8.769 -1.5644 -0.5090 -0.2799
 8155SOL    HW235928   4.397   3.707   8.799  0.7206  0.6550  1.8387
 8156SOL     OW35929   1.094   0.371   5.794 -0.4015  0.1891  0.0436
 8156SOL    HW135930   1.081   0.463   5.815  1.4639  0.5620 -0.4651
 8156SOL    HW235931   1.051   0.328   5.868 -0.6374  0.7221  0.2190
 8157SOL     OW35932   2.469   2.071  15.462 -0.5239 -0.5123  0.0908
 8157SOL    HW135933   2.547   2.119  15.490 -0.8502  1.3328 -2.1502
 8157SOL    HW235934   2.405   2.135  15.494  0.7464  0.3835  0.8177
 8158SOL     OW35935   2.459   1.640  11.787  0.0962 -0.0876  0.7654
 8158SOL    HW135936   2.428   1.573  11.847  1.0304 -1.4540 -0.2514
 8158SOL    HW235937   2.378   1.656  11.738  1.6801  0.6988 -1.6141
 8159SOL     OW35938   1.971   0.534   1.247 -0.2067  0.5903 -0.6060
 8159SOL    HW135939   1.948   0.536   1.154 -2.0249  3.1169 -0.0871
 8159SOL    HW235940   1.889   0.504   1.286  0.6814  1.3691  1.8143
 8160SOL     OW35941   0.704   2.872   6.631  0.4156 -0.5425  0.4375
 8160SOL    HW135942   0.631   2.823   6.593  0.1752  1.6607 -1.8930
 8160SOL    HW235943   0.784   2.826   6.607 -0.3108 -2.6466  2.0703
 8161SOL     OW35944   0.484   2.132   3.453 -0.0935 -0.2462 -0.4562
 8161SOL    HW135945   0.536   2.159   3.377 -0.6398 -0.4175 -0.8903
 8161SOL    HW235946   0.494   2.212   3.505 -1.1110 -1.0916  1.0073
 8162SOL     OW35947   0.445   3.110  10.412 -0.2297  0.1887  0.1393
 8162SOL    HW135948   0.445   3.023  10.451  0.4527  0.3501  0.4913
 8162SOL    HW235949   0.538   3.122  10.393 -0.1408  0.1856  0.5911
 8163SOL     OW35950   1.202   1.149  13.700 -0.7055  0.3999 -0.8050
 8163SOL    HW135951   1.282   1.120  13.656 -0.4114 -2.0312  1.3186
 8163SOL    HW235952   1.217   1.243  13.713  0.6134 -0.0417  1.0294
 8164SOL     OW35953   1.411   1.551  10.375 -0.7039  0.1310  0.1086
 8164SOL    HW135954   1.486   1.587  10.328 -0.9236 -1.4404 -1.4546
 8164SOL    HW235955   1.352   1.627  10.372 -0.8245 -0.0409 -1.9612
 8165SOL     OW35956   1.797   0.711  15.340  0.4316 -0.4274  0.6133
 8165SOL    HW135957   1.733   0.704  15.269 -1.0609 -0.1615  1.9375
 8165SOL    HW235958   1.764   0.652  15.408 -2.0663 -1.3141 -1.3615
 8166SOL     OW35959   4.718   2.865   5.584 -0.5477 -0.3947  0.2793
 8166SOL    HW135960   4.673   2.868   5.669 -1.4113  0.7312 -0.2059
 8166SOL    HW235961   4.650   2.851   5.518 -1.5828 -0.3304  1.3324
 8167SOL     OW35962   2.289   3.976   9.119  0.3660 -0.0149  0.1051
 8167SOL    HW135963   2.370   3.948   9.076 -0.1620  0.9582 -1.5409
 8167SOL    HW235964   2.291   4.071   9.129 -2.8531  0.1053 -0.4724
 8168SOL     OW35965   1.022   0.291   2.069  0.0553  0.3278 -0.4880
 8168SOL    HW135966   0.970   0.316   1.992 -2.8203  1.2309  1.7730
 8168SOL    HW235967   1.054   0.204   2.041 -1.0925 -0.6350  1.2307
 8169SOL     OW35968   2.776   0.675  12.128 -0.0392 -0.1500 -0.1979
 8169SOL    HW135969   2.860   0.676  12.082  1.1348 -0.2139  1.9608
 8169SOL    HW235970   2.716   0.637  12.063 -0.5888 -1.0007  0.8084
 8170SOL     OW35971   2.095   0.209   5.163 -0.0345 -0.1268  0.2978
 8170SOL    HW135972   2.171   0.259   5.192 -1.0282  1.1874  0.6174
 8170SOL    HW235973   2.033   0.274   5.130  1.4015  1.1064  0.0432
 8171SOL     OW35974   3.489   3.120   7.146  0.3202 -0.2385  0.5389
 8171SOL    HW135975   3.460   3.125   7.237  3.4821 -0.5476  1.5601
 8171SOL    HW235976   3.499   3.215   7.135 -0.8519 -0.3637 -1.6465
 8172SOL     OW35977   1.952   1.439   9.266 -0.3852 -0.1864  0.4072
 8172SOL    HW135978   1.931   1.381   9.339  0.3246 -0.9462  0.0074
 8172SOL    HW235979   2.039   1.480   9.270  0.8099 -2.3845 -3.0634
 8173SOL     OW35980   4.321   2.155   3.938  0.1409 -0.1971  0.2982
 8173SOL    HW135981   4.348   2.188   4.024 -1.3809  1.9901 -0.0533
 8173SOL    HW235982   4.403   2.173   3.892 -0.6063 -1.0995 -1.4056
 8174SOL     OW35983   0.941   1.820   8.821  0.5629  0.3200 -0.8584
 8174SOL    HW135984   0.882   1.892   8.799  1.0044  0.6305 -1.0140
 8174SOL    HW235985   1.020   1.862   8.789  2.0617 -1.9818 -0.1630
 8175SOL     OW35986   0.812   2.332   4.091 -0.0537  0.3532 -0.0146
 8175SOL    HW135987   0.817   2.244   4.129 -0.2622 -0.0975 -1.0127
 8175SOL    HW235988   0.905   2.351   4.077  0.5646 -1.0109  2.2791
 8176SOL     OW35989   2.982   0.283   7.469 -0.0197  0.6994  0.3052
 8176SOL    HW135990   3.050   0.215   7.475 -0.9343 -0.2643 -0.2460
 8176SOL    HW235991   3.022   0.350   7.414 -2.6047 -0.1135 -2.5463
 8177SOL     OW35992   2.825   2.967   9.664  0.7881 -0.4452 -0.2175
 8177SOL    HW135993   2.780   3.045   9.630  1.3082 -0.1316 -0.1856
 8177SOL    HW235994   2.777   2.893   9.628  1.0105 -0.4992 -0.3988
 8178SOL     OW35995   4.433   1.546   3.769 -0.2566 -0.1912 -0.1441
 8178SOL    HW135996   4.426   1.547   3.864 -1.0128 -0.7151 -0.1932
 8178SOL    HW235997   4.394   1.462   3.746  0.0382 -0.1404 -0.8230
 8179SOL     OW35998   0.210   3.610   3.503  0.6382  0.4778 -0.7093
 8179SOL    HW135999   0.126   3.595   3.547  0.6772  0.6746 -0.5658
 8179SOL    HW236000   0.244   3.681   3.558  1.2151 -1.7654  1.8215
 8180SOL     OW36001   1.198   4.354   5.054 -0.1702 -0.5990 -0.1180
 8180SOL    HW136002   1.271   4.345   4.992 -0.3942  0.3623 -0.5332
 8180SOL    HW236003   1.236   4.342   5.141  1.5153  3.3201 -0.2957
 8181SOL     OW36004   1.553   4.023   4.013  0.1263 -0.2208  0.5062
 8181SOL    HW136005   1.475   3.980   3.979 -0.0724  1.6914 -1.3781
 8181SOL    HW236006   1.622   3.982   3.961  0.3138 -1.0346  1.3847
 8182SOL     OW36007   1.055   4.037  13.251 -0.6510  0.1011 -0.0358
 8182SOL    HW136008   1.088   3.954  13.216 -0.1449 -0.3518  1.5098
 8182SOL    HW236009   0.965   4.006  13.266 -0.8550  0.5242 -0.3769
 8183SOL     OW36010   4.330   0.636   0.423  0.2471 -0.4083 -0.0754
 8183SOL    HW136011   4.383   0.697   0.474  0.6366 -1.0999  0.3539
 8183SOL    HW236012   4.381   0.623   0.343 -0.4091 -3.4114 -0.0030
 8184SOL     OW36013   0.588   1.507   5.017 -0.4136  0.3188 -0.2425
 8184SOL    HW136014   0.586   1.483   4.925  0.1183  0.8984 -0.4070
 8184SOL    HW236015   0.634   1.590   5.004  1.2366 -0.4197  0.8317
 8185SOL     OW36016   0.149   3.096   5.192 -0.2081 -0.1876 -0.3931
 8185SOL    HW136017   0.208   3.161   5.154 -0.0179 -1.0481 -1.5672
 8185SOL    HW236018   0.095   3.072   5.117 -3.5188 -1.4792  2.3348
 8186SOL     OW36019   1.157   4.047   5.939  0.1758  0.3694 -0.5662
 8186SOL    HW136020   1.125   4.129   5.900  0.7296  1.0018  0.3035
 8186SOL    HW236021   1.214   4.085   6.007  0.9483 -0.1715 -0.9211
 8187SOL     OW36022   1.904   0.983   7.077 -0.1862  0.5516 -0.0570
 8187SOL    HW136023   1.922   1.074   7.056  0.6716  0.5485  0.6536
 8187SOL    HW236024   1.821   0.984   7.126  0.5495 -2.0865  1.2547
 8188SOL     OW36025   2.130   1.330   3.573 -0.7964 -0.2790  0.2274
 8188SOL    HW136026   2.113   1.288   3.489 -0.3653  0.2399 -0.1152
 8188SOL    HW236027   2.223   1.316   3.557 -0.3309  2.2169  0.7841
 8189SOL     OW36028   0.803   1.667   5.468 -0.2862 -0.2167  0.2042
 8189SOL    HW136029   0.722   1.715   5.449 -0.3601 -1.6874 -3.0972
 8189SOL    HW236030   0.830   1.719   5.545 -0.2434 -0.3816  0.3000
 8190SOL     OW36031   3.391   2.015  10.700  0.0123  0.6869 -0.4632
 8190SOL    HW136032   3.333   2.089  10.681  0.4000  0.8275 -1.0916
 8190SOL    HW236033   3.374   1.998  10.793 -0.7881 -0.0287 -0.7429
 8191SOL     OW36034   2.863   2.560   9.364 -0.0385  0.4837  0.1937
 8191SOL    HW136035   2.866   2.469   9.336 -0.4132  0.7534 -0.7054
 8191SOL    HW236036   2.950   2.561   9.404  0.2267  1.0128 -0.4001
 8192SOL     OW36037   4.663   3.768  10.452  0.1307 -0.4151  0.3685
 8192SOL    HW136038   4.593   3.772  10.387  0.8646 -0.1439 -0.3886
 8192SOL    HW236039   4.624   3.824  10.520 -1.8653 -1.4321  0.0612
 8193SOL     OW36040   3.425   2.918   5.876 -0.1415 -0.3591 -0.1701
 8193SOL    HW136041   3.384   2.939   5.791  1.1569 -0.1745 -0.7488
 8193SOL    HW236042   3.351   2.863   5.901  0.1920 -0.2983  0.9164
 8194SOL     OW36043   2.097   3.634   8.590 -0.4224 -0.4319  0.5078
 8194SOL    HW136044   2.101   3.588   8.674  2.2946 -1.1324  0.0166
 8194SOL    HW236045   2.089   3.726   8.618  1.2434  0.0953 -0.7546
 8195SOL     OW36046   3.597   4.524  15.103 -0.7631  0.0385 -0.5616
 8195SOL    HW136047   3.657   4.599  15.102 -0.6230 -0.0580  1.7080
 8195SOL    HW236048   3.510   4.552  15.130 -1.0272 -1.7012  0.3563
 8196SOL     OW36049   4.598   0.671   1.682 -0.3941 -0.9654  0.5916
 8196SOL    HW136050   4.652   0.636   1.611 -2.2142 -0.2446 -1.1761
 8196SOL    HW236051   4.640   0.757   1.687 -0.6609 -0.9133  1.7471
 8197SOL     OW36052   3.193   1.725  12.810  0.0005  0.2816 -0.7251
 8197SOL    HW136053   3.232   1.655  12.862 -0.0567 -1.1748 -2.6315
 8197SOL    HW236054   3.099   1.724  12.828  0.5844 -2.1525  2.1189
 8198SOL     OW36055   1.385   1.066   0.906 -0.2303 -0.1596  0.4357
 8198SOL    HW136056   1.435   1.052   0.825  0.5655 -1.8961  1.2115
 8198SOL    HW236057   1.431   1.010   0.968  2.0268  1.0240 -0.1626
 8199SOL     OW36058   3.823   2.402  14.741 -0.1117  0.0741 -0.0026
 8199SOL    HW136059   3.875   2.429  14.666  1.3542  0.2654  1.0919
 8199SOL    HW236060   3.889   2.418  14.808  0.5726  0.3415 -0.7399
 8200SOL     OW36061   0.186   4.473  11.188  0.3927 -0.0741  0.4858
 8200SOL    HW136062   0.176   4.411  11.260 -1.4122 -0.0134  0.2918
 8200SOL    HW236063   0.228   4.553  11.218 -0.6926 -0.1182  2.0921
 8201SOL     OW36064   2.705   0.776   2.036  0.2346  0.4812 -0.2727
 8201SOL    HW136065   2.639   0.782   1.966 -0.4386  1.3429  0.4348
 8201SOL    HW236066   2.785   0.792   1.987  0.9916  2.1786  1.5127
 8202SOL     OW36067   2.052   0.914   5.017 -0.4432 -0.4586  0.3808
 8202SOL    HW136068   2.008   0.923   4.932 -2.2791  0.2750  1.4164
 8202SOL    HW236069   2.042   1.005   5.043 -0.1387 -0.2084 -0.3637
 8203SOL     OW36070   3.979   1.987   1.503  0.1266  0.1923 -0.3527
 8203SOL    HW136071   4.003   2.020   1.417 -2.0614  2.9514  0.1072
 8203SOL    HW236072   4.060   2.010   1.549 -0.0175 -0.8795  0.4479
 8204SOL     OW36073   0.030   0.790   9.864  0.6455  0.6183 -0.0080
 8204SOL    HW136074   0.121   0.800   9.834  0.4194  0.8428 -0.6145
 8204SOL    HW236075   0.009   0.883   9.858  0.4121  0.5386 -0.3954
 8205SOL     OW36076   1.982   1.056   4.062 -0.3205  0.7462  0.7602
 8205SOL    HW136077   1.987   1.100   3.977  1.9948 -0.0530  0.4798
 8205SOL    HW236078   1.961   1.128   4.122  1.1191  1.8578 -0.0622
 8206SOL     OW36079   3.380   2.928   3.126 -0.2747  0.0370  0.8260
 8206SOL    HW136080   3.392   2.858   3.061  1.5929  1.7852 -0.7002
 8206SOL    HW236081   3.300   2.900   3.171 -1.3467 -0.1370 -1.1898
 8207SOL     OW36082   4.211   4.385   0.084 -0.2122 -0.2824 -0.0577
 8207SOL    HW136083   4.195   4.445   0.157  3.0759 -0.7589  1.0698
 8207SOL    HW236084   4.302   4.364   0.106  0.1850  0.0580 -1.3773
 8208SOL     OW36085   2.989   4.437   2.285  0.1065 -0.4338 -0.9313
 8208SOL    HW136086   2.921   4.503   2.271 -0.4915 -0.4782  1.6899
 8208SOL    HW236087   3.042   4.451   2.207  0.7465  0.4747 -0.3374
 8209SOL     OW36088   0.872   3.591   7.797 -0.3385  0.3893  0.0432
 8209SOL    HW136089   0.850   3.573   7.888 -2.3312  1.7285 -0.1844
 8209SOL    HW236090   0.786   3.618   7.765 -0.0127 -0.3413 -1.4484
 8210SOL     OW36091   4.659   3.093   2.356 -0.2021 -0.0291  0.0869
 8210SOL    HW136092   4.579   3.062   2.400 -1.0278  0.6592 -0.9261
 8210SOL    HW236093   4.642   3.186   2.343  0.3142  0.2091  1.0912
 8211SOL     OW36094   2.566   0.913   6.629 -0.5747  0.4926 -0.0780
 8211SOL    HW136095   2.546   0.885   6.540 -2.3940  0.8317  0.2132
 8211SOL    HW236096   2.660   0.932   6.635 -0.3907 -0.2807 -0.4648
 8212SOL     OW36097   0.528   0.446   1.538 -0.2032  0.2174  0.4186
 8212SOL    HW136098   0.438   0.414   1.538 -0.1476  0.0622  1.2750
 8212SOL    HW236099   0.528   0.540   1.551 -1.0398  0.6381 -2.6186
 8213SOL     OW36100   0.831   3.254  13.322  0.5577 -0.4304  0.2997
 8213SOL    HW136101   0.871   3.173  13.352  0.7968  0.1029  1.4212
 8213SOL    HW236102   0.802   3.292  13.405  1.3956  0.9699 -0.0634
 8214SOL     OW36103   4.266   4.440   6.027 -0.1716 -0.7039  0.0454
 8214SOL    HW136104   4.252   4.411   5.937  0.1135  0.0841 -0.2576
 8214SOL    HW236105   4.179   4.444   6.067 -0.6150 -0.2937 -0.9685
 8215SOL     OW36106   3.031   2.730   1.982  0.0812 -0.5200  0.2022
 8215SOL    HW136107   3.091   2.780   2.038  0.9231 -1.0171 -0.2634
 8215SOL    HW236108   3.046   2.778   1.901 -0.9492 -0.4538  0.0501
 8216SOL     OW36109   1.913   0.601   1.715 -0.0806 -0.2017  0.5194
 8216SOL    HW136110   1.874   0.537   1.656  2.1322  0.0597 -1.2229
 8216SOL    HW236111   1.889   0.688   1.683 -0.4352  0.1957  1.8753
 8217SOL     OW36112   2.592   0.119  16.376  0.0480  0.3538  0.2620
 8217SOL    HW136113   2.585   0.204  16.418  0.0183  1.5851 -2.2649
 8217SOL    HW236114   2.563   0.154  16.292 -0.6450  1.2265  0.8594
 8218SOL     OW36115   3.135   2.685   3.930  0.3281  0.2616  0.6617
 8218SOL    HW136116   3.116   2.604   3.978 -3.4956 -0.1415 -1.5328
 8218SOL    HW236117   3.077   2.670   3.855  0.2844  1.1288  0.5214
 8219SOL     OW36118   0.170   0.175   7.944  0.0428  0.3472 -0.5380
 8219SOL    HW136119   0.176   0.231   8.022 -0.2901  1.1646 -1.1043
 8219SOL    HW236120   0.131   0.229   7.875 -2.6225 -0.7122  0.1333
 8220SOL     OW36121   4.482   1.948   8.315 -0.1174 -0.0938 -0.0121
 8220SOL    HW136122   4.541   1.904   8.377 -0.3181 -2.4597 -1.4923
 8220SOL    HW236123   4.487   2.039   8.343 -0.5977  0.1869 -0.8219
 8221SOL     OW36124   1.899   2.229   0.424  0.1498  0.4999  0.1833
 8221SOL    HW136125   1.865   2.151   0.469 -2.8072  0.1475 -2.6014
 8221SOL    HW236126   1.816   2.272   0.403  0.8378  1.6588 -0.1427
 8222SOL     OW36127   2.191   4.453  16.801  0.1048 -0.3492  0.6474
 8222SOL    HW136128   2.120   4.452  16.865  0.2922  0.8853  0.8735
 8222SOL    HW236129   2.155   4.521  16.745  3.1402  0.8098  0.1108
 8223SOL     OW36130   4.067   1.765   7.304  0.5364  0.2776 -0.0242
 8223SOL    HW136131   4.088   1.844   7.354  0.5073  0.6622 -0.6257
 8223SOL    HW236132   4.119   1.776   7.225 -2.4715  0.2768 -2.0182
 8224SOL     OW36133   1.616   2.222   4.426  0.5304  0.3731 -0.3215
 8224SOL    HW136134   1.656   2.144   4.462  2.3280  1.0463 -0.8749
 8224SOL    HW236135   1.658   2.216   4.340 -0.3254  1.0302 -0.7867
 8225SOL     OW36136   1.325   0.630  12.987  0.5886 -0.1324  0.6024
 8225SOL    HW136137   1.306   0.721  13.008  0.3735 -0.3346  1.2907
 8225SOL    HW236138   1.419   0.629  13.005  0.9453  0.2318 -1.2580
 8226SOL     OW36139   2.015   3.747   6.705  0.1874 -0.2496 -0.1032
 8226SOL    HW136140   2.092   3.720   6.656  0.9258  1.3725  0.1742
 8226SOL    HW236141   2.044   3.721   6.792 -1.8283 -0.1556  0.6149
 8227SOL     OW36142   0.321   3.329   6.136 -0.1037  0.2697 -0.6868
 8227SOL    HW136143   0.308   3.238   6.107  0.0324 -0.9536  3.0526
 8227SOL    HW236144   0.242   3.367   6.098 -0.8500 -0.7887 -0.1930
 8228SOL     OW36145   3.755   4.385   7.859  0.1186 -0.2720 -0.1355
 8228SOL    HW136146   3.818   4.312   7.864 -1.6500 -1.7163  1.1280
 8228SOL    HW236147   3.731   4.395   7.768  1.2837 -0.8519 -0.5146
 8229SOL     OW36148   3.633   0.965  12.699 -0.1212 -0.0090  0.2781
 8229SOL    HW136149   3.674   1.042  12.738 -1.2476  0.2854  0.9077
 8229SOL    HW236150   3.541   0.994  12.700 -0.1488 -0.1413  1.5710
 8230SOL     OW36151   3.389   1.148  16.342 -0.4335  0.0482  0.6993
 8230SOL    HW136152   3.304   1.173  16.378 -0.9456  0.0753 -0.5065
 8230SOL    HW236153   3.374   1.181  16.253  0.3216 -2.4869 -0.3978
 8231SOL     OW36154   3.684   3.948   2.908  0.4484  0.1291  0.4768
 8231SOL    HW136155   3.639   4.014   2.855  0.2889  0.0654  0.5331
 8231SOL    HW236156   3.610   3.892   2.933 -0.3946  0.5393 -1.1170
 8232SOL     OW36157   4.140   2.009  17.421 -0.0859 -0.3416 -0.3222
 8232SOL    HW136158   4.169   1.961  17.344  1.0234  0.8508 -0.6510
 8232SOL    HW236159   4.085   2.076  17.379 -1.0848 -0.6587  0.4914
 8233SOL     OW36160   1.602   2.720   7.861 -0.3569  0.2030  0.1579
 8233SOL    HW136161   1.513   2.699   7.887 -0.7272 -1.0747 -2.1965
 8233SOL    HW236162   1.594   2.813   7.841 -0.2456  0.2560  0.3517
 8234SOL     OW36163   1.197   3.824  11.321 -0.1466 -0.3407  0.4405
 8234SOL    HW136164   1.279   3.864  11.350 -0.8916  0.0230  2.0548
 8234SOL    HW236165   1.173   3.771  11.397  0.7019 -2.3782 -0.7175
 8235SOL     OW36166   2.952   1.977   0.740  0.6857  0.0590 -0.0157
 8235SOL    HW136167   3.022   1.999   0.678 -0.8684  1.8481 -1.1371
 8235SOL    HW236168   2.947   1.885   0.713  0.8172 -1.2470  4.5022
 8236SOL     OW36169   0.731   1.996   6.539  0.1417  0.4394  0.2430
 8236SOL    HW136170   0.697   2.039   6.617 -1.5662  2.6946 -1.7180
 8236SOL    HW236171   0.665   2.013   6.472  1.4223  3.5890 -0.2423
 8237SOL     OW36172   2.800   1.189   7.522  0.1138  0.0384 -0.2000
 8237SOL    HW136173   2.807   1.204   7.616 -1.8362 -0.5427  0.0328
 8237SOL    HW236174   2.791   1.094   7.524 -0.5263  0.1325  1.0931
 8238SOL     OW36175   0.778   1.442   4.536  0.0128  0.2454 -0.4442
 8238SOL    HW136176   0.831   1.485   4.604 -1.4695  1.6438 -0.1892
 8238SOL    HW236177   0.692   1.436   4.577  0.2699 -1.3179 -0.1319
 8239SOL     OW36178   3.324   2.989   7.592 -0.4910  0.3889  0.7170
 8239SOL    HW136179   3.270   2.960   7.666  2.1264  0.7519  2.8051
 8239SOL    HW236180   3.316   2.907   7.542  0.0206  1.1921 -0.6787
 8240SOL     OW36181   0.928   4.054  14.750  0.2579 -0.4275 -0.0683
 8240SOL    HW136182   0.962   3.978  14.703  1.6639 -0.2253  0.6240
 8240SOL    HW236183   0.913   4.119  14.682 -0.0792 -0.1148  0.3014
 8241SOL     OW36184   4.389   3.968   3.446  0.0586  0.0665  0.1560
 8241SOL    HW136185   4.402   3.892   3.388 -1.1315 -0.1911  0.2298
 8241SOL    HW236186   4.294   3.975   3.439  0.0297  0.9604  1.5656
 8242SOL     OW36187   0.704   4.336  13.810  0.0794 -0.4685  0.0797
 8242SOL    HW136188   0.787   4.368  13.845  0.3649 -3.3019  1.9876
 8242SOL    HW236189   0.697   4.264  13.872 -0.2975 -1.1178 -0.7059
 8243SOL     OW36190   2.069   0.502   7.707 -0.3768  0.3095  0.5791
 8243SOL    HW136191   2.115   0.444   7.768 -0.3497  1.1389  1.3614
 8243SOL    HW236192   2.134   0.504   7.637 -0.0501 -3.3061  0.7918
 8244SOL     OW36193   0.351   0.008   9.763 -0.5483 -0.0249 -0.2607
 8244SOL    HW136194   0.395   0.093   9.749  0.8038 -0.7632 -0.5030
 8244SOL    HW236195   0.300   0.008   9.681 -0.7339  0.2192 -0.1446
 8245SOL     OW36196   0.376   2.506   5.598  0.2653 -0.2020  0.4112
 8245SOL    HW136197   0.417   2.587   5.566  0.7358 -0.3895  0.5448
 8245SOL    HW236198   0.284   2.530   5.585  0.7806  1.6834  0.2717
 8246SOL     OW36199   3.367   3.028   5.090  0.4667 -0.3172  0.1094
 8246SOL    HW136200   3.295   2.983   5.046 -1.0451  0.7074  1.5076
 8246SOL    HW236201   3.395   2.959   5.150 -0.3258 -0.3952  0.3878
 8247SOL     OW36202   1.171   4.116  17.162 -0.2178  0.4332  0.0769
 8247SOL    HW136203   1.188   4.034  17.117  3.1911 -0.2073  2.5898
 8247SOL    HW236204   1.152   4.092  17.253 -0.8757 -0.0474 -0.1879
 8248SOL     OW36205   3.277   4.304   7.550  0.0368 -0.4431  0.2654
 8248SOL    HW136206   3.223   4.383   7.545 -0.2027 -0.6344 -0.2922
 8248SOL    HW236207   3.347   4.332   7.608  0.4314 -1.4853  0.2894
 8249SOL     OW36208   2.307   2.199   4.774  0.2029 -0.1223  0.7064
 8249SOL    HW136209   2.227   2.249   4.792 -0.1711 -0.2021 -0.7534
 8249SOL    HW236210   2.311   2.200   4.679  1.6116 -1.9065  0.7282
 8250SOL     OW36211   3.305   3.961  11.635 -0.0678 -0.3741 -0.1554
 8250SOL    HW136212   3.381   4.018  11.627  1.4904 -2.5163 -0.6800
 8250SOL    HW236213   3.320   3.910  11.556  0.7301  0.6983 -0.6948
 8251SOL     OW36214   4.350   1.499  13.065 -0.6668 -0.4291  0.3240
 8251SOL    HW136215   4.422   1.439  13.046  0.4754  1.0831 -0.0944
 8251SOL    HW236216   4.281   1.460  13.011  1.0291 -1.8945 -0.8054
 8252SOL     OW36217   1.554   2.898   3.677 -0.0069 -0.1523 -0.2082
 8252SOL    HW136218   1.613   2.869   3.747  1.6572  2.3378 -0.5711
 8252SOL    HW236219   1.473   2.865   3.715 -1.5761  2.8768 -0.9747
 8253SOL     OW36220   0.125   0.723   8.378  0.1581  0.2686 -0.0473
 8253SOL    HW136221   0.075   0.643   8.362  0.3012 -0.2093  1.9907
 8253SOL    HW236222   0.057   0.790   8.379 -0.8172 -0.7024 -1.0831
 8254SOL     OW36223   3.975   1.242   0.356  0.1675 -0.6822 -0.1737
 8254SOL    HW136224   4.058   1.195   0.347 -0.9495 -2.2140 -2.2919
 8254SOL    HW236225   3.994   1.325   0.312 -0.0848  0.3263  1.6069
 8255SOL     OW36226   3.256   1.657  17.130  0.1989  0.0158 -0.3467
 8255SOL    HW136227   3.247   1.739  17.083  6.2751 -0.2720 -1.8958
 8255SOL    HW236228   3.179   1.672  17.185 -0.4494  1.1636 -1.5802
 8256SOL     OW36229   2.892   0.545   6.119  0.2851 -0.2176 -0.1575
 8256SOL    HW136230   2.854   0.633   6.118  1.0613  0.1516  1.6041
 8256SOL    HW236231   2.813   0.504   6.154  1.6061 -1.2745  1.6116
 8257SOL     OW36232   0.457   0.644   3.249 -0.0604  0.2894  0.3740
 8257SOL    HW136233   0.400   0.717   3.223  0.0516  0.7455  1.3918
 8257SOL    HW236234   0.439   0.592   3.171 -0.1651  0.4194  0.3110
 8258SOL     OW36235   2.286   1.307   9.122  0.4591  0.3705  0.2876
 8258SOL    HW136236   2.193   1.298   9.142  0.5180  0.4595  0.5969
 8258SOL    HW236237   2.300   1.402   9.124  1.4533  0.2246  0.3820
 8259SOL     OW36238   3.191   2.567   2.512  0.3131 -0.1029 -0.0898
 8259SOL    HW136239   3.252   2.638   2.494 -1.2817  0.8982 -1.5415
 8259SOL    HW236240   3.128   2.612   2.568  1.2162  2.3049 -1.0229
 8260SOL     OW36241   1.073   2.120  16.043 -0.4822  0.5886  0.3095
 8260SOL    HW136242   0.980   2.124  16.062  0.0331  1.4689  2.7721
 8260SOL    HW236243   1.105   2.170  16.119 -0.3245  2.8777 -1.2512
 8261SOL     OW36244   2.183   3.992  13.751 -0.1611  0.0890 -0.1776
 8261SOL    HW136245   2.172   3.899  13.730  2.9199 -0.4390  0.5443
 8261SOL    HW236246   2.147   4.025  13.669  3.6149  1.5607 -1.2300
 8262SOL     OW36247   4.042   1.647   2.786 -0.1124  0.0689  0.1557
 8262SOL    HW136248   4.111   1.671   2.724  1.2598  0.3333  1.8103
 8262SOL    HW236249   3.960   1.673   2.743  1.1011  2.5407 -0.6810
 8263SOL     OW36250   1.247   2.215   3.934  0.4711 -0.0476  0.1310
 8263SOL    HW136251   1.338   2.238   3.950  0.6916  1.0455 -2.7983
 8263SOL    HW236252   1.249   2.193   3.841 -1.1000 -1.8883  0.5271
 8264SOL     OW36253   0.177   4.224  16.669  0.2942  0.0360 -0.0270
 8264SOL    HW136254   0.101   4.262  16.712 -1.0191 -0.4949 -1.8779
 8264SOL    HW236255   0.182   4.139  16.713 -0.5435  0.4883  0.9492
 8265SOL     OW36256   1.210   0.849   7.568  0.1348 -0.0579  0.1440
 8265SOL    HW136257   1.196   0.759   7.599 -0.8589  0.4134  1.0670
 8265SOL    HW236258   1.297   0.861   7.604 -0.1888  2.7375 -0.0072
 8266SOL     OW36259   3.212   4.419   6.747 -0.2556 -0.0367  0.1262
 8266SOL    HW136260   3.178   4.487   6.804 -0.3765 -1.4220  1.6932
 8266SOL    HW236261   3.298   4.451   6.720  0.9928 -0.7020  3.3448
 8267SOL     OW36262   1.828   0.537  15.707 -0.2506 -0.1646  0.0447
 8267SOL    HW136263   1.777   0.525  15.627  1.3303  2.8598 -1.4260
 8267SOL    HW236264   1.913   0.570  15.677 -0.1675 -0.1156  0.3386
 8268SOL     OW36265   0.913   4.343  15.869  0.0715  0.4258  0.3481
 8268SOL    HW136266   0.946   4.433  15.867 -0.4956  0.6912  2.4589
 8268SOL    HW236267   0.953   4.312  15.788  2.1206  0.7675  1.2144
 8269SOL     OW36268   1.364   0.815   3.114 -0.3731 -0.2626 -0.6606
 8269SOL    HW136269   1.426   0.888   3.120  0.3403 -0.9118 -0.2086
 8269SOL    HW236270   1.310   0.850   3.184  3.4980  0.6995  1.8075
 8270SOL     OW36271   0.602   1.570   8.382 -0.3677  0.3890 -0.1855
 8270SOL    HW136272   0.689   1.554   8.419 -0.6364  1.7978  1.0788
 8270SOL    HW236273   0.637   1.593   8.296  0.8729  1.2428  0.5387
 8271SOL     OW36274   1.721   4.482   5.190 -0.6804  0.4135 -0.4213
 8271SOL    HW136275   1.783   4.443   5.252 -0.5803  1.0178 -0.1488
 8271SOL    HW236276   1.765   4.564   5.168 -0.0042  0.1812  0.0864
 8272SOL     OW36277   1.852   0.742  17.447 -0.7687 -0.4176  0.0069
 8272SOL    HW136278   1.862   0.823  17.396  0.2595  0.9167  2.3233
 8272SOL    HW236279   1.931   0.742  17.500 -1.0599  1.2726  0.4312
 8273SOL     OW36280   2.399   3.125   6.716 -0.6716 -0.4909  0.6161
 8273SOL    HW136281   2.452   3.167   6.649 -0.6071 -2.1808 -0.3830
 8273SOL    HW236282   2.335   3.073   6.669 -0.9010  1.2078 -0.9560
 8274SOL     OW36283   0.289   2.272  16.232  0.4219  0.5001  0.2440
 8274SOL    HW136284   0.382   2.248  16.239 -0.3087 -2.6971 -0.8972
 8274SOL    HW236285   0.289   2.356  16.277  0.5155  1.1929 -1.0285
 8275SOL     OW36286   3.067   4.147   3.094 -0.3836  0.2666 -0.4611
 8275SOL    HW136287   3.054   4.055   3.117 -1.4217  0.3387 -0.7482
 8275SOL    HW236288   3.105   4.132   3.007 -0.9655  0.9270 -0.8248
 8276SOL     OW36289   0.477   3.922   5.202  0.6103 -1.1504 -0.0715
 8276SOL    HW136290   0.549   3.967   5.246 -1.1102  1.3270  0.2248
 8276SOL    HW236291   0.515   3.896   5.118  2.4967  2.6181 -0.3896
 8277SOL     OW36292   4.468   4.276   8.193  0.2787 -0.2420 -1.1076
 8277SOL    HW136293   4.555   4.308   8.218 -0.6449  2.2424 -1.1742
 8277SOL    HW236294   4.453   4.316   8.108  1.3587  1.7319 -0.3593
 8278SOL     OW36295   0.135   3.687   3.249  0.1085 -0.7873  0.0195
 8278SOL    HW136296   0.115   3.657   3.338  1.2868 -1.0216  0.2094
 8278SOL    HW236297   0.067   3.750   3.228  0.3840 -0.7303 -0.7158
 8279SOL     OW36298   3.605   3.559  16.195  0.0171  0.1361 -0.3562
 8279SOL    HW136299   3.631   3.567  16.103  0.3813 -2.4347 -0.4803
 8279SOL    HW236300   3.514   3.530  16.192  0.0514  0.0311 -0.3805
 8280SOL     OW36301   3.169   3.936   4.645  0.1747  0.2516 -0.2830
 8280SOL    HW136302   3.099   4.000   4.652 -1.2642 -1.4297  0.5615
 8280SOL    HW236303   3.170   3.908   4.737 -2.6335  1.8646  0.2303
 8281SOL     OW36304   3.679   1.917  14.133 -0.2185  0.3528 -0.1976
 8281SOL    HW136305   3.690   1.970  14.212  1.8673 -0.2732 -0.0730
 8281SOL    HW236306   3.763   1.872  14.139  0.0745  1.2825  2.7582
 8282SOL     OW36307   0.805   4.550   2.130  0.0321  0.8757 -0.3211
 8282SOL    HW136308   0.717   4.515   2.119  0.0590  0.9014 -0.6032
 8282SOL    HW236309   0.844   4.553   2.043 -0.1374 -0.2711 -0.4436
 8283SOL     OW36310   0.848   4.022   6.473  0.2636  0.0668  0.0156
 8283SOL    HW136311   0.905   4.078   6.526  0.2121  1.6688 -1.6300
 8283SOL    HW236312   0.813   4.079   6.405 -0.6042 -0.4427  0.0401
 8284SOL     OW36313   2.726   2.991   7.239  0.2159 -0.2940  0.1421
 8284SOL    HW136314   2.788   2.980   7.312 -1.2159 -0.7185  1.2809
 8284SOL    HW236315   2.779   2.968   7.163  1.2303  2.3001  0.0473
 8285SOL     OW36316   0.902   3.993   5.505  0.2300  0.1889 -0.0896
 8285SOL    HW136317   0.888   3.906   5.541 -0.0136  1.4342  2.8141
 8285SOL    HW236318   0.926   3.970   5.415 -0.3380 -1.5061  0.1997
 8286SOL     OW36319   1.829   0.807   6.866  0.4143  0.1351 -0.3770
 8286SOL    HW136320   1.761   0.754   6.908  0.4584 -1.1644 -1.9218
 8286SOL    HW236321   1.865   0.844   6.946  1.7666 -2.4258  0.1803
 8287SOL     OW36322   3.112   2.749   4.496 -0.6335 -0.1031 -0.3302
 8287SOL    HW136323   3.185   2.698   4.532 -0.6324  0.5276  0.5728
 8287SOL    HW236324   3.132   2.836   4.531  1.1176  0.2200 -2.1398
 8288SOL     OW36325   3.948   2.980   6.668 -0.0687  0.5776  0.2803
 8288SOL    HW136326   3.998   2.955   6.590 -0.0663 -2.0742  1.1281
 8288SOL    HW236327   3.886   3.028   6.614 -0.4626 -2.4218 -1.9343
 8289SOL     OW36328   3.380   3.966  14.616 -0.4236 -0.1319  0.3009
 8289SOL    HW136329   3.391   3.913  14.694  0.0541 -0.9715 -0.3349
 8289SOL    HW236330   3.377   4.054  14.653  0.6125 -0.4598  1.1710
 8290SOL     OW36331   0.910   1.732  13.405  0.2592 -0.4070 -0.0709
 8290SOL    HW136332   0.901   1.740  13.310  3.1547 -0.4383 -0.3389
 8290SOL    HW236333   0.908   1.638  13.418  2.7608 -0.4289  0.1915
 8291SOL     OW36334   1.572   0.010   7.474  0.7053  0.1658  0.0402
 8291SOL    HW136335   1.533   0.016   7.387  0.7006 -1.8945 -0.0878
 8291SOL    HW236336   1.595   0.101   7.493 -1.7872  0.4268  1.8488
 8292SOL     OW36337   0.725   1.110   7.663 -0.0176 -0.3789  0.3665
 8292SOL    HW136338   0.747   1.187   7.610 -0.8459 -1.3906 -1.4323
 8292SOL    HW236339   0.816   1.085   7.681 -0.0441 -2.1875 -2.1392
 8293SOL     OW36340   3.893   1.121   8.442 -0.0948 -0.6274  0.7190
 8293SOL    HW136341   3.988   1.137   8.448  0.3223 -1.7062 -2.6576
 8293SOL    HW236342   3.888   1.053   8.375  0.9825 -0.9910  0.9894
 8294SOL     OW36343   2.539   1.176   1.652 -0.6028 -0.2991 -0.6467
 8294SOL    HW136344   2.546   1.093   1.700 -1.3262  0.3679  0.6105
 8294SOL    HW236345   2.597   1.145   1.583  0.8766  2.3601 -0.6031
 8295SOL     OW36346   3.569   4.369   6.813  0.5314  0.6012 -0.1281
 8295SOL    HW136347   3.660   4.392   6.793 -0.0450  1.3256 -1.9202
 8295SOL    HW236348   3.515   4.444   6.786  0.1450  0.1825 -0.5252
 8296SOL     OW36349   4.589   0.720   4.569  0.2679  0.2033  0.4934
 8296SOL    HW136350   4.613   0.629   4.584 -1.1300  0.0947  2.1289
 8296SOL    HW236351   4.640   0.759   4.499 -0.8914 -0.0625 -0.5044
 8297SOL     OW36352   1.821   0.337   7.693  0.3059 -0.2019  0.0290
 8297SOL    HW136353   1.907   0.379   7.700  0.0527  0.4074 -0.4887
 8297SOL    HW236354   1.836   0.251   7.732 -1.1340 -0.0924  0.8100
 8298SOL     OW36355   1.608   4.486   9.340 -0.4408  0.0040 -0.2737
 8298SOL    HW136356   1.640   4.557   9.285  1.3620  0.8086  1.7961
 8298SOL    HW236357   1.688   4.435   9.357  0.0394  1.0008  0.4877
 8299SOL     OW36358   2.533   4.064   7.564  0.2204  0.3399  0.4372
 8299SOL    HW136359   2.540   4.016   7.647 -2.4868  0.4133  0.7057
 8299SOL    HW236360   2.547   3.997   7.497  0.0229  2.3770 -1.6637
 8300SOL     OW36361   3.312   3.422   7.928 -0.0464 -0.4598  0.3813
 8300SOL    HW136362   3.339   3.466   7.847 -0.1210 -2.5332 -0.7601
 8300SOL    HW236363   3.351   3.475   7.998  0.0093  1.0490 -0.8018
 8301SOL     OW36364   3.124   1.902   4.100  0.1421  0.8500 -0.2920
 8301SOL    HW136365   3.044   1.852   4.114 -0.3124  1.8053  0.5196
 8301SOL    HW236366   3.073   1.969   4.055  0.7402  0.1957 -1.9344
 8302SOL     OW36367   0.527   2.937   5.447 -0.2187 -0.0146 -0.3117
 8302SOL    HW136368   0.504   3.013   5.501 -0.8171 -0.7913  0.5391
 8302SOL    HW236369   0.496   2.981   5.368  1.9840  2.3446  0.1597
 8303SOL     OW36370   2.753   1.840   2.448 -0.2787  0.3809  0.1013
 8303SOL    HW136371   2.758   1.863   2.355  3.2056 -1.4691 -0.1533
 8303SOL    HW236372   2.660   1.818   2.456  0.1505 -1.1921  0.8082
 8304SOL     OW36373   1.378   4.721   9.209 -0.5740  0.2345 -0.3486
 8304SOL    HW136374   1.361   0.028   9.298 -1.3702 -2.1179  0.3321
 8304SOL    HW236375   1.471   4.697   9.212 -0.4571  0.7309  0.2132
 8305SOL     OW36376   0.174   0.811   4.482  0.3671  0.3398  0.1634
 8305SOL    HW136377   0.239   0.854   4.426 -0.5232  0.3073 -0.8846
 8305SOL    HW236378   0.145   0.890   4.527  0.0602  0.4130 -0.1620
 8306SOL     OW36379   1.745   1.163   5.173  0.4022 -0.7032 -1.4921
 8306SOL    HW136380   1.702   1.246   5.156  2.4643  0.9567  1.3329
 8306SOL    HW236381   1.669   1.105   5.181 -2.7683  3.4302 -2.0040
 8307SOL     OW36382   1.590   3.600   8.378 -0.2658 -0.3713  0.2711
 8307SOL    HW136383   1.598   3.665   8.448 -0.5829 -0.2323  0.1773
 8307SOL    HW236384   1.674   3.590   8.333 -1.1882 -2.1695 -1.0981
 8308SOL     OW36385   2.064   4.479   6.029 -0.3610 -0.3445 -0.1994
 8308SOL    HW136386   2.003   4.542   6.068 -0.5521 -1.2923  1.0454
 8308SOL    HW236387   2.027   4.469   5.941  2.7667 -2.6105 -1.2431
 8309SOL     OW36388   4.473   4.725   9.333  0.3333  0.2072  0.2977
 8309SOL    HW136389   4.469   0.052   9.413  2.5756 -2.1431  1.9297
 8309SOL    HW236390   4.531   0.058   9.285  0.0644 -0.0849 -0.3782
 8310SOL     OW36391   1.151   3.986   3.384 -0.4824  0.1457 -0.2475
 8310SOL    HW136392   1.142   3.933   3.305  1.1452  0.6216 -0.7535
 8310SOL    HW236393   1.223   3.946   3.430  0.9432  1.5534 -1.2487
 8311SOL     OW36394   1.580   2.375  16.031  0.0905 -0.1904  0.2020
 8311SOL    HW136395   1.615   2.405  15.948 -0.4073  2.6588  1.0313
 8311SOL    HW236396   1.644   2.304  16.041 -0.1137 -0.2314  1.2928
 8312SOL     OW36397   2.943   2.233  16.234  0.0152  0.3527 -0.4259
 8312SOL    HW136398   2.959   2.241  16.140  1.0801  2.0783 -0.1005
 8312SOL    HW236399   2.901   2.318  16.247 -0.8443 -0.2647  0.9121
 8313SOL     OW36400   2.700   3.512   0.804 -0.0270  0.3602 -0.5328
 8313SOL    HW136401   2.630   3.497   0.740 -0.4443  0.7843 -0.1727
 8313SOL    HW236402   2.702   3.434   0.859  0.0499  1.3721  0.8759
 8314SOL     OW36403   4.529   4.146   4.943  0.2102 -0.2259  0.4655
 8314SOL    HW136404   4.613   4.130   4.985  1.8944  4.3961 -1.1633
 8314SOL    HW236405   4.471   4.093   4.999 -1.4665  0.8625 -0.2419
 8315SOL     OW36406   1.588   3.006   2.438  0.0252  0.1956 -0.1035
 8315SOL    HW136407   1.677   2.974   2.449  0.0401 -0.7251 -2.9652
 8315SOL    HW236408   1.583   3.055   2.520 -0.2557 -1.2360  0.7370
 8316SOL     OW36409   1.531   1.142   6.647  0.4355  0.0389 -0.2193
 8316SOL    HW136410   1.596   1.142   6.576  3.3762 -0.6541  2.4710
 8316SOL    HW236411   1.589   1.112   6.717  0.4203  0.3538 -0.0728
 8317SOL     OW36412   0.717   0.631   3.827 -0.3375 -0.7189  0.5568
 8317SOL    HW136413   0.717   0.544   3.787  1.9279  0.1750 -1.4021
 8317SOL    HW236414   0.760   0.681   3.757 -1.8168 -1.4274 -0.8495
 8318SOL     OW36415   2.203   1.216   1.945 -0.5988 -0.2041  0.2852
 8318SOL    HW136416   2.141   1.282   1.979  1.4328  1.3446  1.0024
 8318SOL    HW236417   2.150   1.139   1.924 -3.2460  1.2935  1.4785
 8319SOL     OW36418   2.194   0.299   3.502  0.0739 -0.1762  0.3934
 8319SOL    HW136419   2.243   0.381   3.494  0.2949 -0.3843 -0.3823
 8319SOL    HW236420   2.265   0.236   3.492 -0.8001 -0.6819 -2.4624
 8320SOL     OW36421   0.891   2.886  13.072  1.0013 -0.3310  0.4642
 8320SOL    HW136422   0.887   2.792  13.052  1.5392 -0.2736  0.0850
 8320SOL    HW236423   0.937   2.931  13.002  1.0774 -0.2352  0.5742
 8321SOL     OW36424   0.469   1.724   0.336  0.0554 -0.0080 -0.5594
 8321SOL    HW136425   0.523   1.711   0.414 -0.2927  0.9595 -0.1604
 8321SOL    HW236426   0.533   1.771   0.282  0.4759 -0.8653 -0.8056
 8322SOL     OW36427   1.423   1.936   3.828  0.5083  0.2669 -0.3207
 8322SOL    HW136428   1.379   2.010   3.787 -0.6773 -0.4976 -0.4385
 8322SOL    HW236429   1.391   1.861   3.777 -1.1643 -1.0126  2.5953
 8323SOL     OW36430   3.701   0.363   1.704  0.1251  0.7009  0.2757
 8323SOL    HW136431   3.746   0.339   1.624 -1.2133 -2.0335  0.3292
 8323SOL    HW236432   3.626   0.399   1.657  1.9563  3.1754 -0.7108
 8324SOL     OW36433   1.679   0.507  15.499 -0.3898 -0.3747  0.5308
 8324SOL    HW136434   1.585   0.488  15.503 -0.3055 -0.9258 -0.0866
 8324SOL    HW236435   1.691   0.481  15.407  0.6026  0.9855  0.2766
 8325SOL     OW36436   1.273   3.164   6.088 -0.0578  0.2005  0.3538
 8325SOL    HW136437   1.305   3.254   6.086  0.1486  0.1308  0.5015
 8325SOL    HW236438   1.219   3.151   6.010  2.0405  1.7055 -1.3442
 8326SOL     OW36439   2.116   1.444   2.950  0.6093 -0.2791  0.5048
 8326SOL    HW136440   2.071   1.528   2.937  1.4986  0.3622  1.5534
 8326SOL    HW236441   2.163   1.446   2.866  0.5857  1.8975  0.5378
 8327SOL     OW36442   0.157   3.223   7.959 -0.1322 -0.1418  0.1789
 8327SOL    HW136443   0.244   3.239   7.996 -0.8271 -0.4424  1.9417
 8327SOL    HW236444   0.103   3.223   8.037 -1.9656 -0.6388 -1.0849
 8328SOL     OW36445   4.213   2.974   4.769 -0.0754  0.3743  0.9475
 8328SOL    HW136446   4.212   3.046   4.707 -0.5153 -0.2023  0.2751
 8328SOL    HW236447   4.216   3.019   4.854  2.5143 -0.5001  1.3103
 8329SOL     OW36448   0.729   2.132   5.635  0.0981 -0.1762  0.2724
 8329SOL    HW136449   0.650   2.185   5.621 -0.0143 -0.1542  0.9989
 8329SOL    HW236450   0.767   2.132   5.548 -1.9944  0.4831 -0.6451
 8330SOL     OW36451   4.223   2.384   4.560 -0.1624  0.5314 -0.8759
 8330SOL    HW136452   4.151   2.421   4.611  0.6762  2.8126 -1.3882
 8330SOL    HW236453   4.192   2.298   4.530  0.9870  0.0747 -0.7456
 8331SOL     OW36454   3.263   0.752   6.305  0.6073  0.5664 -0.4135
 8331SOL    HW136455   3.307   0.759   6.220  2.9755 -1.7662  0.6206
 8331SOL    HW236456   3.326   0.695   6.350 -1.1187 -1.0265 -0.0065
 8332SOL     OW36457   2.837   0.819   6.107 -1.0288 -0.1604  0.3763
 8332SOL    HW136458   2.819   0.892   6.049  2.4760 -0.5016 -1.0935
 8332SOL    HW236459   2.856   0.871   6.185  0.6323  0.2985 -0.3445
 8333SOL     OW36460   0.278   0.359   8.798  0.6511  0.0704 -0.1206
 8333SOL    HW136461   0.291   0.328   8.888 -1.6579 -0.1211  0.1349
 8333SOL    HW236462   0.200   0.306   8.785 -1.5894  3.3163  0.0785
 8334SOL     OW36463   0.560   3.442   3.103 -0.2238 -0.5521 -0.7017
 8334SOL    HW136464   0.551   3.382   3.176 -1.0431 -1.6378 -1.6878
 8334SOL    HW236465   0.471   3.475   3.096 -0.7751 -2.1823 -1.3383
 8335SOL     OW36466   3.827   4.714  15.047 -0.0681  0.0006  0.2826
 8335SOL    HW136467   3.771   4.722  14.970 -1.7354 -3.3828  1.1377
 8335SOL    HW236468   3.885   4.639  15.032  0.1850 -0.1162  1.8692
 8336SOL     OW36469   1.278   1.694   4.976  0.4695 -0.4368  0.1557
 8336SOL    HW136470   1.329   1.672   5.054 -0.6770  0.0205  1.0218
 8336SOL    HW236471   1.335   1.660   4.907 -0.8603 -2.4705  0.0478
 8337SOL     OW36472   0.060   2.334   3.537 -0.0522 -0.3603  0.0885
 8337SOL    HW136473   0.004   2.257   3.549 -1.2589  0.4939 -0.0221
 8337SOL    HW236474   0.120   2.310   3.466 -1.9449 -0.7097 -1.3944
 8338SOL     OW36475   4.259   1.777   2.667 -0.6557 -0.3909  0.4730
 8338SOL    HW136476   4.263   1.697   2.615  0.7810 -1.4374  2.1791
 8338SOL    HW236477   4.343   1.787   2.711 -1.6557  2.2346  1.8157
 8339SOL     OW36478   2.499   3.407   5.014  0.0438 -0.4083 -0.0074
 8339SOL    HW136479   2.576   3.463   5.008  2.0470 -2.9155  1.8660
 8339SOL    HW236480   2.516   3.348   4.941  1.5849 -1.4676  1.1945
 8340SOL     OW36481   4.605   0.139   1.682 -0.2695 -0.1254 -0.1464
 8340SOL    HW136482   4.621   0.053   1.720  0.2830 -1.4067 -3.3221
 8340SOL    HW236483   4.634   0.181   1.764 -0.7523 -0.8746  0.4094
 8341SOL     OW36484   2.412   2.234   1.650 -0.0555  0.0799 -0.1459
 8341SOL    HW136485   2.507   2.240   1.659 -0.2403  0.0348  2.0078
 8341SOL    HW236486   2.406   2.177   1.574 -1.0720  0.9099 -0.6820
 8342SOL     OW36487   2.696   4.647  14.746  0.6421  0.5744  0.3232
 8342SOL    HW136488   2.780   4.627  14.705 -0.0190 -2.8553  0.6510
 8342SOL    HW236489   2.651   4.674  14.667  0.9586 -0.2000 -0.1195
 8343SOL     OW36490   2.736   3.979   7.255 -0.0822 -0.7868  0.4153
 8343SOL    HW136491   2.650   3.994   7.217  0.9780 -2.2301 -2.5287
 8343SOL    HW236492   2.760   4.072   7.257  0.6053 -0.9762  0.8903
 8344SOL     OW36493   3.997   2.574   9.682  0.0967  0.0742 -0.4294
 8344SOL    HW136494   3.940   2.632   9.631  0.3471  0.9023  0.2363
 8344SOL    HW236495   4.013   2.621   9.764  0.8782 -1.5377  0.3453
 8345SOL     OW36496   2.190   0.771   5.551 -0.7282 -0.0496 -0.2083
 8345SOL    HW136497   2.285   0.761   5.563 -1.0518  1.5260  3.5351
 8345SOL    HW236498   2.189   0.794   5.458 -0.3525 -1.6457 -0.6033
 8346SOL     OW36499   4.541   4.006   8.812  0.3720 -0.0732 -1.2767
 8346SOL    HW136500   4.460   4.008   8.761 -0.2303 -1.2144 -0.3664
 8346SOL    HW236501   4.526   3.944   8.883  1.2959  1.3046  0.1040
 8347SOL     OW36502   3.720   1.313   3.891 -0.1126 -0.1766  0.3073
 8347SOL    HW136503   3.812   1.321   3.867 -0.0819  1.5702  1.0118
 8347SOL    HW236504   3.687   1.283   3.807 -2.1373  4.8123 -0.6905
 8348SOL     OW36505   3.617   1.096   8.628  0.1492  0.0490  0.6250
 8348SOL    HW136506   3.689   1.131   8.574  0.6861 -0.7958  0.7888
 8348SOL    HW236507   3.576   1.048   8.556  0.0203  1.9095 -0.5556
 8349SOL     OW36508   4.118   4.119  10.886 -0.0390  0.1565 -0.9375
 8349SOL    HW136509   4.038   4.148  10.929 -1.0179  0.5444 -3.0106
 8349SOL    HW236510   4.194   4.140  10.942  1.4611  0.1431 -2.9668
 8350SOL     OW36511   3.113   0.983   2.397 -0.3722  0.7070  0.3800
 8350SOL    HW136512   3.087   0.935   2.318  0.0895  0.1325  0.5758
 8350SOL    HW236513   3.026   0.995   2.436 -0.1148  1.6627  0.6631
 8351SOL     OW36514   0.274   3.828   3.632 -0.2553 -0.3607  0.2038
 8351SOL    HW136515   0.219   3.851   3.707 -0.2265 -0.9141  0.3920
 8351SOL    HW236516   0.272   3.905   3.574 -2.7897 -0.3356  0.3287
 8352SOL     OW36517   1.425   3.941  11.422  0.0904  0.6320 -0.0917
 8352SOL    HW136518   1.479   3.901  11.354 -1.3993 -0.7780 -0.4500
 8352SOL    HW236519   1.480   3.927  11.499  0.2829  0.1410 -0.3185
 8353SOL     OW36520   0.852   4.179   2.438  0.1192 -0.3230 -0.3407
 8353SOL    HW136521   0.925   4.225   2.396  1.0895 -2.0881 -0.6194
 8353SOL    HW236522   0.875   4.087   2.423  0.3107 -0.0834 -1.5010
 8354SOL     OW36523   0.510   1.050   6.043  0.1499  0.2839  0.0106
 8354SOL    HW136524   0.435   1.107   6.022  2.2660  2.4086 -1.7971
 8354SOL    HW236525   0.587   1.104   6.024 -0.4211  0.8874 -0.5804
 8355SOL     OW36526   4.297   1.827   8.838 -0.2929 -0.1593 -0.5882
 8355SOL    HW136527   4.298   1.739   8.800  1.5609 -0.8625  1.0507
 8355SOL    HW236528   4.204   1.844   8.855 -0.2175 -0.3252 -0.0069
 8356SOL     OW36529   3.331   1.530   2.324  0.5365 -0.3665  0.5807
 8356SOL    HW136530   3.261   1.465   2.333  0.6394 -0.5975 -0.3290
 8356SOL    HW236531   3.407   1.473   2.329  0.3158 -0.8383 -1.5019
 8357SOL     OW36532   4.231   4.079   7.034  0.5299  0.4547  0.3034
 8357SOL    HW136533   4.295   4.020   6.994 -0.0650 -0.1330  0.2219
 8357SOL    HW236534   4.292   4.141   7.075  1.1216 -0.2012  0.4186
 8358SOL     OW36535   2.484   3.469   8.009 -0.0121 -0.5543 -0.3456
 8358SOL    HW136536   2.544   3.461   8.084  0.9114  1.8092 -0.8414
 8358SOL    HW236537   2.531   3.535   7.958 -0.2832  0.5964  0.9030
 8359SOL     OW36538   4.127   3.855  10.685 -0.3783  0.3565  0.1664
 8359SOL    HW136539   4.092   3.838  10.773 -0.2938  2.4623  0.6177
 8359SOL    HW236540   4.062   3.813  10.629 -1.6057  2.3251  0.1235
 8360SOL     OW36541   1.176   2.693   2.693 -0.3665  0.1876 -0.2709
 8360SOL    HW136542   1.227   2.708   2.773 -1.9243 -1.3806  1.0076
 8360SOL    HW236543   1.258   2.695   2.643  1.1002  1.5486  2.2110
 8361SOL     OW36544   2.180   0.226   5.819  0.5306  0.0074  0.3108
 8361SOL    HW136545   2.200   0.140   5.781 -1.1658  0.0641 -0.7266
 8361SOL    HW236546   2.107   0.196   5.873  0.1122  0.9382  0.2683
 8362SOL     OW36547   1.608   2.846   5.928  0.2406 -0.4926 -0.0985
 8362SOL    HW136548   1.645   2.809   5.848 -1.2027  2.9683 -2.3315
 8362SOL    HW236549   1.647   2.794   5.999  1.4663  2.0852  1.1125
 8363SOL     OW36550   2.744   1.570   2.670 -0.1675 -0.1201 -0.0859
 8363SOL    HW136551   2.788   1.592   2.588  1.0134  0.1146  0.6176
 8363SOL    HW236552   2.806   1.510   2.711  0.3163  0.0966 -0.5078
 8364SOL     OW36553   2.099   3.340   5.914  0.3110  0.3201  0.6074
 8364SOL    HW136554   2.180   3.374   5.877  0.2834  0.3269  0.5544
 8364SOL    HW236555   2.131   3.294   5.992 -0.6313 -1.5776 -0.1048
 8365SOL     OW36556   2.569   3.849   5.850 -0.1908 -0.0005 -0.0758
 8365SOL    HW136557   2.564   3.917   5.917  0.9725  0.1932 -0.1930
 8365SOL    HW236558   2.648   3.801   5.873 -0.9825 -0.8486  0.8767
 8366SOL     OW36559   4.652   1.231   6.347  0.1845 -0.0132 -0.3165
 8366SOL    HW136560   0.010   1.274   6.329  1.4965 -3.1255 -1.7957
 8366SOL    HW236561   4.666   1.214   6.440  0.4726 -0.4260 -0.4321
 8367SOL     OW36562   0.274   3.884   6.091  0.2182  0.7111 -0.3906
 8367SOL    HW136563   0.289   3.853   6.181  0.2227 -1.5517 -1.1690
 8367SOL    HW236564   0.230   3.969   6.096 -1.6277 -0.1793 -1.4729
 8368SOL     OW36565   4.261   3.438  13.872  0.5840  0.2759  0.3189
 8368SOL    HW136566   4.188   3.498  13.856  0.6599  0.5343  0.9310
 8368SOL    HW236567   4.219   3.351  13.869 -0.8702  1.0900 -2.9052
 8369SOL     OW36568   1.835   4.014  12.110  0.2681 -0.0368  0.2265
 8369SOL    HW136569   1.801   4.072  12.178 -1.0661 -0.6459  0.0760
 8369SOL    HW236570   1.923   4.051  12.105 -0.0124  0.8361  1.7210
 8370SOL     OW36571   3.145   0.681  15.943 -0.3514  0.0140  0.3332
 8370SOL    HW136572   3.134   0.624  16.019  0.8206  1.0582  1.2992
 8370SOL    HW236573   3.237   0.661  15.925  0.2066  1.3963  1.6253
 8371SOL     OW36574   1.049   4.613   2.375  0.0533 -0.0265  0.3886
 8371SOL    HW136575   1.058   4.556   2.451 -3.6316 -0.3882  0.5465
 8371SOL    HW236576   1.090   4.691   2.413 -2.4158  1.8928 -0.8690
 8372SOL     OW36577   4.582   2.501   2.651  0.6223  0.0850 -0.5434
 8372SOL    HW136578   4.550   2.587   2.678  0.5878  0.0796 -0.5666
 8372SOL    HW236579   4.555   2.450   2.728  1.2090  3.2936  1.7567
 8373SOL     OW36580   4.657   4.056   8.222  0.2781 -0.3531  0.1363
 8373SOL    HW136581   4.638   3.999   8.148  1.2297 -0.2063 -0.2182
 8373SOL    HW236582   4.569   4.075   8.252  0.7064  1.5096  0.1945
 8374SOL     OW36583   0.899   2.536   1.068 -0.9959  0.0270 -0.0104
 8374SOL    HW136584   0.931   2.505   0.983  0.0483 -1.0414  0.7785
 8374SOL    HW236585   0.889   2.630   1.054 -0.5814  0.3070  1.6367
 8375SOL     OW36586   0.990   4.560   1.769  0.1011 -0.4887 -0.1368
 8375SOL    HW136587   1.022   4.573   1.858  0.3681 -0.2601 -0.2674
 8375SOL    HW236588   0.963   4.469   1.771  2.2279 -1.0595  2.6653
 8376SOL     OW36589   0.420   0.398   8.540  0.1171  0.2129  0.5705
 8376SOL    HW136590   0.513   0.381   8.554  0.3253  1.2036  0.3788
 8376SOL    HW236591   0.388   0.380   8.628  1.2740 -1.8823  0.5690
 8377SOL     OW36592   0.813   1.403  11.322  0.1231 -0.4283  0.4110
 8377SOL    HW136593   0.883   1.415  11.386 -1.7998  0.7245  2.2921
 8377SOL    HW236594   0.754   1.464  11.366 -0.3678 -0.2902 -0.4350
 8378SOL     OW36595   4.637   0.163   5.594 -0.3637  0.4174 -0.2202
 8378SOL    HW136596   4.643   0.067   5.600  1.8497  0.4805 -1.3874
 8378SOL    HW236597   4.547   0.191   5.609 -0.1765  0.6966  0.3716
 8379SOL     OW36598   0.452   0.853   6.235  0.1310 -0.0599 -0.2089
 8379SOL    HW136599   0.480   0.903   6.159  0.0185  0.3173 -0.0073
 8379SOL    HW236600   0.394   0.922   6.270  0.3423  0.5835 -1.1383
 8380SOL     OW36601   0.896   4.210  14.254 -0.0964 -0.8573 -0.2923
 8380SOL    HW136602   0.922   4.182  14.166  0.7119  0.6301 -0.5296
 8380SOL    HW236603   0.927   4.137  14.309 -1.2646 -0.4606  0.8752
 8381SOL     OW36604   0.177   2.924   7.277  0.2305 -0.3855  0.3046
 8381SOL    HW136605   0.221   2.958   7.200  0.2915 -2.7854 -0.7220
 8381SOL    HW236606   0.148   3.006   7.316 -1.3349 -1.2595  1.0176
 8382SOL     OW36607   3.640   3.927   7.270  0.3785  0.1588  0.6003
 8382SOL    HW136608   3.663   3.849   7.320 -0.1277  0.0627  0.6839
 8382SOL    HW236609   3.612   3.979   7.345 -0.0110  0.5151  0.2041
 8383SOL     OW36610   2.103   1.469   8.033 -0.2909  0.0302 -0.2976
 8383SOL    HW136611   2.145   1.402   8.087  0.7643  0.9791  0.0745
 8383SOL    HW236612   2.103   1.429   7.946  1.7642 -1.7369  0.4909
 8384SOL     OW36613   1.205   4.266   1.284  0.1930 -0.3959  0.5691
 8384SOL    HW136614   1.244   4.259   1.371  1.7947  1.4304 -0.0079
 8384SOL    HW236615   1.201   4.174   1.256 -1.3982 -0.3092  0.5069
 8385SOL     OW36616   2.417   4.420   6.661  0.2671 -0.6682 -0.4917
 8385SOL    HW136617   2.468   4.455   6.734  0.7459 -0.3937 -0.9604
 8385SOL    HW236618   2.408   4.498   6.606 -0.9097 -0.6186 -0.2321
 8386SOL     OW36619   2.928   2.032   6.955  0.6287  0.6906  0.1341
 8386SOL    HW136620   2.882   1.971   7.013  0.1467  0.5444 -0.4070
 8386SOL    HW236621   2.986   1.976   6.902  1.4051  3.3037 -1.7615
 8387SOL     OW36622   3.289   1.869  17.501 -0.8592 -0.0196 -0.5449
 8387SOL    HW136623   3.266   1.933  17.433  2.8042  1.9521  0.0568
 8387SOL    HW236624   3.384   1.867  17.491 -0.5292  1.8021  2.2899
 8388SOL     OW36625   1.997   0.916   5.677  0.3536 -0.1046  0.6050
 8388SOL    HW136626   2.064   0.859   5.639  0.0054  0.9051 -1.5175
 8388SOL    HW236627   1.912   0.875   5.661  2.1827 -3.9187  0.5376
 8389SOL     OW36628   2.015   1.639   7.017 -0.1039 -0.5189  0.0113
 8389SOL    HW136629   1.989   1.713   7.071  0.1242  0.5266 -1.3418
 8389SOL    HW236630   2.053   1.673   6.936 -2.5887  1.0653 -0.4695
 8390SOL     OW36631   0.065   3.423   1.395  0.0364 -0.0329  0.3272
 8390SOL    HW136632   0.077   3.453   1.484  1.5918  0.2415  0.0232
 8390SOL    HW236633   0.008   3.349   1.417 -1.9871  1.4184  0.0196
 8391SOL     OW36634   2.124   0.102   6.669  0.2089 -0.2090 -0.1143
 8391SOL    HW136635   2.037   0.138   6.649  0.4280  0.3425 -0.0708
 8391SOL    HW236636   2.101   0.052   6.748  0.6472  0.1025  0.2098
 8392SOL     OW36637   2.810   3.927  16.021 -0.5725 -0.5825  0.1240
 8392SOL    HW136638   2.777   3.851  16.068  1.0293 -1.0454  0.4941
 8392SOL    HW236639   2.897   3.935  16.060 -0.5068 -2.0922  0.2579
 8393SOL     OW36640   1.239   2.582   7.298  0.1337  0.1241 -0.2461
 8393SOL    HW136641   1.208   2.670   7.277 -0.7100  0.1116  0.9513
 8393SOL    HW236642   1.174   2.535   7.350  0.1723  0.2537 -0.0805
 8394SOL     OW36643   4.022   1.375  14.949  0.7014  0.0220 -0.2396
 8394SOL    HW136644   4.002   1.307  15.015 -0.8759  0.7445  0.0422
 8394SOL    HW236645   3.934   1.412  14.946 -0.8260 -3.3638  1.9030
 8395SOL     OW36646   2.276   2.912   7.819 -0.7769  0.1708 -0.0245
 8395SOL    HW136647   2.265   3.007   7.821  3.9972  0.7499  0.1788
 8395SOL    HW236648   2.319   2.915   7.734  0.3956  1.4486  0.6021
 8396SOL     OW36649   3.135   3.477  16.571  0.0125  0.2009  0.0305
 8396SOL    HW136650   3.207   3.515  16.521  0.1156 -0.8848 -0.6617
 8396SOL    HW236651   3.186   3.454  16.649  2.2122 -0.0807 -1.4713
 8397SOL     OW36652   3.282   1.912  13.730  0.2961  0.7710  0.1237
 8397SOL    HW136653   3.262   1.818  13.729  0.0874  0.8292 -0.7291
 8397SOL    HW236654   3.198   1.952  13.751  0.2128  0.1071  1.0683
 8398SOL     OW36655   4.380   0.603   8.175 -0.2232 -0.5755  0.4049
 8398SOL    HW136656   4.291   0.630   8.197  0.8066  0.5559  3.1031
 8398SOL    HW236657   4.413   0.675   8.121  2.1043 -2.1954 -0.3557
 8399SOL     OW36658   1.151   2.959   7.473 -0.3392 -0.2065  1.3495
 8399SOL    HW136659   1.168   2.970   7.566 -2.7742 -2.4832  2.0582
 8399SOL    HW236660   1.059   2.936   7.475 -0.3796 -0.1216  0.6298
 8400SOL     OW36661   2.334   2.746  14.547  0.0000 -0.8710  0.0106
 8400SOL    HW136662   2.241   2.769  14.558  1.0024  3.0893  0.3719
 8400SOL    HW236663   2.342   2.703  14.462 -0.2967 -1.1191  0.1062
 8401SOL     OW36664   4.722   0.585   9.648  0.3424  0.1615  0.5235
 8401SOL    HW136665   0.018   0.639   9.724  0.3394  1.4159 -0.3659
 8401SOL    HW236666   0.018   0.643   9.575 -3.7082  0.1852 -0.6372
 8402SOL     OW36667   3.299   3.630   9.933 -0.3648  0.1501  0.3784
 8402SOL    HW136668   3.216   3.607   9.893  0.5406  1.4638 -2.2652
 8402SOL    HW236669   3.306   3.555   9.993 -1.6175  0.6698  1.1629
 8403SOL     OW36670   0.570   2.646  12.123 -0.1960  0.4248  1.0146
 8403SOL    HW136671   0.513   2.638  12.047 -1.0169  0.1639  1.6616
 8403SOL    HW236672   0.633   2.578  12.097  0.3569  1.6890 -0.9199
 8404SOL     OW36673   0.635   3.631   0.319 -0.5972 -0.2353  0.4099
 8404SOL    HW136674   0.687   3.637   0.239  0.9773 -0.9651  1.3638
 8404SOL    HW236675   0.709   3.639   0.380 -0.6686  0.2872  0.4274
 8405SOL     OW36676   4.280   4.517   8.295 -0.4268 -0.3777 -0.2906
 8405SOL    HW136677   4.252   4.585   8.356 -0.5376 -2.2247  1.7437
 8405SOL    HW236678   4.375   4.531   8.289 -0.8577  1.9998 -1.4000
 8406SOL     OW36679   1.592   0.792   6.673 -0.0567 -0.5686  0.2972
 8406SOL    HW136680   1.612   0.884   6.689 -0.0294 -0.6480  0.7249
 8406SOL    HW236681   1.621   0.755   6.756  0.9270 -1.8831 -0.6340
 8407SOL     OW36682   0.853   2.928   5.095 -0.2638  0.5788  0.2376
 8407SOL    HW136683   0.875   3.007   5.144 -0.8250  0.9156 -0.0538
 8407SOL    HW236684   0.788   2.962   5.034  1.7195  1.2651 -1.5189
 8408SOL     OW36685   4.091   1.740  12.146  0.0563 -0.2939  0.0821
 8408SOL    HW136686   4.046   1.656  12.137 -1.2332  0.3269  0.6908
 8408SOL    HW236687   4.081   1.773  12.056 -3.0392  0.1730  0.6001
 8409SOL     OW36688   2.172   0.083   1.988  0.2946 -0.6267  0.3189
 8409SOL    HW136689   2.135   4.723   2.010 -1.4724  0.1357  0.2526
 8409SOL    HW236690   2.098   0.118   1.939  1.7794  0.9267 -0.8082
 8410SOL     OW36691   1.856   3.594   7.129  0.1142  0.1273  0.4661
 8410SOL    HW136692   1.773   3.630   7.097  1.1098  1.4923 -0.5662
 8410SOL    HW236693   1.853   3.625   7.220  0.5639  0.3750  0.3941
 8411SOL     OW36694   0.973   4.627  14.890 -0.0669  0.2038 -0.7067
 8411SOL    HW136695   0.907   4.575  14.844  1.4341  0.0089 -2.6216
 8411SOL    HW236696   0.944   4.717  14.871  1.7122  0.4613 -2.2051
 8412SOL     OW36697   2.576   4.345   1.977  0.0062  0.2365  0.2009
 8412SOL    HW136698   2.494   4.297   1.974  0.1352 -0.0422  1.1028
 8412SOL    HW236699   2.550   4.437   1.985  0.4687  0.3914 -0.0572
 8413SOL     OW36700   0.251   1.985   6.457 -0.4679  0.0357  0.0169
 8413SOL    HW136701   0.298   2.069   6.456 -1.9761  0.8802  0.6152
 8413SOL    HW236702   0.298   1.933   6.522 -0.0296 -0.3791 -0.6214
 8414SOL     OW36703   1.511   1.285  13.811  0.1736  0.7294  0.2947
 8414SOL    HW136704   1.605   1.299  13.827  0.5118 -1.4435  0.2871
 8414SOL    HW236705   1.499   1.327  13.726  0.2039 -1.4544 -0.7894
 8415SOL     OW36706   0.666   0.778   4.260 -0.0889 -0.5180 -0.2324
 8415SOL    HW136707   0.725   0.823   4.201 -3.6514  1.8908 -1.9203
 8415SOL    HW236708   0.697   0.785   4.350  1.5371  2.4667 -1.0556
 8416SOL     OW36709   0.007   2.547   6.541 -0.1481 -0.6482  0.1457
 8416SOL    HW136710   0.001   2.508   6.454  0.9002 -1.7187  0.5614
 8416SOL    HW236711   4.639   2.563   6.559 -0.3484 -0.7687 -0.7450
 8417SOL     OW36712   2.351   4.667   6.943  0.3066 -0.2736  0.2893
 8417SOL    HW136713   2.431   4.636   6.899 -0.5249 -1.4041 -0.4252
 8417SOL    HW236714   2.373   4.653   7.035 -0.1927 -1.8499  0.1506
 8418SOL     OW36715   4.247   1.870   5.764  0.4708 -0.0908  0.2543
 8418SOL    HW136716   4.174   1.914   5.721  0.9091 -0.5325 -0.9377
 8418SOL    HW236717   4.198   1.815   5.825 -3.2410  0.4583 -2.2277
 8419SOL     OW36718   1.648   2.324   4.841 -0.1475  0.2110 -0.7025
 8419SOL    HW136719   1.573   2.276   4.806 -0.1013  0.5420 -1.2491
 8419SOL    HW236720   1.715   2.262   4.815 -1.8732 -1.5955 -0.8861
 8420SOL     OW36721   2.756   3.050   3.660 -0.1009  0.1769  0.2235
 8420SOL    HW136722   2.714   3.066   3.744 -1.3278  0.2140 -0.3895
 8420SOL    HW236723   2.699   2.992   3.609 -0.9773  1.6437 -0.4449
 8421SOL     OW36724   3.674   3.504   6.599  0.3534  0.6150 -0.4119
 8421SOL    HW136725   3.709   3.419   6.625 -0.2582  0.5130  0.0726
 8421SOL    HW236726   3.735   3.532   6.530  0.5010  1.1327 -0.0723
 8422SOL     OW36727   3.211   2.599   5.000  0.2396  0.2976 -0.0613
 8422SOL    HW136728   3.286   2.608   5.058  0.9396 -1.6691 -0.6671
 8422SOL    HW236729   3.136   2.641   5.043  0.3572  1.1483 -0.6723
 8423SOL     OW36730   4.392   4.524  15.088 -0.1802 -0.6329  0.1595
 8423SOL    HW136731   4.396   4.535  15.183 -3.1737  0.8207  0.1318
 8423SOL    HW236732   4.472   4.473  15.076  1.7915  1.9852  1.9635
 8424SOL     OW36733   2.136   0.962   7.560 -0.2027  0.5093  0.0231
 8424SOL    HW136734   2.172   0.982   7.646  1.7429  0.2179 -0.7282
 8424SOL    HW236735   2.050   1.002   7.571  0.0582  0.8000  1.0006
 8425SOL     OW36736   1.491   1.240   0.603 -0.0084 -0.3448 -0.2368
 8425SOL    HW136737   1.536   1.177   0.661 -2.6057 -0.1270  2.0342
 8425SOL    HW236738   1.428   1.178   0.567 -3.7985  3.0318  0.5987
 8426SOL     OW36739   0.190   1.864  14.386  0.3499 -0.4126  0.1624
 8426SOL    HW136740   0.191   1.959  14.397 -0.7920 -0.6960  2.7252
 8426SOL    HW236741   0.234   1.863  14.301 -0.4930 -2.4060 -0.2504
 8427SOL     OW36742   4.034   0.158   6.077 -0.1635  0.1990  0.9106
 8427SOL    HW136743   4.074   0.236   6.116  0.5839  0.4905 -0.4341
 8427SOL    HW236744   4.020   0.103   6.154  1.3137 -3.1874 -1.2520
 8428SOL     OW36745   2.465   1.058   7.058  0.2498 -0.3537 -0.0763
 8428SOL    HW136746   2.493   1.034   7.146  1.3483  2.1818  0.2763
 8428SOL    HW236747   2.386   1.110   7.072 -0.2443 -1.2917  0.5836
 8429SOL     OW36748   3.915   0.331  11.911 -0.1306 -0.6270 -0.1049
 8429SOL    HW136749   3.959   0.292  11.836  0.4230 -0.1278 -0.0402
 8429SOL    HW236750   3.857   0.391  11.864 -0.2096  0.1211  0.9388
 8430SOL     OW36751   1.367   1.978   9.418  0.0957  0.1453 -0.1031
 8430SOL    HW136752   1.410   1.950   9.337 -0.2919 -0.6895 -0.0160
 8430SOL    HW236753   1.444   1.999   9.471 -0.2449 -0.8965  0.8033
 8431SOL     OW36754   2.749   1.647   5.181 -0.7350 -0.0243 -0.3237
 8431SOL    HW136755   2.657   1.672   5.186 -0.5985 -0.0759  2.4662
 8431SOL    HW236756   2.783   1.684   5.262 -0.4151  1.6034 -1.2074
 8432SOL     OW36757   1.355   1.705   5.646 -0.1766 -0.3949 -0.0660
 8432SOL    HW136758   1.366   1.618   5.684 -1.8243 -0.4401  0.3061
 8432SOL    HW236759   1.445   1.733   5.627 -0.6818  1.5967  0.4657
 8433SOL     OW36760   1.988   4.589   2.492  0.0481  0.5982  0.4113
 8433SOL    HW136761   1.898   4.620   2.502 -0.1502  0.9106 -2.3682
 8433SOL    HW236762   2.014   4.619   2.579 -0.6277 -0.4974  0.9967
 8434SOL     OW36763   2.177   0.835   9.417 -0.0680  0.1532  0.3163
 8434SOL    HW136764   2.091   0.845   9.457 -1.1228 -2.4069 -1.3277
 8434SOL    HW236765   2.157   0.775   9.345  0.5769  1.0762 -0.6368
 8435SOL     OW36766   2.315   4.184  14.160  0.0909  0.3274  0.1117
 8435SOL    HW136767   2.291   4.162  14.250 -1.3053  4.7470  0.7868
 8435SOL    HW236768   2.227   4.194  14.123 -1.2868 -0.2835  3.2148
 8436SOL     OW36769   1.744   0.172   5.487 -0.1950 -0.1145  0.1667
 8436SOL    HW136770   1.703   0.242   5.539 -0.1624  0.2771 -0.3342
 8436SOL    HW236771   1.824   0.215   5.458 -1.4399  0.7007 -2.0305
 8437SOL     OW36772   0.646   4.288  16.502  0.0784 -0.0075 -0.1511
 8437SOL    HW136773   0.695   4.362  16.468  2.0214 -0.3842  1.8496
 8437SOL    HW236774   0.697   4.263  16.579 -1.6180  0.0637  1.0047
 8438SOL     OW36775   0.862   1.979   8.454 -0.0643  0.3633 -0.3124
 8438SOL    HW136776   0.942   2.014   8.415 -0.3814  0.7813 -0.5967
 8438SOL    HW236777   0.886   1.887   8.461 -0.5516  0.1116 -2.0498
 8439SOL     OW36778   3.540   1.936  11.321 -0.1316 -0.4089  0.4081
 8439SOL    HW136779   3.623   1.961  11.280 -0.1402  0.3670  0.8540
 8439SOL    HW236780   3.558   1.846  11.348  2.0010 -0.7998 -2.3082
 8440SOL     OW36781   3.951   0.377   3.467 -0.7575 -0.0929  0.1905
 8440SOL    HW136782   3.965   0.298   3.415  0.9191  2.0054 -2.5286
 8440SOL    HW236783   3.954   0.452   3.407 -0.3885 -0.8222 -0.7039
 8441SOL     OW36784   0.907   1.630   5.838  0.2820 -0.1185 -0.0069
 8441SOL    HW136785   0.816   1.603   5.831  0.4134 -0.6993  0.5019
 8441SOL    HW236786   0.920   1.715   5.796 -0.9472  0.7460  1.3944
 8442SOL     OW36787   0.964   0.361   7.213 -0.0286 -0.1577 -0.3657
 8442SOL    HW136788   0.906   0.289   7.238 -0.0620  1.1798  3.5065
 8442SOL    HW236789   1.036   0.305   7.183 -1.5484 -1.7337 -1.0209
 8443SOL     OW36790   2.125   3.802   9.474 -0.1523  0.6261  0.7255
 8443SOL    HW136791   2.177   3.831   9.549  1.3096 -0.4465  0.1324
 8443SOL    HW236792   2.044   3.783   9.521 -0.0469  1.0558  1.0814
 8444SOL     OW36793   2.599   0.200   1.598 -0.1620 -0.5980 -0.9673
 8444SOL    HW136794   2.550   0.118   1.604  0.1819 -0.8296 -1.3373
 8444SOL    HW236795   2.528   0.262   1.581  1.1350  1.6268  1.6858
 8445SOL     OW36796   2.712   3.871  11.540  0.0698  0.0990 -0.0883
 8445SOL    HW136797   2.706   3.959  11.578  0.2013 -0.1847  0.5929
 8445SOL    HW236798   2.634   3.832  11.580 -0.5299  2.5224  1.1385
 8446SOL     OW36799   0.467   4.718  10.161  0.6966  0.2927  0.4296
 8446SOL    HW136800   0.425   0.079  10.164  0.8060  0.3374  0.6534
 8446SOL    HW236801   0.433   4.679  10.242 -2.3329 -1.0818 -1.4750
 8447SOL     OW36802   0.140   1.655   2.075 -0.0315  0.7957 -0.0456
 8447SOL    HW136803   0.122   1.741   2.036  1.8615  1.7438  1.1869
 8447SOL    HW236804   0.082   1.599   2.023 -0.8096 -0.2716  1.9749
 8448SOL     OW36805   3.774   4.239  10.881 -0.0727  0.2447 -0.2342
 8448SOL    HW136806   3.748   4.200  10.798 -3.9672 -1.1874  1.6800
 8448SOL    HW236807   3.753   4.166  10.939 -0.1924 -0.1609 -0.7874
 8449SOL     OW36808   1.282   2.296   6.571 -0.2446  0.3255 -0.3494
 8449SOL    HW136809   1.320   2.345   6.498 -1.8159  0.6137 -0.9868
 8449SOL    HW236810   1.235   2.372   6.606 -0.7237  0.8042 -1.9884
 8450SOL     OW36811   0.964   0.597   9.793 -0.4393 -0.5627 -0.0834
 8450SOL    HW136812   0.983   0.613   9.700 -0.4290  0.1823  0.0496
 8450SOL    HW236813   0.872   0.625   9.796  0.6579  2.7997  1.8614
 8451SOL     OW36814   0.043   0.526   4.136  0.0422 -0.6037 -0.1934
 8451SOL    HW136815   0.007   0.529   4.225  0.3072 -0.0171 -0.1103
 8451SOL    HW236816   0.137   0.523   4.151 -0.0851  1.1216  0.8449
 8452SOL     OW36817   2.252   0.577  11.114 -0.6608  0.0313 -0.2054
 8452SOL    HW136818   2.257   0.575  11.019 -0.3601  2.2194 -0.2471
 8452SOL    HW236819   2.199   0.656  11.128  0.6635  1.3279 -2.5510
 8453SOL     OW36820   1.977   3.595   7.872  0.3434 -0.4607 -0.4552
 8453SOL    HW136821   1.941   3.584   7.784  2.5783 -2.0565 -1.1847
 8453SOL    HW236822   1.968   3.690   7.867 -1.6680 -0.6655 -0.7986
 8454SOL     OW36823   2.640   1.981   4.578 -0.1759 -0.0527  0.1115
 8454SOL    HW136824   2.677   1.915   4.519 -0.4189  0.7970 -1.0003
 8454SOL    HW236825   2.665   1.958   4.667  0.7814 -0.0318 -0.1545
 8455SOL     OW36826   3.710   1.950   1.426 -0.3672  0.0603  0.3703
 8455SOL    HW136827   3.750   1.913   1.348 -0.9126 -1.2029  0.6883
 8455SOL    HW236828   3.787   1.960   1.483  0.8393 -1.1310 -1.0759
 8456SOL     OW36829   2.919   4.334   6.983  0.1423 -0.5414 -0.2237
 8456SOL    HW136830   2.958   4.250   7.010 -1.1294 -0.9399  0.3860
 8456SOL    HW236831   2.944   4.383   7.061 -2.1265 -1.3125  0.9896
 8457SOL     OW36832   0.601   0.076   0.984 -0.0125 -0.4261 -0.2997
 8457SOL    HW136833   0.583   0.097   1.076  0.6977 -2.3737  0.2961
 8457SOL    HW236834   0.508   0.070   0.962 -0.9702  0.5844  3.4929
 8458SOL     OW36835   2.759   1.048   3.645  0.3069 -0.4838  0.3787
 8458SOL    HW136836   2.701   1.049   3.721 -0.4336  0.5920 -0.1900
 8458SOL    HW236837   2.737   1.127   3.595  0.7910  0.8080  2.2475
 8459SOL     OW36838   1.842   1.183   1.173 -0.4734 -0.0074 -0.2350
 8459SOL    HW136839   1.822   1.276   1.170  1.1206  0.3209 -1.0701
 8459SOL    HW236840   1.822   1.165   1.264 -1.9748 -0.8259 -0.7299
 8460SOL     OW36841   3.583   2.170   2.962  0.6302  0.1305 -0.1586
 8460SOL    HW136842   3.515   2.105   2.944  1.2925 -1.0077  1.4890
 8460SOL    HW236843   3.539   2.253   2.946  0.7478  0.4084  0.9782
 8461SOL     OW36844   4.475   3.174   5.085 -0.0773 -0.5527 -0.1147
 8461SOL    HW136845   4.436   3.256   5.054 -1.3578 -0.0851  2.7492
 8461SOL    HW236846   4.527   3.214   5.154 -0.6161 -0.0300 -0.0112
 8462SOL     OW36847   3.291   1.996   9.144 -0.0493 -0.1585 -0.0238
 8462SOL    HW136848   3.339   2.074   9.114  0.3239  0.7335  2.9002
 8462SOL    HW236849   3.307   1.997   9.238 -2.6196 -0.2622  0.4142
 8463SOL     OW36850   1.402   2.052   8.000  0.3985 -0.0371  0.0456
 8463SOL    HW136851   1.462   1.994   7.953  1.7050  1.9878 -0.7492
 8463SOL    HW236852   1.329   2.054   7.939  0.4746  0.1775 -0.0377
 8464SOL     OW36853   1.448   2.916   8.584 -0.3578 -0.3822 -0.7245
 8464SOL    HW136854   1.376   2.862   8.617  0.0411 -0.4656  0.0170
 8464SOL    HW236855   1.497   2.918   8.666  1.4862  0.9085 -1.8614
 8465SOL     OW36856   3.302   4.295   4.854 -0.3690  0.5636  0.9487
 8465SOL    HW136857   3.237   4.230   4.878 -0.3111 -0.7207 -2.4284
 8465SOL    HW236858   3.243   4.355   4.808 -0.5016  0.4804  1.0111
 8466SOL     OW36859   0.543   3.144   7.845 -0.0046 -0.1054  0.2373
 8466SOL    HW136860   0.507   3.056   7.838  0.2055 -0.1659 -0.1172
 8466SOL    HW236861   0.627   3.119   7.885 -0.2323 -1.5446 -0.1852
 8467SOL     OW36862   2.830   3.737  11.188  0.0903  0.6852 -0.4359
 8467SOL    HW136863   2.766   3.746  11.118  1.1098 -0.8612 -1.5586
 8467SOL    HW236864   2.903   3.727  11.128  0.5098  1.6896 -0.0961
 8468SOL     OW36865   4.240   2.978   8.080  0.2218 -0.4352  0.2341
 8468SOL    HW136866   4.225   3.069   8.056 -0.7319 -0.2363  1.5702
 8468SOL    HW236867   4.331   2.970   8.109  0.5010  1.8719  0.0170
 8469SOL     OW36868   0.806   4.368   5.415 -0.0485  0.8905  0.1866
 8469SOL    HW136869   0.809   4.365   5.319 -1.7774  1.4077  0.1265
 8469SOL    HW236870   0.720   4.329   5.430 -0.1760  1.6499  1.4257
 8470SOL     OW36871   3.223   1.059   8.442 -0.3331  0.0182  0.5269
 8470SOL    HW136872   3.195   1.082   8.530  0.5022 -0.1584  0.8381
 8470SOL    HW236873   3.276   1.135   8.419  1.1092 -1.3760 -0.8154
 8471SOL     OW36874   0.835   2.916   3.444 -0.6348  0.0275 -0.0750
 8471SOL    HW136875   0.751   2.962   3.438 -0.6260  0.3150  1.8302
 8471SOL    HW236876   0.810   2.827   3.421 -0.2412 -0.3378  0.9033
 8472SOL     OW36877   3.949   4.394   4.179  0.0326 -0.3683 -0.1464
 8472SOL    HW136878   3.855   4.396   4.199  0.2535  1.7644  0.7239
 8472SOL    HW236879   3.941   4.390   4.084 -0.0150  2.6497 -0.2942
 8473SOL     OW36880   1.437   3.661   5.452 -0.0040  0.5968 -0.5859
 8473SOL    HW136881   1.524   3.645   5.417  0.1652  1.3812 -0.5128
 8473SOL    HW236882   1.389   3.699   5.378 -0.3888 -1.3299 -1.3252
 8474SOL     OW36883   0.187   1.080   9.314  0.7329 -0.9239  0.6001
 8474SOL    HW136884   0.165   1.051   9.226 -1.3942  0.1518  0.7960
 8474SOL    HW236885   0.098   1.092   9.346  0.5798  0.4732 -0.3728
 8475SOL     OW36886   2.146   0.574   3.025 -0.8339  0.4589  0.2715
 8475SOL    HW136887   2.078   0.533   2.971  1.3822  0.2396 -2.3814
 8475SOL    HW236888   2.095   0.628   3.085 -0.3361  1.7208 -0.4322
 8476SOL     OW36889   1.116   0.959  12.547  0.1263 -0.4374  0.0246
 8476SOL    HW136890   1.074   0.949  12.461 -3.1854 -0.4748  1.6388
 8476SOL    HW236891   1.053   1.011  12.598  0.5413 -1.5479  1.6698
 8477SOL     OW36892   3.091   0.480  12.308 -0.3452  0.4703  0.0372
 8477SOL    HW136893   3.059   0.389  12.311  0.4333  0.1415 -1.7709
 8477SOL    HW236894   3.016   0.522  12.350 -0.2312 -1.4349  2.1819
 8478SOL     OW36895   4.049   0.174   3.298  0.7567  0.1109  0.1345
 8478SOL    HW136896   4.046   0.191   3.204  0.0452 -0.3988  0.0650
 8478SOL    HW236897   4.088   0.087   3.291 -0.9133 -0.5802 -0.5319
 8479SOL     OW36898   0.819   0.351   4.339  0.1575  0.5195  0.3216
 8479SOL    HW136899   0.792   0.344   4.431  0.2789  0.8262  0.3800
 8479SOL    HW236900   0.864   0.434   4.353  0.0880  0.2794  1.9494
 8480SOL     OW36901   4.606   1.917   6.257  0.0239 -0.3575 -0.7953
 8480SOL    HW136902   4.675   1.863   6.296 -0.8270 -1.0058 -0.1768
 8480SOL    HW236903   4.635   1.908   6.167  1.9658 -0.7224 -0.1434
 8481SOL     OW36904   0.463   3.558   6.000  0.2760  0.1860 -0.5924
 8481SOL    HW136905   0.487   3.526   6.087 -1.5884  0.4494  0.0092
 8481SOL    HW236906   0.525   3.630   5.988  1.8710 -0.5126  3.3657
 8482SOL     OW36907   2.237   1.662  12.386 -0.0806  0.1030  0.4071
 8482SOL    HW136908   2.212   1.571  12.372  1.1341 -0.5754  2.7005
 8482SOL    HW236909   2.173   1.681  12.454 -0.1885  1.1984  0.0028
 8483SOL     OW36910   3.898   1.888   6.858  0.1239 -0.0284 -0.3995
 8483SOL    HW136911   3.963   1.932   6.803  0.9938 -2.8342 -1.6336
 8483SOL    HW236912   3.955   1.874   6.934 -0.8089  0.9379  0.4672
 8484SOL     OW36913   1.135   3.654   8.519  0.3779  0.0861  0.7144
 8484SOL    HW136914   1.136   3.623   8.609 -1.8448 -0.1110  0.6882
 8484SOL    HW236915   1.164   3.574   8.476 -1.6872  1.7386 -3.7442
 8485SOL     OW36916   0.545   0.908   9.357 -0.5550  0.2431 -0.0670
 8485SOL    HW136917   0.615   0.869   9.409 -0.9777 -2.3261 -1.4298
 8485SOL    HW236918   0.602   0.941   9.287  0.5385 -0.9615  0.2499
 8486SOL     OW36919   0.505   1.215   5.346 -0.0512  0.2126 -0.3900
 8486SOL    HW136920   0.531   1.124   5.358 -1.9525 -0.3484 -0.5744
 8486SOL    HW236921   0.594   1.249   5.334 -0.2771  1.0844  0.4729
 8487SOL     OW36922   4.628   2.602   8.503 -0.4271  0.5379  0.3671
 8487SOL    HW136923   4.565   2.671   8.480 -0.6612  0.4987  0.8986
 8487SOL    HW236924   4.705   2.646   8.466 -1.1603 -0.0420 -1.8398
 8488SOL     OW36925   3.284   3.834   9.775 -0.5909  0.7546 -0.1396
 8488SOL    HW136926   3.325   3.761   9.822  3.1024  1.3778 -2.4097
 8488SOL    HW236927   3.202   3.785   9.767  1.7942 -3.3012  0.0634
 8489SOL     OW36928   2.951   3.203   8.842  0.1980 -0.1085  0.6437
 8489SOL    HW136929   2.909   3.289   8.834 -1.5450 -1.1971 -1.9599
 8489SOL    HW236930   2.948   3.166   8.753 -2.0780  2.5870 -0.3930
 8490SOL     OW36931   2.544   0.409   8.589 -0.2309 -0.1327 -0.2537
 8490SOL    HW136932   2.553   0.475   8.520  1.9070  0.3455  0.4965
 8490SOL    HW236933   2.555   0.472   8.660  2.5207 -1.0691  0.1248
 8491SOL     OW36934   1.133   1.516   2.904  0.0294 -0.4814  0.0059
 8491SOL    HW136935   1.202   1.453   2.924 -0.2419 -0.1026  2.1428
 8491SOL    HW236936   1.167   1.563   2.828  0.4305 -0.5074  0.1682
 8492SOL     OW36937   0.727   0.247   4.566  0.3601  0.0902 -0.0536
 8492SOL    HW136938   0.747   0.207   4.651  0.1853 -0.5552 -0.3142
 8492SOL    HW236939   0.632   0.233   4.569  0.7277 -2.1399  1.3958
 8493SOL     OW36940   2.089   1.951   6.529 -0.2341  0.4240  0.3769
 8493SOL    HW136941   2.046   1.886   6.474 -0.6019  0.3041  0.8096
 8493SOL    HW236942   2.014   1.982   6.579 -0.0169  0.6822  0.5444
 8494SOL     OW36943   3.791   2.070   9.662 -0.2707  0.3755  0.2067
 8494SOL    HW136944   3.791   1.980   9.696 -0.3205 -0.0536 -0.9293
 8494SOL    HW236945   3.882   2.083   9.636 -0.0090 -1.8124  0.0269
 8495SOL     OW36946   0.805   1.618   0.965 -0.0446  0.5156  0.5185
 8495SOL    HW136947   0.771   1.544   1.014  0.2645 -0.9779 -1.5336
 8495SOL    HW236948   0.741   1.605   0.895 -0.1904  0.6643  0.6238
 8496SOL     OW36949   0.777   3.101   6.859  0.7782 -0.3211  0.0112
 8496SOL    HW136950   0.752   3.129   6.771  0.3871 -0.6379  0.0208
 8496SOL    HW236951   0.872   3.097   6.849  0.7310  3.0227 -1.6209
 8497SOL     OW36952   2.913   1.285   6.088 -0.4654 -0.2485  0.5399
 8497SOL    HW136953   2.876   1.363   6.131 -0.3033 -0.0524  0.3257
 8497SOL    HW236954   2.982   1.250   6.144  1.3043  1.3283 -0.6268
 8498SOL     OW36955   0.296   0.837   3.973 -0.0823  0.0996  0.3439
 8498SOL    HW136956   0.384   0.806   3.995 -0.1426  0.7988  1.5133
 8498SOL    HW236957   0.261   0.864   4.057 -1.9259 -1.2888  0.0237
 8499SOL     OW36958   1.239   3.716   0.945  0.9760 -0.0413 -0.1015
 8499SOL    HW136959   1.298   3.672   0.884  1.8637  1.7264 -0.5051
 8499SOL    HW236960   1.248   3.660   1.022  1.9429 -0.4175 -0.4921
 8500SOL     OW36961   0.688   1.022   9.136  0.4166  0.1195  1.0185
 8500SOL    HW136962   0.731   1.044   9.053 -0.9266 -1.0372  0.0305
 8500SOL    HW236963   0.668   1.110   9.169 -0.1096 -0.0588  1.1636
 8501SOL     OW36964   1.542   3.963   0.862 -0.4506 -0.3683 -0.5839
 8501SOL    HW136965   1.471   4.022   0.890 -1.2611 -0.9764 -1.3424
 8501SOL    HW236966   1.610   3.983   0.926 -1.3555  2.0207 -0.3321
 8502SOL     OW36967   3.112   3.452   5.560 -0.3930 -0.4009  0.0172
 8502SOL    HW136968   3.087   3.529   5.610  1.0744 -0.5820  1.0215
 8502SOL    HW236969   3.070   3.474   5.477  0.9567  2.2557  0.0486
 8503SOL     OW36970   1.604   2.619  14.684  0.0916  0.1962  0.0634
 8503SOL    HW136971   1.559   2.650  14.763  1.3820 -0.9365  1.2390
 8503SOL    HW236972   1.610   2.528  14.714 -0.0957  0.6341  1.4346
 8504SOL     OW36973   0.447   3.055   9.989  0.7052  0.1218 -0.5153
 8504SOL    HW136974   0.524   3.109  10.008  0.4014 -0.0026  1.1176
 8504SOL    HW236975   0.461   3.025   9.899 -0.6077  0.1654 -0.7302
 8505SOL     OW36976   2.816   3.489   7.432 -0.4883  0.3616 -0.0445
 8505SOL    HW136977   2.858   3.419   7.483  1.7466  2.4057  0.9411
 8505SOL    HW236978   2.774   3.527   7.510  0.0556  3.1970 -1.1577
 8506SOL     OW36979   1.297   3.654   3.719  0.1894 -0.3881  0.3159
 8506SOL    HW136980   1.388   3.627   3.725  0.7483  0.7929 -2.8083
 8506SOL    HW236981   1.251   3.572   3.734  0.7213 -0.4531  1.5929
 8507SOL     OW36982   0.103   2.950  12.827 -0.3159  0.4843 -0.0791
 8507SOL    HW136983   0.196   2.961  12.848 -0.3197  0.7727 -0.2135
 8507SOL    HW236984   0.061   3.008  12.890  2.8258  0.7623  1.7461
 8508SOL     OW36985   2.498   3.168  10.980 -0.2981  0.1451 -0.4477
 8508SOL    HW136986   2.414   3.123  10.977 -1.3415  2.0065  0.7131
 8508SOL    HW236987   2.489   3.231  11.052  0.8551  0.3228 -0.4485
 8509SOL     OW36988   3.645   0.759   5.474 -0.0081  0.1823 -0.3336
 8509SOL    HW136989   3.618   0.842   5.512  1.1704 -0.0705  1.0866
 8509SOL    HW236990   3.561   0.727   5.443 -0.4350  0.0227  0.9975
 8510SOL     OW36991   3.256   3.947   1.910  0.4228 -0.4354  0.3645
 8510SOL    HW136992   3.165   3.972   1.927  0.8917  0.4943  1.5553
 8510SOL    HW236993   3.272   4.000   1.833 -0.0628  0.8195  1.1268
 8511SOL     OW36994   3.321   4.062   2.963  1.1892 -0.6226  0.1110
 8511SOL    HW136995   3.280   3.986   2.923  0.3278 -0.0189 -0.1630
 8511SOL    HW236996   3.292   4.056   3.054 -1.8706 -0.2882 -0.8443
 8512SOL     OW36997   3.687   3.122   1.067  0.3999  0.6007  0.5389
 8512SOL    HW136998   3.603   3.141   1.025  0.0467  0.7076  1.2932
 8512SOL    HW236999   3.741   3.092   0.993  1.2095  2.3220  0.4199
 8513SOL     OW37000   3.578   0.297   4.209 -0.3151 -0.0399 -0.5282
 8513SOL    HW137001   3.577   0.369   4.146 -0.6649  0.9562  0.6159
 8513SOL    HW237002   3.545   0.219   4.166  3.1921 -1.1850 -1.0525
 8514SOL     OW37003   3.293   1.025   4.619 -0.2274  0.2226 -0.2768
 8514SOL    HW137004   3.292   1.034   4.524  1.1977  2.4535 -0.0696
 8514SOL    HW237005   3.387   1.015   4.635 -0.1299 -0.3688 -1.1932
 8515SOL     OW37006   4.718   1.259   0.443  0.3146 -0.0682 -0.8403
 8515SOL    HW137007   4.723   1.172   0.402 -0.4140 -0.5156  0.0252
 8515SOL    HW237008   0.038   1.288   0.364 -1.2898 -0.0291 -1.7443
 8516SOL     OW37009   3.134   0.562  16.598  0.1828 -0.6167  0.1170
 8516SOL    HW137010   3.203   0.565  16.532 -0.8690 -0.5487 -0.9946
 8516SOL    HW237011   3.184   0.526  16.671 -1.0954  0.0144  1.3117
 8517SOL     OW37012   3.108   2.304   3.894  0.2809  0.1218  0.0865
 8517SOL    HW137013   3.177   2.246   3.926 -0.5474  0.3175  2.2475
 8517SOL    HW237014   3.119   2.378   3.954 -2.3328  0.4615  0.1373
 8518SOL     OW37015   0.598   4.133  12.636 -0.4711 -0.3449 -0.4400
 8518SOL    HW137016   0.661   4.201  12.613 -1.0755  0.3720 -0.0033
 8518SOL    HW237017   0.600   4.075  12.560  0.6363  0.6636 -1.1820
 8519SOL     OW37018   0.890   3.182  15.333  0.5572  0.2303  0.0822
 8519SOL    HW137019   0.797   3.167  15.352  0.6638 -2.1944 -1.2448
 8519SOL    HW237020   0.877   3.226  15.249  1.1289  1.2909  0.5537
 8520SOL     OW37021   2.489   0.420   0.466 -0.1082  0.2710  0.1892
 8520SOL    HW137022   2.538   0.455   0.540 -2.2885  3.9058 -0.1164
 8520SOL    HW237023   2.548   0.429   0.391 -0.1203  2.1140  0.3992
 8521SOL     OW37024   1.665   0.426   3.106 -1.1085  0.0371 -0.4283
 8521SOL    HW137025   1.716   0.408   3.184  0.8302  0.0786 -1.6941
 8521SOL    HW237026   1.720   0.499   3.077 -0.7321 -0.1325 -0.1292
 8522SOL     OW37027   4.493   2.631   4.812  0.1108  0.4746  0.2150
 8522SOL    HW137028   4.509   2.644   4.905  1.1005  2.1664 -0.1771
 8522SOL    HW237029   4.575   2.598   4.776  0.2329  0.3094  0.6489
 8523SOL     OW37030   3.357   4.191   3.871  0.4301 -0.8784  0.0500
 8523SOL    HW137031   3.263   4.195   3.892  0.5201  1.4148 -0.0509
 8523SOL    HW237032   3.364   4.099   3.846  0.2586 -0.8451 -0.1275
 8524SOL     OW37033   4.690   2.321  15.285  0.2064 -0.6327  0.5422
 8524SOL    HW137034   4.711   2.405  15.325  0.0696 -0.0766 -0.5272
 8524SOL    HW237035   4.652   2.343  15.199  0.3485  1.4459  1.0170
 8525SOL     OW37036   4.117   0.489  16.540 -0.2032 -0.1828  0.5437
 8525SOL    HW137037   4.107   0.434  16.618  0.9990 -1.6322 -0.3168
 8525SOL    HW237038   4.203   0.528  16.557  0.2851  0.4044 -3.1828
 8526SOL     OW37039   1.089   0.741  12.766 -0.2339  0.2495 -0.1246
 8526SOL    HW137040   1.181   0.732  12.791 -0.2059  4.0136  1.1285
 8526SOL    HW237041   1.082   0.830  12.734  0.2673 -0.5612 -2.4773
 8527SOL     OW37042   3.701   2.118  17.304 -0.0637  0.1073  0.5198
 8527SOL    HW137043   3.647   2.068  17.365  0.6950 -0.5972  0.6172
 8527SOL    HW237044   3.703   2.208  17.338  2.5864  0.5923 -0.9040
 8528SOL     OW37045   2.389   0.182   5.320 -0.2976  0.1129  0.0511
 8528SOL    HW137046   2.334   0.201   5.396 -1.3508  0.2466 -0.7438
 8528SOL    HW237047   2.422   0.098   5.351  2.0918  0.3843 -1.7283
 8529SOL     OW37048   3.840   4.250   6.314  0.2339  0.5479  0.2762
 8529SOL    HW137049   3.753   4.286   6.330 -0.3855 -0.5295 -0.7197
 8529SOL    HW237050   3.877   4.243   6.402  1.1437  3.2547  0.1323
 8530SOL     OW37051   3.480   0.874   3.492  0.1182  0.5563 -0.2117
 8530SOL    HW137052   3.529   0.823   3.557 -1.5240  1.3530  1.6407
 8530SOL    HW237053   3.430   0.806   3.446  1.2332 -1.2935  1.2760
 8531SOL     OW37054   4.087   0.311   0.772  0.1588  0.0099  0.2481
 8531SOL    HW137055   4.111   0.391   0.726 -3.5331  0.1487 -1.4417
 8531SOL    HW237056   3.995   0.299   0.747  0.3958  3.3013 -2.2152
 8532SOL     OW37057   1.772   1.192   3.652 -0.3135  0.0602  0.7539
 8532SOL    HW137058   1.728   1.107   3.651 -0.5350  0.2207 -3.3218
 8532SOL    HW237059   1.864   1.169   3.667 -0.9368 -2.9151  0.0287
 8533SOL     OW37060   1.054   1.150   5.004 -0.0944  0.0153 -0.2036
 8533SOL    HW137061   1.111   1.125   4.931  1.3675  0.9553  0.6099
 8533SOL    HW237062   1.117   1.196   5.060 -0.4619  0.3134 -0.0340
 8534SOL     OW37063   0.747   2.101  16.970 -0.2817  0.5797 -0.3078
 8534SOL    HW137064   0.841   2.115  16.973 -0.7938  4.1518 -1.4926
 8534SOL    HW237065   0.725   2.177  16.916 -1.7628 -0.1114 -0.6932
 8535SOL     OW37066   1.283   3.773   3.220  0.3851  0.0190 -0.3551
 8535SOL    HW137067   1.371   3.773   3.258  0.0781  0.4197  0.3548
 8535SOL    HW237068   1.240   3.714   3.281  0.3962  0.2193 -0.1532
 8536SOL     OW37069   4.205   3.352  14.693 -0.0306  0.1755  0.2099
 8536SOL    HW137070   4.246   3.268  14.714  0.3612  0.5932  1.1236
 8536SOL    HW237071   4.125   3.342  14.744  0.8393  1.4687  1.8378
 8537SOL     OW37072   1.539   0.815   2.716 -0.0993 -0.0985  0.7889
 8537SOL    HW137073   1.562   0.877   2.647  0.0257  1.8169  2.5479
 8537SOL    HW237074   1.445   0.830   2.729 -0.9416 -1.6585 -3.5901
 8538SOL     OW37075   0.464   4.314   7.740 -0.7006  0.1513 -0.4199
 8538SOL    HW137076   0.373   4.312   7.712 -0.2842  0.4716 -1.7854
 8538SOL    HW237077   0.462   4.245   7.807  0.4976  0.8156  0.3108
 8539SOL     OW37078   2.290   2.456   6.375  0.4630  0.1876  0.2458
 8539SOL    HW137079   2.242   2.427   6.453 -0.3829 -0.9959 -0.7079
 8539SOL    HW237080   2.261   2.389   6.313 -0.3818 -1.7161  2.6805
 8540SOL     OW37081   3.423   0.468   6.377 -0.0003  0.4894 -0.3886
 8540SOL    HW137082   3.468   0.391   6.341  1.6275  0.9292  0.7289
 8540SOL    HW237083   3.337   0.428   6.390  0.4903 -0.5832 -0.4018
 8541SOL     OW37084   0.339   0.198   4.152  0.0719  0.1730 -0.7328
 8541SOL    HW137085   0.387   0.147   4.086  0.3441 -0.6480  0.0952
 8541SOL    HW237086   0.392   0.277   4.139  0.6271 -0.1891 -0.6815
 8542SOL     OW37087   2.405   4.557   3.046 -0.3672 -0.7116  0.3535
 8542SOL    HW137088   2.461   4.488   3.081 -0.7040 -0.6816  0.9595
 8542SOL    HW237089   2.356   4.506   2.982 -0.0376 -0.4874 -0.0760
 8543SOL     OW37090   2.188   4.313   4.836  0.6885 -0.1379  0.0809
 8543SOL    HW137091   2.175   4.267   4.753 -0.1057  0.8780 -0.3485
 8543SOL    HW237092   2.123   4.276   4.896  0.9938  0.7018  0.9365
 8544SOL     OW37093   1.062   3.479  12.123 -0.5420 -0.2321 -0.3287
 8544SOL    HW137094   1.090   3.489  12.214 -0.5843  1.2015 -0.4659
 8544SOL    HW237095   1.125   3.535  12.079 -2.8806  0.9106 -2.2660
 8545SOL     OW37096   1.737   4.587   7.179 -0.5405 -0.2210  1.1618
 8545SOL    HW137097   1.708   4.546   7.098  1.6199  1.4404 -0.4343
 8545SOL    HW237098   1.658   4.637   7.198 -1.0541 -0.0072 -1.6348
 8546SOL     OW37099   3.002   3.595   0.376 -0.5143 -0.3713  0.0908
 8546SOL    HW137100   2.982   3.549   0.294  0.3860  0.3793 -0.5393
 8546SOL    HW237101   3.004   3.688   0.356 -0.4213 -0.4561 -0.2857
 8547SOL     OW37102   3.176   0.877   3.509  0.1378  0.1122 -0.0239
 8547SOL    HW137103   3.107   0.858   3.572 -0.8094 -1.8684 -1.6574
 8547SOL    HW237104   3.140   0.947   3.456 -0.4773 -0.7682 -0.7617
 8548SOL     OW37105   1.354   1.732   8.470 -0.3152  0.4523 -0.2145
 8548SOL    HW137106   1.426   1.794   8.475 -2.0662  2.4273  0.5033
 8548SOL    HW237107   1.341   1.720   8.376 -0.3584  3.4793 -0.6050
 8549SOL     OW37108   0.218   3.141   8.560  0.4071  0.5088 -0.0977
 8549SOL    HW137109   0.290   3.200   8.582 -1.1888  2.3679  0.1385
 8549SOL    HW237110   0.239   3.107   8.473 -0.8623  1.6666 -0.8486
 8550SOL     OW37111   2.070   1.653   3.986  0.2383  0.3934  0.0032
 8550SOL    HW137112   2.102   1.582   4.043 -0.7659  0.4569  0.6400
 8550SOL    HW237113   2.080   1.607   3.903 -0.9323 -0.6443  0.4447
 8551SOL     OW37114   0.863   4.129   3.101 -0.0023 -0.4858 -0.1851
 8551SOL    HW137115   0.824   4.100   3.183 -2.4621 -1.1973 -1.6299
 8551SOL    HW237116   0.902   4.207   3.140 -1.3496  0.0460  0.0791
 8552SOL     OW37117   0.390   2.831   4.540 -0.2487  0.0110  0.1634
 8552SOL    HW137118   0.420   2.743   4.563 -1.5422 -0.4301  0.1347
 8552SOL    HW237119   0.412   2.871   4.624  3.7113  1.0960 -1.3939
 8553SOL     OW37120   2.658   2.261  17.589  0.3035 -0.0358 -0.0651
 8553SOL    HW137121   2.730   2.252  17.651 -1.3306 -2.0751  1.5263
 8553SOL    HW237122   2.636   2.170  17.569 -3.0881  0.5351  1.0460
 8554SOL     OW37123   1.891   2.848   4.269  0.3423 -0.3281 -0.3878
 8554SOL    HW137124   1.864   2.770   4.220  2.1274 -1.0845 -0.1859
 8554SOL    HW237125   1.981   2.866   4.242  0.5250  0.1425  0.5084
 8555SOL     OW37126   3.664   2.206  16.415  0.5533  0.0726  0.5497
 8555SOL    HW137127   3.687   2.287  16.461  0.9436  0.3169 -0.0757
 8555SOL    HW237128   3.572   2.182  16.430  1.0843 -2.0429  0.4176
 8556SOL     OW37129   3.123   0.908   2.777 -0.1517  0.1996  0.8259
 8556SOL    HW137130   3.193   0.857   2.737 -4.1926 -1.8165 -3.6446
 8556SOL    HW237131   3.054   0.843   2.767 -0.1445  0.1943  0.8114
 8557SOL     OW37132   2.046   1.860   8.593 -0.4489  0.4107 -0.1832
 8557SOL    HW137133   2.063   1.881   8.501  1.6164 -0.1170  0.0710
 8557SOL    HW237134   2.119   1.902   8.638 -1.1470  0.4004  0.9412
 8558SOL     OW37135   3.657   4.462  12.966 -0.1545  0.4942  0.0170
 8558SOL    HW137136   3.679   4.517  12.891  0.0754  1.2387  0.6285
 8558SOL    HW237137   3.689   4.517  13.037  2.5678  1.7423 -2.1739
 8559SOL     OW37138   3.875   2.581   8.963  0.0928  0.3483  0.2459
 8559SOL    HW137139   3.795   2.547   8.923  1.1281 -0.5647 -1.0262
 8559SOL    HW237140   3.830   2.648   9.015  1.1258  0.3028  1.2176
 8560SOL     OW37141   3.760   1.625  16.301  0.3846  0.1719  0.1211
 8560SOL    HW137142   3.839   1.673  16.327  0.5370  0.8766 -1.6565
 8560SOL    HW237143   3.692   1.692  16.304 -0.4890 -0.6048 -2.2994
 8561SOL     OW37144   0.502   3.460   6.281 -0.1995  0.7983 -0.7457
 8561SOL    HW137145   0.432   3.414   6.235 -0.2924 -1.2856  1.4887
 8561SOL    HW237146   0.445   3.495   6.350 -0.7125  0.3180 -0.9232
 8562SOL     OW37147   1.987   4.233   6.580  0.5795 -0.0362  0.5695
 8562SOL    HW137148   1.969   4.185   6.660 -1.2902 -3.5251 -1.9379
 8562SOL    HW237149   1.950   4.161   6.529  2.1010 -0.5114  0.1227
 8563SOL     OW37150   2.695   4.336  15.623  0.2628 -0.3542 -0.0885
 8563SOL    HW137151   2.734   4.370  15.542  0.8022  0.9679  0.7135
 8563SOL    HW237152   2.650   4.259  15.588 -0.5373 -1.0265  2.4441
 8564SOL     OW37153   3.963   2.176   9.437  0.5977 -0.1392  0.0372
 8564SOL    HW137154   3.975   2.207   9.527 -1.9583  2.8309 -0.6583
 8564SOL    HW237155   4.049   2.158   9.399  1.1995 -3.6397  2.9613
 8565SOL     OW37156   2.932   0.984   3.960  0.7050  0.0896  0.0512
 8565SOL    HW137157   2.883   1.059   3.992  1.5078  2.2887 -3.9754
 8565SOL    HW237158   2.895   0.909   4.007  0.4368 -1.4895 -2.6834
 8566SOL     OW37159   3.337   1.077  15.842  0.0417  0.0710 -0.2774
 8566SOL    HW137160   3.342   0.988  15.807  1.1631 -0.1978  0.5842
 8566SOL    HW237161   3.274   1.115  15.781 -0.0404 -2.3382 -1.7066
 8567SOL     OW37162   2.931   3.481  10.754  0.0573 -0.2358 -0.1048
 8567SOL    HW137163   3.006   3.424  10.768 -0.4001 -1.0737 -1.0824
 8567SOL    HW237164   2.917   3.457  10.662  0.9028 -0.3662 -0.2012
 8568SOL     OW37165   3.731   0.574   5.082 -0.0369 -0.3260 -0.5302
 8568SOL    HW137166   3.815   0.546   5.116 -0.8363 -1.1159  0.7982
 8568SOL    HW237167   3.731   0.663   5.117 -2.5875 -1.1236  1.5548
 8569SOL     OW37168   4.125   2.924   1.618 -0.0974 -0.0856 -0.9575
 8569SOL    HW137169   4.048   2.908   1.672  1.0055  0.9114  0.9167
 8569SOL    HW237170   4.155   2.838   1.588  2.6224  0.4494  0.2658
 8570SOL     OW37171   2.190   2.564   9.410 -0.2954 -0.1800 -0.5681
 8570SOL    HW137172   2.257   2.504   9.379 -0.8251 -1.1626  0.1765
 8570SOL    HW237173   2.122   2.522   9.357  0.0431 -0.8217 -0.4909
 8571SOL     OW37174   2.334   1.042  10.271  0.2192 -0.1257  0.0279
 8571SOL    HW137175   2.350   0.974  10.336  0.0521  1.2522  1.4883
 8571SOL    HW237176   2.290   0.991  10.202  0.9911  0.8405 -1.1826
 8572SOL     OW37177   1.116   3.913   4.051  0.0183 -0.2895 -0.1071
 8572SOL    HW137178   1.163   3.905   4.134  0.3995 -0.3692 -0.3309
 8572SOL    HW237179   1.192   3.904   3.993 -0.7097 -1.1518 -0.9342
 8573SOL     OW37180   0.263   0.340   9.952 -0.4049  1.1744 -0.0624
 8573SOL    HW137181   0.174   0.351   9.918  0.6393  0.1274 -3.1875
 8573SOL    HW237182   0.313   0.399   9.896  1.3961 -0.0874  0.2067
 8574SOL     OW37183   2.239   4.323   5.549 -0.5313 -0.2620  0.6737
 8574SOL    HW137184   2.274   4.412   5.548  1.7832 -1.1717 -1.7435
 8574SOL    HW237185   2.267   4.291   5.634 -0.7289  2.1501  1.6527
 8575SOL     OW37186   4.625   0.749   4.072  0.2525  0.2869 -0.1733
 8575SOL    HW137187   4.662   0.761   3.985 -0.3803 -1.8207 -0.7297
 8575SOL    HW237188   4.669   0.668   4.098 -0.9301 -0.6401 -1.0724
 8576SOL     OW37189   0.897   3.967   8.291 -0.3309  0.1532 -0.4502
 8576SOL    HW137190   0.929   3.951   8.379 -2.0523 -3.0154 -0.4189
 8576SOL    HW237191   0.819   4.020   8.310  0.6166  1.1394  0.6224
 8577SOL     OW37192   4.118   3.274   1.844 -0.2637 -0.7142  0.8710
 8577SOL    HW137193   4.123   3.369   1.856 -0.5183 -0.7415  1.1917
 8577SOL    HW237194   4.181   3.266   1.772  0.2827 -0.5210  1.3349
 8578SOL     OW37195   0.475   4.447   4.461  0.1897  0.2178 -0.1569
 8578SOL    HW137196   0.399   4.503   4.446  0.1890 -0.2768 -2.0268
 8578SOL    HW237197   0.537   4.478   4.396 -0.0043 -0.8864 -0.8667
 8579SOL     OW37198   1.332   2.127   0.436  0.0226 -0.1966 -0.0149
 8579SOL    HW137199   1.388   2.050   0.434 -0.8798 -0.9119  1.6141
 8579SOL    HW237200   1.278   2.109   0.514 -0.3004 -0.3082 -0.2638
 8580SOL     OW37201   4.017   3.970   4.594  0.1208  0.5382 -0.2804
 8580SOL    HW137202   4.029   3.902   4.528 -2.7716  1.3819 -1.6956
 8580SOL    HW237203   4.105   3.984   4.629  1.0048 -2.6752 -1.1832
 8581SOL     OW37204   0.366   2.776   7.420 -0.0496 -0.0834 -0.0286
 8581SOL    HW137205   0.277   2.805   7.399  0.2812  0.5768 -0.5113
 8581SOL    HW237206   0.420   2.808   7.347  1.8041 -1.7500  0.6249
 8582SOL     OW37207   0.357   2.173   4.593  0.6310 -0.5585 -0.2408
 8582SOL    HW137208   0.395   2.253   4.630 -1.1283 -0.4760  1.3728
 8582SOL    HW237209   0.413   2.112   4.642  0.4590  0.3339  1.0810
 8583SOL     OW37210   4.138   4.601  17.278 -0.4145  0.3623  0.5750
 8583SOL    HW137211   4.089   4.534  17.231  1.6184 -0.3114 -0.6266
 8583SOL    HW237212   4.178   4.547  17.345  0.0458  2.0005  1.6158
 8584SOL     OW37213   3.147   3.053   4.564 -0.1096 -0.0986  0.0741
 8584SOL    HW137214   3.158   3.120   4.497  2.8571  1.5445  2.2168
 8584SOL    HW237215   3.221   3.078   4.619 -0.0911  0.4020 -0.1831
 8585SOL     OW37216   3.646   3.490   1.402  0.0046 -0.1223 -0.0789
 8585SOL    HW137217   3.569   3.519   1.452 -0.3973 -1.1868 -0.0777
 8585SOL    HW237218   3.670   3.574   1.361  1.6348 -0.4956  0.1440
 8586SOL     OW37219   4.467   3.096   8.543 -0.3444 -0.6703 -0.3569
 8586SOL    HW137220   4.552   3.131   8.516 -0.7053  0.3807 -0.1241
 8586SOL    HW237221   4.414   3.117   8.466 -0.3634  2.5700  0.5465
 8587SOL     OW37222   1.387   0.270   8.243  0.1404 -0.3255 -0.1838
 8587SOL    HW137223   1.317   0.311   8.294  0.3305 -0.7808  0.4436
 8587SOL    HW237224   1.462   0.275   8.302 -0.9708 -1.9234  1.3877
 8588SOL     OW37225   4.568   3.827   8.519 -0.5445 -0.3278  0.4053
 8588SOL    HW137226   4.550   3.757   8.582 -0.9810  0.3094  0.9912
 8588SOL    HW237227   4.479   3.843   8.487 -0.5526  0.7357  0.9658
 8589SOL     OW37228   2.378   1.397   7.898 -0.3272 -0.2188  0.5173
 8589SOL    HW137229   2.381   1.321   7.840 -3.1130  0.0490  0.0421
 8589SOL    HW237230   2.423   1.364   7.976  1.8344  1.1412 -0.1580
 8590SOL     OW37231   1.372   3.456  16.528 -0.3053  0.2646  0.2690
 8590SOL    HW137232   1.414   3.370  16.523 -0.4659  0.2088 -0.1526
 8590SOL    HW237233   1.411   3.491  16.449  0.8084 -0.6073  0.4331
 8591SOL     OW37234   1.921   1.253  12.874  0.1739  0.4667  0.2968
 8591SOL    HW137235   1.902   1.160  12.891 -0.4865  0.8024  1.3819
 8591SOL    HW237236   1.942   1.256  12.781 -3.1571  1.2296 -0.4243
 8592SOL     OW37237   3.500   3.997   6.372 -0.1174  0.3642 -0.0551
 8592SOL    HW137238   3.577   4.051   6.354  0.1174  0.2352  0.5625
 8592SOL    HW237239   3.533   3.925   6.424  0.6510 -0.6876 -1.9860
 8593SOL     OW37240   4.722   3.191   3.089  0.0053 -0.0550 -0.2267
 8593SOL    HW137241   4.701   3.102   3.118 -3.4479  1.3673  1.6718
 8593SOL    HW237242   4.636   3.209   3.049 -1.6364 -2.9540  1.9759
 8594SOL     OW37243   0.451   1.609   4.381 -0.4908 -0.2823  0.5566
 8594SOL    HW137244   0.488   1.652   4.458 -0.0762 -0.7073  0.5933
 8594SOL    HW237245   0.387   1.551   4.421  0.4854 -0.8755  1.2581
 8595SOL     OW37246   3.771   1.971  14.396  0.7423 -0.6365  0.4111
 8595SOL    HW137247   3.865   1.991  14.390  0.6827 -0.2670  0.6880
 8595SOL    HW237248   3.772   1.899  14.460  1.6260 -0.3956  0.6755
 8596SOL     OW37249   4.621   2.250   0.762 -0.0412  0.1262  0.1357
 8596SOL    HW137250   4.700   2.301   0.780 -0.2996 -0.2287  2.1836
 8596SOL    HW237251   4.554   2.316   0.743  1.7494  1.1606 -2.5728
 8597SOL     OW37252   0.202   0.280   4.815 -0.5146 -0.3311 -0.2705
 8597SOL    HW137253   0.270   0.331   4.771 -0.5781  0.3204  0.3869
 8597SOL    HW237254   0.226   0.190   4.794 -2.1366 -1.0162  0.7980
 8598SOL     OW37255   1.566   1.001  13.783 -0.3268 -0.4291  0.5729
 8598SOL    HW137256   1.491   0.989  13.724  0.6951 -1.3916 -0.5454
 8598SOL    HW237257   1.525   1.040  13.860  2.0293 -0.1943  1.7154
 8599SOL     OW37258   4.605   3.646   2.479 -0.1502 -0.2015 -0.3450
 8599SOL    HW137259   4.637   3.622   2.392  1.9695 -1.4940  0.7814
 8599SOL    HW237260   4.672   3.709   2.505  0.2908 -0.3788 -1.0413
 8600SOL     OW37261   1.750   3.247   3.708 -0.0416 -0.3763  0.4900
 8600SOL    HW137262   1.754   3.273   3.616 -4.1620  0.4537  0.5540
 8600SOL    HW237263   1.656   3.243   3.724 -0.2491  0.8481 -0.4464
 8601SOL     OW37264   1.714   4.477  11.014  0.2245 -0.5331  0.2960
 8601SOL    HW137265   1.777   4.538  11.053 -0.0817  0.5652 -0.8901
 8601SOL    HW237266   1.753   4.392  11.035 -1.1684 -1.4466 -0.7892
 8602SOL     OW37267   0.238   2.031  15.874 -0.9717 -0.5427 -0.1744
 8602SOL    HW137268   0.302   2.093  15.909 -0.9366  0.1316 -1.4404
 8602SOL    HW237269   0.260   2.058  15.785 -1.6679 -0.4516 -0.3175
 8603SOL     OW37270   3.986   4.303   5.569 -0.6325 -0.1827 -0.3482
 8603SOL    HW137271   4.007   4.336   5.482 -2.1141 -0.3338 -0.7713
 8603SOL    HW237272   3.966   4.211   5.550  0.8839 -0.6388  0.3123
 8604SOL     OW37273   3.160   1.503   3.142  0.0307  0.0428  0.8180
 8604SOL    HW137274   3.181   1.419   3.183 -0.5744 -0.8047 -0.5970
 8604SOL    HW237275   3.183   1.469   3.055  1.5795  0.7740  0.9320
 8605SOL     OW37276   3.799   4.405   7.580 -0.0149 -0.7967  0.1251
 8605SOL    HW137277   3.751   4.368   7.506 -0.5847  0.7248 -0.2553
 8605SOL    HW237278   3.887   4.373   7.563  0.1017 -1.0629  1.2120
 8606SOL     OW37279   2.197   2.545   7.397  0.6852 -0.0576 -0.0585
 8606SOL    HW137280   2.196   2.608   7.469 -0.9690 -0.7020  0.4804
 8606SOL    HW237281   2.258   2.588   7.337  2.1896 -3.2592 -0.8438
 8607SOL     OW37282   4.452   4.684   4.803  0.4005  0.3349  0.1289
 8607SOL    HW137283   4.524   4.670   4.864 -0.5824 -0.4764  1.1078
 8607SOL    HW237284   4.380   4.721   4.855  0.8540  1.5452 -0.1049
 8608SOL     OW37285   2.810   2.267   3.639 -0.3241 -0.4982 -0.1637
 8608SOL    HW137286   2.873   2.282   3.569  1.2022 -2.5213  0.7487
 8608SOL    HW237287   2.803   2.171   3.642  1.7288 -0.6306  0.4675
 8609SOL     OW37288   0.893   0.924  17.621 -0.1755  0.3736  0.2797
 8609SOL    HW137289   0.820   0.986  17.628  1.2289  1.8074  2.1529
 8609SOL    HW237290   0.971   0.971  17.650  0.9107 -0.3186 -1.5757
 8610SOL     OW37291   0.385   2.881  17.514  0.3754  0.4148  0.0556
 8610SOL    HW137292   0.447   2.820  17.555 -0.4066  0.3654  1.1563
 8610SOL    HW237293   0.335   2.906  17.591  0.3015 -0.7380  0.3919
 8611SOL     OW37294   3.167   3.144   9.650  0.1329 -0.2104 -0.3723
 8611SOL    HW137295   3.192   3.236   9.658  0.8372 -0.4179 -0.2039
 8611SOL    HW237296   3.094   3.148   9.588 -0.8371  1.2796  0.8413
 8612SOL     OW37297   2.548   2.740   4.135  0.3727  0.2477 -0.4343
 8612SOL    HW137298   2.605   2.796   4.083 -0.8282  1.7023 -0.2122
 8612SOL    HW237299   2.494   2.800   4.187 -0.3078 -2.2813  1.8071
 8613SOL     OW37300   1.055   1.133   6.018 -0.3098 -0.5419 -0.0600
 8613SOL    HW137301   1.042   1.227   6.033  3.4817 -0.2789  1.7237
 8613SOL    HW237302   1.125   1.114   6.080  0.9416 -1.1124 -1.6367
 8614SOL     OW37303   2.322   3.981  13.042  0.3681 -0.0940 -0.5847
 8614SOL    HW137304   2.344   4.065  13.083  0.7572 -0.2715 -0.4307
 8614SOL    HW237305   2.317   4.001  12.948 -1.4709  0.8798 -0.2760
 8615SOL     OW37306   4.402   1.920   2.372 -0.4222 -0.1418  0.5286
 8615SOL    HW137307   4.322   1.948   2.328  0.0314  1.6999  0.8883
 8615SOL    HW237308   4.386   1.969   2.452 -1.6072  1.4188 -0.6919
 8616SOL     OW37309   1.852   1.483   3.231  0.0863  0.2249  0.3006
 8616SOL    HW137310   1.767   1.525   3.219  0.4335  1.0808  0.8434
 8616SOL    HW237311   1.836   1.439   3.315 -2.3425  1.9444  0.7672
 8617SOL     OW37312   3.208   3.031   1.149 -0.1476  0.4406  0.1842
 8617SOL    HW137313   3.147   3.099   1.177  0.6976  0.6601  1.5015
 8617SOL    HW237314   3.206   3.049   1.056 -3.2820 -3.7345 -0.5534
 8618SOL     OW37315   3.130   3.533   5.910  0.0582  0.1988  0.5734
 8618SOL    HW137316   3.199   3.593   5.938  1.9382 -1.3475 -0.7964
 8618SOL    HW237317   3.050   3.562   5.955  0.2546 -2.7484  2.7695
 8619SOL     OW37318   3.071   2.311   0.860 -0.0764  0.4171  0.4405
 8619SOL    HW137319   3.024   2.272   0.786 -2.8022  2.9334  0.8121
 8619SOL    HW237320   3.025   2.395   0.868  0.6701  0.7705  0.9861
 8620SOL     OW37321   0.847   1.492   6.512  0.4422 -0.0370 -0.0002
 8620SOL    HW137322   0.934   1.499   6.551  1.4083 -0.0554 -2.1357
 8620SOL    HW237323   0.825   1.585   6.504 -0.2789 -0.1912  0.2250
 8621SOL     OW37324   0.583   1.580   9.962  0.4088  0.2461 -0.3264
 8621SOL    HW137325   0.494   1.589   9.994  0.0365  1.2111 -1.6250
 8621SOL    HW237326   0.584   1.489   9.934  0.5791  1.2936 -3.8376
 8622SOL     OW37327   1.052   3.199   2.723  0.0622  0.0421  0.9326
 8622SOL    HW137328   1.069   3.104   2.724 -1.3996 -0.3015 -3.4175
 8622SOL    HW237329   1.002   3.212   2.803  1.7395  1.0462  1.8110
 8623SOL     OW37330   0.190   4.583   3.042 -0.3916  0.1221  0.2372
 8623SOL    HW137331   0.104   4.547   3.019 -0.2689  0.6250 -0.9976
 8623SOL    HW237332   0.239   4.583   2.960 -1.1743 -1.5201 -0.2511
 8624SOL     OW37333   4.450   2.637   6.878  0.0128  0.5183 -0.1886
 8624SOL    HW137334   4.373   2.592   6.913 -0.6123 -0.0912 -2.3462
 8624SOL    HW237335   4.449   2.619   6.784 -3.0251  0.9870 -0.2536
 8625SOL     OW37336   0.861   4.344   8.172 -0.2064  0.6012  0.1888
 8625SOL    HW137337   0.859   4.330   8.267 -2.0336 -0.5222 -0.0326
 8625SOL    HW237338   0.949   4.382   8.167 -0.3885  1.0082  0.0157
 8626SOL     OW37339   2.340   1.672   4.466  0.2670 -0.0606  0.3479
 8626SOL    HW137340   2.397   1.607   4.507  1.4995 -0.6178 -2.3165
 8626SOL    HW237341   2.361   1.753   4.512  3.4118 -0.2718 -0.7431
 8627SOL     OW37342   1.382   2.797   4.731  0.5962 -0.1051  0.3355
 8627SOL    HW137343   1.406   2.866   4.668 -0.4218 -0.6577 -0.6428
 8627SOL    HW237344   1.313   2.843   4.779  0.2246 -0.6366  0.3044
 8628SOL     OW37345   0.825   0.846   2.355  0.1288  0.0638 -0.0384
 8628SOL    HW137346   0.828   0.941   2.364  0.7788  0.0011  0.4561
 8628SOL    HW237347   0.905   0.828   2.306 -0.6747 -1.5836 -0.7296
 8629SOL     OW37348   3.473   0.217   5.643  0.2937  0.0387 -0.0412
 8629SOL    HW137349   3.441   0.299   5.681  1.6556 -0.1613  1.5311
 8629SOL    HW237350   3.566   0.240   5.644  0.1227  0.6892  1.5080
 8630SOL     OW37351   0.092   4.190   3.990  0.3852  0.1170  0.4584
 8630SOL    HW137352   0.016   4.201   4.047  0.7835  0.4033  0.9358
 8630SOL    HW237353   0.146   4.124   4.034  0.2562  0.5983  1.3474
 8631SOL     OW37354   1.031   0.528   7.431 -0.5155 -0.0166 -0.0271
 8631SOL    HW137355   0.998   0.501   7.346  1.8569 -0.8880 -0.6404
 8631SOL    HW237356   1.122   0.525   7.404  0.0806  0.8590  1.8402
 8632SOL     OW37357   4.070   2.449   7.484  0.1385  0.1358  0.1326
 8632SOL    HW137358   4.154   2.407   7.464 -0.7751 -1.2425 -0.8166
 8632SOL    HW237359   4.090   2.541   7.499  0.5768  0.0193  0.2880
 8633SOL     OW37360   3.735   0.649  16.783 -0.1007  0.0465 -0.9311
 8633SOL    HW137361   3.657   0.594  16.794 -0.4654  1.1028  1.7758
 8633SOL    HW237362   3.797   0.602  16.839  0.2488 -0.5129 -1.7796
 8634SOL     OW37363   1.292   3.325   2.823 -0.4544  0.8569 -0.1700
 8634SOL    HW137364   1.216   3.275   2.794 -0.3787  0.0868  0.9416
 8634SOL    HW237365   1.346   3.332   2.744 -0.4857 -4.2930 -0.6903
 8635SOL     OW37366   3.326   4.590   7.277 -0.0255 -0.1904 -0.2988
 8635SOL    HW137367   3.341   4.519   7.215 -1.3056  0.0110 -0.8544
 8635SOL    HW237368   3.415   4.603   7.310  0.5405 -1.1796 -1.4178
 8636SOL     OW37369   3.380   4.232   5.939 -0.0346  0.4400 -0.0438
 8636SOL    HW137370   3.443   4.166   5.970 -2.4250 -3.2729 -3.0531
 8636SOL    HW237371   3.439   4.295   5.898 -0.4375  0.4361 -0.6305
 8637SOL     OW37372   4.694   0.144   9.208 -0.4218 -0.7210 -0.2720
 8637SOL    HW137373   4.710   0.231   9.244  0.8275  0.3368 -3.4281
 8637SOL    HW237374   4.628   0.169   9.144 -0.4809 -0.9535 -0.3014
 8638SOL     OW37375   1.986   1.560   2.436 -0.5938 -0.0778  0.1174
 8638SOL    HW137376   1.893   1.540   2.429 -0.0148 -2.3804 -0.9808
 8638SOL    HW237377   2.022   1.471   2.442  1.7781  0.7619 -1.6749
 8639SOL     OW37378   1.381   0.944  17.295  0.3570  0.4851  0.3885
 8639SOL    HW137379   1.401   1.019  17.239  1.5517  0.7737  1.1977
 8639SOL    HW237380   1.439   0.963  17.369 -0.9661 -4.9049  2.8856
 8640SOL     OW37381   0.848   2.468  11.330 -0.5508 -0.5152  0.8310
 8640SOL    HW137382   0.844   2.498  11.421  0.9134 -1.6806  1.2709
 8640SOL    HW237383   0.895   2.386  11.342  2.4573  1.0770 -0.2098
 8641SOL     OW37384   1.735   0.887   3.458  0.6625  0.3663  0.2546
 8641SOL    HW137385   1.788   0.942   3.400  2.0178  0.2302  1.3744
 8641SOL    HW237386   1.723   0.810   3.402  1.5988  0.9576 -0.7776
 8642SOL     OW37387   0.312   3.755   8.711 -0.7280 -0.3749  0.1048
 8642SOL    HW137388   0.276   3.720   8.629  1.0487  2.1756 -1.7773
 8642SOL    HW237389   0.232   3.757   8.764  0.5284  3.0432  1.8612
 8643SOL     OW37390   2.669   4.579   0.901 -0.1598  0.2926  0.3875
 8643SOL    HW137391   2.618   4.517   0.849  3.7264 -1.2801 -1.5645
 8643SOL    HW237392   2.623   4.571   0.985 -0.1115  0.0398  0.3903
 8644SOL     OW37393   0.803   2.793   2.654 -0.0017 -0.5453 -0.2294
 8644SOL    HW137394   0.751   2.863   2.615 -0.8096 -0.6608  0.6139
 8644SOL    HW237395   0.848   2.762   2.576 -1.3219 -0.8709 -0.8655
 8645SOL     OW37396   0.248   0.216   7.338  0.2552 -0.0255  0.4877
 8645SOL    HW137397   0.231   0.246   7.427 -1.2230  1.7768 -0.4156
 8645SOL    HW237398   0.341   0.195   7.338  0.0105 -1.1263  0.3753
 8646SOL     OW37399   0.962   3.328   6.563  0.1593  0.3026 -0.2468
 8646SOL    HW137400   1.008   3.313   6.645  3.6040  0.3884 -2.1403
 8646SOL    HW237401   0.867   3.321   6.574  0.5182 -0.8712  1.9937
 8647SOL     OW37402   2.381   3.676  14.469  0.4695 -0.0468 -0.5616
 8647SOL    HW137403   2.296   3.710  14.440 -0.9777 -3.7210 -0.6342
 8647SOL    HW237404   2.432   3.757  14.475 -1.6398  1.3776 -1.6345
 8648SOL     OW37405   4.175   1.667   9.126  0.5930  0.6190  0.2293
 8648SOL    HW137406   4.211   1.663   9.215 -0.9440 -1.2316  0.7735
 8648SOL    HW237407   4.205   1.754   9.102 -0.7332  0.6041 -1.4780
 8649SOL     OW37408   2.495   0.388   9.681  0.2106 -0.0273 -0.4350
 8649SOL    HW137409   2.522   0.423   9.766 -1.4450 -0.6748  0.3564
 8649SOL    HW237410   2.521   0.454   9.617 -0.2520 -1.5448 -2.1760
 8650SOL     OW37411   3.866   3.754   4.500  0.2583  0.1873 -0.0107
 8650SOL    HW137412   3.859   3.834   4.448  2.8512  0.1853 -0.3682
 8650SOL    HW237413   3.909   3.703   4.432 -0.0282 -0.4234  0.2728
 8651SOL     OW37414   3.271   4.093   0.330  0.5011  0.2252 -0.2415
 8651SOL    HW137415   3.186   4.117   0.292  0.5305 -1.2739 -1.2511
 8651SOL    HW237416   3.280   4.176   0.378  0.2412  0.6248 -0.8899
 8652SOL     OW37417   3.278   1.915  16.984  0.1227 -0.4428  0.3729
 8652SOL    HW137418   3.340   1.865  16.932 -0.8577 -1.5402  0.2432
 8652SOL    HW237419   3.341   1.974  17.024  0.9792 -1.0511 -0.0725
 8653SOL     OW37420   3.748   1.634  10.626 -0.6607  0.1474  0.1294
 8653SOL    HW137421   3.709   1.721  10.618  2.0503  1.3050 -0.4164
 8653SOL    HW237422   3.741   1.604  10.535 -2.0689 -0.7945  0.5568
 8654SOL     OW37423   4.344   1.888   9.514 -0.3260 -0.1151 -0.0458
 8654SOL    HW137424   4.361   1.943   9.590 -0.5063  0.5216 -0.4553
 8654SOL    HW237425   4.417   1.914   9.457  1.3516 -0.8829  1.7877
 8655SOL     OW37426   4.379   1.757   3.279  0.9017  0.5393 -0.6570
 8655SOL    HW137427   4.297   1.806   3.275  0.2952 -0.3924  0.5173
 8655SOL    HW237428   4.391   1.728   3.369  2.2945  0.4329 -0.8714
 8656SOL     OW37429   2.189   2.768   6.555 -0.1025 -0.1448 -0.1370
 8656SOL    HW137430   2.282   2.746   6.545 -0.0434  0.1880 -0.3401
 8656SOL    HW237431   2.194   2.811   6.640  1.0700 -0.1032 -0.2171
 8657SOL     OW37432   2.036   0.495  13.156  0.0893  0.2011  0.4611
 8657SOL    HW137433   2.090   0.503  13.078 -1.5321 -0.1429 -0.6997
 8657SOL    HW237434   2.107   0.508  13.218 -0.2076  0.8781  0.6579
 8658SOL     OW37435   4.129   0.079   9.637 -0.4389  0.8702 -0.0220
 8658SOL    HW137436   4.034   0.071   9.638 -0.3763 -0.3409 -2.5228
 8658SOL    HW237437   4.156   0.034   9.556  2.8535 -1.1223  2.1720
 8659SOL     OW37438   0.328   4.614   8.259 -0.3437 -0.1780  0.2247
 8659SOL    HW137439   0.411   4.656   8.283 -1.7249  1.1916  2.6689
 8659SOL    HW237440   0.363   4.526   8.266  0.1488 -0.0368 -0.4056
 8660SOL     OW37441   3.949   4.533   7.147  0.1367  0.2452 -0.1579
 8660SOL    HW137442   4.038   4.567   7.139  0.9569 -1.6957  0.5781
 8660SOL    HW237443   3.963   4.454   7.095 -0.5753  0.8681 -1.2822
 8661SOL     OW37444   3.441   1.019   3.168  0.0180  0.4125  0.0241
 8661SOL    HW137445   3.424   1.075   3.243  1.1538  0.2808  0.3724
 8661SOL    HW237446   3.493   1.079   3.114 -1.2175 -1.5433 -3.3428
 8662SOL     OW37447   0.627   4.526  11.656 -0.2032  0.2038 -0.2332
 8662SOL    HW137448   0.653   4.498  11.568 -0.2825 -0.1494 -0.1428
 8662SOL    HW237449   0.535   4.503  11.670 -0.3534 -1.0173 -3.2927
 8663SOL     OW37450   1.875   3.839   7.816  0.2805 -0.3910  0.4608
 8663SOL    HW137451   1.824   3.893   7.876  0.5135  0.1790  0.1435
 8663SOL    HW237452   1.905   3.907   7.755 -0.3411 -0.3921  0.1477
 8664SOL     OW37453   3.766   1.741   2.189 -0.3669 -0.0155 -0.1917
 8664SOL    HW137454   3.713   1.807   2.144  0.4988 -0.1468 -1.3899
 8664SOL    HW237455   3.848   1.741   2.140  0.4653 -2.8620  1.1776
 8665SOL     OW37456   1.670   1.927   3.672  0.2699  0.1547 -0.2163
 8665SOL    HW137457   1.716   1.971   3.744 -0.0113  0.9748 -0.5291
 8665SOL    HW237458   1.581   1.931   3.709  1.2109  0.6851  2.0067
 8666SOL     OW37459   2.787   4.191   4.235  0.1118 -0.0850  0.0026
 8666SOL    HW137460   2.849   4.133   4.192  0.7324  0.6786 -0.1272
 8666SOL    HW237461   2.838   4.226   4.308 -0.3022 -4.1687  2.2255
 8667SOL     OW37462   2.964   3.331   1.078 -0.5005  0.2641  0.2473
 8667SOL    HW137463   3.039   3.377   1.117  1.5239 -2.2765 -0.6786
 8667SOL    HW237464   2.950   3.367   0.991  0.0371  2.5735  1.1110
 8668SOL     OW37465   4.419   3.909   8.251  0.3650 -0.1181 -0.2356
 8668SOL    HW137466   4.380   3.834   8.297  0.6827 -0.3808 -0.3956
 8668SOL    HW237467   4.472   3.869   8.181  1.1321 -1.3089  1.0165
 8669SOL     OW37468   0.480   2.417  11.866 -0.1648  0.1395  0.1704
 8669SOL    HW137469   0.421   2.472  11.919  0.2212  0.1436  0.5938
 8669SOL    HW237470   0.461   2.457  11.781 -0.8855  0.0490  0.2892
 8670SOL     OW37471   0.025   1.979   9.189  0.0652 -0.1605 -0.0971
 8670SOL    HW137472   0.114   1.950   9.208  0.6027  1.1541 -0.5865
 8670SOL    HW237473   0.023   1.957   9.096 -0.5933 -0.3618 -0.0379
 8671SOL     OW37474   2.747   0.082   2.903 -0.2306  0.3150 -0.1944
 8671SOL    HW137475   2.757   4.715   2.880  1.7746  0.3612  0.4864
 8671SOL    HW237476   2.683   0.078   2.975 -0.3089  0.2791 -0.2660
 8672SOL     OW37477   1.573   1.013   2.516 -0.3839  0.5358  0.4704
 8672SOL    HW137478   1.624   0.969   2.447 -0.0863  0.0646  0.9903
 8672SOL    HW237479   1.488   0.979   2.488  0.0260  0.5893 -0.8627
 8673SOL     OW37480   4.493   4.235  14.504  0.3995  0.3485  0.4169
 8673SOL    HW137481   4.488   4.330  14.498  0.4413  0.1060 -3.3974
 8673SOL    HW237482   4.529   4.220  14.591 -3.3836  0.1274  1.9394
 8674SOL     OW37483   1.079   2.904   0.018  0.4155  0.0779 -0.2524
 8674SOL    HW137484   1.114   2.962  17.652 -0.3261 -0.1609 -0.8407
 8674SOL    HW237485   1.059   2.818  17.682  0.2329  0.6016 -1.3458
 8675SOL     OW37486   0.999   0.010   6.204 -0.4118  0.6061  0.5209
 8675SOL    HW137487   0.941   4.715   6.131 -1.1888  0.5328  1.1614
 8675SOL    HW237488   0.967   4.684   6.278  0.2131  0.1187  0.4495
 8676SOL     OW37489   1.436   3.823  17.522 -0.1705  0.1665  0.1866
 8676SOL    HW137490   1.479   3.767  17.458  1.7808 -1.3389  2.8229
 8676SOL    HW237491   1.383   3.756  17.565 -0.6830 -1.2836 -2.7126
 8677SOL     OW37492   3.430   3.714  12.981 -0.1882  0.0319 -0.1063
 8677SOL    HW137493   3.422   3.630  12.934  0.7456 -0.3468  0.4111
 8677SOL    HW237494   3.525   3.719  12.987 -0.2322  0.3099  0.3776
 8678SOL     OW37495   3.094   1.069   1.851  0.2308  0.2024 -0.4466
 8678SOL    HW137496   3.072   1.064   1.758 -0.8564  1.8282 -0.2738
 8678SOL    HW237497   3.012   1.044   1.893 -0.5418  4.2944  0.4310
 8679SOL     OW37498   3.857   0.291  16.059  0.6325  0.3748 -0.7906
 8679SOL    HW137499   3.798   0.338  16.119  2.4895 -0.8221  1.9787
 8679SOL    HW237500   3.800   0.220  16.029  1.6785 -1.8425  2.4111
 8680SOL     OW37501   0.339   0.037   0.943 -0.5324 -0.1339 -0.9463
 8680SOL    HW137502   0.294   0.030   0.859 -2.1742 -1.3731  0.0440
 8680SOL    HW237503   0.295   4.709   1.009  3.3678 -0.1314  1.6224
 8681SOL     OW37504   2.211   1.355   4.615  0.3829 -0.0898  0.0598
 8681SOL    HW137505   2.250   1.362   4.702 -0.2283  1.1049  0.2442
 8681SOL    HW237506   2.287   1.396   4.574 -0.9743  0.1873 -2.2198
 8682SOL     OW37507   1.003   3.559  15.253  0.2505  0.0110  0.5292
 8682SOL    HW137508   0.982   3.648  15.281  0.1423  0.6231 -1.5289
 8682SOL    HW237509   0.919   3.533  15.217  1.0964 -0.6992 -0.9374
 8683SOL     OW37510   3.521   2.838   0.916  0.2513  0.2722 -0.0659
 8683SOL    HW137511   3.504   2.847   1.010  0.1404  0.4642 -0.1032
 8683SOL    HW237512   3.482   2.918   0.881  0.7077  0.3114 -0.4846
 8684SOL     OW37513   4.383   2.674   1.922 -0.7935  0.3699  0.2504
 8684SOL    HW137514   4.379   2.622   1.842 -0.4007  1.3368 -0.3989
 8684SOL    HW237515   4.476   2.661   1.942 -0.6707 -0.7471 -1.0448
 8685SOL     OW37516   2.350   0.358  16.642  0.2471  0.2082  0.1806
 8685SOL    HW137517   2.318   0.271  16.666 -1.8145  1.1932  1.0152
 8685SOL    HW237518   2.400   0.379  16.721 -0.0842 -0.7117  0.6267
 8686SOL     OW37519   1.601   0.762   1.268  0.1200 -0.2628 -0.5950
 8686SOL    HW137520   1.545   0.749   1.191 -0.4946  0.5493 -0.2954
 8686SOL    HW237521   1.675   0.701   1.271 -1.4818 -2.1195  1.0585
 8687SOL     OW37522   2.508   3.754  12.705 -0.0445  0.0998 -0.2906
 8687SOL    HW137523   2.592   3.723  12.740  0.1731  0.3474 -0.5946
 8687SOL    HW237524   2.457   3.674  12.695  1.1652 -0.6254 -0.7091
 8688SOL     OW37525   2.403   0.026  11.851 -0.9991 -0.5687  0.5758
 8688SOL    HW137526   2.476   0.015  11.911  1.7609 -0.9407 -2.8587
 8688SOL    HW237527   2.382   0.112  11.886  1.5848 -0.6547  2.3139
 8689SOL     OW37528   2.646   3.292   3.238 -0.1597  0.0211 -0.0014
 8689SOL    HW137529   2.565   3.248   3.265  1.1380 -1.5318  1.3344
 8689SOL    HW237530   2.682   3.314   3.324 -0.7253  2.9546 -0.5116
 8690SOL     OW37531   3.702   1.742  11.441  0.2170 -0.2382  0.4137
 8690SOL    HW137532   3.751   1.696  11.509  1.4191  0.9390  0.3575
 8690SOL    HW237533   3.769   1.735  11.373 -1.1669  0.7522 -1.0589
 8691SOL     OW37534   4.513   2.828   5.771 -0.4953  0.0389 -0.1255
 8691SOL    HW137535   4.442   2.888   5.748 -0.2110  0.4424  0.0568
 8691SOL    HW237536   4.473   2.753   5.727  0.5772 -0.2609 -0.5897
 8692SOL     OW37537   3.776   1.802   9.783 -0.1622  0.1616 -0.5624
 8692SOL    HW137538   3.830   1.734   9.742 -1.6469 -1.1264 -0.3962
 8692SOL    HW237539   3.771   1.770   9.873  0.2008 -1.2831 -1.0529
 8693SOL     OW37540   1.018   0.989  16.126 -0.0654  0.0549 -0.1889
 8693SOL    HW137541   0.980   0.903  16.109  1.9366 -1.3550  2.4934
 8693SOL    HW237542   1.024   1.035  16.043 -0.5500 -0.8499 -0.7278
 8694SOL     OW37543   0.051   2.384   2.323  0.2191 -0.3004  0.2673
 8694SOL    HW137544   0.083   2.456   2.378 -1.4258 -0.9844  2.1507
 8694SOL    HW237545   4.696   2.370   2.374 -1.3064 -1.2165 -2.4086
 8695SOL     OW37546   1.348   1.133   5.466  0.2758 -0.0691 -0.0126
 8695SOL    HW137547   1.380   1.221   5.450  2.9210 -1.2500 -1.2793
 8695SOL    HW237548   1.307   1.116   5.381 -0.1180  0.8264 -0.0046
 8696SOL     OW37549   0.838   0.715   6.005 -0.2447 -0.1084  0.1954
 8696SOL    HW137550   0.754   0.704   6.050 -0.3295 -0.3084 -0.0130
 8696SOL    HW237551   0.804   0.726   5.916  1.1315 -0.1816 -0.3407
 8697SOL     OW37552   0.348   0.822  17.184  0.5568  0.0586 -0.4569
 8697SOL    HW137553   0.422   0.840  17.127  0.4712  0.9557 -0.2991
 8697SOL    HW237554   0.373   0.862  17.267 -2.3841  1.9336 -0.4623
 8698SOL     OW37555   0.247   2.537  16.280 -0.0186 -0.5759  0.2364
 8698SOL    HW137556   0.275   2.553  16.190  0.7129 -1.6954  0.2637
 8698SOL    HW237557   0.156   2.562  16.265  0.8324  0.5633 -3.1339
 8699SOL     OW37558   1.660   1.249   7.612 -0.3977 -0.1541 -0.1223
 8699SOL    HW137559   1.574   1.289   7.628 -1.0621 -1.3866 -0.6118
 8699SOL    HW237560   1.694   1.306   7.543  1.4658 -0.9227  0.1889
 8700SOL     OW37561   4.036   1.020   7.327  0.7866  0.4272  0.1539
 8700SOL    HW137562   4.122   1.022   7.368  0.1651  3.8810  1.3016
 8700SOL    HW237563   4.048   1.082   7.256 -1.0775  0.8750  0.2291
 8701SOL     OW37564   3.932   2.493   6.461 -0.0421  0.1981 -0.1873
 8701SOL    HW137565   3.925   2.421   6.525  1.2673 -0.5753 -0.9117
 8701SOL    HW237566   3.957   2.440   6.386 -3.2498 -2.0938  0.3698
 8702SOL     OW37567   3.337   3.621   2.078  0.4246  0.4602 -0.6086
 8702SOL    HW137568   3.350   3.561   2.151 -2.6132 -0.2519 -0.6832
 8702SOL    HW237569   3.304   3.701   2.118 -1.9251 -1.4237  1.2000
 8703SOL     OW37570   3.517   2.595   2.391  0.8595 -0.0060 -0.0426
 8703SOL    HW137571   3.469   2.516   2.415  0.3706  0.5643  0.8548
 8703SOL    HW237572   3.445   2.647   2.354  1.1563  0.3272 -0.1518
 8704SOL     OW37573   0.313   1.937   6.181  0.6542  0.0677  0.1894
 8704SOL    HW137574   0.263   1.943   6.263 -2.2693  1.1905 -1.6712
 8704SOL    HW237575   0.349   2.025   6.170 -1.4158  0.7511 -1.3121
 8705SOL     OW37576   2.034   0.538   8.847 -0.2851  0.5650 -0.0637
 8705SOL    HW137577   2.027   0.590   8.767  1.8754 -1.3750 -1.5264
 8705SOL    HW237578   2.119   0.568   8.879  0.3732 -1.5923  0.2193
 8706SOL     OW37579   0.023   2.611   5.336 -0.0322  0.2423  0.3546
 8706SOL    HW137580   4.677   2.674   5.333  0.6537  0.9757 -0.7930
 8706SOL    HW237581   0.015   2.564   5.418 -0.7808 -2.1659 -1.0905
 8707SOL     OW37582   1.858   0.541   4.871  0.2243 -0.1404  0.0710
 8707SOL    HW137583   1.903   0.560   4.788  0.5175 -1.3340 -0.0436
 8707SOL    HW237584   1.781   0.493   4.841  0.2886  0.4605 -1.0677
 8708SOL     OW37585   1.777   0.119  13.417  0.3735  0.1285 -0.1305
 8708SOL    HW137586   1.802   0.129  13.509 -0.6211 -2.2189  0.3915
 8708SOL    HW237587   1.826   0.195  13.386 -2.1131  1.2277 -1.3893
 8709SOL     OW37588   3.188   1.331   2.899  0.4961 -0.6654  0.0921
 8709SOL    HW137589   3.265   1.363   2.852  0.1669  0.4470  0.3103
 8709SOL    HW237590   3.206   1.237   2.895 -1.1214 -1.0110  1.3211
 8710SOL     OW37591   3.872   0.907  10.285  0.0365  0.7243  0.3633
 8710SOL    HW137592   3.839   0.996  10.270 -3.1484 -0.2688  1.5974
 8710SOL    HW237593   3.904   0.895  10.196  0.2267 -0.0781  0.5461
 8711SOL     OW37594   1.965   1.368   6.959 -0.8591 -0.2065 -0.2850
 8711SOL    HW137595   2.043   1.365   6.902  0.4598 -0.6455  1.5545
 8711SOL    HW237596   1.974   1.462   6.978  1.5234 -0.8352  1.6175
 8712SOL     OW37597   3.439   4.311   5.612  0.1426 -0.2583 -0.0939
 8712SOL    HW137598   3.416   4.392   5.567  1.3251  0.9304  1.4771
 8712SOL    HW237599   3.490   4.342   5.687 -1.0378 -1.7660  1.3384
 8713SOL     OW37600   1.586   3.299  11.682 -0.8121 -0.6520 -0.1954
 8713SOL    HW137601   1.656   3.273  11.622  0.0813 -0.7899  0.9073
 8713SOL    HW237602   1.621   3.273  11.767 -1.7430 -0.4160  0.2562
 8714SOL     OW37603   2.026   2.563   2.415 -0.4840  0.2921  0.5388
 8714SOL    HW137604   2.072   2.514   2.483 -2.5130  1.0405  2.4533
 8714SOL    HW237605   2.012   2.487   2.359 -0.6569  0.6962  0.0306
 8715SOL     OW37606   4.576   1.619   8.490  0.1648  0.1789 -0.3805
 8715SOL    HW137607   4.606   1.697   8.536  0.7926 -0.6108  0.5395
 8715SOL    HW237608   4.609   1.549   8.546 -0.1504 -0.9249 -1.5789
 8716SOL     OW37609   2.416   4.587  16.890  0.0897 -0.2032  0.2439
 8716SOL    HW137610   2.331   4.543  16.889 -1.5579  3.0043 -1.8248
 8716SOL    HW237611   2.465   4.542  16.821 -1.4211 -0.8816 -0.3740
 8717SOL     OW37612   2.476   0.805  10.328  0.2002  0.2501  0.0939
 8717SOL    HW137613   2.565   0.806  10.362 -0.0860 -2.1426  0.8908
 8717SOL    HW237614   2.474   0.726  10.274 -2.7108  1.8852 -2.2219
 8718SOL     OW37615   1.262   3.617  17.623 -0.0972 -0.2844 -0.9577
 8718SOL    HW137616   1.199   3.683  17.593 -0.7307 -0.7409 -0.6527
 8718SOL    HW237617   1.236   3.617   0.013  2.6535 -0.4580 -0.1777
 8719SOL     OW37618   1.553   3.933   4.353  0.0357 -0.1397  0.4471
 8719SOL    HW137619   1.613   3.954   4.425  2.8684 -2.2886 -1.3022
 8719SOL    HW237620   1.618   3.935   4.283 -0.4605 -1.8924 -0.0632
 8720SOL     OW37621   4.226   0.669  10.300  0.8374 -0.0915  0.3858
 8720SOL    HW137622   4.167   0.618  10.355  0.6239  0.1670  0.3946
 8720SOL    HW237623   4.218   0.760  10.330  1.6675 -0.0638  0.5144
 8721SOL     OW37624   0.033   1.336   2.949 -0.0975 -0.5444 -0.0714
 8721SOL    HW137625   4.667   1.329   2.921 -0.2580 -1.2404  0.6328
 8721SOL    HW237626   0.029   1.294   3.035  1.2816 -2.1347 -0.7987
 8722SOL     OW37627   1.936   2.064   3.439 -0.3396  0.1897 -0.2910
 8722SOL    HW137628   1.912   1.975   3.466 -0.0903  0.1303 -0.2669
 8722SOL    HW237629   1.870   2.091   3.376  0.1512  1.2154 -0.3724
 8723SOL     OW37630   0.930   3.953   2.717  0.3123 -0.6991  1.3456
 8723SOL    HW137631   1.020   3.969   2.744  0.9116  1.7383 -2.0077
 8723SOL    HW237632   0.927   3.866   2.755 -0.1816 -1.2526  0.0607
 8724SOL     OW37633   0.805   0.487   1.656 -0.0011 -0.5145  0.2253
 8724SOL    HW137634   0.830   0.579   1.669 -0.9703 -0.0084 -1.5051
 8724SOL    HW237635   0.711   0.489   1.639  0.0530  1.7833  0.1380
 8725SOL     OW37636   0.392   4.128  15.876  0.1500 -0.1039  0.0427
 8725SOL    HW137637   0.476   4.170  15.853  0.5000 -0.5307  0.5400
 8725SOL    HW237638   0.429   4.044  15.903 -1.7852 -1.4917 -1.6491
 8726SOL     OW37639   0.894   3.507   2.699 -0.0252 -0.3144 -0.8465
 8726SOL    HW137640   0.959   3.554   2.751 -2.0710 -0.3517  1.7427
 8726SOL    HW237641   0.838   3.462   2.762  1.3199 -2.3265 -1.0903
 8727SOL     OW37642   1.807   2.334   7.932 -0.0641 -0.0454  0.5426
 8727SOL    HW137643   1.728   2.387   7.927 -0.7477 -0.9224  1.9830
 8727SOL    HW237644   1.840   2.358   7.845  2.0218 -0.5034  1.1985
 8728SOL     OW37645   1.737   2.673   5.139  0.1415 -0.4171 -0.3757
 8728SOL    HW137646   1.664   2.638   5.191 -0.9925  5.1756  1.7598
 8728SOL    HW237647   1.697   2.654   5.054 -1.5971  0.2604  0.2715
 8729SOL     OW37648   2.100   1.606   3.222  0.7110  0.1244 -0.3530
 8729SOL    HW137649   2.011   1.574   3.242  1.5658 -1.7360  0.4603
 8729SOL    HW237650   2.075   1.679   3.166 -1.5359 -0.9766 -0.7992
 8730SOL     OW37651   1.810   4.285   6.186  0.4674 -1.1379 -0.2363
 8730SOL    HW137652   1.897   4.303   6.221  0.0790  1.9705 -0.8799
 8730SOL    HW237653   1.817   4.192   6.162  0.2932 -0.5432 -2.6255
 8731SOL     OW37654   0.311   3.071   6.323  0.1681 -0.7878  0.1884
 8731SOL    HW137655   0.243   3.016   6.284 -0.9228  0.6205  0.0864
 8731SOL    HW237656   0.358   3.111   6.249 -0.0066  0.3419  0.6789
 8732SOL     OW37657   2.908   1.202   4.257  0.2226  0.4980 -0.9264
 8732SOL    HW137658   2.866   1.288   4.258  1.0417  0.9093 -1.4303
 8732SOL    HW237659   2.986   1.230   4.209  1.3022 -0.4170  0.3063
 8733SOL     OW37660   4.014   4.255   6.611  0.1665 -1.0002 -0.3522
 8733SOL    HW137661   4.098   4.256   6.656 -0.2434  0.9485  0.3727
 8733SOL    HW237662   3.994   4.162   6.607  0.7929 -1.1494  0.0227
 8734SOL     OW37663   3.475   2.454   4.100  0.0727  0.0481 -0.0920
 8734SOL    HW137664   3.531   2.379   4.117  1.5859  1.8375  2.9382
 8734SOL    HW237665   3.415   2.445   4.174 -0.1294 -1.7048 -0.4767
 8735SOL     OW37666   0.561   0.859   7.699  0.0773  0.3996 -0.2440
 8735SOL    HW137667   0.600   0.939   7.664  0.3623  0.2473 -0.2761
 8735SOL    HW237668   0.560   0.877   7.793 -1.0698 -0.2702 -0.1264
 8736SOL     OW37669   1.806   0.618   2.243  0.5893 -0.0625 -0.6915
 8736SOL    HW137670   1.781   0.609   2.151  2.5883  1.6103 -1.3952
 8736SOL    HW237671   1.827   0.531   2.276 -0.2695  0.3054  0.8450
 8737SOL     OW37672   0.376   1.178  13.891  0.3619 -0.0562  0.5328
 8737SOL    HW137673   0.335   1.096  13.915  0.4368 -0.0370  0.7267
 8737SOL    HW237674   0.443   1.176  13.959  0.1038  1.1235  0.8301
 8738SOL     OW37675   2.577   3.944   7.811  0.3203 -0.0725 -0.1717
 8738SOL    HW137676   2.617   4.027   7.838  2.2156 -0.1872 -2.6570
 8738SOL    HW237677   2.637   3.880   7.849 -1.5549 -2.4933 -1.2895
 8739SOL     OW37678   3.996   2.966   8.622 -0.0052 -0.3047 -0.6244
 8739SOL    HW137679   4.032   2.977   8.710 -0.1391 -0.0402 -0.6031
 8739SOL    HW237680   4.038   3.025   8.559  2.5515 -1.1045  0.3452
 8740SOL     OW37681   3.984   1.074   4.159 -0.1632  0.3039 -0.3045
 8740SOL    HW137682   3.922   1.028   4.102 -2.1844  0.3980  1.8340
 8740SOL    HW237683   4.035   1.004   4.199 -0.6176  0.4224  0.4825
 8741SOL     OW37684   3.121   2.577   9.430 -0.4766  0.2935 -0.0095
 8741SOL    HW137685   3.172   2.519   9.486  0.4690  0.6210 -0.5328
 8741SOL    HW237686   3.120   2.654   9.488  0.7962  1.3856 -1.4383
 8742SOL     OW37687   3.213   4.130   5.574 -0.0205  0.5547  0.0006
 8742SOL    HW137688   3.171   4.161   5.654  0.7854 -0.2655  0.7527
 8742SOL    HW237689   3.297   4.175   5.589  0.5392 -0.4733 -0.0136
 8743SOL     OW37690   3.000   0.088   9.040 -0.2388  0.1891  0.5185
 8743SOL    HW137691   3.054   0.011   9.060 -1.4682 -0.8041  0.0007
 8743SOL    HW237692   2.996   0.125   9.128 -1.7694  1.6921 -0.1989
 8744SOL     OW37693   0.146   1.494   6.748 -0.1711  0.4814  0.3715
 8744SOL    HW137694   0.235   1.502   6.783  0.6068 -0.8376 -1.3070
 8744SOL    HW237695   0.148   1.400   6.731 -0.7499  0.6355 -0.5822
 8745SOL     OW37696   0.753   2.634   7.505 -0.1430 -0.0505 -0.1018
 8745SOL    HW137697   0.803   2.603   7.581 -0.9122  0.8347  0.7563
 8745SOL    HW237698   0.663   2.611   7.526 -0.5591  0.5144 -1.3265
 8746SOL     OW37699   3.318   3.836   3.559  0.6568 -0.3858 -0.4596
 8746SOL    HW137700   3.344   3.777   3.489 -1.7942  0.5877 -2.2093
 8746SOL    HW237701   3.235   3.868   3.524 -0.1942 -0.0655  1.8568
 8747SOL     OW37702   1.301   4.466   9.082  0.0102  0.3282 -0.5737
 8747SOL    HW137703   1.293   4.405   9.156 -1.5072 -0.2354 -1.2120
 8747SOL    HW237704   1.314   4.543   9.137  0.2374  0.6387 -1.0689
 8748SOL     OW37705   2.786   1.330   6.530 -0.2871  0.0567 -0.1842
 8748SOL    HW137706   2.765   1.262   6.466  1.0313 -1.0859  0.6100
 8748SOL    HW237707   2.717   1.320   6.595  0.0897 -0.2247  0.1714
 8749SOL     OW37708   1.877   0.938   9.415 -0.2301 -0.5253 -0.0650
 8749SOL    HW137709   1.855   0.868   9.477  4.6067 -1.8705  0.1590
 8749SOL    HW237710   1.880   1.018   9.467 -2.5877  0.0631 -0.8477
 8750SOL     OW37711   3.733   4.204   2.639 -0.2173 -0.2817 -0.1683
 8750SOL    HW137712   3.658   4.162   2.596  0.0607 -0.3475 -0.5996
 8750SOL    HW237713   3.699   4.291   2.657  1.1351  0.5907 -1.7877
 8751SOL     OW37714   1.324   1.686   2.798  0.1763 -0.0302  0.1821
 8751SOL    HW137715   1.354   1.618   2.738  0.1342  0.3479 -0.2738
 8751SOL    HW237716   1.242   1.715   2.758 -0.4829 -1.8630  0.2041
 8752SOL     OW37717   2.716   3.141  13.493 -0.2614  0.3613 -0.3636
 8752SOL    HW137718   2.641   3.111  13.544  0.6429 -1.7356 -0.2370
 8752SOL    HW237719   2.696   3.234  13.485 -2.4275 -0.0086  0.6561
 8753SOL     OW37720   0.543   3.298  11.360  0.7184 -0.2707 -0.2994
 8753SOL    HW137721   0.585   3.237  11.300  0.5770  0.2473 -0.9148
 8753SOL    HW237722   0.617   3.339  11.404 -0.0226  0.3186  0.4140
 8754SOL     OW37723   0.757   0.613  11.044  0.2767  0.8766 -0.1472
 8754SOL    HW137724   0.694   0.665  10.993  0.9495  0.2332 -1.6542
 8754SOL    HW237725   0.776   0.685  11.104  2.0228  0.6228 -0.3804
 8755SOL     OW37726   3.573   0.173   0.648 -0.0474  0.0649  0.3514
 8755SOL    HW137727   3.642   0.220   0.693 -0.3914  2.2762 -1.4164
 8755SOL    HW237728   3.612   0.090   0.623  0.4644  0.2041  0.7008
 8756SOL     OW37729   3.031   0.225  10.835 -0.0920 -0.2627 -0.5237
 8756SOL    HW137730   3.028   0.310  10.879 -0.4020  2.0178 -4.9734
 8756SOL    HW237731   2.949   0.229  10.786 -0.5969 -0.8935  0.2701
 8757SOL     OW37732   2.308   3.785   6.173  0.1988 -0.0273 -0.5764
 8757SOL    HW137733   2.235   3.743   6.219 -1.2577  3.6187  0.3945
 8757SOL    HW237734   2.263   3.867   6.157 -1.9744 -1.0258  0.4219
 8758SOL     OW37735   1.486   1.875   9.208 -0.2005 -0.2170  0.3624
 8758SOL    HW137736   1.522   1.806   9.152 -1.2874 -1.6311  1.4192
 8758SOL    HW237737   1.506   1.949   9.150 -0.6615 -0.5608 -0.2175
 8759SOL     OW37738   3.490   0.194  12.758 -0.2108 -0.1732  0.1466
 8759SOL    HW137739   3.414   0.245  12.784  0.3733 -0.3270  2.1309
 8759SOL    HW237740   3.455   0.119  12.709  2.3968 -0.8908 -0.6244
 8760SOL     OW37741   4.348   1.386   9.142 -0.0262  0.2265 -0.5287
 8760SOL    HW137742   4.368   1.406   9.234 -2.9656 -2.8763  0.7567
 8760SOL    HW237743   4.282   1.317   9.146  1.8410 -1.4692  0.9990
 8761SOL     OW37744   2.469   3.176   0.293  0.3927 -0.1783  0.1954
 8761SOL    HW137745   2.452   3.140   0.379  2.7583  0.3319  0.8594
 8761SOL    HW237746   2.495   3.099   0.242  1.7156  0.3116  0.1348
 8762SOL     OW37747   0.627   4.533   4.230  0.1762  0.2896  0.2629
 8762SOL    HW137748   0.588   4.594   4.167 -1.1452 -0.9511 -0.1204
 8762SOL    HW237749   0.707   4.578   4.254 -0.1146  0.9077  0.0728
 8763SOL     OW37750   3.554   4.234  13.213 -0.2273 -0.2650 -0.7964
 8763SOL    HW137751   3.638   4.191  13.222 -0.2712 -0.2509 -0.2774
 8763SOL    HW237752   3.570   4.328  13.220  0.8473 -0.6625  1.9633
 8764SOL     OW37753   1.281   0.905   2.713  0.4164 -0.0165  0.3038
 8764SOL    HW137754   1.253   0.907   2.805  0.8834 -0.7005  0.4602
 8764SOL    HW237755   1.250   0.992   2.688  0.2906 -0.6028 -1.5455
 8765SOL     OW37756   3.564   2.091   7.848  0.5355  0.4937 -0.5993
 8765SOL    HW137757   3.593   2.001   7.835  0.7406  0.6378 -1.1513
 8765SOL    HW237758   3.471   2.074   7.858  0.7937 -1.1645 -1.0671
 8766SOL     OW37759   1.289   4.207   5.610  0.4281 -0.1751 -0.3631
 8766SOL    HW137760   1.203   4.208   5.568  0.2002 -1.0646  0.0850
 8766SOL    HW237761   1.260   4.236   5.696  0.9748  2.0148 -0.9263
 8767SOL     OW37762   2.258   4.505   2.163 -0.1608 -0.1772 -0.2828
 8767SOL    HW137763   2.286   4.414   2.175 -0.8119 -0.6647 -2.5822
 8767SOL    HW237764   2.224   4.505   2.074  1.9808  0.2752 -1.1008
 8768SOL     OW37765   3.745   3.212  11.203  0.1404 -0.5043 -0.2413
 8768SOL    HW137766   3.789   3.267  11.139  0.0463  0.3496  0.4377
 8768SOL    HW237767   3.658   3.253  11.199  1.9058  3.3145  0.9736
 8769SOL     OW37768   3.363   2.748   1.519 -0.4028 -0.2132 -0.0803
 8769SOL    HW137769   3.303   2.760   1.445  1.0603 -0.0066 -1.2312
 8769SOL    HW237770   3.425   2.683   1.486 -2.6077 -2.4125  0.0562
 8770SOL     OW37771   1.810   0.024   1.495 -0.0917 -0.2823 -0.3648
 8770SOL    HW137772   1.772   0.017   1.583  0.2894 -0.3695 -0.2078
 8770SOL    HW237773   1.756   4.684   1.452  0.0319 -0.3626 -0.3985
 8771SOL     OW37774   2.842   0.958   2.377 -0.1310  0.0881  0.3699
 8771SOL    HW137775   2.798   1.022   2.433  1.1164  0.9722  0.3236
 8771SOL    HW237776   2.762   0.914   2.348  1.9813 -1.3767 -3.1849
 8772SOL     OW37777   0.088   3.935   8.534 -0.1882  0.3552  0.0606
 8772SOL    HW137778   0.111   3.910   8.444  2.3364  2.5550  0.0855
 8772SOL    HW237779   0.004   3.890   8.521 -0.6423  1.0668  0.5664
 8773SOL     OW37780   1.773   3.427  10.028 -0.1318 -0.5693 -0.0761
 8773SOL    HW137781   1.723   3.508  10.039  0.3993 -0.2822  0.2202
 8773SOL    HW237782   1.766   3.393  10.117  0.0850  0.2100  0.2380
 8774SOL     OW37783   4.256   3.864  16.022  0.3455 -0.1226  0.1629
 8774SOL    HW137784   4.273   3.858  16.116 -1.7788 -0.8068  0.4936
 8774SOL    HW237785   4.163   3.842  16.012  0.5916 -1.4922  0.8466
 8775SOL     OW37786   1.785   1.013   2.199 -0.0569 -0.0760 -0.0581
 8775SOL    HW137787   1.702   1.033   2.156 -1.1378  1.3592  2.6796
 8775SOL    HW237788   1.764   0.926   2.232  0.5613  0.0129  0.5836
 8776SOL     OW37789   3.140   1.190   4.756  0.0304 -0.0752  0.6601
 8776SOL    HW137790   3.069   1.125   4.762 -1.5716  1.4106 -2.2697
 8776SOL    HW237791   3.197   1.129   4.710 -2.4708 -2.1382  0.2696
 8777SOL     OW37792   0.975   1.561  13.030 -0.2120  0.7354  0.0746
 8777SOL    HW137793   0.952   1.653  13.043 -0.1525  0.8371 -0.5308
 8777SOL    HW237794   0.908   1.523  13.087  0.9294 -0.3333  0.7005
 8778SOL     OW37795   4.627   1.356   1.078 -0.2503  0.1583 -0.0394
 8778SOL    HW137796   4.697   1.312   1.126 -0.1373  0.4982  0.1050
 8778SOL    HW237797   4.629   1.445   1.112  0.7664  0.2668 -0.3958
 8779SOL     OW37798   3.660   2.533   8.785  0.4244 -0.5194  0.1800
 8779SOL    HW137799   3.645   2.513   8.692  1.3268  1.4247 -0.3870
 8779SOL    HW237800   3.699   2.621   8.778  1.1977 -1.0477 -2.1458
 8780SOL     OW37801   1.324   2.555   6.983  0.2374  0.1297  0.5547
 8780SOL    HW137802   1.383   2.479   6.985  2.0728  1.5194 -1.1704
 8780SOL    HW237803   1.303   2.554   7.077 -0.3786 -0.1798  0.4144
 8781SOL     OW37804   4.468   3.112   3.962  0.4066 -0.6610 -0.0816
 8781SOL    HW137805   4.541   3.051   3.973  1.0378  0.0500 -0.3531
 8781SOL    HW237806   4.394   3.059   3.933  1.3444 -1.3244 -1.2542
 8782SOL     OW37807   2.633   1.248  12.593  0.4741  0.7218  0.1808
 8782SOL    HW137808   2.576   1.221  12.520  2.0318 -0.4750 -0.5920
 8782SOL    HW237809   2.559   1.271  12.650  1.9739 -0.3941  2.5606
 8783SOL     OW37810   0.445   1.384   6.947 -0.3942  0.2969 -0.1779
 8783SOL    HW137811   0.367   1.413   6.994 -0.5445  0.9608 -0.8299
 8783SOL    HW237812   0.512   1.425   7.002 -1.4860 -1.4666  2.4104
 8784SOL     OW37813   2.400   2.810  13.085  0.0665  0.0373  0.1234
 8784SOL    HW137814   2.495   2.805  13.089 -0.0712  0.2733  3.5434
 8784SOL    HW237815   2.387   2.825  13.179  0.6378  0.2364  0.1662
 8785SOL     OW37816   3.069   3.860   6.678 -0.0566 -0.3614  0.0992
 8785SOL    HW137817   3.073   3.939   6.624 -0.1618 -1.0704 -0.9469
 8785SOL    HW237818   3.034   3.804   6.609 -1.8650  0.5261  0.2751
 8786SOL     OW37819   2.005   1.785   9.507 -0.5010  0.6235 -0.2790
 8786SOL    HW137820   2.010   1.692   9.482  0.0015 -0.2383  3.0019
 8786SOL    HW237821   2.095   1.798   9.478 -0.5718 -0.5079 -1.0115
 8787SOL     OW37822   1.098   3.216   4.163  0.1022 -0.5246  0.0428
 8787SOL    HW137823   1.140   3.282   4.109  0.2806  0.0311  0.8690
 8787SOL    HW237824   1.136   3.136   4.127  2.1233  0.3705  0.1918
 8788SOL     OW37825   4.259   1.658   9.401 -0.1669  0.0885 -0.7025
 8788SOL    HW137826   4.344   1.612   9.397 -0.9539 -1.4999  0.5686
 8788SOL    HW237827   4.282   1.737   9.449  0.0453 -0.9326  0.9041
 8789SOL     OW37828   2.896   2.160   6.697 -0.0242 -0.2638 -0.0250
 8789SOL    HW137829   2.825   2.104   6.666  0.3744 -2.1173  2.4354
 8789SOL    HW237830   2.885   2.129   6.787  0.9755 -2.8177 -0.8069
 8790SOL     OW37831   4.521   4.620   7.278 -0.0675  0.4725 -0.0249
 8790SOL    HW137832   4.527   4.539   7.330 -2.1661  0.5300  0.3397
 8790SOL    HW237833   4.441   4.659   7.315 -2.4431 -3.1227 -1.3390
 8791SOL     OW37834   1.073   4.316  16.435  0.0913 -0.0074 -0.6478
 8791SOL    HW137835   1.030   4.361  16.362 -0.3828  2.4697  1.1464
 8791SOL    HW237836   0.995   4.286  16.482  0.1187  2.7549  1.1655
 8792SOL     OW37837   2.624   4.091   5.726  0.5894  0.3113 -0.6484
 8792SOL    HW137838   2.584   4.004   5.740 -3.2209  2.1482 -0.0747
 8792SOL    HW237839   2.708   4.092   5.772  0.5341  2.4244 -0.6329
 8793SOL     OW37840   1.572   3.158   8.500  0.7409  0.3847 -0.2803
 8793SOL    HW137841   1.627   3.151   8.579  0.7241 -0.1738 -0.3229
 8793SOL    HW237842   1.535   3.070   8.508 -1.1382  1.3072  1.1231
 8794SOL     OW37843   0.799   3.990  16.564 -0.9214  0.0472  0.4432
 8794SOL    HW137844   0.815   4.060  16.626  0.9985 -0.8107  0.9105
 8794SOL    HW237845   0.833   4.027  16.483 -0.0880  0.7346  1.1115
 8795SOL     OW37846   1.613   0.373   4.796  0.2351 -0.0548  0.7345
 8795SOL    HW137847   1.622   0.282   4.824  2.5561  1.0250  3.5416
 8795SOL    HW237848   1.587   0.426   4.872 -0.7427 -1.3523  1.3000
 8796SOL     OW37849   1.441   0.280  11.438  0.2105 -0.1977  0.0225
 8796SOL    HW137850   1.479   0.325  11.362 -1.0972  1.4297  0.3342
 8796SOL    HW237851   1.364   0.335  11.452 -1.1079 -2.1200  0.3019
 8797SOL     OW37852   1.094   2.754  15.975  0.2070 -0.6599 -0.1347
 8797SOL    HW137853   1.140   2.711  15.903  1.2939  0.6096 -0.2040
 8797SOL    HW237854   1.062   2.831  15.928 -2.0461 -1.2845  0.3891
 8798SOL     OW37855   3.072   1.437   1.087  0.2363 -0.4516  0.0900
 8798SOL    HW137856   2.985   1.474   1.101  0.0859 -1.0462  0.7433
 8798SOL    HW237857   3.054   1.348   1.055 -0.6570 -0.6954  1.2897
 8799SOL     OW37858   2.318   0.780  12.136 -0.0825  0.1088 -0.3714
 8799SOL    HW137859   2.350   0.751  12.051 -1.5901 -0.9534 -0.5727
 8799SOL    HW237860   2.268   0.855  12.104  1.8188  2.3366  1.8684
 8800SOL     OW37861   2.293   2.750  13.825 -0.0646 -0.2808  0.0012
 8800SOL    HW137862   2.329   2.755  13.913  0.9972  1.0996 -0.5069
 8800SOL    HW237863   2.207   2.716  13.850 -0.1829  0.2319  0.2809
 8801SOL     OW37864   3.251   0.083   2.309  0.4211 -0.1216 -0.2490
 8801SOL    HW137865   3.293   0.039   2.235  0.5521 -0.7558  0.2075
 8801SOL    HW237866   3.213   0.006   2.352 -0.1267 -0.3979 -1.2190
 8802SOL     OW37867   0.433   3.296   8.628  0.3117  0.2342  0.3446
 8802SOL    HW137868   0.472   3.264   8.710  1.2086 -1.6995 -0.8452
 8802SOL    HW237869   0.509   3.340   8.590  0.0306 -0.0464 -0.5411
 8803SOL     OW37870   4.049   2.457   5.650  0.8956  0.1091  0.3476
 8803SOL    HW137871   4.047   2.510   5.570  2.0770  0.8911  0.8266
 8803SOL    HW237872   4.130   2.406   5.639  1.2393  0.3923  1.5341
 8804SOL     OW37873   0.034   0.561   1.469  0.1560  0.1614  0.0814
 8804SOL    HW137874   4.689   0.586   1.409  0.9209  2.7144  0.2726
 8804SOL    HW237875   0.016   0.467   1.475  1.2237  0.0961  2.3369
 8805SOL     OW37876   4.153   0.213   5.850 -0.0221  0.4140 -0.4703
 8805SOL    HW137877   4.085   0.275   5.821  1.6108  1.3675 -2.3246
 8805SOL    HW237878   4.118   0.169   5.927  2.8542  1.1911  1.2809
 8806SOL     OW37879   2.429   0.578  13.750  0.0423  0.2631  0.2310
 8806SOL    HW137880   2.397   0.591  13.839 -1.0499  2.6353 -0.5090
 8806SOL    HW237881   2.500   0.641  13.764 -0.0746  0.6970 -1.1353
 8807SOL     OW37882   0.401   1.164   8.110  0.0418 -0.2101  0.1086
 8807SOL    HW137883   0.428   1.161   8.018  1.5488 -1.3635  0.5883
 8807SOL    HW237884   0.343   1.240   8.106 -1.0289 -1.0261  0.1152
 8808SOL     OW37885   4.195   0.782   6.830  0.0116 -0.8505 -0.5724
 8808SOL    HW137886   4.220   0.780   6.922 -0.2618 -0.8396 -0.4973
 8808SOL    HW237887   4.284   0.770   6.795 -0.0992 -2.5843 -0.2680
 8809SOL     OW37888   3.689   3.527  10.133  0.1955  0.2767 -0.1295
 8809SOL    HW137889   3.776   3.507  10.167 -1.6386 -3.2598  2.4056
 8809SOL    HW237890   3.627   3.481  10.190  1.8490  1.8728  2.9202
 8810SOL     OW37891   3.613   0.315   4.469  0.1801 -0.4689 -0.9215
 8810SOL    HW137892   3.672   0.241   4.453  0.0655 -0.8850  0.5509
 8810SOL    HW237893   3.582   0.333   4.381 -2.8161  1.3123  0.5033
 8811SOL     OW37894   1.486   1.726  16.042  0.0847  0.9365 -0.0650
 8811SOL    HW137895   1.475   1.652  15.983  2.0535 -2.5606  3.9607
 8811SOL    HW237896   1.421   1.783  16.001 -0.3373  1.1484  0.8941
 8812SOL     OW37897   0.032   0.719   5.608 -0.0301  0.7476  0.8518
 8812SOL    HW137898   4.698   0.652   5.573  0.8106  0.1819  0.5172
 8812SOL    HW237899   4.704   0.795   5.585  1.3678  1.1650 -0.9294
 8813SOL     OW37900   3.412   0.891   5.175 -0.2482  0.0420  0.6975
 8813SOL    HW137901   3.439   0.947   5.248  1.2099  1.8593 -1.2675
 8813SOL    HW237902   3.351   0.831   5.218  0.4294 -0.3844  1.0705
 8814SOL     OW37903   3.433   2.164   8.349  0.2738 -0.3748 -0.2353
 8814SOL    HW137904   3.424   2.145   8.442 -2.4127  1.1669 -0.1809
 8814SOL    HW237905   3.413   2.079   8.311  0.7446 -1.0119  0.9607
 8815SOL     OW37906   2.011   4.459  12.168 -0.3549  0.1951  0.0761
 8815SOL    HW137907   2.064   4.521  12.118 -1.1007  0.5483 -0.2881
 8815SOL    HW237908   2.053   4.378  12.139 -1.8706 -0.5282 -0.1159
 8816SOL     OW37909   4.622   1.548   7.634  0.0568 -0.2964  0.2865
 8816SOL    HW137910   4.606   1.628   7.584 -2.6834 -2.0289 -1.6651
 8816SOL    HW237911   4.678   1.568   7.709 -0.7972 -2.9093  1.6510
 8817SOL     OW37912   1.520   0.851   7.194 -0.3625  0.0788 -0.2267
 8817SOL    HW137913   1.554   0.939   7.211  1.5767  0.1802 -4.5675
 8817SOL    HW237914   1.443   0.870   7.139 -1.8526 -0.2468  1.7530
 8818SOL     OW37915   1.247   2.112   5.683 -0.6339 -0.0233  0.1953
 8818SOL    HW137916   1.307   2.130   5.756 -4.4767 -2.6548  4.0343
 8818SOL    HW237917   1.303   2.140   5.611 -1.8827  1.4369 -0.2022
 8819SOL     OW37918   2.929   2.602   1.381 -0.0639  0.4204 -0.0366
 8819SOL    HW137919   2.863   2.580   1.447 -0.0969 -0.4580 -0.3559
 8819SOL    HW237920   2.929   2.518   1.334  2.9274  0.4627 -0.0765
 8820SOL     OW37921   4.279   4.442   1.965  0.0469 -0.2479 -0.1465
 8820SOL    HW137922   4.277   4.377   2.035  0.2848  0.5246  0.5872
 8820SOL    HW237923   4.267   4.389   1.887 -0.8948  0.3140 -0.3739
 8821SOL     OW37924   1.609   3.355  15.594 -0.2062 -0.1413 -0.3914
 8821SOL    HW137925   1.515   3.351  15.579 -0.8296  0.7181  3.1538
 8821SOL    HW237926   1.645   3.426  15.543 -1.8248  1.5631  0.8346
 8822SOL     OW37927   0.003   2.127   7.916  0.8899 -0.8184  0.4272
 8822SOL    HW137928   4.695   2.175   7.992 -1.9476 -2.1034  0.0356
 8822SOL    HW237929   4.702   2.037   7.937  3.2928 -2.3595 -3.3748
 8823SOL     OW37930   1.368   0.102  13.244  0.0029  0.1211  0.2534
 8823SOL    HW137931   1.278   0.095  13.277 -0.3665 -1.2624 -1.0506
 8823SOL    HW237932   1.365   0.099  13.149 -1.9763  2.8803  0.2464
 8824SOL     OW37933   0.937   4.129  12.677 -0.5834  0.0020 -0.0916
 8824SOL    HW137934   0.929   4.224  12.670 -2.8640 -0.1614  0.4423
 8824SOL    HW237935   1.029   4.112  12.695  0.1511  0.3303 -3.4792
 8825SOL     OW37936   1.781   3.810   5.395 -0.5810  0.2564 -0.3674
 8825SOL    HW137937   1.733   3.731   5.373  1.8197 -1.2645 -0.1789
 8825SOL    HW237938   1.819   3.790   5.481  0.8016  1.6641 -0.6372
 8826SOL     OW37939   0.844   0.978   9.962 -0.2838  0.4410 -0.0151
 8826SOL    HW137940   0.827   0.932  10.044  1.0240  1.2557  0.7203
 8826SOL    HW237941   0.752   0.982   9.936 -0.3807  0.9171  0.4172
 8827SOL     OW37942   1.561   0.223   2.390  0.4132 -0.3223 -0.1256
 8827SOL    HW137943   1.590   0.165   2.461 -0.2595 -2.7088 -1.8229
 8827SOL    HW237944   1.549   0.306   2.436  0.1592 -1.9964  2.8448
 8828SOL     OW37945   3.750   4.656  12.781 -0.4243 -0.1624  0.0780
 8828SOL    HW137946   3.732   0.008  12.728 -1.3889 -1.6669 -1.7903
 8828SOL    HW237947   3.843   4.641  12.766  0.1332  0.6696  2.7019
 8829SOL     OW37948   0.869   4.100  16.323  0.7454  0.4925  0.3665
 8829SOL    HW137949   0.858   4.010  16.291 -1.3229  1.0718 -0.4919
 8829SOL    HW237950   0.838   4.154  16.251  0.8246 -0.3792 -0.3146
 8830SOL     OW37951   3.947   3.921   8.095  0.5441  0.1023  0.4831
 8830SOL    HW137952   3.861   3.904   8.133 -0.0209  0.9361 -0.4375
 8830SOL    HW237953   3.949   3.861   8.020 -1.9982  0.9940 -0.2906
 8831SOL     OW37954   3.191   1.415  13.937  0.0253 -0.9854 -0.2249
 8831SOL    HW137955   3.281   1.413  13.970 -0.4093  0.5065  1.0786
 8831SOL    HW237956   3.152   1.354  14.000  0.0403 -1.3915 -0.6131
 8832SOL     OW37957   0.495   0.114   0.321  0.0972 -0.2144 -0.0301
 8832SOL    HW137958   0.402   0.120   0.345  0.7006 -0.7463  2.5239
 8832SOL    HW237959   0.524   0.023   0.334 -1.1296 -0.7326 -0.9473
 8833SOL     OW37960   3.004   0.514   6.619 -0.0259 -0.5803  0.0215
 8833SOL    HW137961   2.937   0.446   6.628  0.5417 -0.9655  1.2892
 8833SOL    HW237962   2.977   0.543   6.532 -0.1699 -1.2998 -0.1746
 8834SOL     OW37963   3.399   0.975  12.390 -0.3111 -0.1682  0.0398
 8834SOL    HW137964   3.494   0.980  12.393 -0.3619  0.1478  1.2426
 8834SOL    HW237965   3.381   0.884  12.412  1.6174 -0.5472 -0.0071
 8835SOL     OW37966   3.557   1.525   6.829  0.5397 -0.0046 -0.5193
 8835SOL    HW137967   3.579   1.616   6.849  1.5927 -0.1585 -0.9368
 8835SOL    HW237968   3.645   1.487   6.836  0.3668  0.0505  2.0596
 8836SOL     OW37969   2.057   3.954   6.468 -0.5436 -0.0800 -0.4656
 8836SOL    HW137970   2.149   3.927   6.477 -0.7407 -0.6739 -0.2597
 8836SOL    HW237971   2.037   3.968   6.561 -0.8946  2.4011 -0.9168
 8837SOL     OW37972   4.071   2.352   7.080 -0.7828  0.5213  0.0081
 8837SOL    HW137973   4.147   2.364   7.023 -0.3524  1.9516  0.8901
 8837SOL    HW237974   4.057   2.257   7.084 -1.4565  0.6589  1.0110
 8838SOL     OW37975   4.416   0.235   0.716 -0.1271 -0.0730 -0.1308
 8838SOL    HW137976   4.398   0.249   0.623 -0.2382 -2.1865 -0.4320
 8838SOL    HW237977   4.474   0.308   0.739 -0.4771  0.2276 -0.2233
 8839SOL     OW37978   0.546   2.958   7.237  0.4630  0.1643  0.6940
 8839SOL    HW137979   0.495   2.938   7.159 -0.5532  0.2384  1.3369
 8839SOL    HW237980   0.624   2.903   7.227  1.4791  1.8048 -0.4279
 8840SOL     OW37981   2.553   4.489   8.068 -0.2984 -0.1627 -0.1546
 8840SOL    HW137982   2.509   4.411   8.034  4.0437 -1.9190 -1.8035
 8840SOL    HW237983   2.626   4.447   8.114  0.3651  2.4923  1.2241
 8841SOL     OW37984   1.431   0.049   6.295  0.0957 -0.3241 -0.0278
 8841SOL    HW137985   1.427   4.682   6.317  0.0137 -0.3279 -0.0600
 8841SOL    HW237986   1.446   0.051   6.201  1.5033  1.4668  0.2209
 8842SOL     OW37987   3.887   4.236   1.865 -0.1016  0.3647  0.4442
 8842SOL    HW137988   3.946   4.248   1.939  0.2144  0.0872  0.2352
 8842SOL    HW237989   3.942   4.208   1.792  0.0629 -1.2962  1.1949
 8843SOL     OW37990   0.142   3.445   5.133 -0.0661  0.4634  0.3266
 8843SOL    HW137991   0.110   3.411   5.049 -0.0176 -0.6437  0.7706
 8843SOL    HW237992   0.083   3.393   5.186  0.1124  1.6489  1.6857
 8844SOL     OW37993   4.527   3.200   9.822  0.2361  0.7882 -0.2550
 8844SOL    HW137994   4.618   3.224   9.805 -0.1521  0.9001 -2.1288
 8844SOL    HW237995   4.528   3.205   9.918 -1.1568  0.3825 -0.2220
 8845SOL     OW37996   2.192   3.178   7.819  0.6130 -0.4367  0.1328
 8845SOL    HW137997   2.108   3.215   7.791  0.0632 -1.0871  0.8862
 8845SOL    HW237998   2.238   3.258   7.796 -0.1572 -0.6142 -2.0342
 8846SOL     OW37999   0.633   0.229   8.175  0.1973 -0.3314 -0.1764
 8846SOL    HW138000   0.687   0.240   8.253  1.2714  0.4296 -1.0260
 8846SOL    HW238001   0.605   0.139   8.189 -2.8879  0.6855  0.2847
 8847SOL     OW38002   0.562   0.153   1.253  0.2616  0.0022 -0.2938
 8847SOL    HW138003   0.631   0.218   1.264 -0.8660  1.2993 -0.9702
 8847SOL    HW238004   0.489   0.210   1.276  1.3766  0.2240  2.7269
 8848SOL     OW38005   2.971   1.091   3.468 -0.3682  0.1905 -0.1750
 8848SOL    HW138006   2.910   1.064   3.536 -0.8631  2.5659  0.2967
 8848SOL    HW238007   2.901   1.094   3.403 -0.5291  0.5732  0.0140
 8849SOL     OW38008   2.770   2.810   8.688  0.1463 -0.1085 -0.8742
 8849SOL    HW138009   2.835   2.790   8.620  0.9083  2.7366 -1.0224
 8849SOL    HW238010   2.742   2.895   8.653  0.7123  0.3646 -0.1820
 8850SOL     OW38011   4.406   3.954   6.598  0.2363 -0.0529 -0.2918
 8850SOL    HW138012   4.353   3.875   6.589  0.4064 -0.3365  1.1955
 8850SOL    HW238013   4.486   3.921   6.638  0.0712 -2.4034 -1.9078
 8851SOL     OW38014   1.996   4.313   3.491  0.3807 -0.2032 -0.4594
 8851SOL    HW138015   2.064   4.257   3.452  1.1177  0.6036 -0.3428
 8851SOL    HW238016   2.032   4.396   3.459  0.5817 -0.1316 -0.0421
 8852SOL     OW38017   4.066   0.890  12.500  0.1074 -0.5560  0.3284
 8852SOL    HW138018   4.136   0.927  12.446 -1.3310  1.1773 -0.3214
 8852SOL    HW238019   4.040   0.971  12.543  1.1500  0.8723 -1.7387
 8853SOL     OW38020   4.153   0.584   4.919  0.3010  0.5129 -0.0521
 8853SOL    HW138021   4.161   0.615   5.010  0.7279  0.9721 -0.2420
 8853SOL    HW238022   4.242   0.555   4.897 -0.6301 -1.0409 -1.7076
 8854SOL     OW38023   4.446   3.009  13.462  0.3481  0.0377  0.5628
 8854SOL    HW138024   4.510   3.059  13.412  0.6642  1.2320  2.1751
 8854SOL    HW238025   4.403   2.967  13.388 -0.5851  3.0588 -0.6395
 8855SOL     OW38026   2.411   1.024   2.795 -0.0220 -0.2226 -0.2531
 8855SOL    HW138027   2.322   1.005   2.768  0.1214  0.4917 -1.2162
 8855SOL    HW238028   2.444   0.978   2.718  0.6330 -0.8870  0.4146
 8856SOL     OW38029   0.357   0.433  12.185  0.3556  0.2635  0.2831
 8856SOL    HW138030   0.286   0.371  12.166  0.7133 -0.0512 -0.0154
 8856SOL    HW238031   0.430   0.391  12.141  2.2667  2.7471  1.0565
 8857SOL     OW38032   4.381   0.212   4.340 -0.0130  0.1576  0.2639
 8857SOL    HW138033   4.446   0.154   4.379 -0.4519 -1.3373 -1.2173
 8857SOL    HW238034   4.316   0.151   4.305 -0.7485 -0.5027  2.7393
 8858SOL     OW38035   2.187   4.576   8.718 -0.1875 -0.0641  0.4157
 8858SOL    HW138036   2.257   4.598   8.657 -1.8684  0.1661 -1.4452
 8858SOL    HW238037   2.181   4.653   8.774 -0.9468  0.3193 -0.1879
 8859SOL     OW38038   1.349   0.330   5.724 -0.4176 -0.0777  0.7288
 8859SOL    HW138039   1.383   0.325   5.814 -1.3433 -1.5218  0.9995
 8859SOL    HW238040   1.256   0.335   5.745 -0.3720 -2.6825  1.5612
 8860SOL     OW38041   0.467   0.395   4.534  0.0737  0.1109  0.3797
 8860SOL    HW138042   0.446   0.304   4.512 -0.4714  0.1441  0.7794
 8860SOL    HW238043   0.381   0.436   4.528 -0.2493 -1.1143 -3.8188
 8861SOL     OW38044   2.295   0.023   4.684  0.2195 -0.1411 -0.5771
 8861SOL    HW138045   2.273   4.661   4.652 -1.6276 -0.3679  1.3455
 8861SOL    HW238046   2.227   0.046   4.747 -0.3516 -0.1036 -1.2035
 8862SOL     OW38047   1.532   4.461   2.664  0.3914 -0.4663  0.0471
 8862SOL    HW138048   1.471   4.400   2.622  0.9784  1.2537 -3.3234
 8862SOL    HW238049   1.479   4.538   2.683  0.9935 -0.2686  0.9102
 8863SOL     OW38050   2.233   3.478   7.851 -0.1705  0.6152  0.0078
 8863SOL    HW138051   2.262   3.442   7.935  1.0393  1.3646 -0.0919
 8863SOL    HW238052   2.151   3.526   7.866  0.0063  0.4373  1.5293
 8864SOL     OW38053   1.669   3.300   8.285  0.3885 -0.2079  0.1816
 8864SOL    HW138054   1.672   3.236   8.213  0.9278 -0.1993  0.1959
 8864SOL    HW238055   1.642   3.247   8.360  2.2514 -1.1222  0.2071
 8865SOL     OW38056   0.458   0.828  10.771  0.1251  0.0101 -0.2217
 8865SOL    HW138057   0.456   0.810  10.865  0.6464 -2.1691 -0.6273
 8865SOL    HW238058   0.533   0.887  10.766  0.9815 -0.8283  2.6009
 8866SOL     OW38059   0.005   3.130  13.039  0.4448 -0.4705  0.1879
 8866SOL    HW138060   4.698   3.131  13.129 -2.3148  2.0845 -0.8173
 8866SOL    HW238061   0.054   3.211  13.050 -0.6734  0.0393  1.4343
 8867SOL     OW38062   2.509   1.191   1.260  0.3743 -0.1980  0.0522
 8867SOL    HW138063   2.489   1.169   1.169 -0.4077 -1.4583  0.5286
 8867SOL    HW238064   2.548   1.113   1.300  0.8723  0.6687  1.2619
 8868SOL     OW38065   2.534   3.279   4.497  0.4815  0.3826 -0.2143
 8868SOL    HW138066   2.573   3.365   4.514 -0.0897  1.2954 -3.4171
 8868SOL    HW238067   2.612   3.227   4.478 -1.1186 -1.5323 -1.5623
 8869SOL     OW38068   1.535   0.862  15.617 -0.6102  0.5577 -0.3946
 8869SOL    HW138069   1.553   0.809  15.694  3.8546 -0.5836 -2.2127
 8869SOL    HW238070   1.492   0.800  15.558 -2.0718 -0.1985  1.4649
 8870SOL     OW38071   1.940   4.146   8.204 -0.0019 -0.2072 -0.6615
 8870SOL    HW138072   1.960   4.225   8.255  0.3834 -0.5534 -0.2810
 8870SOL    HW238073   1.878   4.094   8.256  1.5469 -0.5191  0.8684
 8871SOL     OW38074   4.071   1.051   3.854  0.1357 -0.1614 -0.0105
 8871SOL    HW138075   4.144   0.989   3.851 -0.2023 -0.5399 -0.5069
 8871SOL    HW238076   3.997   1.007   3.896  0.3317 -0.5122 -0.0323
 8872SOL     OW38077   0.084   1.627  10.727  0.4872 -0.4232 -0.0618
 8872SOL    HW138078   0.095   1.687  10.801 -3.4984  0.3012 -0.0488
 8872SOL    HW238079   0.064   1.552  10.783  0.7825 -0.0066  0.5963
 8873SOL     OW38080   2.091   2.702  13.291 -0.6474  0.4393  0.3846
 8873SOL    HW138081   2.005   2.718  13.252 -0.1375 -0.5556 -1.1449
 8873SOL    HW238082   2.059   2.675  13.377  1.4187  0.1248  1.0594
 8874SOL     OW38083   2.479   0.613   1.846 -0.0146  0.1239 -0.2110
 8874SOL    HW138084   2.557   0.634   1.793  1.6127  1.0146  2.5586
 8874SOL    HW238085   2.439   0.544   1.792 -0.7635 -0.3339  0.9488
 8875SOL     OW38086   3.696   3.646  12.995 -0.3218 -0.7119  0.0163
 8875SOL    HW138087   3.675   3.590  12.920 -0.7594 -1.1998  0.5029
 8875SOL    HW238088   3.730   3.578  13.053  2.9160 -0.0519 -1.0744
 8876SOL     OW38089   4.719   4.672   4.311  0.1593  0.1752  0.3614
 8876SOL    HW138090   0.068   4.612   4.300 -1.4057 -1.9005  1.0009
 8876SOL    HW238091   4.703   4.704   4.222 -1.0042 -0.0983  0.4632
 8877SOL     OW38092   2.097   1.838  12.235  0.0345  0.1844  0.6290
 8877SOL    HW138093   2.154   1.781  12.285 -0.6145 -1.4841 -0.5511
 8877SOL    HW238094   2.013   1.809  12.270 -0.8581  0.9277 -0.8841
 8878SOL     OW38095   1.113   0.449   9.221  0.4881  0.1679 -0.1904
 8878SOL    HW138096   1.106   0.354   9.210  2.9262 -0.0552  0.2757
 8878SOL    HW238097   1.024   0.476   9.244 -0.7519 -2.2721 -2.1247
 8879SOL     OW38098   3.575   1.754  11.772  0.2550  0.2792 -0.0639
 8879SOL    HW138099   3.513   1.801  11.716  0.0967 -0.3081 -0.3917
 8879SOL    HW238100   3.535   1.741  11.857  2.1810  1.2440  0.9792
 8880SOL     OW38101   3.072   0.996   8.169  0.2873 -0.0002  0.4824
 8880SOL    HW138102   3.105   0.998   8.259 -1.0975 -2.3984  1.0236
 8880SOL    HW238103   3.101   1.081   8.134  1.3714 -1.0280 -1.1426
 8881SOL     OW38104   4.456   3.893  14.826 -0.0551  0.6525  0.1632
 8881SOL    HW138105   4.433   3.891  14.919  1.7499 -2.0524  0.5453
 8881SOL    HW238106   4.525   3.827  14.816 -0.4562 -0.2719  3.6474
 8882SOL     OW38107   1.557   1.315  16.955  0.1002  0.0640 -0.5646
 8882SOL    HW138108   1.637   1.369  16.957 -0.3420  0.6956  0.4401
 8882SOL    HW238109   1.558   1.285  16.864 -0.3499  1.1848 -0.9445
 8883SOL     OW38110   3.426   3.247   7.472 -0.6327 -0.0327 -0.1974
 8883SOL    HW138111   3.491   3.315   7.454  0.8771 -0.9962  1.5646
 8883SOL    HW238112   3.470   3.202   7.545 -0.2525  0.1200 -0.3324
 8884SOL     OW38113   3.328   3.810  14.830  0.1096  0.0314  0.3126
 8884SOL    HW138114   3.371   3.833  14.912 -0.6604  0.7825  0.5014
 8884SOL    HW238115   3.266   3.740  14.850  0.7316 -0.3332  0.9792
 8885SOL     OW38116   2.928   4.692   4.319  0.2006  0.4164 -0.2357
 8885SOL    HW138117   2.998   4.633   4.348  0.0201  1.0918  1.5704
 8885SOL    HW238118   2.851   4.670   4.370  1.5710  1.2211  2.1999
 8886SOL     OW38119   0.832   1.949   0.066 -0.0773 -0.1473  0.3087
 8886SOL    HW138120   0.875   1.874   0.025  0.1943  1.4270 -2.2764
 8886SOL    HW238121   0.760   1.976   0.009  0.3226  2.3150  0.9576
 8887SOL     OW38122   1.731   0.249   6.037  0.3720  0.1082 -0.6382
 8887SOL    HW138123   1.720   0.336   6.077 -0.1086 -1.3817  2.4641
 8887SOL    HW238124   1.647   0.233   5.994  1.0120  2.8288 -2.9610
 8888SOL     OW38125   2.005   2.067   5.403  0.1676 -0.2049 -0.1417
 8888SOL    HW138126   2.030   2.159   5.402  0.8831 -0.3960  0.0180
 8888SOL    HW238127   2.067   2.036   5.337  1.3100  0.1392  0.7877
 8889SOL     OW38128   4.059   0.322  12.598 -0.1052  0.0102 -0.0276
 8889SOL    HW138129   4.062   0.408  12.554  2.5931  0.0957  0.3580
 8889SOL    HW238130   4.026   0.348  12.684 -0.2945  1.2988 -0.4855
 8890SOL     OW38131   2.800   4.082  13.364  0.2232  0.4737 -0.8292
 8890SOL    HW138132   2.848   4.097  13.282  3.5749 -0.5525  0.9715
 8890SOL    HW238133   2.710   4.095  13.333 -0.1132  1.4107  0.5692
 8891SOL     OW38134   2.712   4.499   1.700 -0.0531 -0.0068 -0.3300
 8891SOL    HW138135   2.704   4.582   1.747 -0.0370  0.3964 -1.0414
 8891SOL    HW238136   2.622   4.479   1.674  0.5855 -1.0366 -1.7413
 8892SOL     OW38137   0.974   4.466   4.853  0.5046  0.3845  0.5514
 8892SOL    HW138138   0.978   4.562   4.848  2.2703  0.3710  2.0430
 8892SOL    HW238139   1.006   4.442   4.939  1.9558  2.3019  0.5396
 8893SOL     OW38140   1.148   3.961   8.742  0.2446 -0.0849  0.0251
 8893SOL    HW138141   1.228   3.940   8.695  0.2714 -0.6594  0.3312
 8893SOL    HW238142   1.155   3.902   8.817 -0.4124 -0.9553 -0.5928
 8894SOL     OW38143   3.771   0.151  12.107  0.1102  0.4073 -0.3930
 8894SOL    HW138144   3.788   0.197  12.025 -2.3880  0.0675 -1.0941
 8894SOL    HW238145   3.761   0.230  12.161  1.0902  0.6242 -0.5265
 8895SOL     OW38146   4.452   1.052   0.486 -0.0359 -0.5597  0.1628
 8895SOL    HW138147   4.532   1.031   0.532  0.6585  1.1653 -0.2447
 8895SOL    HW238148   4.423   1.116   0.551  0.9504 -0.1025  0.1460
 8896SOL     OW38149   3.804   1.130   7.032 -0.1999  0.3244 -0.1288
 8896SOL    HW138150   3.813   1.125   6.936  0.3131 -0.9335 -0.0192
 8896SOL    HW238151   3.892   1.154   7.062  0.4225 -1.2240 -0.6612
 8897SOL     OW38152   0.134   4.060   5.493 -0.2325 -0.4694  0.0311
 8897SOL    HW138153   0.160   4.027   5.407  2.2653 -0.3915  0.7536
 8897SOL    HW238154   0.218   4.039   5.534  0.1100 -1.2388 -1.0707
 8898SOL     OW38155   2.057   2.235   8.747 -0.4001  0.0747 -0.7274
 8898SOL    HW138156   2.013   2.150   8.749 -3.6549  1.6708 -5.7054
 8898SOL    HW238157   2.125   2.226   8.814 -0.4810  0.7915 -0.5456
 8899SOL     OW38158   0.274   1.060   2.974  0.0067  0.1480 -0.0770
 8899SOL    HW138159   0.310   1.141   3.009 -0.9719  1.4007 -1.9617
 8899SOL    HW238160   0.254   1.089   2.885 -2.9874  0.3139  0.6352
 8900SOL     OW38161   0.351   0.429  17.120  0.2220  0.5096 -0.2390
 8900SOL    HW138162   0.368   0.469  17.205  0.9245  2.3055 -1.2235
 8900SOL    HW238163   0.407   0.484  17.065  2.4826 -1.6657 -0.1049
 8901SOL     OW38164   4.478   0.947  17.636 -0.4558  0.2613 -0.4140
 8901SOL    HW138165   4.419   0.918  17.566  1.4514  0.0290 -1.9348
 8901SOL    HW238166   4.558   0.943  17.584  0.2601  1.4063  0.5914
 8902SOL     OW38167   2.154   2.975  11.865 -0.1757 -0.3353 -0.2576
 8902SOL    HW138168   2.239   3.017  11.878 -0.4091  0.3320 -0.9504
 8902SOL    HW238169   2.153   2.962  11.770 -1.6907  0.1036 -0.3021
 8903SOL     OW38170   2.292   1.265  11.889  0.4145  0.0113  0.4331
 8903SOL    HW138171   2.346   1.344  11.880 -1.4810  1.3759  1.0060
 8903SOL    HW238172   2.209   1.299  11.921 -0.1929 -2.3185  1.3296
 8904SOL     OW38173   0.044   0.304   4.438  0.3176 -0.5003 -0.0686
 8904SOL    HW138174   0.043   0.245   4.514  1.0842  0.6133  0.7952
 8904SOL    HW238175   0.099   0.377   4.466  0.3451 -0.8638  0.8395
 8905SOL     OW38176   3.112   2.672   5.334  0.0657 -0.1450  0.0307
 8905SOL    HW138177   3.101   2.579   5.317 -2.5295  0.3652 -1.1085
 8905SOL    HW238178   3.043   2.693   5.397 -0.5073 -0.9735 -0.3303
 8906SOL     OW38179   3.270   0.154   4.436  0.6191  0.1008  0.5583
 8906SOL    HW138180   3.307   0.077   4.393 -0.3475  0.8213 -1.5280
 8906SOL    HW238181   3.244   0.214   4.367  0.4421 -0.4842  0.1149
 8907SOL     OW38182   3.290   1.417   4.193 -0.3699  0.2633  0.7360
 8907SOL    HW138183   3.344   1.493   4.214 -0.8214  1.3929 -2.2052
 8907SOL    HW238184   3.352   1.349   4.221  2.2467  3.1730  2.0450
 8908SOL     OW38185   0.316   3.000   7.069  0.2494  0.1046  0.6855
 8908SOL    HW138186   0.320   2.921   7.016 -0.1565  0.7709 -0.3411
 8908SOL    HW238187   0.284   3.064   7.005 -0.8599 -0.3311  0.8019
 8909SOL     OW38188   3.223   0.590   2.021 -0.1713 -0.0111 -0.8481
 8909SOL    HW138189   3.285   0.522   2.046 -0.9631  0.4153  2.2503
 8909SOL    HW238190   3.157   0.541   1.970 -1.2228 -0.6607  1.1521
 8910SOL     OW38191   0.975   0.631   3.145  0.0600  0.5981 -0.7111
 8910SOL    HW138192   0.975   0.726   3.134 -4.0300  0.4544 -1.9094
 8910SOL    HW238193   0.882   0.618   3.164  0.5031 -1.6272 -0.1302
 8911SOL     OW38194   0.087   1.256   7.588 -0.3557 -0.7972 -0.6147
 8911SOL    HW138195   0.100   1.351   7.592  0.4253 -0.9698  1.1990
 8911SOL    HW238196   0.087   1.236   7.682 -1.6815 -0.0869 -0.4593
 8912SOL     OW38197   1.547   1.377  14.189  0.1826  0.0550  0.3223
 8912SOL    HW138198   1.478   1.335  14.137  0.7510  1.0324 -1.2138
 8912SOL    HW238199   1.621   1.346  14.136 -0.7290 -1.5306 -0.0289
 8913SOL     OW38200   4.347   1.142  15.088 -0.1470  0.3857 -0.2543
 8913SOL    HW138201   4.313   1.218  15.040 -1.3625  1.0791  1.6646
 8913SOL    HW238202   4.315   1.069  15.034 -2.2955  1.6362 -0.6841
 8914SOL     OW38203   3.761   0.239   7.402 -0.3908  0.1097 -0.3173
 8914SOL    HW138204   3.794   0.231   7.312 -0.8870  2.5606 -0.7195
 8914SOL    HW238205   3.847   0.261   7.438 -1.9160  2.8029  1.6446
 8915SOL     OW38206   3.437   4.614   8.202  0.4515  0.1536 -0.0750
 8915SOL    HW138207   3.480   4.542   8.155  0.9905 -0.4397  1.3329
 8915SOL    HW238208   3.352   4.574   8.216 -0.0692  0.7056 -1.6291
 8916SOL     OW38209   4.482   1.561  10.290 -0.6124  0.0616 -0.7670
 8916SOL    HW138210   4.455   1.489  10.233 -0.6323  0.4770 -1.2857
 8916SOL    HW238211   4.423   1.622  10.245  0.1700  1.1465 -0.3210
 8917SOL     OW38212   1.121   3.501   7.383  0.2594 -0.2491  0.3521
 8917SOL    HW138213   1.047   3.553   7.350 -0.1762 -1.1450 -0.0593
 8917SOL    HW238214   1.120   3.517   7.477 -2.5047 -2.4131  0.6997
 8918SOL     OW38215   2.457   4.553   2.523 -0.1182  0.8041 -0.1536
 8918SOL    HW138216   2.422   4.639   2.502 -0.3669  0.7241 -0.0614
 8918SOL    HW238217   2.381   4.501   2.497 -0.4394  1.2523 -0.1099
 8919SOL     OW38218   1.709   1.668   2.834 -0.3475 -0.3386  0.2181
 8919SOL    HW138219   1.804   1.667   2.824 -0.0191  0.1776  3.2694
 8919SOL    HW238220   1.678   1.731   2.768  0.9257 -1.0714 -1.0828
 8920SOL     OW38221   4.107   0.261   3.962 -0.0187 -0.0912  0.1429
 8920SOL    HW138222   4.176   0.303   4.013 -0.8748  2.7161 -1.0410
 8920SOL    HW238223   4.129   0.168   3.973 -0.7156 -0.3121 -0.3584
 8921SOL     OW38224   0.205   2.546  17.228  0.3691  0.0231 -0.1016
 8921SOL    HW138225   0.193   2.624  17.173  0.5871  0.1353  0.0125
 8921SOL    HW238226   0.211   2.578  17.318  0.6115  0.1607 -0.1652
 8922SOL     OW38227   2.786   3.204   4.260  0.1956  0.9434 -0.5662
 8922SOL    HW138228   2.810   3.113   4.241 -0.8282 -0.0428  2.9935
 8922SOL    HW238229   2.732   3.218   4.182  0.0404  1.9705 -0.2809
 8923SOL     OW38230   1.332   4.254   5.279 -0.1967  0.2185 -0.1963
 8923SOL    HW138231   1.335   4.170   5.234  2.2480 -0.0598  0.5192
 8923SOL    HW238232   1.346   4.235   5.372 -3.5197  0.9947  0.4693
 8924SOL     OW38233   0.623   2.963  13.079  0.0692  0.6823  0.5734
 8924SOL    HW138234   0.715   2.947  13.058  0.7789  3.9699  1.1437
 8924SOL    HW238235   0.601   2.871  13.097  0.3126  0.6920  0.9211
 8925SOL     OW38236   1.075   3.067   8.007 -0.6945  0.2352  0.4929
 8925SOL    HW138237   1.046   2.986   8.050  0.1130  0.2990  1.1612
 8925SOL    HW238238   1.140   3.030   7.948 -2.5388  0.2052 -1.5243
 8926SOL     OW38239   3.150   2.953   7.812 -0.1636  0.2367 -0.6598
 8926SOL    HW138240   3.202   3.014   7.864  1.6444 -0.7008 -1.3730
 8926SOL    HW238241   3.061   2.987   7.824  0.5359  1.9268 -0.2748
 8927SOL     OW38242   4.075   1.299   3.109  0.2775 -0.0571 -0.0413
 8927SOL    HW138243   4.170   1.307   3.098  0.0331  1.4851 -0.9387
 8927SOL    HW238244   4.046   1.293   3.018 -1.7226  0.2302  0.5901
 8928SOL     OW38245   1.248   2.022   7.349  0.6222 -0.1754  0.2118
 8928SOL    HW138246   1.217   2.077   7.277 -2.4167 -3.0174 -0.6370
 8928SOL    HW238247   1.183   1.952   7.354 -0.6987  1.1333  1.1280
 8929SOL     OW38248   3.958   0.060   6.982 -0.0567  0.5003 -0.5308
 8929SOL    HW138249   3.908   4.706   7.004 -2.5273  2.4334  0.7879
 8929SOL    HW238250   3.909   0.088   6.905 -3.2888 -2.8116  0.2978
 8930SOL     OW38251   4.365   1.673   2.275  0.0069 -0.0256  0.0137
 8930SOL    HW138252   4.392   1.762   2.296 -0.2682 -0.5048  2.3931
 8930SOL    HW238253   4.431   1.622   2.323  0.9429  0.0533 -1.1915
 8931SOL     OW38254   0.744   3.421  12.964 -0.1475 -0.5972 -0.3023
 8931SOL    HW138255   0.814   3.459  13.017 -0.2217 -1.3200  0.3240
 8931SOL    HW238256   0.681   3.425  13.036  1.4299 -5.0184  1.3545
 8932SOL     OW38257   3.209   1.932   8.576  0.0907 -0.3516 -0.2013
 8932SOL    HW138258   3.137   1.870   8.568  0.4881 -0.7773 -0.5057
 8932SOL    HW238259   3.193   1.964   8.665  3.3947  2.6536 -0.6558
 8933SOL     OW38260   4.697   3.173   9.560 -0.4563 -0.1294  0.1823
 8933SOL    HW138261   0.033   3.125   9.503 -2.3577 -0.8252 -1.2635
 8933SOL    HW238262   0.027   3.200   9.633  0.9006  1.9890 -1.6455
 8934SOL     OW38263   0.492   0.701   5.377 -0.8850  0.0993  0.1958
 8934SOL    HW138264   0.440   0.711   5.457  0.9333 -2.1000  1.6380
 8934SOL    HW238265   0.493   0.607   5.357  0.4204 -0.3269  2.2636
 8935SOL     OW38266   0.905   2.114  13.860 -0.1096  0.4731 -0.0933
 8935SOL    HW138267   0.859   2.127  13.777 -0.0297 -2.2106 -0.5340
 8935SOL    HW238268   0.990   2.093  13.821 -1.0843 -1.4924 -1.1076
 8936SOL     OW38269   2.007   0.583  16.663 -0.3078 -0.4087  0.7903
 8936SOL    HW138270   2.049   0.538  16.736  2.3629 -0.7915 -1.0050
 8936SOL    HW238271   1.996   0.671  16.699  0.9331 -0.5444  1.4922
 8937SOL     OW38272   3.645   4.017   3.893 -0.1118  0.1950  0.3367
 8937SOL    HW138273   3.697   3.938   3.881 -0.8322 -0.3334  0.6465
 8937SOL    HW238274   3.562   3.973   3.873  0.2166 -0.1536 -0.2578
 8938SOL     OW38275   1.710   3.306   3.371  0.5049 -1.2995 -0.2188
 8938SOL    HW138276   1.647   3.248   3.329 -0.9158  1.3298 -1.7637
 8938SOL    HW238277   1.741   3.345   3.289  1.6776  0.6950  1.1669
 8939SOL     OW38278   4.214   3.626   2.728  0.2003  0.7404  0.1821
 8939SOL    HW138279   4.158   3.569   2.675 -1.1941  2.5146 -0.2455
 8939SOL    HW238280   4.184   3.612   2.818  1.2730  0.6701  0.5255
 8940SOL     OW38281   0.900   2.369  15.791  0.3316 -0.8067  0.5485
 8940SOL    HW138282   0.910   2.416  15.708 -1.3981  1.0357  1.3757
 8940SOL    HW238283   0.982   2.321  15.791  1.0197  0.3693  0.8083
 8941SOL     OW38284   3.333   0.728  12.474  0.6164 -0.5552 -0.6718
 8941SOL    HW138285   3.402   0.673  12.513  0.0740 -1.1647 -0.5722
 8941SOL    HW238286   3.275   0.753  12.546  0.6492 -0.8727 -0.5321
 8942SOL     OW38287   4.028   4.453   2.489  0.6824  0.0340  0.1246
 8942SOL    HW138288   3.952   4.500   2.524  0.6462  0.5987 -0.7074
 8942SOL    HW238289   4.096   4.491   2.544  1.3352 -2.4441  0.9959
 8943SOL     OW38290   2.321   4.523   5.887 -0.3627 -0.7780 -0.2504
 8943SOL    HW138291   2.245   4.480   5.926  0.5673 -2.3817 -0.2295
 8943SOL    HW238292   2.388   4.504   5.952 -3.3571 -0.0232  3.0674
 8944SOL     OW38293   3.964   3.663   3.382 -0.1943  0.1024 -0.2380
 8944SOL    HW138294   3.986   3.746   3.339 -0.9976  0.2740 -0.3306
 8944SOL    HW238295   3.984   3.595   3.317 -0.5864  0.8132 -1.1087
 8945SOL     OW38296   1.718   0.667   1.005 -0.0658  0.1801  0.6991
 8945SOL    HW138297   1.634   0.671   0.959  1.3502  0.7334 -1.8272
 8945SOL    HW238298   1.712   0.586   1.056 -2.0431  0.8128  1.4810
 8946SOL     OW38299   3.885   1.981   8.159 -0.0490  0.1761  0.5183
 8946SOL    HW138300   3.803   1.934   8.176 -1.1544  1.8337 -0.3101
 8946SOL    HW238301   3.889   2.034   8.238  1.5297  0.5502  0.1736
 8947SOL     OW38302   0.444   1.860   8.212  0.0561  0.0213 -0.0660
 8947SOL    HW138303   0.468   1.909   8.291  0.5156  0.3540 -0.4117
 8947SOL    HW238304   0.532   1.848   8.174  0.2941 -0.3973  0.6076
 8948SOL     OW38305   0.017   3.745   6.514  0.0539  0.3079 -0.2728
 8948SOL    HW138306   4.687   3.718   6.440 -1.5374  0.7249  0.7523
 8948SOL    HW238307   0.099   3.763   6.468  2.2894 -0.0825  3.5481
 8949SOL     OW38308   4.446   1.596   6.528 -0.3356  0.1574  0.5024
 8949SOL    HW138309   4.527   1.594   6.578  1.1811 -0.6411 -1.9543
 8949SOL    HW238310   4.384   1.584   6.600 -0.4830 -1.8016  0.0592
 8950SOL     OW38311   2.019   2.502   6.846 -0.1302  0.2651 -0.0591
 8950SOL    HW138312   2.044   2.409   6.849  1.2199  0.6929  1.7975
 8950SOL    HW238313   1.961   2.514   6.920  1.6702 -0.5470  1.4762
 8951SOL     OW38314   3.517   0.752   6.184 -0.0052  0.0193  0.5266
 8951SOL    HW138315   3.572   0.751   6.262 -1.4352  1.4132  1.5454
 8951SOL    HW238316   3.483   0.842   6.184 -1.6054 -0.5949  2.3237
 8952SOL     OW38317   4.637   2.929   4.742 -0.5132 -0.2032 -0.2093
 8952SOL    HW138318   4.567   2.863   4.742 -1.3232  0.6637  0.1235
 8952SOL    HW238319   4.647   2.938   4.647  2.0520 -0.8618 -0.0204
 8953SOL     OW38320   2.610   0.589  11.941  0.1125 -0.0964  0.1634
 8953SOL    HW138321   2.594   0.656  11.875  0.3079  0.8630  1.0922
 8953SOL    HW238322   2.534   0.531  11.933  0.4626 -0.4766 -0.4071
 8954SOL     OW38323   1.859   3.110   3.070 -0.0694 -0.0245  0.3444
 8954SOL    HW138324   1.949   3.079   3.061  0.0023  0.1558  0.4462
 8954SOL    HW238325   1.834   3.066   3.151  0.3936 -0.0817  0.4561
 8955SOL     OW38326   3.215   2.221  10.657  0.4093 -0.4089 -0.1087
 8955SOL    HW138327   3.240   2.313  10.645 -0.3819 -0.2198 -0.3208
 8955SOL    HW238328   3.136   2.215  10.604  1.1315  1.3390 -1.3762
 8956SOL     OW38329   0.169   2.948   4.460 -0.1689 -0.1530  0.6223
 8956SOL    HW138330   0.246   2.899   4.488 -0.9478 -0.6716  1.8492
 8956SOL    HW238331   0.159   3.018   4.525 -3.8325  0.4143 -0.5396
 8957SOL     OW38332   2.584   0.095   9.156 -0.4748  0.0622  0.1363
 8957SOL    HW138333   2.558   0.145   9.234  0.8172  1.2521 -0.1883
 8957SOL    HW238334   2.673   0.070   9.181 -0.0039 -0.4393 -2.0347
 8958SOL     OW38335   4.053   0.399   8.897  0.4322  0.2402 -0.7335
 8958SOL    HW138336   4.012   0.363   8.818 -1.3673 -0.4291  0.5112
 8958SOL    HW238337   3.984   0.423   8.959  0.2887  0.0907 -0.8332
 8959SOL     OW38338   2.133   0.159  12.425  0.3313 -0.5082 -0.4170
 8959SOL    HW138339   2.202   0.187  12.486  0.1971 -0.8025 -0.1297
 8959SOL    HW238340   2.133   0.064  12.431 -1.7267 -0.4553  0.4789
 8960SOL     OW38341   2.166   2.748   7.596  0.3130  0.5731  0.5698
 8960SOL    HW138342   2.143   2.827   7.547  0.5733 -0.4422 -1.1834
 8960SOL    HW238343   2.118   2.758   7.679  1.0528  0.1361  1.0475
 8961SOL     OW38344   2.761   1.586   5.657 -0.0995  0.9480  0.4542
 8961SOL    HW138345   2.694   1.549   5.600 -0.5100  0.7213  1.0851
 8961SOL    HW238346   2.825   1.620   5.595  0.9012 -1.8872 -0.0696
 8962SOL     OW38347   1.848   3.101  11.223  0.0393 -0.2615 -0.0008
 8962SOL    HW138348   1.932   3.060  11.202  0.1341  0.0650 -0.2711
 8962SOL    HW238349   1.832   3.126  11.132  1.7813 -0.3644 -0.3340
 8963SOL     OW38350   4.137   1.253   8.402  0.1205  0.6102 -0.1990
 8963SOL    HW138351   4.074   1.323   8.382 -0.1948  0.2641 -0.4374
 8963SOL    HW238352   4.218   1.284   8.363  0.4507  0.3839  0.3172
 8964SOL     OW38353   0.533   0.837   8.622 -0.5220  0.0536 -0.4392
 8964SOL    HW138354   0.598   0.802   8.683 -1.4784 -1.0841 -0.0837
 8964SOL    HW238355   0.496   0.760   8.579 -0.0228 -0.6439  0.3729
 8965SOL     OW38356   4.498   1.167  15.324  0.3999  0.1579  0.1051
 8965SOL    HW138357   4.440   1.160  15.249  0.9760  0.6738 -0.3950
 8965SOL    HW238358   4.439   1.228  15.367  0.3718  0.3766 -0.2459
 8966SOL     OW38359   1.360   0.716   6.410  0.1054  0.2442 -0.0075
 8966SOL    HW138360   1.383   0.660   6.484  0.8189 -2.0204 -1.9324
 8966SOL    HW238361   1.428   0.690   6.347  0.7411  1.4119  0.2115
 8967SOL     OW38362   4.689   2.222  14.250  0.2433 -0.4680 -0.4122
 8967SOL    HW138363   4.676   2.293  14.312  3.7185 -1.5832  1.6195
 8967SOL    HW238364   4.655   2.142  14.289  3.8508 -2.3509 -1.0643
 8968SOL     OW38365   4.334   3.574   5.205 -0.9134 -0.4520  0.2836
 8968SOL    HW138366   4.266   3.559   5.271 -2.5523  0.1909 -1.2521
 8968SOL    HW238367   4.413   3.593   5.255  0.0164  1.4925 -1.9009
 8969SOL     OW38368   1.341   0.019   3.168  0.7135 -0.0325 -0.8344
 8969SOL    HW138369   1.368   4.653   3.165 -1.6054 -0.6903 -2.1198
 8969SOL    HW238370   1.402   0.054   3.233 -0.4873 -0.1480  0.3677
 8970SOL     OW38371   4.654   4.200   6.348 -0.0000 -0.5489 -0.0428
 8970SOL    HW138372   4.661   4.166   6.437 -2.4551 -0.4177  0.1884
 8970SOL    HW238373   0.016   4.241   6.343 -0.0195 -0.2997  1.6314
 8971SOL     OW38374   1.820   0.397   2.592  1.3986 -0.1824 -0.1268
 8971SOL    HW138375   1.844   0.392   2.500 -2.9033  1.3284 -1.3665
 8971SOL    HW238376   1.802   0.491   2.602  0.7674 -0.6325  3.0520
 8972SOL     OW38377   3.345   4.556   5.239 -0.1750 -0.6127  0.7529
 8972SOL    HW138378   3.281   4.626   5.249  0.3696  0.3783 -2.6953
 8972SOL    HW238379   3.341   4.513   5.324 -0.5585  0.1911  1.1432
 8973SOL     OW38380   2.621   2.794   3.543 -0.2500  0.4783  0.4743
 8973SOL    HW138381   2.677   2.717   3.557 -2.5234 -1.6032 -1.9611
 8973SOL    HW238382   2.565   2.769   3.469 -0.4953 -0.7368  1.0813
 8974SOL     OW38383   2.609   0.090   7.699 -0.3662  0.1884  0.5315
 8974SOL    HW138384   2.660   0.047   7.768 -1.3769  0.2262  1.2984
 8974SOL    HW238385   2.560   0.012   7.671  1.1838 -0.4368 -0.4338
 8975SOL     OW38386   4.461   2.060   2.653 -0.1801 -0.7706 -0.0153
 8975SOL    HW138387   4.517   1.986   2.676 -1.8046 -0.9952  3.2691
 8975SOL    HW238388   4.456   2.117   2.729  0.3074 -0.7764  0.0199
 8976SOL     OW38389   3.420   2.543   5.884  0.0983  0.4109 -0.1376
 8976SOL    HW138390   3.409   2.449   5.876  2.9768  0.0793 -0.1885
 8976SOL    HW238391   3.502   2.557   5.931  0.2180  0.7284 -0.4440
 8977SOL     OW38392   2.139   1.085   8.712 -0.1108  0.2502 -0.2948
 8977SOL    HW138393   2.091   1.058   8.791 -1.0711  0.8394 -0.6695
 8977SOL    HW238394   2.124   1.180   8.710  0.0567  0.2716 -0.5452
 8978SOL     OW38395   0.390   4.657   6.169  0.1625 -0.4151  0.9023
 8978SOL    HW138396   0.419   4.623   6.084  2.8429  0.8239  1.3468
 8978SOL    HW238397   0.433   0.017   6.173 -0.6828  0.1341 -1.6140
 8979SOL     OW38398   4.230   0.320   5.481 -0.4062  0.6894  0.1851
 8979SOL    HW138399   4.197   0.393   5.534 -0.4747 -0.6541  1.9746
 8979SOL    HW238400   4.182   0.338   5.400  1.3251  1.3768 -0.6894
 8980SOL     OW38401   4.145   3.170   3.181 -0.1599 -0.1335 -0.0842
 8980SOL    HW138402   4.105   3.135   3.101 -2.6919  1.1647  0.6178
 8980SOL    HW238403   4.104   3.115   3.248  1.3594 -0.2469  0.7523
 8981SOL     OW38404   0.799   3.493   8.054  0.0781 -0.0691 -1.1670
 8981SOL    HW138405   0.799   3.542   8.136  2.1365  2.5343 -2.6888
 8981SOL    HW238406   0.803   3.404   8.089 -1.7310  0.4532  0.3194
 8982SOL     OW38407   4.662   0.764   5.915  0.0226 -0.0375 -0.2972
 8982SOL    HW138408   4.716   0.831   5.873 -1.0594  0.9516 -0.1277
 8982SOL    HW238409   4.713   0.731   5.989 -0.3306  2.6910  1.1977
 8983SOL     OW38410   2.258   2.989   5.885 -0.4540 -0.1499  0.0220
 8983SOL    HW138411   2.354   2.988   5.891 -0.4869 -1.3184  0.4324
 8983SOL    HW238412   2.240   2.997   5.792 -0.7542  3.4532  0.4164
 8984SOL     OW38413   3.805   2.332   3.622  0.7661  0.3434 -0.0164
 8984SOL    HW138414   3.879   2.370   3.667  1.9851 -1.3905 -0.5404
 8984SOL    HW238415   3.795   2.259   3.683  1.1616  1.0696  0.9062
 8985SOL     OW38416   0.597   1.502   6.053 -0.3798 -0.3869 -0.5452
 8985SOL    HW138417   0.664   1.556   6.094 -1.0598 -1.4456  2.0392
 8985SOL    HW238418   0.644   1.421   6.032  1.2161  0.1015  1.0810
 8986SOL     OW38419   4.010   0.121   4.788  0.4007  0.5794  0.0818
 8986SOL    HW138420   4.059   0.094   4.710 -0.6170  0.1679 -0.4095
 8986SOL    HW238421   3.994   0.214   4.771 -1.4806  0.2791  0.2817
 8987SOL     OW38422   0.160   0.108  16.822 -0.1876  0.1820  0.1274
 8987SOL    HW138423   0.134   0.018  16.808  0.9110  0.0263 -1.0009
 8987SOL    HW238424   0.135   0.118  16.914  3.1082  0.8862  0.9523
 8988SOL     OW38425   3.859   2.445   7.697 -0.1343  0.7472  0.3122
 8988SOL    HW138426   3.916   2.461   7.621  0.5033  2.4038  1.1342
 8988SOL    HW238427   3.799   2.381   7.657 -0.0255  0.9691 -0.2066
 8989SOL     OW38428   1.923   3.657  12.061 -0.2595  0.2300  0.1028
 8989SOL    HW138429   1.881   3.574  12.039  0.1289  0.0740 -0.0373
 8989SOL    HW238430   1.897   3.658  12.153  2.5642 -0.4424  0.8937
 8990SOL     OW38431   0.907   2.878  17.217 -0.0367  0.1679  0.2037
 8990SOL    HW138432   0.818   2.893  17.184 -0.1956 -1.5324 -0.1267
 8990SOL    HW238433   0.941   2.968  17.220 -1.3493  0.5995  2.7602
 8991SOL     OW38434   0.305   3.281  13.479  0.7580 -0.1094 -0.2824
 8991SOL    HW138435   0.311   3.371  13.511 -2.0429  0.7569 -2.2497
 8991SOL    HW238436   0.340   3.239  13.557  0.6544  0.4239  0.0516
 8992SOL     OW38437   4.394   4.351   4.422  0.9231 -0.1757 -0.0106
 8992SOL    HW138438   4.399   4.259   4.397  1.5043 -0.3801  0.8269
 8992SOL    HW238439   4.349   4.391   4.348 -0.2050  0.2347  0.8787
 8993SOL     OW38440   4.677   4.194   7.803  0.1033  0.0893 -0.0381
 8993SOL    HW138441   4.708   4.263   7.861 -1.5143 -1.0263  2.1570
 8993SOL    HW238442   0.003   4.119   7.832  0.1779  0.5167  0.8993
 8994SOL     OW38443   3.241   4.022   5.335 -0.3972  0.5179  0.5921
 8994SOL    HW138444   3.226   3.942   5.387  0.1836  0.6600  0.9822
 8994SOL    HW238445   3.242   4.092   5.400 -0.4303  1.5350 -0.5239
 8995SOL     OW38446   0.375   1.605   8.516  0.1891  0.0989  0.6080
 8995SOL    HW138447   0.332   1.520   8.513  1.4635 -0.5706  1.0865
 8995SOL    HW238448   0.455   1.599   8.463 -0.5880 -1.1057 -0.4225
 8996SOL     OW38449   3.960   1.304  11.368 -0.2015  0.7330 -0.2143
 8996SOL    HW138450   3.934   1.220  11.331  1.8652  1.3351 -3.0240
 8996SOL    HW238451   3.928   1.362  11.299 -2.1313  2.8649  2.4641
 8997SOL     OW38452   4.393   3.710   4.254 -0.0908  0.3136  0.0615
 8997SOL    HW138453   4.452   3.639   4.230 -1.1388  0.3196 -2.5054
 8997SOL    HW238454   4.445   3.790   4.243 -0.2613  0.4953  0.5660
 8998SOL     OW38455   3.100   3.919   2.878  0.0603 -0.6755  0.2094
 8998SOL    HW138456   3.014   3.889   2.850 -0.4538  2.6839 -1.7469
 8998SOL    HW238457   3.151   3.912   2.798  0.3809 -2.3054  0.5459
 8999SOL     OW38458   4.650   0.639  10.776  0.3557 -0.6109  0.3873
 8999SOL    HW138459   4.594   0.674  10.846 -0.4523 -1.1350  0.0144
 8999SOL    HW238460   4.669   0.721  10.730  2.9709 -0.6512  1.3970
 9000SOL     OW38461   1.707   1.350   7.055  0.2760 -0.3924 -0.2040
 9000SOL    HW138462   1.690   1.441   7.079 -2.2815 -0.8809 -0.0933
 9000SOL    HW238463   1.797   1.356   7.025 -0.1949  1.9323 -1.1912
 9001SOL     OW38464   2.738   4.182  16.014  0.3759  0.1934  0.1977
 9001SOL    HW138465   2.812   4.200  16.072  0.0678  0.3846  0.5355
 9001SOL    HW238466   2.738   4.087  16.012  1.2662  0.2206 -1.1636
 9002SOL     OW38467   3.642   1.177   7.517 -0.4651 -0.3381 -0.1026
 9002SOL    HW138468   3.655   1.126   7.437  1.7017 -1.4698  0.9940
 9002SOL    HW238469   3.735   1.191   7.531 -0.3539 -1.0369 -0.1479
 9003SOL     OW38470   1.881   2.501   5.294  0.2756  0.4877 -0.0692
 9003SOL    HW138471   1.855   2.568   5.231  2.4687  1.7809  0.4347
 9003SOL    HW238472   1.918   2.429   5.243 -1.8675 -2.3816  2.3597
 9004SOL     OW38473   0.224   4.492   9.824  0.2522 -0.2584 -0.0415
 9004SOL    HW138474   0.295   4.442   9.866 -0.0460  0.3700  1.2023
 9004SOL    HW238475   0.268   4.577   9.817 -0.8689  0.3986  0.8932
 9005SOL     OW38476   3.238   0.997   4.105  0.4866 -0.0097  0.8621
 9005SOL    HW138477   3.150   1.002   4.141  0.7038  1.6837  1.1490
 9005SOL    HW238478   3.219   1.039   4.021  0.0989 -3.8451 -0.9488
 9006SOL     OW38479   2.862   3.092  11.391 -0.0830  0.0628 -0.4297
 9006SOL    HW138480   2.875   2.997  11.402 -1.1116  0.0704  0.8280
 9006SOL    HW238481   2.856   3.097  11.295  0.1591 -0.5519 -0.4842
 9007SOL     OW38482   1.348   3.847   3.929  0.0017  0.2776 -0.6893
 9007SOL    HW138483   1.366   3.756   3.908 -2.2013 -0.5486  0.9449
 9007SOL    HW238484   1.325   3.887   3.845 -0.9660 -2.1533 -1.5710
 9008SOL     OW38485   3.943   2.745   2.725  0.0735  0.3586  0.0523
 9008SOL    HW138486   3.991   2.759   2.643  1.3235  4.2228  1.4468
 9008SOL    HW238487   3.868   2.699   2.687  1.2483 -0.5204 -1.2367
 9009SOL     OW38488   1.054   0.526   4.094  0.5030  0.1773  0.3889
 9009SOL    HW138489   1.055   0.485   4.007 -0.3875 -1.8969  1.3557
 9009SOL    HW238490   1.082   0.615   4.073 -2.7552  1.2090  0.3843
 9010SOL     OW38491   2.593   3.998   9.040  0.2136  0.0018  0.0338
 9010SOL    HW138492   2.630   3.910   9.029 -0.2520 -0.2905  0.8046
 9010SOL    HW238493   2.668   4.040   9.082 -1.2788  1.2582  1.4314
 9011SOL     OW38494   1.932   1.694  17.503  0.2785  0.1907 -0.4449
 9011SOL    HW138495   1.958   1.701  17.595  0.5465  2.0016 -0.6710
 9011SOL    HW238496   1.875   1.770  17.491 -0.0721  0.1064  0.7118
 9012SOL     OW38497   0.323   0.712  17.636 -0.0523  0.3867 -0.0535
 9012SOL    HW138498   0.397   0.767  17.662  2.6943 -2.9633 -0.7211
 9012SOL    HW238499   0.329   0.738  17.544  0.2579 -1.4051 -0.5322
 9013SOL     OW38500   0.901   0.756   1.893 -0.4909  0.0655  0.0306
 9013SOL    HW138501   0.869   0.688   1.952 -1.9258 -0.4637 -1.3793
 9013SOL    HW238502   0.994   0.760   1.918  0.3421 -0.2510 -2.9740
 9014SOL     OW38503   4.680   1.625  11.212  0.0125  0.2560 -0.6810
 9014SOL    HW138504   0.035   1.674  11.231 -1.9801  2.8584  0.9536
 9014SOL    HW238505   4.718   1.536  11.213 -0.4821  0.0577  0.7531
 9015SOL     OW38506   1.704   3.174   4.354 -0.1469 -0.4168 -0.3165
 9015SOL    HW138507   1.729   3.150   4.443 -0.5557  0.2495 -0.0262
 9015SOL    HW238508   1.673   3.263   4.371 -1.3130 -0.7867 -0.5394
 9016SOL     OW38509   0.673   0.701   7.181 -0.5071  0.0662  0.1881
 9016SOL    HW138510   0.656   0.607   7.179  1.6014 -0.3045 -0.4924
 9016SOL    HW238511   0.615   0.732   7.251  0.0724 -1.5917  1.3975
 9017SOL     OW38512   2.574   3.375   5.778 -0.4171  0.0889 -0.0895
 9017SOL    HW138513   2.503   3.314   5.761  1.0218 -2.2297  2.2407
 9017SOL    HW238514   2.588   3.412   5.690  1.0850 -0.8108 -0.2224
 9018SOL     OW38515   0.291   2.163   8.113  0.1891  0.0417 -0.3368
 9018SOL    HW138516   0.270   2.184   8.204 -2.6143 -1.6305 -0.5975
 9018SOL    HW238517   0.234   2.087   8.102 -0.9807  0.7071  1.0797
 9019SOL     OW38518   4.539   0.115   8.342 -0.4335 -0.3028  0.0805
 9019SOL    HW138519   4.532   0.173   8.266  0.2922 -0.9423 -0.4727
 9019SOL    HW238520   4.604   0.053   8.308 -0.1072 -1.0877  2.1225
 9020SOL     OW38521   2.079   3.907  10.997  0.1258  0.4012  0.7289
 9020SOL    HW138522   2.157   3.855  11.013 -0.7919 -0.4263  2.4800
 9020SOL    HW238523   2.069   3.909  10.902  2.1845  1.6628  0.5398
 9021SOL     OW38524   0.282   4.366   3.756  0.1539 -0.2894  0.3052
 9021SOL    HW138525   0.238   4.426   3.695  1.4572  0.7392  0.3734
 9021SOL    HW238526   0.346   4.315   3.705  1.2051  2.6879 -1.3779
 9022SOL     OW38527   0.957   3.439   3.645 -0.2286  0.3475  0.0556
 9022SOL    HW138528   0.990   3.369   3.589 -2.8961 -1.4681  0.7945
 9022SOL    HW238529   0.977   3.509   3.583 -0.8724 -0.6767 -1.2971
 9023SOL     OW38530   3.189   0.979  12.945  0.6786  0.5633  0.2651
 9023SOL    HW138531   3.139   1.046  12.990 -0.4613 -0.5379  0.6295
 9023SOL    HW238532   3.170   0.904  13.001 -0.1934  0.3033 -0.3882
 9024SOL     OW38533   0.422   2.763   0.386  0.3353 -0.1394 -0.0056
 9024SOL    HW138534   0.503   2.719   0.410  1.0801  1.5089  0.5345
 9024SOL    HW238535   0.366   2.688   0.367 -1.5667  0.5822  2.7582
 9025SOL     OW38536   0.847   2.652   1.411 -0.8228 -0.5989  0.0758
 9025SOL    HW138537   0.811   2.721   1.354  0.2963  2.4274  2.9979
 9025SOL    HW238538   0.773   2.635   1.470  0.4224 -0.3772  1.6727
 9026SOL     OW38539   3.100   1.284   4.069 -0.1588 -0.3170 -0.5567
 9026SOL    HW138540   3.176   1.337   4.096  0.5675 -0.2718 -2.6835
 9026SOL    HW238541   3.138   1.246   3.990  0.0791 -2.3089  0.5030
 9027SOL     OW38542   2.278   3.718   3.384 -0.0481  0.1232  0.4441
 9027SOL    HW138543   2.345   3.770   3.428 -0.0010 -1.2392  2.0080
 9027SOL    HW238544   2.270   3.783   3.315 -1.9365 -0.6642 -0.0875
 9028SOL     OW38545   0.015   3.331   3.388 -0.2474  0.2019  0.2189
 9028SOL    HW138546   0.077   3.320   3.315 -0.8860 -2.0754  0.0047
 9028SOL    HW238547   0.024   3.255   3.446  2.9296 -0.5912 -1.2620
 9029SOL     OW38548   1.609   1.182   9.674  0.1033 -0.0391 -0.0761
 9029SOL    HW138549   1.518   1.173   9.644 -0.1578  1.9437  0.1293
 9029SOL    HW238550   1.630   1.268   9.638  0.5818 -0.8416 -1.7182
 9030SOL     OW38551   3.259   2.640   7.061  0.6601  0.3657  0.0444
 9030SOL    HW138552   3.281   2.596   6.979  1.4544  2.4366 -0.8619
 9030SOL    HW238553   3.299   2.727   7.052 -0.4642  0.9415  0.6708
 9031SOL     OW38554   0.177   1.573   3.853  0.3401  0.5202  0.5188
 9031SOL    HW138555   0.225   1.499   3.816 -3.3591 -1.9039  0.5259
 9031SOL    HW238556   0.092   1.563   3.809  1.6255 -0.3460 -1.7658
 9032SOL     OW38557   3.128   4.056  15.275  0.6781  0.4742 -0.1895
 9032SOL    HW138558   3.084   4.101  15.347 -1.2373 -2.2422  0.3517
 9032SOL    HW238559   3.051   4.003  15.254  0.0086  0.6833  1.6947
 9033SOL     OW38560   2.015   2.401  13.005  0.5124 -0.2248  0.2464
 9033SOL    HW138561   1.930   2.435  13.033  1.0761  1.8867 -0.5697
 9033SOL    HW238562   2.077   2.474  13.018  1.4959 -1.0620  0.2743
 9034SOL     OW38563   4.128   0.405   6.881 -0.0943  0.1344  0.2612
 9034SOL    HW138564   4.129   0.444   6.968  0.4203 -0.6873  0.6199
 9034SOL    HW238565   4.083   0.474   6.832 -2.3987 -0.9173  0.8749
 9035SOL     OW38566   2.150   3.746   9.208 -0.1029  0.4657  0.5718
 9035SOL    HW138567   2.202   3.821   9.178 -2.0628  1.5370 -0.1632
 9035SOL    HW238568   2.149   3.757   9.304 -0.9932  0.2166  0.5939
 9036SOL     OW38569   0.083   4.331  15.261 -0.2965  0.2810 -0.7000
 9036SOL    HW138570   0.066   4.411  15.310  2.0708 -0.7289  1.7453
 9036SOL    HW238571   0.067   4.262  15.325  0.4418  0.7083 -0.0507
 9037SOL     OW38572   0.207   0.312   2.428 -1.0050 -0.4036  0.5310
 9037SOL    HW138573   0.172   0.325   2.516 -0.5880  0.8447  0.5002
 9037SOL    HW238574   0.179   0.392   2.383 -1.0832  0.3340  1.8849
 9038SOL     OW38575   0.773   2.699   8.924 -0.1787  0.3978 -0.8962
 9038SOL    HW138576   0.687   2.709   8.963 -0.3232  0.0161 -1.1138
 9038SOL    HW238577   0.805   2.789   8.915  1.2721 -0.0513 -0.3027
 9039SOL     OW38578   1.845   3.534   5.088  0.1117  0.0798 -0.4192
 9039SOL    HW138579   1.884   3.495   5.010  0.3587 -2.7145  1.0902
 9039SOL    HW238580   1.908   3.603   5.106 -1.8204  1.6822  0.1917
 9040SOL     OW38581   0.561   2.507   3.196 -0.1927 -0.4521  0.1414
 9040SOL    HW138582   0.472   2.543   3.195 -0.1896 -0.4291  0.9107
 9040SOL    HW238583   0.603   2.580   3.241 -0.5021 -0.9130  1.1851
 9041SOL     OW38584   4.108   3.966   1.796  0.5102  0.1696  0.0686
 9041SOL    HW138585   4.088   3.916   1.716 -0.5614  0.8552 -0.1033
 9041SOL    HW238586   4.092   3.896   1.858 -1.0419 -1.5698 -2.2767
 9042SOL     OW38587   3.249   3.616   6.367  0.2820 -0.3296 -0.1742
 9042SOL    HW138588   3.311   3.647   6.433  2.4237 -2.7088 -1.1036
 9042SOL    HW238589   3.271   3.523   6.362 -0.4983 -0.4766 -0.8526
 9043SOL     OW38590   4.056   4.107   5.148  0.1373  0.8238 -0.0334
 9043SOL    HW138591   4.110   4.178   5.184  1.2103 -0.7628  1.4754
 9043SOL    HW238592   3.984   4.114   5.210  0.5502  2.3618  0.2868
 9044SOL     OW38593   1.240   2.142  14.723 -0.0183 -0.3271 -0.1972
 9044SOL    HW138594   1.257   2.200  14.648 -0.6683 -0.7197 -0.6424
 9044SOL    HW238595   1.243   2.204  14.795 -1.2288 -0.6673  0.1504
 9045SOL     OW38596   3.981   2.073  17.211 -0.1524  0.1263  0.2985
 9045SOL    HW138597   4.018   1.994  17.173 -1.1061  0.5858 -1.5737
 9045SOL    HW238598   3.893   2.046  17.237 -1.0442 -0.7860 -3.6697
 9046SOL     OW38599   3.491   4.373   9.295  0.0919 -0.0368  0.2086
 9046SOL    HW138600   3.433   4.419   9.356  0.5102  0.7381  0.0211
 9046SOL    HW238601   3.575   4.410   9.322  0.7493 -1.8474  0.6552
 9047SOL     OW38602   2.762   4.714  11.255 -0.5042  0.0691 -0.1237
 9047SOL    HW138603   2.736   0.079  11.273 -1.3368 -0.3473  0.7814
 9047SOL    HW238604   2.828   4.722  11.186  0.5634 -0.1091  0.8794
 9048SOL     OW38605   1.373   1.437   3.237 -0.4330  1.0565 -0.0841
 9048SOL    HW138606   1.322   1.391   3.304  2.0566 -1.1237  0.2574
 9048SOL    HW238607   1.349   1.387   3.159  1.9506 -1.7807  1.0272
 9049SOL     OW38608   3.577   1.099   5.537  0.0549  0.2453  0.3233
 9049SOL    HW138609   3.491   1.062   5.516  0.2730  0.3800 -0.8251
 9049SOL    HW238610   3.598   1.157   5.464 -1.9790  0.2616 -0.2579
 9050SOL     OW38611   4.288   2.370   6.906 -0.3519  0.0615 -0.2914
 9050SOL    HW138612   4.355   2.337   6.965  0.4429  1.5616 -0.3454
 9050SOL    HW238613   4.273   2.297   6.846 -0.9492  1.7395 -2.1751
 9051SOL     OW38614   0.343   4.468   3.487  0.3095 -0.2341  0.1314
 9051SOL    HW138615   0.434   4.466   3.457  0.2774 -1.8240  0.1339
 9051SOL    HW238616   0.294   4.470   3.406 -2.3760 -0.2543  1.7576
 9052SOL     OW38617   0.744   3.367   0.308  0.2294  0.3516 -0.5435
 9052SOL    HW138618   0.684   3.399   0.241 -0.7116  2.9949  1.5951
 9052SOL    HW238619   0.695   3.389   0.387 -1.4878 -3.1150 -0.6189
 9053SOL     OW38620   1.892   0.368   5.359 -0.1363  0.2990  0.1120
 9053SOL    HW138621   1.964   0.427   5.382 -1.0775  0.9519  1.4443
 9053SOL    HW238622   1.890   0.394   5.267 -2.3719  0.0869  0.0792
 9054SOL     OW38623   4.691   3.659   4.469 -0.3237  0.5388 -0.2780
 9054SOL    HW138624   0.034   3.610   4.423  0.5929  1.8205 -0.2697
 9054SOL    HW238625   0.004   3.745   4.484  0.2845 -0.0790  1.7608
 9055SOL     OW38626   3.996   1.837   9.352  0.5751 -0.4559 -0.3648
 9055SOL    HW138627   3.928   1.782   9.391  1.5150 -0.5974  1.0832
 9055SOL    HW238628   4.071   1.778   9.349  0.3612 -0.7232 -0.4964
 9056SOL     OW38629   2.645   0.704   3.021 -0.9602 -0.6011 -0.5100
 9056SOL    HW138630   2.560   0.666   2.997 -0.6386 -1.7557  0.1814
 9056SOL    HW238631   2.613   0.794   3.014  3.6254  1.0441 -0.5586
 9057SOL     OW38632   0.995   3.954   5.258  0.5065  0.0695  0.1181
 9057SOL    HW138633   1.087   3.927   5.257  0.3440 -0.5729  2.6046
 9057SOL    HW238634   0.992   4.025   5.194 -0.0651 -0.3492 -0.3247
 9058SOL     OW38635   3.009   3.158   3.610 -0.3540 -0.4975 -0.1454
 9058SOL    HW138636   3.063   3.083   3.584  0.1297 -0.4044  0.6152
 9058SOL    HW238637   2.933   3.114   3.648 -0.5445 -1.7539 -1.9572
 9059SOL     OW38638   2.525   2.509   0.686 -0.0280  0.5797  0.0346
 9059SOL    HW138639   2.442   2.529   0.642 -1.3419 -0.4533  2.0456
 9059SOL    HW238640   2.596   2.551   0.638  1.3015 -1.5597  0.1035
 9060SOL     OW38641   0.939   4.447  16.214 -0.2467 -0.2188 -0.0091
 9060SOL    HW138642   0.886   4.375  16.179  0.0721 -0.1275 -0.6776
 9060SOL    HW238643   0.943   4.512  16.144 -1.1169 -0.8356 -0.6430
 9061SOL     OW38644   1.156   3.537   3.406 -1.0005 -0.1419  0.6386
 9061SOL    HW138645   1.141   3.572   3.494 -1.7345  1.9066 -0.3075
 9061SOL    HW238646   1.210   3.463   3.434  0.7133 -0.5438 -3.7554
 9062SOL     OW38647   3.083   1.615   5.379 -0.4762 -0.0787 -0.0423
 9062SOL    HW138648   3.142   1.647   5.447 -0.4330  2.4998 -1.3221
 9062SOL    HW238649   3.068   1.523   5.402  0.1111 -0.6032 -1.7269
 9063SOL     OW38650   2.319   3.874   2.125  0.3032  0.8276  0.9884
 9063SOL    HW138651   2.277   3.793   2.098 -1.3907  1.5264  1.5205
 9063SOL    HW238652   2.251   3.941   2.117 -0.8892 -0.6948 -1.4284
 9064SOL     OW38653   0.676   2.338  16.858 -0.1552  0.2014  0.8855
 9064SOL    HW138654   0.618   2.412  16.842  0.2933  0.4776  0.5298
 9064SOL    HW238655   0.757   2.389  16.868 -0.7039  1.0334  1.0201
 9065SOL     OW38656   4.666   0.015  13.372  0.2983  0.2506 -0.4783
 9065SOL    HW138657   0.001   0.078  13.333  1.5042 -1.7238 -1.8572
 9065SOL    HW238658   4.717   4.711  13.448 -1.2997  0.3453  0.6303
 9066SOL     OW38659   0.638   1.652   7.375 -0.0966 -0.3900  0.2270
 9066SOL    HW138660   0.658   1.558   7.366  1.9295 -0.0535  1.2363
 9066SOL    HW238661   0.713   1.695   7.333  0.2126 -0.2935  0.8623
 9067SOL     OW38662   3.420   3.666  17.088  0.3886 -0.1382 -0.2371
 9067SOL    HW138663   3.485   3.689  17.021  0.2166  0.4113 -0.2103
 9067SOL    HW238664   3.427   3.731  17.158  1.6189  1.3411 -1.7333
 9068SOL     OW38665   1.780   2.192   4.142 -0.3198  0.3014 -0.2470
 9068SOL    HW138666   1.765   2.098   4.157  0.3032  0.3041  0.3911
 9068SOL    HW238667   1.865   2.186   4.099  0.8948  2.6358  1.8279
 9069SOL     OW38668   4.209   1.700  11.771  0.3623  0.2811  0.5003
 9069SOL    HW138669   4.281   1.638  11.773 -0.0864 -0.3568 -3.7035
 9069SOL    HW238670   4.196   1.705  11.677 -2.1382  1.3667  0.9056
 9070SOL     OW38671   1.391   4.514  17.392 -0.3098 -0.1136  0.2019
 9070SOL    HW138672   1.364   4.459  17.317  1.9217 -0.2039 -0.5532
 9070SOL    HW238673   1.421   4.599  17.361  0.9713 -0.3989  0.6631
 9071SOL     OW38674   4.254   1.075   2.722  0.2221 -0.2109 -0.3054
 9071SOL    HW138675   4.245   1.169   2.738  0.7568 -0.2217  0.0602
 9071SOL    HW238676   4.289   1.045   2.806 -0.8818 -1.8270 -0.4154
 9072SOL     OW38677   3.938   3.410   5.830 -0.1466  0.0522 -0.2643
 9072SOL    HW138678   3.989   3.438   5.753 -1.8505  0.0645 -1.3930
 9072SOL    HW238679   3.896   3.329   5.801  1.2961 -1.0231  0.6544
 9073SOL     OW38680   4.556   1.411   6.756  0.0597 -0.5959  0.3284
 9073SOL    HW138681   4.523   1.476   6.818 -1.6991 -2.3139  1.1940
 9073SOL    HW238682   4.580   1.351   6.827  0.1443  0.3632  1.1108
 9074SOL     OW38683   2.829   1.188  16.392  0.3614  0.0721 -0.2263
 9074SOL    HW138684   2.776   1.261  16.425  0.3303  1.1849 -2.7959
 9074SOL    HW238685   2.809   1.127  16.464  1.2370 -1.5290 -1.3434
 9075SOL     OW38686   4.630   3.976   9.295  0.0349 -0.3815 -0.1941
 9075SOL    HW138687   4.547   4.007   9.331 -0.0750 -1.5560  0.5487
 9075SOL    HW238688   4.674   4.061   9.305 -1.0952  0.4810 -2.4741
 9076SOL     OW38689   4.396   2.720   1.377  0.1112  0.1329  0.0924
 9076SOL    HW138690   4.309   2.754   1.353 -0.8469 -1.0710  1.8220
 9076SOL    HW238691   4.445   2.798   1.353 -0.2824  1.0368  2.2116
 9077SOL     OW38692   4.684   3.055   4.971  0.5442  0.0138 -0.0967
 9077SOL    HW138693   4.659   3.021   4.885 -0.2556  1.6558 -0.5082
 9077SOL    HW238694   4.600   3.086   5.004  0.4933 -1.6579  1.3479
 9078SOL     OW38695   3.849   3.720   4.806 -0.2224  0.0877 -0.4168
 9078SOL    HW138696   3.883   3.775   4.735  0.2977 -1.0313 -1.0468
 9078SOL    HW238697   3.924   3.705   4.863 -0.9156  1.4439  0.8289
 9079SOL     OW38698   3.386   2.639   2.057 -0.2734 -0.3469  0.1767
 9079SOL    HW138699   3.382   2.664   1.964 -1.6595 -0.1925  0.2895
 9079SOL    HW238700   3.330   2.711   2.087  1.5037  0.8340  0.6702
 9080SOL     OW38701   3.074   4.205   8.555 -0.3139 -0.4202  0.2815
 9080SOL    HW138702   3.140   4.274   8.547 -0.4425  0.0212  2.8748
 9080SOL    HW238703   3.080   4.193   8.650 -0.3600 -0.8090  0.2374
 9081SOL     OW38704   0.682   0.330   2.158 -0.7530  0.9599  0.0170
 9081SOL    HW138705   0.680   0.347   2.253 -0.8620  1.3082 -0.0450
 9081SOL    HW238706   0.616   0.262   2.146  0.6662 -0.1165 -1.6843
 9082SOL     OW38707   3.096   2.485   4.116  0.2203  0.3904 -0.5315
 9082SOL    HW138708   3.029   2.446   4.172  1.5499  0.5578  1.1782
 9082SOL    HW238709   3.152   2.526   4.182 -1.6722  2.8175 -0.4306
 9083SOL     OW38710   3.185   1.126   7.889  0.4478 -0.7710  0.6471
 9083SOL    HW138711   3.117   1.067   7.856 -0.6048  1.3804 -0.9542
 9083SOL    HW238712   3.257   1.063   7.885  0.2127 -0.9467 -0.9091
 9084SOL     OW38713   4.386   1.256   8.733  0.1424  0.2227 -0.1486
 9084SOL    HW138714   4.325   1.182   8.734 -0.9865  1.1531  0.1600
 9084SOL    HW238715   4.454   1.235   8.797  0.8577 -1.5714 -1.4876
 9085SOL     OW38716   3.491   0.150  11.301 -0.9741  0.2399 -0.8067
 9085SOL    HW138717   3.540   0.102  11.234  0.5832 -0.6674  0.9878
 9085SOL    HW238718   3.552   0.153  11.375 -2.9052 -0.8989  0.8234
 9086SOL     OW38719   1.822   0.500   6.527 -0.0816  0.3591  0.0233
 9086SOL    HW138720   1.785   0.453   6.602  0.1901 -0.5039 -0.3788
 9086SOL    HW238721   1.885   0.431   6.503  0.0331 -0.1203  1.7090
 9087SOL     OW38722   4.581   1.295  14.584  0.5738  0.4570 -0.3576
 9087SOL    HW138723   4.609   1.379  14.619  0.9100  0.9821 -1.8944
 9087SOL    HW238724   4.653   1.272  14.525  0.4146 -1.5414  0.2347
 9088SOL     OW38725   3.184   2.861   2.846 -0.2781  0.5536  0.4497
 9088SOL    HW138726   3.140   2.815   2.775  1.2712  0.2118 -0.2810
 9088SOL    HW238727   3.240   2.927   2.804  0.0844  0.3194  0.5709
 9089SOL     OW38728   4.016   4.510  14.970  0.0868  0.3268 -0.4508
 9089SOL    HW138729   3.977   4.423  14.959 -1.5016  1.0844 -0.7628
 9089SOL    HW238730   4.092   4.511  14.911 -1.8588 -2.7607 -3.0289
 9090SOL     OW38731   1.394   2.187  11.438  0.6143  0.1801 -0.0649
 9090SOL    HW138732   1.324   2.179  11.374 -1.0477  3.0159  1.3922
 9090SOL    HW238733   1.396   2.282  11.440 -3.1520  0.2327  1.5284
 9091SOL     OW38734   3.656   4.113   5.044 -0.5662  0.9082  0.7491
 9091SOL    HW138735   3.609   4.047   4.994 -0.3379  1.0224  0.3865
 9091SOL    HW238736   3.579   4.162   5.074 -0.5750  0.8014  0.8975
 9092SOL     OW38737   0.401   3.082  17.307  0.0677  0.0559  0.7700
 9092SOL    HW138738   0.428   3.034  17.385  1.7892 -1.4252 -0.7339
 9092SOL    HW238739   0.425   3.172  17.330  1.2408 -0.6066  2.1154
 9093SOL     OW38740   1.532   3.906   8.782  0.8187  0.4297 -0.0067
 9093SOL    HW138741   1.522   3.840   8.850 -1.3155 -0.7552 -1.4496
 9093SOL    HW238742   1.461   3.877   8.725 -1.5247  2.3791  1.9322
 9094SOL     OW38743   0.269   0.531   0.250  0.4427  0.1377  0.0406
 9094SOL    HW138744   0.247   0.490   0.167 -1.1890 -0.8157  0.9455
 9094SOL    HW238745   0.357   0.498   0.267  0.3225  0.0413  0.4938
 9095SOL     OW38746   1.122   0.524   5.527 -0.1697  0.1364 -1.2510
 9095SOL    HW138747   1.060   0.511   5.598 -0.1775  1.0706 -1.0927
 9095SOL    HW238748   1.067   0.485   5.458 -1.4130  0.8900 -0.6710
 9096SOL     OW38749   2.021   0.900   2.088 -0.3121 -0.0571  0.0735
 9096SOL    HW138750   2.066   0.904   2.173  0.2164 -2.8782 -0.0785
 9096SOL    HW238751   1.938   0.936   2.121  0.8646 -0.5663  3.6730
 9097SOL     OW38752   3.540   2.441   3.022  0.2534 -0.1488 -0.1225
 9097SOL    HW138753   3.636   2.432   3.026  0.4099  2.4565  2.0590
 9097SOL    HW238754   3.507   2.394   3.099  0.5309 -0.5940 -0.2761
 9098SOL     OW38755   4.257   1.151  11.042  0.1672  0.1227  0.1013
 9098SOL    HW138756   4.301   1.115  10.965  0.4713 -0.5347  0.5814
 9098SOL    HW238757   4.187   1.085  11.046 -1.9965  2.3916 -0.3445
 9099SOL     OW38758   0.266   0.460  11.388 -0.1667  0.2225 -0.5744
 9099SOL    HW138759   0.350   0.458  11.342 -0.3076 -0.5595 -0.7882
 9099SOL    HW238760   0.297   0.470  11.478  0.9908  3.5402 -1.3274
 9100SOL     OW38761   2.036   3.060  12.098  0.2268  0.1319  0.3321
 9100SOL    HW138762   1.963   3.109  12.059  0.3087  0.5555  0.7134
 9100SOL    HW238763   2.083   3.030  12.020  0.6280  0.6470  0.3756
 9101SOL     OW38764   3.995   0.429   0.424  0.6791  0.0857 -0.6829
 9101SOL    HW138765   4.074   0.436   0.478 -0.2850 -0.1442  0.7548
 9101SOL    HW238766   4.032   0.419   0.336  0.3228  2.0561 -1.0617
 9102SOL     OW38767   2.603   0.880   2.275 -0.3855 -0.1295 -0.1758
 9102SOL    HW138768   2.619   0.884   2.181 -1.2951  1.0386 -0.2762
 9102SOL    HW238769   2.570   0.792   2.293 -0.1751 -0.2408 -0.3339
 9103SOL     OW38770   3.360   1.879   7.906 -0.2658 -0.4750  0.2026
 9103SOL    HW138771   3.341   1.801   7.854 -2.1072  0.8997 -1.2295
 9103SOL    HW238772   3.402   1.848   7.986  1.2195  0.1122 -0.3580
 9104SOL     OW38773   3.376   3.325   0.432  0.2451  0.2923  0.6290
 9104SOL    HW138774   3.330   3.381   0.495 -1.1271  2.3163 -2.1442
 9104SOL    HW238775   3.428   3.387   0.381  0.2719 -0.1684  0.0911
 9105SOL     OW38776   0.873   2.918   9.225  1.2174 -0.8971 -0.2274
 9105SOL    HW138777   0.953   2.971   9.228  1.4096 -1.2073  0.1934
 9105SOL    HW238778   0.904   2.830   9.249 -1.7979 -2.1335 -0.8720
 9106SOL     OW38779   0.198   1.432   3.240  0.2432 -0.2952 -0.2765
 9106SOL    HW138780   0.281   1.414   3.195 -0.1052  0.7850 -1.3545
 9106SOL    HW238781   0.226   1.407   3.328 -1.7125  2.7878  1.2026
 9107SOL     OW38782   0.311   1.069   0.110  0.1764  0.0845  0.0570
 9107SOL    HW138783   0.274   0.990   0.150  0.8310  0.2447  0.9749
 9107SOL    HW238784   0.404   1.072   0.135  0.0043 -3.4510  1.1679
 9108SOL     OW38785   2.882   3.746  13.762 -0.7684  0.4355  0.1419
 9108SOL    HW138786   2.855   3.819  13.706  0.0948 -0.2253 -1.1467
 9108SOL    HW238787   2.832   3.763  13.841 -0.8440 -1.1085  0.4302
 9109SOL     OW38788   1.741   2.221   3.259  0.4798  0.6711 -0.0860
 9109SOL    HW138789   1.802   2.265   3.200 -2.0827  3.0254 -0.9573
 9109SOL    HW238790   1.690   2.174   3.194 -0.5187 -0.2063  1.3466
 9110SOL     OW38791   2.758   3.044   2.728  0.6646  0.6234  0.0656
 9110SOL    HW138792   2.685   3.103   2.709  0.0826  0.6269  2.2832
 9110SOL    HW238793   2.762   2.994   2.647  0.7646  0.0049  0.4564
 9111SOL     OW38794   1.695   0.272   7.444 -0.0301 -0.4635 -0.6064
 9111SOL    HW138795   1.775   0.231   7.411  0.7821  1.5183 -1.1322
 9111SOL    HW238796   1.724   0.288   7.534  2.1259  2.6417 -1.8447
 9112SOL     OW38797   2.292   3.661  10.813  0.0136 -0.4004 -0.4274
 9112SOL    HW138798   2.300   3.757  10.811 -0.1916 -0.3988 -1.5907
 9112SOL    HW238799   2.197   3.655  10.821 -0.0794  0.1515 -1.0842
 9113SOL     OW38800   0.310   1.831   5.879 -0.2009 -0.3846  0.3213
 9113SOL    HW138801   0.345   1.920   5.873  0.7318 -0.8197 -0.6534
 9113SOL    HW238802   0.223   1.848   5.843  1.0600  1.8934 -1.6310
 9114SOL     OW38803   2.775   3.029   5.774 -0.1439 -0.6063  0.0677
 9114SOL    HW138804   2.841   2.964   5.798  0.7548  0.2959  0.0343
 9114SOL    HW238805   2.828   3.104   5.746 -1.2091  0.4900  0.9224
 9115SOL     OW38806   1.298   1.937  11.431 -0.2954  0.2543 -0.0875
 9115SOL    HW138807   1.334   2.026  11.430 -1.0983  0.5786 -1.3466
 9115SOL    HW238808   1.357   1.876  11.474 -1.4962  1.1964  2.9077
 9116SOL     OW38809   3.005   4.521   7.844  0.7394  0.1304 -0.5101
 9116SOL    HW138810   2.964   4.545   7.927  1.6203 -0.5892  0.1411
 9116SOL    HW238811   3.033   4.434   7.872 -2.2853 -0.1819  1.5460
 9117SOL     OW38812   0.320   1.957   9.521  0.2567 -0.4133 -0.3202
 9117SOL    HW138813   0.346   2.031   9.466  0.1968  0.1772  0.4501
 9117SOL    HW238814   0.399   1.947   9.574 -0.4779 -2.3739  0.4062
 9118SOL     OW38815   3.118   4.308  12.719  0.0956 -0.0967 -0.0855
 9118SOL    HW138816   3.076   4.332  12.801  1.5014 -2.4276  1.3226
 9118SOL    HW238817   3.077   4.222  12.720 -0.3499  0.1885  3.9261
 9119SOL     OW38818   3.175   1.416   4.864  0.5227  0.2615 -0.4194
 9119SOL    HW138819   3.155   1.327   4.837 -1.6102  0.5746  0.1662
 9119SOL    HW238820   3.257   1.397   4.911  0.6229  1.6259 -0.0252
 9120SOL     OW38821   3.016   3.381   7.580  0.3944 -0.0925  0.1154
 9120SOL    HW138822   3.075   3.306   7.570  1.6958  0.7615  1.3924
 9120SOL    HW238823   3.070   3.444   7.531  2.7149 -1.1425  1.3313
 9121SOL     OW38824   1.944   3.047   2.626 -0.3959  0.1106  0.3885
 9121SOL    HW138825   1.901   3.008   2.550  1.4216 -1.0227 -0.0532
 9121SOL    HW238826   1.982   2.970   2.668 -1.5135 -1.7245 -1.9473
 9122SOL     OW38827   2.519   2.212   0.229  0.4269  0.0512 -0.0290
 9122SOL    HW138828   2.474   2.177   0.152  0.3187 -0.5104  0.2887
 9122SOL    HW238829   2.520   2.137   0.288  0.8820 -0.5139 -0.7583
 9123SOL     OW38830   3.778   3.537   5.982 -0.4423 -0.0966  0.0474
 9123SOL    HW138831   3.800   3.470   6.047 -0.1328 -1.0408 -1.0279
 9123SOL    HW238832   3.837   3.493   5.921  0.2113 -1.1392  1.4118
 9124SOL     OW38833   1.233   2.274  13.216 -0.4998  0.9727  0.5865
 9124SOL    HW138834   1.188   2.253  13.298 -1.2605  0.0181 -0.0857
 9124SOL    HW238835   1.172   2.231  13.156  2.1735 -2.1475  0.1083
 9125SOL     OW38836   1.715   4.438  10.652 -0.0002 -0.2724 -0.3132
 9125SOL    HW138837   1.693   4.422  10.744  0.7514 -1.9000 -0.4007
 9125SOL    HW238838   1.691   4.354  10.613  0.3702 -0.8056  0.6093
 9126SOL     OW38839   4.579   4.638   6.376 -0.4967 -0.2305 -0.4434
 9126SOL    HW138840   4.620   4.555   6.399 -1.5208 -0.8222 -0.7611
 9126SOL    HW238841   4.591   4.622   6.282  1.3400 -0.6624 -0.1224
 9127SOL     OW38842   4.126   1.306  13.884 -0.4482  0.2086 -0.2724
 9127SOL    HW138843   4.137   1.358  13.964  0.9403  0.6387 -0.7356
 9127SOL    HW238844   4.040   1.332  13.851 -0.5311  0.7922  0.4096
 9128SOL     OW38845   1.115   3.519   7.660 -0.2898 -0.1839  0.4949
 9128SOL    HW138846   1.117   3.424   7.668 -1.6802 -0.0953  1.8375
 9128SOL    HW238847   1.043   3.544   7.718  2.8712  0.7534  3.9906
 9129SOL     OW38848   2.123   2.189  15.972  0.1033 -0.5284  0.1895
 9129SOL    HW138849   2.073   2.126  16.023 -0.6840  0.6744  0.8981
 9129SOL    HW238850   2.108   2.267  16.025  0.5419  2.0558 -3.5080
 9130SOL     OW38851   2.629   1.699  12.536  0.1096 -0.4292  0.1512
 9130SOL    HW138852   2.579   1.759  12.480 -0.3328 -0.9243  0.0221
 9130SOL    HW238853   2.594   1.730  12.619  0.0439 -0.2885  0.0707
 9131SOL     OW38854   2.867   4.545   0.671 -0.3814 -0.0407 -0.7328
 9131SOL    HW138855   2.838   4.575   0.757  1.8313  1.0159 -0.3412
 9131SOL    HW238856   2.787   4.553   0.620 -0.1747  0.5204 -0.9728
 9132SOL     OW38857   3.642   2.811  13.854  0.0401 -0.1173 -0.2211
 9132SOL    HW138858   3.721   2.840  13.809  0.2419  0.5985  0.6004
 9132SOL    HW238859   3.618   2.884  13.910 -0.3145  0.6816 -1.4183
 9133SOL     OW38860   1.137   2.746   1.488 -0.5858  0.5050 -0.3122
 9133SOL    HW138861   1.058   2.702   1.456 -0.2113  0.3470 -1.0277
 9133SOL    HW238862   1.134   2.716   1.578 -0.3657 -0.8364 -0.7507
 9134SOL     OW38863   1.682   1.073   8.376  0.2903  0.3591 -0.1743
 9134SOL    HW138864   1.637   1.134   8.318 -2.4248 -2.8384 -1.4490
 9134SOL    HW238865   1.632   0.995   8.350  1.0147 -0.3401  0.5251
 9135SOL     OW38866   2.125   2.148  13.081 -0.0849 -0.6674  0.3431
 9135SOL    HW138867   2.078   2.229  13.063 -0.1222 -0.8301 -0.2972
 9135SOL    HW238868   2.205   2.176  13.037 -0.6497  1.6373  0.8030
 9136SOL     OW38869   1.740   2.433   5.772  0.1268 -0.7552 -0.4915
 9136SOL    HW138870   1.717   2.388   5.853  3.3156 -1.1000  0.2220
 9136SOL    HW238871   1.702   2.375   5.707  1.0911 -2.5760  0.5460
 9137SOL     OW38872   2.278   0.062   2.478  1.0192 -0.6125 -0.2239
 9137SOL    HW138873   2.230   0.121   2.536 -1.4848 -1.1443 -1.7739
 9137SOL    HW238874   2.235   0.075   2.394  1.8958  1.8012 -0.2792
 9138SOL     OW38875   3.102   0.863   2.135 -0.0149 -0.1627 -0.7186
 9138SOL    HW138876   3.040   0.821   2.075 -0.3161  1.1760 -1.3436
 9138SOL    HW238877   3.184   0.837   2.092 -0.8484 -0.1879 -2.3021
 9139SOL     OW38878   0.699   2.520   3.865 -0.7347  0.5119 -0.2785
 9139SOL    HW138879   0.730   2.434   3.893  0.8353  1.5809  1.2700
 9139SOL    HW238880   0.642   2.546   3.937 -2.1696  1.9182 -1.9138
 9140SOL     OW38881   0.920   3.905   2.418 -0.1567  0.5134  0.0493
 9140SOL    HW138882   0.909   3.894   2.512  1.7258  1.1355  0.3358
 9140SOL    HW238883   0.982   3.833   2.408 -0.1067  0.6442 -0.5631
 9141SOL     OW38884   3.432   4.504   2.890 -0.4466 -0.2104  0.1258
 9141SOL    HW138885   3.413   4.425   2.840  2.9817 -1.3596  0.6731
 9141SOL    HW238886   3.440   4.465   2.976 -1.8061 -0.7858 -0.0061
 9142SOL     OW38887   1.862   1.711  13.136  0.1595 -0.4644  0.1434
 9142SOL    HW138888   1.914   1.783  13.100  1.6308 -0.8367  1.5313
 9142SOL    HW238889   1.888   1.637  13.082 -0.1717 -0.1667 -0.4334
 9143SOL     OW38890   1.996   3.173   6.353  0.7393 -0.0034 -0.3811
 9143SOL    HW138891   2.055   3.180   6.277  0.0142  3.5510 -0.5971
 9143SOL    HW238892   1.911   3.157   6.312  1.3848 -2.5769 -0.7475
 9144SOL     OW38893   3.253   1.472   3.877 -0.1384  0.3134 -1.1630
 9144SOL    HW138894   3.218   1.512   3.957  0.9057 -1.3424  0.1154
 9144SOL    HW238895   3.345   1.489   3.896 -0.4934  1.4385 -0.4439
 9145SOL     OW38896   3.767   2.594   2.581 -0.1096  0.0353 -0.5194
 9145SOL    HW138897   3.693   2.618   2.525 -1.1143  1.3427  1.3780
 9145SOL    HW238898   3.714   2.547   2.645  0.3971 -1.8376 -1.4749
 9146SOL     OW38899   4.212   1.136  11.313 -0.3779  0.3563 -0.2614
 9146SOL    HW138900   4.227   1.046  11.343 -0.6075 -0.3845 -2.3357
 9146SOL    HW238901   4.246   1.125  11.224 -1.6302 -1.8168 -0.4867
 9147SOL     OW38902   4.484   0.426   9.846  0.6040  0.4862  0.4887
 9147SOL    HW138903   4.446   0.389   9.925  1.9440  0.1435  0.9640
 9147SOL    HW238904   4.566   0.378   9.847 -0.0086 -0.5662  0.1768
 9148SOL     OW38905   3.911   2.657   3.485  0.2890  1.0366 -0.3342
 9148SOL    HW138906   3.909   2.740   3.533  0.9083  0.8729 -0.0300
 9148SOL    HW238907   3.958   2.600   3.546 -1.2132  0.6638  0.4888
 9149SOL     OW38908   1.451   2.701   3.124 -0.1163 -0.5415  0.4069
 9149SOL    HW138909   1.483   2.725   3.211  2.1561  2.4480 -1.2766
 9149SOL    HW238910   1.508   2.627   3.100 -0.6003 -0.2946 -1.5139
 9150SOL     OW38911   1.489   0.989  11.236  0.0049  0.1904 -0.1040
 9150SOL    HW138912   1.438   1.060  11.198  0.9279  0.5641 -0.6495
 9150SOL    HW238913   1.578   1.024  11.232 -0.6434  1.9687  1.1183
 9151SOL     OW38914   4.282   0.884  17.465  0.6034  0.1714 -0.1297
 9151SOL    HW138915   4.298   0.830  17.388 -0.3529 -0.4997  0.1335
 9151SOL    HW238916   4.197   0.924  17.447  0.3049 -0.2859  0.2633
 9152SOL     OW38917   4.014   1.145  10.389  0.2315  0.3502  0.2959
 9152SOL    HW138918   3.953   1.153  10.315 -0.3971 -0.2575  0.7555
 9152SOL    HW238919   3.998   1.235  10.418  0.7194  0.6855 -0.4792
 9153SOL     OW38920   1.155   4.641   8.396 -0.4139  0.1127  0.0681
 9153SOL    HW138921   1.124   4.680   8.315 -0.8256  1.3204  0.8003
 9153SOL    HW238922   1.242   4.681   8.400  0.0035 -0.6451 -1.6279
 9154SOL     OW38923   2.314   3.563   7.111 -0.1703 -0.3704 -0.7865
 9154SOL    HW138924   2.400   3.598   7.089 -0.2383  0.0650 -0.3505
 9154SOL    HW238925   2.323   3.471   7.088  0.7524 -0.3560 -0.4770
 9155SOL     OW38926   1.982   2.697   4.589 -0.2834  0.1322  0.2672
 9155SOL    HW138927   1.899   2.650   4.590 -1.1902  1.7921  2.8430
 9155SOL    HW238928   2.043   2.634   4.551 -0.2814 -0.6944  1.6455
 9156SOL     OW38929   3.422   0.831  16.075  0.1557  0.6981 -0.2442
 9156SOL    HW138930   3.356   0.762  16.071  1.8140 -0.9057  0.2255
 9156SOL    HW238931   3.376   0.906  16.037 -0.8512  0.1580 -0.0857
 9157SOL     OW38932   1.240   4.385  17.195  1.0953 -0.2737 -0.4894
 9157SOL    HW138933   1.245   4.293  17.169  3.0652 -0.0519 -0.8891
 9157SOL    HW238934   1.172   4.380  17.262  0.4218  0.1884 -1.1480
 9158SOL     OW38935   0.868   2.230   3.101  0.3210  0.3720 -0.2402
 9158SOL    HW138936   0.914   2.300   3.055  1.2502  1.0508  1.7186
 9158SOL    HW238937   0.861   2.156   3.041  0.3429  0.1193  0.0645
 9159SOL     OW38938   4.681   1.540   3.667  0.0425  0.1779  0.6052
 9159SOL    HW138939   4.669   1.502   3.580  0.2334 -0.8384  1.0187
 9159SOL    HW238940   4.591   1.551   3.698 -0.8738 -1.8991 -1.3627
 9160SOL     OW38941   1.165   0.055   0.641 -0.6064  0.2184 -0.1153
 9160SOL    HW138942   1.160   0.010   0.725  0.7559 -0.6677 -0.5105
 9160SOL    HW238943   1.191   4.716   0.574 -1.0379 -0.1077  0.0341
 9161SOL     OW38944   1.230   1.713   7.426  0.1004 -0.1286 -0.2858
 9161SOL    HW138945   1.197   1.709   7.336  1.7258  1.6924 -0.9619
 9161SOL    HW238946   1.285   1.636   7.438 -1.2374 -1.1622 -0.7340
 9162SOL     OW38947   2.715   2.967   9.301  0.1829 -0.1821  0.0124
 9162SOL    HW138948   2.776   2.913   9.252 -0.4362 -1.3148  0.4897
 9162SOL    HW238949   2.674   2.904   9.360  2.0700 -0.6022  0.8450
 9163SOL     OW38950   4.594   4.500   2.449 -0.1117  0.5002 -0.0008
 9163SOL    HW138951   4.652   4.574   2.436  0.2509 -0.1190 -1.8442
 9163SOL    HW238952   4.638   4.464   2.526  0.5773  2.0680  0.3281
 9164SOL     OW38953   2.779   1.647   3.570  0.3767 -0.4683 -0.2622
 9164SOL    HW138954   2.691   1.682   3.579  0.7545  0.2946  0.4054
 9164SOL    HW238955   2.792   1.668   3.477  2.4247 -1.8009 -0.2832
 9165SOL     OW38956   0.021   0.864  14.920 -0.0530 -0.6740  0.1603
 9165SOL    HW138957   0.061   0.901  14.999  0.2886  0.4466 -0.5350
 9165SOL    HW238958   4.696   0.936  14.883 -0.9471 -1.4759 -0.1956
 9166SOL     OW38959   0.439   4.579   4.869 -0.4484 -0.1123 -0.2566
 9166SOL    HW138960   0.501   4.568   4.940  0.8705 -0.0177 -1.3852
 9166SOL    HW238961   0.479   4.508   4.819  0.4333  1.0506 -1.2219
 9167SOL     OW38962   0.857   0.434   8.028 -0.1413  0.1996  0.4039
 9167SOL    HW138963   0.816   0.371   7.969 -1.0342  3.6464 -2.5840
 9167SOL    HW238964   0.803   0.511   8.012 -0.8385 -0.7962 -1.9908
 9168SOL     OW38965   4.556   0.294   2.409  0.0890 -0.4273 -0.2136
 9168SOL    HW138966   4.496   0.232   2.366 -0.5319  1.1075 -1.5479
 9168SOL    HW238967   4.509   0.377   2.400 -1.5995 -1.3342  0.2859
 9169SOL     OW38968   4.093   3.324   6.035  0.0529 -0.6902 -0.5914
 9169SOL    HW138969   4.172   3.360   5.996 -0.0274 -0.3964 -0.4817
 9169SOL    HW238970   4.026   3.354   5.974  0.0917  0.6490  0.0280
 9170SOL     OW38971   4.144   0.364   6.229 -0.2190 -0.0898  0.5048
 9170SOL    HW138972   4.139   0.407   6.315  1.8766  0.3378  0.4134
 9170SOL    HW238973   4.235   0.341   6.210  0.0939 -1.3438  3.4673
 9171SOL     OW38974   4.465   4.020  12.676  0.1697  0.0157  0.0282
 9171SOL    HW138975   4.395   3.956  12.685 -0.5101  0.6664 -0.5380
 9171SOL    HW238976   4.469   4.031  12.581 -0.9210  0.5555  0.0375
 9172SOL     OW38977   3.746   4.374  11.144  0.4717 -0.4153  0.3440
 9172SOL    HW138978   3.778   4.325  11.068  0.6034 -0.1559  0.2331
 9172SOL    HW238979   3.813   4.440  11.159  2.0361 -1.5993 -1.4964
 9173SOL     OW38980   2.288   0.045  10.834 -0.1504  0.2182 -0.2622
 9173SOL    HW138981   2.328   0.049  10.920  1.6620 -1.3423 -1.0347
 9173SOL    HW238982   2.213   4.711  10.847  0.4921 -0.3910  0.6109
 9174SOL     OW38983   3.146   4.479   9.853 -0.1969 -0.4282  0.7996
 9174SOL    HW138984   3.054   4.465   9.877  0.0063  0.1958  1.9032
 9174SOL    HW238985   3.186   4.403   9.894 -0.4091 -0.3679  1.1159
 9175SOL     OW38986   3.247   1.492  15.537  0.6135  0.0262  0.0506
 9175SOL    HW138987   3.334   1.495  15.498  0.4280  1.4241 -0.2576
 9175SOL    HW238988   3.245   1.398  15.558 -4.7302  0.3433  0.9065
 9176SOL     OW38989   2.567   0.921   1.794 -0.7471  0.2066 -0.7048
 9176SOL    HW138990   2.564   0.873   1.712  1.0852 -0.2946 -0.4853
 9176SOL    HW238991   2.475   0.940   1.812 -1.0529 -2.2357  0.3133
 9177SOL     OW38992   2.162   3.256  16.814 -0.7443 -0.0896 -0.3478
 9177SOL    HW138993   2.186   3.279  16.724  0.0359  1.8005  0.3482
 9177SOL    HW238994   2.202   3.323  16.869 -2.4162  0.0214  0.7412
 9178SOL     OW38995   2.579   2.418   6.376 -0.1945 -0.3074  0.5763
 9178SOL    HW138996   2.553   2.381   6.461 -1.6734  0.2349  0.3556
 9178SOL    HW238997   2.502   2.470   6.354 -0.4468 -0.1706  1.7706
 9179SOL     OW38998   0.263   0.891   1.641  0.3291  0.5124  0.0306
 9179SOL    HW138999   0.281   0.948   1.715 -1.5014  1.3432 -0.1514
 9179SOL    HW239000   0.264   0.799   1.666  3.5587  0.1684 -1.3671
 9180SOL     OW39001   0.771   4.078  12.028  0.2154  0.0115 -0.3462
 9180SOL    HW139002   0.713   4.038  11.964 -0.1054  1.3554 -0.8861
 9180SOL    HW239003   0.807   4.151  11.977  0.9454  1.3363  2.0134
 9181SOL     OW39004   3.677   2.918   2.367 -0.0835 -0.0591 -1.0238
 9181SOL    HW139005   3.674   2.940   2.274  0.5730  0.4564 -0.9258
 9181SOL    HW239006   3.622   2.840   2.374 -0.1296  0.0263 -0.4572
 9182SOL     OW39007   1.847   0.942   7.678  0.1886  0.3474  0.4129
 9182SOL    HW139008   1.771   0.945   7.737  0.0003  1.2930  0.1238
 9182SOL    HW239009   1.917   0.902   7.729 -0.3562 -2.1772 -0.8242
 9183SOL     OW39010   1.081   2.268   9.708  0.8505  0.2181  0.0336
 9183SOL    HW139011   1.151   2.319   9.749  0.3364  0.1781  0.9805
 9183SOL    HW239012   1.124   2.184   9.726  0.6447  0.0703 -0.1635
 9184SOL     OW39013   4.049   0.480   2.900  0.1709 -0.0765  0.2652
 9184SOL    HW139014   4.097   0.463   2.819  0.3252 -0.3664  0.4181
 9184SOL    HW239015   4.063   0.575   2.900 -1.0537  0.0917 -0.3033
 9185SOL     OW39016   3.535   0.919  11.214 -0.0832  0.7784  0.5893
 9185SOL    HW139017   3.569   0.902  11.126  1.6693  0.6353  1.2894
 9185SOL    HW239018   3.480   0.845  11.239  0.1293 -0.6354 -3.1118
 9186SOL     OW39019   4.102   2.260  14.017 -0.0336  0.0009 -0.4922
 9186SOL    HW139020   4.098   2.165  14.011  0.0370 -0.0485  0.2917
 9186SOL    HW239021   4.153   2.280  14.095  1.4007 -1.4435 -1.0706
 9187SOL     OW39022   4.072   2.326   8.058  0.3916  0.1186 -0.2891
 9187SOL    HW139023   4.123   2.385   8.003 -0.7236  0.4347 -0.9798
 9187SOL    HW239024   4.103   2.241   8.026 -1.0755 -0.3756 -0.3980
 9188SOL     OW39025   1.472   0.876   9.500  0.2046 -0.7405 -0.1067
 9188SOL    HW139026   1.500   0.793   9.462  0.5434 -0.7981  0.2768
 9188SOL    HW239027   1.406   0.906   9.437  0.4871 -0.6467 -0.3593
 9189SOL     OW39028   2.043   1.304  11.973  0.0722 -0.2635 -0.1483
 9189SOL    HW139029   1.972   1.339  11.919  0.7407  0.6296 -0.4586
 9189SOL    HW239030   1.998   1.299  12.057 -0.7988  0.5046 -0.5711
 9190SOL     OW39031   1.455   1.769   0.091  0.3375  0.2800 -0.0531
 9190SOL    HW139032   1.362   1.778   0.115  0.4905 -1.0714  1.0381
 9190SOL    HW239033   1.458   1.679   0.058 -2.0498  0.3283 -0.4458
 9191SOL     OW39034   2.659   0.631   1.225  0.0759  0.2601 -0.1955
 9191SOL    HW139035   2.632   0.713   1.184 -0.4233  0.4858  0.5855
 9191SOL    HW239036   2.582   0.620   1.281  0.2503  1.9541  0.3706
 9192SOL     OW39037   3.533   2.531   1.408  0.3909  0.0824 -0.2853
 9192SOL    HW139038   3.624   2.563   1.413  0.9312 -1.3837 -0.7566
 9192SOL    HW239039   3.546   2.437   1.396  0.6796  0.1396 -0.4237
 9193SOL     OW39040   3.167   1.704   8.353  0.2667  0.1610  0.0196
 9193SOL    HW139041   3.123   1.627   8.317 -0.3447  1.4638 -2.0290
 9193SOL    HW239042   3.093   1.759   8.378 -0.3601 -0.8265  0.3089
 9194SOL     OW39043   1.990   3.859   8.332  0.2384  0.1487  0.3351
 9194SOL    HW139044   2.082   3.853   8.358  0.1197  0.7195  0.8898
 9194SOL    HW239045   1.965   3.932   8.388  0.0369  0.7567 -0.5480
 9195SOL     OW39046   0.000   0.720   5.273  0.1184 -0.3125 -0.4185
 9195SOL    HW139047   0.030   0.631   5.257 -0.1094 -0.3893 -0.4165
 9195SOL    HW239048   4.631   0.704   5.274 -0.1399  1.1335 -1.0310
 9196SOL     OW39049   1.225   0.723  17.270 -0.2564  0.8037 -0.7294
 9196SOL    HW139050   1.209   0.751  17.179  2.4382 -4.0847 -2.6809
 9196SOL    HW239051   1.285   0.793  17.297 -0.8877  0.9689  0.2185
 9197SOL     OW39052   4.583   3.280   1.498 -0.5216 -0.2944  0.1837
 9197SOL    HW139053   4.568   3.350   1.562  0.4550 -1.7289  1.9735
 9197SOL    HW239054   4.518   3.303   1.431  1.0495 -0.8331 -1.5116
 9198SOL     OW39055   3.176   3.027  13.155 -0.7026  0.4053 -0.2157
 9198SOL    HW139056   3.127   2.968  13.213 -2.6520  0.1251 -2.1574
 9198SOL    HW239057   3.134   3.003  13.073  1.0125  3.8515 -2.0518
 9199SOL     OW39058   4.229   3.286   5.619 -0.1879  0.6381 -0.4850
 9199SOL    HW139059   4.204   3.305   5.709  0.5257  2.6545 -0.7006
 9199SOL    HW239060   4.185   3.205   5.596 -0.3240  0.4346  0.5052
 9200SOL     OW39061   1.098   4.384  14.933  0.4752 -0.0064 -0.2758
 9200SOL    HW139062   1.058   4.471  14.940 -0.9603 -0.9752  3.7414
 9200SOL    HW239063   1.099   4.369  14.839 -1.4695  0.7274 -0.4076
 9201SOL     OW39064   4.677   0.794   8.671 -0.0697  1.1132  0.1966
 9201SOL    HW139065   4.614   0.759   8.734  0.1579 -0.7327 -0.6001
 9201SOL    HW239066   0.018   0.725   8.664 -0.7574  0.4419  0.3157
 9202SOL     OW39067   1.453   1.510  15.836  0.3192  0.1564  0.0735
 9202SOL    HW139068   1.540   1.526  15.873  0.2481  1.9589 -0.5936
 9202SOL    HW239069   1.443   1.584  15.777  0.6959  0.2205  0.0942
 9203SOL     OW39070   0.860   2.719   6.173  0.0833 -0.0812 -0.0192
 9203SOL    HW139071   0.931   2.656   6.188  1.4245  1.0759 -1.4534
 9203SOL    HW239072   0.886   2.783   6.107 -0.5380 -1.5388 -1.6702
 9204SOL     OW39073   2.083   3.482  16.280  0.1509  0.4543  0.0064
 9204SOL    HW139074   2.117   3.428  16.352  1.5513  1.1901 -0.1014
 9204SOL    HW239075   2.076   3.571  16.313 -0.8451  0.2138  0.4503
 9205SOL     OW39076   3.432   4.657  11.984 -0.1015 -0.1160 -0.2125
 9205SOL    HW139077   3.479   4.662  12.067  1.4713 -2.4354 -0.9525
 9205SOL    HW239078   3.341   4.673  12.009  0.0584  1.1455 -0.4082
 9206SOL     OW39079   3.195   0.296   8.206  0.0673 -0.4254 -0.2251
 9206SOL    HW139080   3.251   0.240   8.152  1.5138  0.1074  0.6877
 9206SOL    HW239081   3.225   0.291   8.297  1.6045  0.3198 -0.6881
 9207SOL     OW39082   0.031   3.073   3.627 -0.3501  0.5377 -0.4574
 9207SOL    HW139083   4.674   3.025   3.639  0.6366 -1.1039 -0.3197
 9207SOL    HW239084   0.090   3.025   3.685 -0.3116  2.9905  1.5573
 9208SOL     OW39085   0.166   4.216   5.752 -0.0797  0.3211 -0.5758
 9208SOL    HW139086   0.118   4.299   5.740 -0.2959  0.0724 -1.4139
 9208SOL    HW239087   0.103   4.155   5.713 -2.0825  1.3016  1.0861
 9209SOL     OW39088   2.617   1.563  16.796 -0.3464  0.2841  0.5015
 9209SOL    HW139089   2.636   1.598  16.708  1.7460 -2.6969 -0.2502
 9209SOL    HW239090   2.527   1.533  16.786  0.0122 -1.1953  1.6733
 9210SOL     OW39091   1.178   1.709  10.400 -0.0607 -0.4167  0.2697
 9210SOL    HW139092   1.237   1.783  10.413 -0.6691 -0.4386  3.0740
 9210SOL    HW239093   1.146   1.710  10.490  0.3377 -0.7081  0.4113
 9211SOL     OW39094   2.134   1.776   5.191  0.6568  0.1144  0.2495
 9211SOL    HW139095   2.200   1.740   5.131 -3.1770 -1.8205 -2.7465
 9211SOL    HW239096   2.187   1.849   5.223  0.2305  1.1006 -1.3362
 9212SOL     OW39097   2.178   1.803   7.400  0.2523 -0.7027 -0.6699
 9212SOL    HW139098   2.130   1.884   7.384  0.7910 -0.0081  1.2483
 9212SOL    HW239099   2.267   1.830   7.378  1.2073 -3.6650 -0.4683
 9213SOL     OW39100   2.711   1.874   4.822 -0.0463 -0.0844 -0.3782
 9213SOL    HW139101   2.717   1.932   4.898 -0.0272  0.6205 -0.9171
 9213SOL    HW239102   2.799   1.838   4.813 -0.1248 -0.4425  0.2452
 9214SOL     OW39103   1.859   1.622   7.982  0.1252 -0.1241  0.2940
 9214SOL    HW139104   1.944   1.658   8.006 -0.4754 -0.1218  2.4117
 9214SOL    HW239105   1.881   1.529   7.990  1.8374  0.0711 -1.9709
 9215SOL     OW39106   2.675   2.089  13.939 -0.1421  0.2774  0.2286
 9215SOL    HW139107   2.752   2.037  13.917 -0.1355  0.4820 -0.2416
 9215SOL    HW239108   2.605   2.033  13.906 -0.5626  1.2670 -0.5810
 9216SOL     OW39109   2.499   2.938   9.696 -0.5080  0.2411 -0.1413
 9216SOL    HW139110   2.460   2.856   9.666 -2.0803  1.6795 -2.0885
 9216SOL    HW239111   2.537   2.908   9.778 -1.0529  1.2754  0.4986
 9217SOL     OW39112   1.626   4.169  14.777  0.1237  0.3448 -0.5572
 9217SOL    HW139113   1.589   4.123  14.853 -1.0617  0.0530 -1.3251
 9217SOL    HW239114   1.719   4.146  14.776 -0.2732 -1.3670  0.5220
 9218SOL     OW39115   3.694   0.808  15.007 -0.1787  0.1381  0.2158
 9218SOL    HW139116   3.690   0.855  15.090  1.3347 -3.3887  2.2558
 9218SOL    HW239117   3.753   0.736  15.030  0.1525 -0.0146 -1.1147
 9219SOL     OW39118   0.759   4.407   6.376  0.2997 -1.0156 -0.7039
 9219SOL    HW139119   0.734   4.383   6.466 -1.6585  0.1903 -0.9503
 9219SOL    HW239120   0.679   4.443   6.340  1.2975  2.2130  0.3162
 9220SOL     OW39121   1.905   2.255   6.366  0.3795 -0.1748  0.4464
 9220SOL    HW139122   1.982   2.247   6.309 -0.0603 -1.7837  0.0909
 9220SOL    HW239123   1.950   2.238   6.449  1.5454  0.0463 -0.1346
 9221SOL     OW39124   0.859   3.728   5.131  0.1085  1.0723  0.2582
 9221SOL    HW139125   0.938   3.777   5.153  0.6256 -1.0364  3.1486
 9221SOL    HW239126   0.824   3.773   5.054  1.7307  2.2451  0.2185
 9222SOL     OW39127   0.430   4.301   9.950 -0.0891 -0.4196 -0.1472
 9222SOL    HW139128   0.406   4.312  10.042 -0.8715 -0.3509 -0.3587
 9222SOL    HW239129   0.493   4.228   9.953 -2.0286 -2.0775  0.4656
 9223SOL     OW39130   4.316   0.856   9.046 -0.4843  0.1141  0.0931
 9223SOL    HW139131   4.322   0.882   9.138 -0.4979 -0.5964  0.2881
 9223SOL    HW239132   4.244   0.793   9.051 -1.2354  0.6054 -4.6142
 9224SOL     OW39133   3.876   2.181   5.086 -0.2186 -0.0897  0.1931
 9224SOL    HW139134   3.785   2.149   5.084 -0.8044  1.4998  1.6459
 9224SOL    HW239135   3.863   2.268   5.123 -0.5718 -0.7810  1.6799
 9225SOL     OW39136   0.348   1.649  12.360  0.0105  0.3508  0.1603
 9225SOL    HW139137   0.321   1.726  12.308 -1.5283  0.3171  0.9118
 9225SOL    HW239138   0.311   1.581  12.304 -1.3375  2.0641 -1.0648
 9226SOL     OW39139   1.012   1.279   0.315 -0.0003 -0.2530  0.5370
 9226SOL    HW139140   0.991   1.332   0.391 -0.5183 -0.1989  0.3564
 9226SOL    HW239141   1.097   1.316   0.289 -0.6312  0.2554 -0.7956
 9227SOL     OW39142   3.149   2.117   5.793  0.2665 -0.8978  0.4067
 9227SOL    HW139143   3.198   2.034   5.795 -0.1956 -1.2172 -1.7253
 9227SOL    HW239144   3.057   2.093   5.788 -0.2071  0.0758  4.9878
 9228SOL     OW39145   0.097   1.202   5.155 -0.4943  0.0589 -0.3019
 9228SOL    HW139146   0.005   1.221   5.171 -0.8304  0.4999 -2.7470
 9228SOL    HW239147   0.106   1.114   5.191  0.0036  0.3914  0.3971
 9229SOL     OW39148   0.844   1.169   6.810  0.0852 -0.3306  0.3797
 9229SOL    HW139149   0.885   1.237   6.864 -0.7239 -0.6680  1.4313
 9229SOL    HW239150   0.920   1.111   6.808  1.1199  1.0837 -0.5175
 9230SOL     OW39151   2.752   0.271   4.701  0.2043 -0.1075  0.2161
 9230SOL    HW139152   2.795   0.247   4.619 -1.6832 -2.5013 -0.0697
 9230SOL    HW239153   2.744   0.182   4.737  2.3441  0.3028  1.7241
 9231SOL     OW39154   1.649   4.256  16.186 -0.4411  0.1097 -0.1383
 9231SOL    HW139155   1.588   4.205  16.132 -1.6851  0.7448  0.6501
 9231SOL    HW239156   1.610   4.340  16.210 -0.5872  0.1769 -0.5931
 9232SOL     OW39157   0.737   2.509   2.516 -0.4066  0.0169  0.1502
 9232SOL    HW139158   0.675   2.547   2.579  0.6596 -0.5145  1.4964
 9232SOL    HW239159   0.817   2.529   2.564 -0.5879  1.4590 -0.1394
 9233SOL     OW39160   0.014   2.291  17.124  0.0038 -0.1507  0.0327
 9233SOL    HW139161   4.722   2.323  17.035  1.0405 -0.9989 -0.4771
 9233SOL    HW239162   0.087   2.337  17.164 -0.2152  0.3790 -0.1651
 9234SOL     OW39163   1.723   4.520   8.762  0.0779 -0.3631 -0.2283
 9234SOL    HW139164   1.700   4.429   8.739 -0.9344  0.2647 -1.7017
 9234SOL    HW239165   1.661   4.529   8.835  2.4453 -0.0446  1.7282
 9235SOL     OW39166   1.142   3.069   6.319  0.2272  0.2839  0.1686
 9235SOL    HW139167   1.128   3.109   6.405  0.4126 -0.8099  0.7012
 9235SOL    HW239168   1.158   3.149   6.269  1.5437  1.2924  2.1848
 9236SOL     OW39169   2.494   1.842  12.707 -0.5685  0.5532 -0.2726
 9236SOL    HW139170   2.526   1.932  12.698  1.2300 -0.0853 -0.1365
 9236SOL    HW239171   2.476   1.853  12.801  1.0057 -0.0779  0.1093
 9237SOL     OW39172   0.418   0.891   2.580  0.1753 -0.0256  0.0098
 9237SOL    HW139173   0.507   0.903   2.614  0.2329 -0.4090 -0.0069
 9237SOL    HW239174   0.378   0.884   2.666  0.2156 -2.0604 -0.1389
 9238SOL     OW39175   0.563   3.271  12.070 -0.5039 -0.2017 -0.0839
 9238SOL    HW139176   0.652   3.306  12.076  0.9558 -4.3677  2.3917
 9238SOL    HW239177   0.569   3.193  12.124  2.0744 -1.1796 -1.8060
 9239SOL     OW39178   0.705   1.199   7.120 -0.3805 -0.7276  0.3416
 9239SOL    HW139179   0.744   1.145   7.188  1.8512 -0.3154 -0.6390
 9239SOL    HW239180   0.685   1.148   7.041 -3.6648  1.4147 -0.2338
 9240SOL     OW39181   4.248   0.195   2.328  0.3360  0.4265  0.1383
 9240SOL    HW139182   4.290   0.114   2.356  0.7119  0.5600 -0.0304
 9240SOL    HW239183   4.156   0.184   2.351 -0.0695  0.5746 -1.3655
 9241SOL     OW39184   2.296   1.732   2.885  0.3240  0.0104 -0.3708
 9241SOL    HW139185   2.275   1.654   2.834 -0.9034  0.2428 -0.2305
 9241SOL    HW239186   2.388   1.738   2.859  0.3356  1.8843  0.0783
 9242SOL     OW39187   1.666   4.269   8.157  0.1371  0.0256 -0.6264
 9242SOL    HW139188   1.729   4.313   8.215 -0.1791  0.3626 -0.5350
 9242SOL    HW239189   1.679   4.313   8.073  0.3606 -1.2569 -1.2599
 9243SOL     OW39190   3.420   4.538   6.348 -0.1322  0.0932 -0.0589
 9243SOL    HW139191   3.399   4.466   6.288 -0.8675 -0.3405  0.7203
 9243SOL    HW239192   3.330   4.551   6.378 -0.3306 -2.0253  0.2781
 9244SOL     OW39193   1.320   1.469   8.533 -0.4149 -0.5364  0.1537
 9244SOL    HW139194   1.363   1.554   8.528  0.0340 -0.9119 -2.4645
 9244SOL    HW239195   1.280   1.460   8.446  0.0804 -1.3456  0.0137
 9245SOL     OW39196   1.325   2.047   2.666  0.0452  0.0504  0.5420
 9245SOL    HW139197   1.251   1.988   2.651  0.5898  0.1405 -2.5392
 9245SOL    HW239198   1.281   2.130   2.645  0.0088  0.1610  1.0663
 9246SOL     OW39199   0.722   2.544  11.594 -0.2927  0.4183 -0.0718
 9246SOL    HW139200   0.630   2.554  11.568 -0.2905 -1.3178 -0.7591
 9246SOL    HW239201   0.716   2.557  11.688  0.9039  0.1190  0.0363
 9247SOL     OW39202   0.102   3.410  11.450 -0.0510  0.8077 -0.2849
 9247SOL    HW139203   0.177   3.357  11.475 -0.8298  0.3539  1.0916
 9247SOL    HW239204   0.154   3.480  11.412 -0.5541  0.1354 -2.1927
 9248SOL     OW39205   3.751   1.100  15.231  0.0911 -0.3478  0.4434
 9248SOL    HW139206   3.781   1.114  15.321 -0.1256  0.5747  0.3757
 9248SOL    HW239207   3.734   1.006  15.233 -1.5980 -0.0899 -2.2491
 9249SOL     OW39208   1.076   4.718   6.763 -0.0172  0.3564 -0.3936
 9249SOL    HW139209   1.129   0.028   6.692  1.2321  1.0292  0.8728
 9249SOL    HW239210   1.025   0.071   6.786  0.5691  1.4888 -2.9909
 9250SOL     OW39211   2.381   3.751   6.781 -0.1006 -0.0679 -1.0061
 9250SOL    HW139212   2.315   3.803   6.825 -1.4651 -0.4891 -2.5605
 9250SOL    HW239213   2.428   3.717   6.857 -2.1819  0.2399  0.3879
 9251SOL     OW39214   1.883   4.453   4.839  0.2809  0.0042 -0.3666
 9251SOL    HW139215   1.911   4.411   4.758 -0.3806  1.5903 -1.4133
 9251SOL    HW239216   1.799   4.418   4.866  1.2386 -1.2635  1.0027
 9252SOL     OW39217   4.355   1.390   2.985 -0.2627  0.4511  0.0891
 9252SOL    HW139218   4.332   1.482   2.976  2.7643  1.0819 -1.2442
 9252SOL    HW239219   4.405   1.363   2.908 -0.0941  0.4561  0.1944
 9253SOL     OW39220   0.559   3.682   0.604 -0.2812 -0.2680 -0.4634
 9253SOL    HW139221   0.511   3.739   0.544  0.1085 -1.6924 -2.1230
 9253SOL    HW239222   0.626   3.740   0.640 -0.2628 -1.0047  0.6687
 9254SOL     OW39223   1.475   0.357   7.033 -0.1359 -0.0681  0.6372
 9254SOL    HW139224   1.398   0.378   6.979  0.1665  0.2159  0.3093
 9254SOL    HW239225   1.500   0.289   6.970  0.9329  1.6790 -0.8358
 9255SOL     OW39226   1.300   2.023   6.619 -0.2529 -0.1777  0.5249
 9255SOL    HW139227   1.232   1.961   6.592 -1.8282  0.7379  2.4058
 9255SOL    HW239228   1.254   2.106   6.606 -1.9498 -1.1174  0.4733
 9256SOL     OW39229   0.471   2.200   6.475 -0.3426 -0.6175 -0.0232
 9256SOL    HW139230   0.515   2.156   6.403 -2.6128 -0.9834 -1.1685
 9256SOL    HW239231   0.501   2.290   6.466 -1.1379 -0.2403  0.9773
 9257SOL     OW39232   4.571   2.010   2.194 -0.1876 -0.5701  0.3944
 9257SOL    HW139233   4.501   1.951   2.222  0.3718 -0.5653  1.7916
 9257SOL    HW239234   4.582   2.072   2.265 -1.7751  1.8090 -1.4227
 9258SOL     OW39235   1.978   1.480  15.718 -0.2199 -0.3150  0.0877
 9258SOL    HW139236   1.992   1.463  15.811 -2.0545 -0.2756  0.3881
 9258SOL    HW239237   1.895   1.432  15.712 -0.9057  1.3780 -3.9285
 9259SOL     OW39238   4.259   4.438  17.475  0.1877 -0.1336  0.5898
 9259SOL    HW139239   4.256   4.344  17.459  1.1955 -0.2133  0.8514
 9259SOL    HW239240   4.260   4.450  17.570 -0.2616 -0.6932  0.6615
 9260SOL     OW39241   0.721   2.288   1.394  0.0566  0.1423  0.5673
 9260SOL    HW139242   0.645   2.242   1.361  0.0452 -0.0877  0.9142
 9260SOL    HW239243   0.700   2.270   1.486 -0.5762  1.5664  0.7008
 9261SOL     OW39244   1.926   2.445   6.060 -0.0887 -0.2446 -0.3649
 9261SOL    HW139245   1.893   2.479   6.143 -0.1997 -2.0630  0.3250
 9261SOL    HW239246   1.936   2.529   6.013 -1.5643 -0.9458 -1.9452
 9262SOL     OW39247   2.267   1.793   0.865  0.6918 -0.3136 -0.3537
 9262SOL    HW139248   2.186   1.826   0.904  1.2025 -0.1510  0.5992
 9262SOL    HW239249   2.322   1.854   0.915  0.3091 -1.2294  1.1809
 9263SOL     OW39250   2.809   2.915   5.243 -0.1104 -0.0253 -0.1075
 9263SOL    HW139251   2.743   2.848   5.257 -0.0335  0.2710  1.7745
 9263SOL    HW239252   2.749   2.989   5.231 -0.8236 -0.2829  1.8281
 9264SOL     OW39253   3.391   3.910   6.672 -0.0974 -0.2587 -0.1706
 9264SOL    HW139254   3.325   3.875   6.732  0.5489 -1.2879 -0.0551
 9264SOL    HW239255   3.425   3.978   6.729 -2.2675 -0.0301  0.8773
 9265SOL     OW39256   3.151   1.241   3.588  0.3332 -0.1266 -0.1123
 9265SOL    HW139257   3.115   1.325   3.559 -3.4456 -1.6321  0.2086
 9265SOL    HW239258   3.088   1.182   3.546 -0.3481 -0.0940  0.8664
 9266SOL     OW39259   3.151   0.122   0.861 -0.2062  0.9540  0.0623
 9266SOL    HW139260   3.205   0.129   0.940  1.4295 -3.8764 -0.6555
 9266SOL    HW239261   3.203   0.170   0.797  0.0079 -0.7737 -1.0512
 9267SOL     OW39262   1.316   1.675   3.368 -0.4311  0.2461 -0.0561
 9267SOL    HW139263   1.226   1.649   3.350 -0.8277  0.0567  2.1304
 9267SOL    HW239264   1.367   1.613   3.316 -1.2115 -1.2674  0.9642
 9268SOL     OW39265   3.899   0.759  12.350 -0.0908  0.0075 -0.0161
 9268SOL    HW139266   3.937   0.671  12.345  0.3038  0.1257  0.9009
 9268SOL    HW239267   3.962   0.808  12.403 -0.1705 -0.9493  0.9670
 9269SOL     OW39268   1.482   3.829   6.084 -0.4452  0.0516 -0.5815
 9269SOL    HW139269   1.392   3.799   6.094 -0.9493  1.1396 -1.9620
 9269SOL    HW239270   1.500   3.791   5.998  0.3367 -1.9553  0.4617
 9270SOL     OW39271   3.608   2.790   0.073 -0.3710  0.5540  0.2386
 9270SOL    HW139272   3.694   2.808   0.034 -1.1329  0.9919 -1.2691
 9270SOL    HW239273   3.555   2.791  17.696 -0.0710 -0.9529  0.0253
 9271SOL     OW39274   4.409   2.386   6.139 -0.1652  0.2743  0.0081
 9271SOL    HW139275   4.365   2.374   6.055  1.4078 -2.7464 -0.3491
 9271SOL    HW239276   4.454   2.304   6.154  1.5080  1.5664  1.9452
 9272SOL     OW39277   3.077   1.449  12.276 -0.4408 -0.3576 -0.3581
 9272SOL    HW139278   3.072   1.496  12.360 -2.8282 -0.0840 -0.6769
 9272SOL    HW239279   3.099   1.362  12.311  2.4104  0.6577  0.4039
 9273SOL     OW39280   1.553   1.404   2.173  0.0645 -0.3848  0.0472
 9273SOL    HW139281   1.557   1.309   2.183  0.2000 -0.3262  0.5515
 9273SOL    HW239282   1.463   1.418   2.202 -0.1699 -2.7636  0.5339
 9274SOL     OW39283   4.689   0.323   7.280  0.0370 -0.3034 -0.0134
 9274SOL    HW139284   0.014   0.246   7.305 -2.3732 -1.2124  1.9992
 9274SOL    HW239285   4.667   0.304   7.189 -0.2815  1.4370 -0.2994
 9275SOL     OW39286   0.745   0.439   2.481  0.1904 -0.3213  0.4987
 9275SOL    HW139287   0.743   0.533   2.502  1.8334  0.4997 -3.0178
 9275SOL    HW239288   0.839   0.426   2.472  0.2361  0.2105  0.2093
 9276SOL     OW39289   0.851   2.261   7.388 -0.0898 -0.0199  0.4887
 9276SOL    HW139290   0.838   2.203   7.313 -2.3665  0.6793  0.3491
 9276SOL    HW239291   0.759   2.283   7.399 -0.0444  0.2359  0.3468
 9277SOL     OW39292   2.733   3.259  10.860  0.2935 -0.0192  0.4827
 9277SOL    HW139293   2.645   3.241  10.894  0.0035  1.1215  0.3279
 9277SOL    HW239294   2.714   3.346  10.826  0.9865 -0.3856 -0.8310
 9278SOL     OW39295   2.511   1.706  15.570  0.5541  0.1871 -0.1591
 9278SOL    HW139296   2.433   1.658  15.595  1.4298 -2.0923 -1.7651
 9278SOL    HW239297   2.522   1.756  15.651 -1.5716 -2.0046  1.4574
 9279SOL     OW39298   0.974   2.158  16.840  0.2152 -0.6516 -0.5384
 9279SOL    HW139299   0.924   2.183  16.763 -1.9512 -2.7547  0.2194
 9279SOL    HW239300   1.003   2.072  16.811  0.4635 -1.7160  2.8083
 9280SOL     OW39301   4.218   4.353   8.542 -0.0350  0.4434  0.0420
 9280SOL    HW139302   4.218   4.416   8.470 -0.7252 -0.0112 -0.3591
 9280SOL    HW239303   4.229   4.273   8.490  1.7087 -0.0258  1.1362
 9281SOL     OW39304   1.018   0.930   9.442 -0.2198  0.0890 -0.1310
 9281SOL    HW139305   1.034   1.021   9.416 -1.0153  0.8929  2.1416
 9281SOL    HW239306   0.945   0.933   9.504  1.1649  1.3123  1.4592
 9282SOL     OW39307   0.752   1.441   4.259  0.0669 -0.1249  0.9356
 9282SOL    HW139308   0.762   1.428   4.354 -1.4698 -1.4689  0.9142
 9282SOL    HW239309   0.725   1.532   4.265 -0.5563 -0.2630  0.1401
 9283SOL     OW39310   0.697   0.009   6.915  0.1663 -0.0466  0.5970
 9283SOL    HW139311   0.680   4.659   6.971 -2.2219  0.7627  0.9274
 9283SOL    HW239312   0.697   4.692   6.829  0.2415 -0.3344  0.7383
 9284SOL     OW39313   2.839   3.340   8.430 -0.2724  0.6957  0.2736
 9284SOL    HW139314   2.814   3.305   8.345  1.3330 -0.3686  0.2339
 9284SOL    HW239315   2.901   3.277   8.468  0.2161  1.1574  0.2596
 9285SOL     OW39316   2.711   0.777   7.245  0.0998  0.8214  0.1925
 9285SOL    HW139317   2.754   0.754   7.163 -2.5299  0.6098 -1.0955
 9285SOL    HW239318   2.684   0.691   7.278  1.2088  0.2672 -0.3454
 9286SOL     OW39319   0.080   2.227   6.826  0.0768 -0.3780  0.0640
 9286SOL    HW139320   0.126   2.196   6.904 -0.4838  1.3456  1.0857
 9286SOL    HW239321   0.141   2.210   6.754  1.9843  0.1976  1.5528
 9287SOL     OW39322   2.302   4.255   9.053  0.1298  0.0734  0.1346
 9287SOL    HW139323   2.237   4.322   9.070 -0.5771 -0.8532  1.1248
 9287SOL    HW239324   2.341   4.271   8.966 -1.5445  0.1304 -0.6078
 9288SOL     OW39325   0.421   2.139   8.850 -0.0499  0.0815  0.0238
 9288SOL    HW139326   0.338   2.173   8.818 -0.2073 -0.7092 -0.4036
 9288SOL    HW239327   0.484   2.192   8.801 -1.0588  2.4216  1.2251
 9289SOL     OW39328   2.385   2.054  10.176  0.1028 -0.2126  0.3181
 9289SOL    HW139329   2.375   2.059  10.272 -0.6830 -1.3081  0.2997
 9289SOL    HW239330   2.350   1.967  10.154 -0.3960 -0.1724  0.9550
 9290SOL     OW39331   0.066   1.916   6.017 -0.0671 -0.1650 -0.3209
 9290SOL    HW139332   0.034   1.826   6.024  0.1010  0.0034  2.8913
 9290SOL    HW239333   0.152   1.903   6.058 -1.2967 -0.3187  2.2498
 9291SOL     OW39334   1.879   3.591   4.401 -0.7096 -0.0011 -0.4217
 9291SOL    HW139335   1.844   3.625   4.483 -0.2043  0.2377 -0.3053
 9291SOL    HW239336   1.806   3.551   4.353  3.0675 -2.1321 -4.4233
 9292SOL     OW39337   2.492   2.335   5.319  0.1661  0.1995  0.4320
 9292SOL    HW139338   2.584   2.320   5.342  0.4989  1.8125  0.1182
 9292SOL    HW239339   2.448   2.256   5.351 -1.8000  0.6314 -1.2469
 9293SOL     OW39340   1.796   2.551   1.512 -0.1568  0.8931 -0.0159
 9293SOL    HW139341   1.812   2.615   1.582  2.5854 -0.0954  0.2677
 9293SOL    HW239342   1.702   2.557   1.529 -0.1846  2.2493 -0.6509
 9294SOL     OW39343   3.305   2.631   0.937 -0.3692 -0.6232 -0.1013
 9294SOL    HW139344   3.258   2.583   1.004 -0.4256  1.4405  1.3461
 9294SOL    HW239345   3.361   2.698   0.976 -0.4964 -1.0796  0.8478
 9295SOL     OW39346   4.033   1.167   2.393 -0.0534  0.1196 -0.4674
 9295SOL    HW139347   4.109   1.109   2.398 -1.0489 -1.3164 -2.1687
 9295SOL    HW239348   3.982   1.153   2.472 -0.8907  1.6421 -0.7308
 9296SOL     OW39349   1.189   0.197   6.236 -0.2367 -0.2154  0.3872
 9296SOL    HW139350   1.125   0.126   6.234 -0.4376 -0.0126 -0.6515
 9296SOL    HW239351   1.268   0.146   6.245 -0.2204  0.0371  1.5881
 9297SOL     OW39352   2.733   3.568   8.557  0.3708  0.3298 -0.1445
 9297SOL    HW139353   2.649   3.523   8.561  0.4875  0.2280  1.0963
 9297SOL    HW239354   2.782   3.490   8.532  0.9667  0.1783  1.4584
 9298SOL     OW39355   3.302   0.035   4.123 -0.3480  0.0685  0.3183
 9298SOL    HW139356   3.372   0.075   4.071 -0.6689 -0.0795 -0.2233
 9298SOL    HW239357   3.357   4.704   4.177 -0.1405 -0.7113 -0.6999
 9299SOL     OW39358   2.134   0.545   9.878  0.1572  0.0400  0.5550
 9299SOL    HW139359   2.118   0.453   9.857 -2.0690  0.6660 -0.5123
 9299SOL    HW239360   2.151   0.575   9.788 -1.1760  0.9222  0.5941
 9300SOL     OW39361   1.279   0.914   5.018  0.2498 -0.0924  0.4923
 9300SOL    HW139362   1.256   0.935   4.927 -1.0164  2.2156  1.3419
 9300SOL    HW239363   1.217   0.844   5.038 -1.1265  1.2678  0.9567
 9301SOL     OW39364   0.091   1.197   7.847  0.1818  1.1182 -0.3986
 9301SOL    HW139365   0.028   1.133   7.879  0.0554  0.5195 -1.8372
 9301SOL    HW239366   0.073   1.262   7.914  0.6704  0.0939  0.7216
 9302SOL     OW39367   2.179   2.387   3.252 -0.0380  0.0261 -0.1269
 9302SOL    HW139368   2.197   2.408   3.343 -2.0200 -3.7957  1.1392
 9302SOL    HW239369   2.122   2.459   3.227 -0.3046 -0.3056 -0.4698
 9303SOL     OW39370   4.652   4.245   1.436  0.1008  0.3955  0.5441
 9303SOL    HW139371   4.644   4.333   1.471 -0.6193  0.3158  0.5725
 9303SOL    HW239372   4.577   4.204   1.480 -0.2608  1.4905  0.9280
 9304SOL     OW39373   2.286   2.441   5.729  0.3525  0.6781 -0.2588
 9304SOL    HW139374   2.269   2.475   5.817  0.3720 -1.0434  0.4091
 9304SOL    HW239375   2.207   2.394   5.704  0.3731  0.8273 -0.6131
 9305SOL     OW39376   2.990   1.739   5.052  0.2710  0.2295 -0.6818
 9305SOL    HW139377   2.913   1.683   5.066 -0.2174  1.1060  0.0667
 9305SOL    HW239378   2.997   1.744   4.956 -1.3270  1.1357 -0.7428
 9306SOL     OW39379   2.631   2.593   4.783  0.2085 -0.0045  0.0273
 9306SOL    HW139380   2.700   2.634   4.730 -1.1757 -0.0057 -1.7633
 9306SOL    HW239381   2.617   2.658   4.852 -0.0629 -0.0224 -0.0135
 9307SOL     OW39382   1.002   0.003   5.316 -0.4519  0.0590  0.5465
 9307SOL    HW139383   0.976   4.718   5.408  1.2869  0.7684  1.1210
 9307SOL    HW239384   1.085   0.044   5.337 -1.1801  1.9259 -0.2679
 9308SOL     OW39385   4.153   0.501   7.142 -0.0099  0.3628  0.3025
 9308SOL    HW139386   4.086   0.492   7.210 -0.3974 -0.6911 -0.2271
 9308SOL    HW239387   4.162   0.597   7.142 -1.6447  0.5198 -0.8604
 9309SOL     OW39388   2.259   0.760   8.845 -0.7195 -0.4188 -0.2661
 9309SOL    HW139389   2.346   0.746   8.882 -0.6798 -0.2766 -0.3057
 9309SOL    HW239390   2.225   0.832   8.898 -1.5041 -2.1093  1.5393
 9310SOL     OW39391   2.110   3.528   8.841  0.3031  0.2780  0.3571
 9310SOL    HW139392   2.120   3.445   8.887 -2.5196 -1.7161 -2.6066
 9310SOL    HW239393   2.048   3.575   8.898 -0.3841 -3.6592  2.8939
 9311SOL     OW39394   2.659   4.630   8.923  0.1934  0.3760 -0.6876
 9311SOL    HW139395   2.692   4.572   8.854  1.3834 -0.3287  0.4811
 9311SOL    HW239396   2.648   4.572   8.998 -0.4915  1.3767 -0.0226
 9312SOL     OW39397   0.707   4.238   4.458  0.2454 -0.1477  0.2873
 9312SOL    HW139398   0.746   4.319   4.490 -1.3785  0.1171  1.6016
 9312SOL    HW239399   0.779   4.196   4.411 -0.2300 -0.6392 -0.0148
 9313SOL     OW39400   0.539   1.060   9.651  0.3421  0.1139 -0.1277
 9313SOL    HW139401   0.537   1.040   9.744  0.0449 -0.3967 -0.2446
 9313SOL    HW239402   0.619   1.015   9.622 -0.0483  0.1374 -1.2593
 9314SOL     OW39403   2.475   1.145   2.074  0.0040 -0.3121 -0.1560
 9314SOL    HW139404   2.402   1.148   2.013 -0.2955 -1.6041  0.1318
 9314SOL    HW239405   2.445   1.118   2.161  1.7859 -1.6740  0.0280
 9315SOL     OW39406   1.082   0.726   6.894 -0.2877  0.0277  0.0059
 9315SOL    HW139407   1.002   0.678   6.914 -0.3919  0.0368 -0.3903
 9315SOL    HW239408   1.075   0.723   6.799 -0.6643 -1.7939  0.0879
 9316SOL     OW39409   4.403   2.351   8.861 -0.2508 -0.1141 -0.5148
 9316SOL    HW139410   4.446   2.396   8.934  0.4724 -0.4514 -0.7338
 9316SOL    HW239411   4.395   2.420   8.795  0.7438 -0.8408 -1.3931
 9317SOL     OW39412   3.515   1.105   2.300  0.3407 -0.0579 -0.1332
 9317SOL    HW139413   3.529   1.021   2.257 -0.9831 -0.4433  0.1947
 9317SOL    HW239414   3.466   1.138   2.225  0.2663 -2.2625 -1.0468
 9318SOL     OW39415   1.776   1.416   3.478  0.6232 -0.2315 -0.7847
 9318SOL    HW139416   1.786   1.350   3.547 -1.2791 -1.1593 -1.4048
 9318SOL    HW239417   1.716   1.477   3.521  1.1612 -0.1339 -0.1609
 9319SOL     OW39418   0.683   2.841   7.919  0.7621 -0.2671  0.4321
 9319SOL    HW139419   0.682   2.820   7.826 -2.1867 -0.1172  0.4420
 9319SOL    HW239420   0.730   2.924   7.929  1.6460 -0.9537  2.0166
 9320SOL     OW39421   2.594   3.314   6.078 -0.1996  0.3309  0.4332
 9320SOL    HW139422   2.638   3.278   6.001 -0.0048 -1.0599  1.1949
 9320SOL    HW239423   2.530   3.372   6.037  1.5670  0.8936 -1.5427
 9321SOL     OW39424   0.550   3.906   8.721  0.0252  1.0905 -0.0172
 9321SOL    HW139425   0.511   3.979   8.769 -2.3270 -0.5876  0.5918
 9321SOL    HW239426   0.477   3.860   8.681  0.0009 -0.5489  1.9158
 9322SOL     OW39427   2.796   3.751   8.329 -0.3411  0.3507 -0.0368
 9322SOL    HW139428   2.758   3.675   8.371  0.0616 -0.3900 -1.0122
 9322SOL    HW239429   2.890   3.734   8.334  0.1374  2.4339 -1.7781
 9323SOL     OW39430   2.504   1.632   1.668  0.3509  0.0820 -0.6895
 9323SOL    HW139431   2.515   1.552   1.719 -1.7389  1.7950  2.4951
 9323SOL    HW239432   2.522   1.708   1.724 -3.1168  0.2257  0.2353
 9324SOL     OW39433   3.213   1.618  12.065  0.7414  0.7379  0.2823
 9324SOL    HW139434   3.127   1.596  12.028 -0.5078  2.3664  2.2277
 9324SOL    HW239435   3.206   1.550  12.132  0.0669  0.0538 -0.4776
 9325SOL     OW39436   2.815   3.168  13.841 -0.3681 -1.2196  0.2275
 9325SOL    HW139437   2.762   3.109  13.895 -2.5060 -1.4680 -2.1383
 9325SOL    HW239438   2.745   3.216  13.796  0.3040 -1.0483 -0.6409
 9326SOL     OW39439   0.283   4.573  13.400  0.0992  0.3028 -0.4520
 9326SOL    HW139440   0.362   4.546  13.353 -0.2634 -0.4192 -0.6569
 9326SOL    HW239441   0.279   4.499  13.461  0.6929  0.5181 -0.1556
 9327SOL     OW39442   4.653   0.591   0.787 -0.5354  0.0038 -0.7292
 9327SOL    HW139443   4.615   0.549   0.710  0.9729 -0.6485 -1.1197
 9327SOL    HW239444   4.644   0.521   0.852 -2.1878 -2.4009 -3.5445
 9328SOL     OW39445   1.017   2.602   4.763  0.0191  0.1437 -0.4245
 9328SOL    HW139446   0.998   2.510   4.784  0.6191  0.0071 -0.4895
 9328SOL    HW239447   0.992   2.647   4.843  0.5685  1.6174 -1.0801
 9329SOL     OW39448   2.595   4.152   9.482 -0.1062 -0.1601  0.0487
 9329SOL    HW139449   2.574   4.063   9.453 -0.1952 -0.7343  1.8924
 9329SOL    HW239450   2.680   4.164   9.441 -0.2120 -0.6944 -0.3317
 9330SOL     OW39451   3.633   0.169   5.017 -0.5896 -0.5240 -0.3089
 9330SOL    HW139452   3.557   0.132   5.063  1.6071 -2.0681  2.0505
 9330SOL    HW239453   3.602   0.259   5.006 -0.0675  0.0220  2.6868
 9331SOL     OW39454   2.935   2.156  13.429 -0.1763  0.2819  0.0306
 9331SOL    HW139455   3.012   2.171  13.484 -0.7504 -1.0170  1.1793
 9331SOL    HW239456   2.913   2.065  13.448 -1.4808  0.4526 -0.6940
 9332SOL     OW39457   3.322   3.708   0.420 -0.0060 -0.0338 -0.5837
 9332SOL    HW139458   3.395   3.739   0.473 -2.3156  1.1377  1.8826
 9332SOL    HW239459   3.325   3.772   0.349  2.7761  1.0498  0.5269
 9333SOL     OW39460   1.581   4.527   7.859 -0.0175  0.5024 -0.3464
 9333SOL    HW139461   1.647   4.462   7.883  0.0560  0.5942 -0.3020
 9333SOL    HW239462   1.510   4.477   7.819  1.3158 -0.0776 -2.0293
 9334SOL     OW39463   0.308   2.957   2.394 -0.0514 -0.0564  0.7708
 9334SOL    HW139464   0.382   3.018   2.399 -0.4849  0.8626 -3.7998
 9334SOL    HW239465   0.268   2.985   2.312  2.7291  0.0678 -0.5572
 9335SOL     OW39466   2.855   2.389  12.648  0.1234 -0.3974  0.3199
 9335SOL    HW139467   2.871   2.297  12.669 -0.4078 -0.8214 -1.1064
 9335SOL    HW239468   2.842   2.388  12.553 -0.0488  2.8335  0.2855
 9336SOL     OW39469   0.682   4.125   6.221  0.2383 -1.2464  0.3260
 9336SOL    HW139470   0.691   4.032   6.198 -0.5725 -1.7824  2.1146
 9336SOL    HW239471   0.753   4.167   6.173 -0.5521  0.2040  0.4226
 9337SOL     OW39472   4.404   2.849   2.252  0.3284  0.4077 -0.5732
 9337SOL    HW139473   4.456   2.913   2.204  2.3470  0.3193  1.4929
 9337SOL    HW239474   4.313   2.875   2.238  0.5727  0.7451 -1.5234
 9338SOL     OW39475   4.692   4.391  13.491 -0.4118 -0.0057 -0.1384
 9338SOL    HW139476   4.707   4.298  13.503  0.1745  0.1738  0.5582
 9338SOL    HW239477   4.620   4.400  13.430 -0.4695 -0.3436 -0.1206
 9339SOL     OW39478   4.372   0.335   8.108  0.1339 -0.1443  0.0376
 9339SOL    HW139479   4.287   0.307   8.144 -0.7605  2.1587 -0.2685
 9339SOL    HW239480   4.382   0.423   8.145 -1.1824  0.1769 -0.3559
 9340SOL     OW39481   4.267   3.265   3.399  0.4572 -0.8057  0.1040
 9340SOL    HW139482   4.233   3.213   3.326 -2.1610  1.0789 -0.0102
 9340SOL    HW239483   4.214   3.344   3.406  0.5986 -0.5703 -1.5496
 9341SOL     OW39484   2.496   3.666  15.191 -0.1598 -0.4282  0.3699
 9341SOL    HW139485   2.579   3.635  15.228 -1.1525 -0.8133  2.2485
 9341SOL    HW239486   2.530   3.725  15.124 -0.7782 -0.7951 -0.2525
 9342SOL     OW39487   3.410   3.268   3.766 -0.3432 -0.4442 -0.3751
 9342SOL    HW139488   3.383   3.312   3.685 -0.4349  0.0699 -0.0700
 9342SOL    HW239489   3.501   3.259   3.738 -0.1621 -0.9620  0.3713
 9343SOL     OW39490   3.653   1.412   3.109 -0.1416  0.0142  0.7195
 9343SOL    HW139491   3.729   1.359   3.131  0.4932  1.1450  1.2317
 9343SOL    HW239492   3.608   1.397   3.193 -1.5109 -0.7840 -0.1375
 9344SOL     OW39493   3.857   4.699   5.140 -0.2332 -0.0604 -0.0873
 9344SOL    HW139494   3.814   4.616   5.158 -0.8116  0.5512  1.3583
 9344SOL    HW239495   3.790   0.013   5.084  1.0730  0.4115 -1.3331
 9345SOL     OW39496   2.027   4.462   5.765 -0.2624 -0.1345  0.3375
 9345SOL    HW139497   1.979   4.520   5.707  2.0651  1.2589 -0.1648
 9345SOL    HW239498   2.109   4.445   5.718 -0.2567 -0.0842  0.3297
 9346SOL     OW39499   2.652   1.268  14.858 -0.5991  0.8147  0.5176
 9346SOL    HW139500   2.591   1.326  14.902 -0.1731 -0.0500  2.2748
 9346SOL    HW239501   2.709   1.251  14.934  2.7992  0.5605 -2.0661
 9347SOL     OW39502   4.483   3.739  15.573  0.3612 -0.0498  0.3258
 9347SOL    HW139503   4.408   3.722  15.631 -0.6184  0.7386 -0.7246
 9347SOL    HW239504   4.549   3.780  15.629  0.4965 -0.1848  0.2642
 9348SOL     OW39505   3.147   4.604   9.100  0.0914 -0.6396  0.1432
 9348SOL    HW139506   3.100   4.573   9.177 -1.0613  0.2486 -0.2178
 9348SOL    HW239507   3.225   4.636   9.145  0.3004 -1.3591  0.2852
 9349SOL     OW39508   0.478   4.191  16.273  0.3949  0.0551  0.0595
 9349SOL    HW139509   0.527   4.267  16.304 -0.2539  0.4400  0.1475
 9349SOL    HW239510   0.393   4.205  16.314  1.4846 -1.3303  2.7980
 9350SOL     OW39511   0.962   2.620   3.312  0.3055  0.6799  0.0744
 9350SOL    HW139512   1.015   2.562   3.257 -1.3875 -0.3252 -0.5152
 9350SOL    HW239513   1.000   2.598   3.397  0.9230 -1.2824 -0.7085
 9351SOL     OW39514   4.620   2.597   7.703 -0.1506 -0.4769  0.1196
 9351SOL    HW139515   4.672   2.675   7.721  0.6157 -0.9957  0.1234
 9351SOL    HW239516   4.633   2.566   7.792 -2.8126  0.3017  0.7784
 9352SOL     OW39517   1.241   0.654   9.496 -0.0296 -0.4318 -0.1570
 9352SOL    HW139518   1.222   0.743   9.465 -1.2906 -0.4118  0.7182
 9352SOL    HW239519   1.328   0.636   9.458 -1.3144  0.2022 -3.4256
 9353SOL     OW39520   2.785   1.623  10.527  0.3921 -0.0959  0.3210
 9353SOL    HW139521   2.804   1.705  10.481 -2.1255  0.5100  0.3927
 9353SOL    HW239522   2.845   1.569  10.475 -0.4049 -3.3897  2.8363
 9354SOL     OW39523   2.741   2.881   8.064  0.2697  0.1684  0.2917
 9354SOL    HW139524   2.664   2.937   8.075  1.7725  1.8358  2.4957
 9354SOL    HW239525   2.755   2.857   8.156  0.2796  2.0798  0.7996
 9355SOL     OW39526   2.902   2.534   4.322  0.7359  0.2000 -0.5299
 9355SOL    HW139527   2.931   2.560   4.409  0.1703 -0.2200 -0.2179
 9355SOL    HW239528   2.808   2.552   4.326  0.4179 -0.7241 -3.4734
 9356SOL     OW39529   0.190   1.697  11.585  0.2858  0.1441 -0.1931
 9356SOL    HW139530   0.212   1.765  11.649 -0.6149  0.5247 -0.2844
 9356SOL    HW239531   0.259   1.635  11.609 -0.0202 -0.1750 -0.1414
 9357SOL     OW39532   0.461   2.471   0.155 -0.2255  0.2329 -0.8248
 9357SOL    HW139533   0.508   2.390   0.131 -0.9139 -0.4051 -0.0125
 9357SOL    HW239534   0.370   2.441   0.157 -0.6177  1.5068  0.0039
 9358SOL     OW39535   4.543   4.611   6.097 -0.5024 -1.0746 -0.4464
 9358SOL    HW139536   4.483   4.686   6.102 -0.2473 -0.9656  0.9729
 9358SOL    HW239537   4.482   4.542   6.071 -1.4158 -0.5198  0.2236
 9359SOL     OW39538   2.247   1.363   5.975 -0.3059 -0.0799  0.0099
 9359SOL    HW139539   2.214   1.276   5.957 -0.5778  0.1338 -0.5258
 9359SOL    HW239540   2.187   1.426   5.935 -0.4024  0.0921  0.4197
 9360SOL     OW39541   3.625   3.559   7.120  0.3274 -0.0900 -0.5912
 9360SOL    HW139542   3.603   3.579   7.029  1.2622 -0.6879 -0.9470
 9360SOL    HW239543   3.570   3.485   7.146  1.7063 -0.5917  0.9494
 9361SOL     OW39544   1.780   3.284   7.467 -0.0656  0.1160 -0.0128
 9361SOL    HW139545   1.865   3.243   7.455 -0.3713 -0.7481  0.7296
 9361SOL    HW239546   1.761   3.330   7.386 -2.3709 -1.7177 -0.5430
 9362SOL     OW39547   2.787   4.270   2.433  0.2362  0.6185 -0.1090
 9362SOL    HW139548   2.856   4.266   2.366 -0.0885 -1.7530 -0.3225
 9362SOL    HW239549   2.723   4.212   2.391  0.8503 -0.0521 -0.1398
 9363SOL     OW39550   4.481   4.678   2.984 -0.1493 -0.1738  0.7042
 9363SOL    HW139551   4.404   4.622   2.980  1.3620 -2.4112  2.9448
 9363SOL    HW239552   4.438   0.035   3.007 -0.2178  0.2605 -1.0077
 9364SOL     OW39553   2.712   4.468  15.858  0.2446  0.0500 -0.0253
 9364SOL    HW139554   2.677   4.409  15.792 -0.0320  1.3840 -1.0800
 9364SOL    HW239555   2.663   4.437  15.934 -1.2074  2.1234 -0.1042
 9365SOL     OW39556   1.996   0.788  14.669  0.0167 -0.3765  0.2894
 9365SOL    HW139557   1.933   0.857  14.650 -1.5497 -1.7892  0.3803
 9365SOL    HW239558   1.939   0.713  14.687 -0.0226 -0.6436 -0.9398
 9366SOL     OW39559   3.120   1.941  13.357 -0.3013  0.1507  0.4620
 9366SOL    HW139560   3.168   1.872  13.312 -0.0988  0.0452  0.8368
 9366SOL    HW239561   3.097   2.006  13.291 -0.1106 -1.2634 -0.9782
 9367SOL     OW39562   4.314   0.075   7.357 -0.0373  0.5265  0.2003
 9367SOL    HW139563   4.282   0.136   7.290 -0.5806  0.4643  0.4013
 9367SOL    HW239564   4.390   0.120   7.393  2.1851 -1.2375 -2.2434
 9368SOL     OW39565   2.489   4.685   3.530  0.7996 -0.5304 -0.1865
 9368SOL    HW139566   2.579   4.716   3.523  0.6658  0.2547  1.5580
 9368SOL    HW239567   2.455   0.019   3.463  1.8699 -0.8235 -0.9797
 9369SOL     OW39568   4.437   4.399   4.760  0.1941 -0.2190  0.5028
 9369SOL    HW139569   4.352   4.365   4.731 -0.5350  1.1874  0.9795
 9369SOL    HW239570   4.424   4.491   4.738 -0.4433  0.1951  2.6310
 9370SOL     OW39571   0.052   4.271   0.175 -0.0843 -0.6550  0.3543
 9370SOL    HW139572   4.709   4.215   0.139  3.1184 -3.9047 -0.7381
 9370SOL    HW239573   0.128   4.249   0.120 -0.6985 -1.8855  0.0107
 9371SOL     OW39574   2.186   3.899   6.913  0.3732 -0.5795 -0.5978
 9371SOL    HW139575   2.183   3.992   6.935  2.7808 -0.2907 -1.5412
 9371SOL    HW239576   2.100   3.872   6.946  1.1310 -2.2864 -0.0006
 9372SOL     OW39577   3.886   2.011   6.207  0.2254  0.4875 -0.0458
 9372SOL    HW139578   3.908   1.931   6.255  0.4664  1.8929  2.1868
 9372SOL    HW239579   3.940   2.002   6.129  0.2693  0.6358 -0.0309
 9373SOL     OW39580   3.926   3.079   5.042  0.3161  0.5310 -0.1782
 9373SOL    HW139581   3.958   3.163   5.011  1.5133  0.2490  0.3183
 9373SOL    HW239582   3.871   3.104   5.116 -0.5560 -0.2159 -0.5714
 9374SOL     OW39583   3.792   3.798   5.979  0.7356 -0.5351  0.1514
 9374SOL    HW139584   3.881   3.835   5.981  0.8311 -0.6379 -1.8706
 9374SOL    HW239585   3.808   3.703   5.977  2.6480 -0.2300  1.0143
 9375SOL     OW39586   2.596   1.057   5.454 -0.9839  0.4816 -0.1059
 9375SOL    HW139587   2.638   0.973   5.435  0.0318  0.7464  1.0457
 9375SOL    HW239588   2.549   1.040   5.535 -0.0178  1.3846  0.6385
 9376SOL     OW39589   2.421   1.117   3.207 -0.4687 -0.3242 -0.4872
 9376SOL    HW139590   2.497   1.111   3.148 -0.2383 -0.4869 -0.1715
 9376SOL    HW239591   2.381   1.198   3.174 -1.0101  0.9381  3.3019
 9377SOL     OW39592   2.793   0.094  16.065  0.5704  0.3641  0.6930
 9377SOL    HW139593   2.836   0.166  16.110 -1.2957  1.5188  0.6010
 9377SOL    HW239594   2.838   0.095  15.981  1.4806  3.8510  1.2411
 9378SOL     OW39595   4.272   0.732  16.230  0.2315 -0.3588 -0.7538
 9378SOL    HW139596   4.210   0.660  16.229  0.4178 -0.5122 -1.3328
 9378SOL    HW239597   4.298   0.750  16.139 -2.5015  1.9746 -1.0659
 9379SOL     OW39598   0.006   4.703   4.871 -0.2531 -0.6176  0.4983
 9379SOL    HW139599   4.701   4.618   4.903  2.1087 -0.5183  2.9542
 9379SOL    HW239600   0.030   0.020   4.954  0.7527  0.1333 -0.1772
 9380SOL     OW39601   2.981   0.745  17.421  0.0681 -0.0069  0.0278
 9380SOL    HW139602   2.920   0.682  17.460  1.0487 -1.3995 -0.7035
 9380SOL    HW239603   3.009   0.787  17.502  2.0047 -0.1125 -0.6023
 9381SOL     OW39604   0.683   3.238   5.113 -0.0835 -0.3547 -0.2602
 9381SOL    HW139605   0.685   3.330   5.141  1.9025 -0.8491  1.2168
 9381SOL    HW239606   0.765   3.198   5.140  1.1020  0.5818 -2.4965
 9382SOL     OW39607   1.434   1.579   1.809 -0.3357  0.1095  0.6037
 9382SOL    HW139608   1.339   1.574   1.807 -0.4371  1.7612  1.4374
 9382SOL    HW239609   1.447   1.577   1.714 -1.4757  1.0959  0.4380
 9383SOL     OW39610   4.698   1.750  17.550 -0.1397  0.5575  0.2424
 9383SOL    HW139611   0.037   1.804  17.505  2.0214 -0.4127  2.2060
 9383SOL    HW239612   4.704   1.669  17.498  0.5433  0.4297  0.5313
 9384SOL     OW39613   1.137   0.721   2.405 -0.4117  0.0355 -0.1320
 9384SOL    HW139614   1.128   0.743   2.312  0.9702  0.1476 -0.2414
 9384SOL    HW239615   1.106   0.631   2.414 -0.0117 -0.3056 -2.0495
 9385SOL     OW39616   4.031   4.322   7.500 -0.2458 -0.0075 -0.4150
 9385SOL    HW139617   4.043   4.227   7.503 -3.2175 -0.4019 -0.7279
 9385SOL    HW239618   4.119   4.356   7.510 -0.2585  0.1618 -0.8532
 9386SOL     OW39619   2.243   2.020   5.229 -0.3484 -0.0494  0.6011
 9386SOL    HW139620   2.283   2.062   5.306 -0.1152  0.5785  0.1331
 9386SOL    HW239621   2.301   2.060   5.165 -2.2701  1.3910 -0.2247
 9387SOL     OW39622   0.673   3.453   9.284 -1.1041 -0.1943  0.6551
 9387SOL    HW139623   0.658   3.456   9.189 -1.8815 -1.2187  0.7468
 9387SOL    HW239624   0.765   3.426   9.286 -0.6863  1.4678  3.5692
 9388SOL     OW39625   0.133   4.075   4.687 -0.0238 -0.2501 -0.2433
 9388SOL    HW139626   0.136   4.135   4.762  1.3861 -1.0837  0.3794
 9388SOL    HW239627   0.083   3.997   4.708  0.8899 -0.3241  1.6956
 9389SOL     OW39628   3.674   2.387  17.408 -0.0639  0.5162  0.1830
 9389SOL    HW139629   3.637   2.450  17.346 -1.3623  0.9450  1.4136
 9389SOL    HW239630   3.600   2.336  17.440  0.6436 -0.5341  0.1245
 9390SOL     OW39631   2.619   3.470   8.249 -0.0302 -0.4718 -0.0398
 9390SOL    HW139632   2.579   3.393   8.290  0.9452 -1.4034 -0.8390
 9390SOL    HW239633   2.711   3.446   8.236  0.1065 -0.6327  1.1924
 9391SOL     OW39634   2.200   1.162  12.275  0.4104 -0.6351  0.3702
 9391SOL    HW139635   2.262   1.194  12.340  0.8702 -1.5585  0.3848
 9391SOL    HW239636   2.125   1.151  12.334  0.1003 -1.1145 -0.1062
 9392SOL     OW39637   3.740   0.759   2.868  0.0870  0.1296 -0.5905
 9392SOL    HW139638   3.765   0.712   2.947 -2.5790 -0.9309 -0.4023
 9392SOL    HW239639   3.645   0.769   2.874 -0.1184 -1.8900 -0.6530
 9393SOL     OW39640   4.492   3.762  12.190  0.2539  0.3903  0.3928
 9393SOL    HW139641   4.512   3.836  12.133  2.1984 -1.6385 -1.5611
 9393SOL    HW239642   4.416   3.792  12.240  0.5121  3.5105 -1.0716
 9394SOL     OW39643   0.046   1.684   4.920  0.4652  0.1178  0.4408
 9394SOL    HW139644   0.064   1.778   4.921  1.1775  0.0181 -2.0433
 9394SOL    HW239645   4.678   1.688   4.899  1.0145 -1.0325 -2.2223
 9395SOL     OW39646   1.407   4.509  11.609  0.2491  0.3404  0.4362
 9395SOL    HW139647   1.358   4.589  11.590 -2.1821 -0.5498  2.9810
 9395SOL    HW239648   1.460   4.536  11.684  1.0303  1.9203 -0.6761
 9396SOL     OW39649   0.184   3.452   1.642 -0.1276 -0.2234  0.2312
 9396SOL    HW139650   0.191   3.545   1.663  1.7356 -0.7622  2.0032
 9396SOL    HW239651   0.252   3.421   1.703 -0.4942 -0.8688  0.3148
 9397SOL     OW39652   4.385   4.510  15.363  0.4395 -0.2282  0.7120
 9397SOL    HW139653   4.459   4.510  15.423 -1.2133 -1.8332  2.7550
 9397SOL    HW239654   4.336   4.430  15.380  0.6211 -0.5215 -0.1294
 9398SOL     OW39655   1.033   3.591   3.142 -0.2173 -0.5170  0.1602
 9398SOL    HW139656   1.076   3.601   3.227 -0.0604 -2.5382  0.3147
 9398SOL    HW239657   1.103   3.554   3.088  0.7823  1.3344  0.1553
 9399SOL     OW39658   2.389   1.114   4.907  0.4497 -0.1874 -0.4314
 9399SOL    HW139659   2.399   1.031   4.859  0.1006  0.5991 -1.8454
 9399SOL    HW239660   2.458   1.098   4.972  1.2668  0.6926 -1.0697
 9400SOL     OW39661   0.366   2.152   7.666  0.0537  0.4287  0.1449
 9400SOL    HW139662   0.322   2.220   7.718  0.1487  0.2991  0.3896
 9400SOL    HW239663   0.425   2.111   7.728  0.0838  1.8309  1.0482
 9401SOL     OW39664   0.384   1.473   4.155  0.0518  0.3856 -0.7067
 9401SOL    HW139665   0.304   1.525   4.158 -1.4552 -2.0451  1.7375
 9401SOL    HW239666   0.422   1.484   4.243 -1.4430 -2.4015  0.2876
 9402SOL     OW39667   4.242   1.489   8.117 -0.2306 -0.3784 -0.1958
 9402SOL    HW139668   4.163   1.447   8.083 -0.9499  0.1946  0.8065
 9402SOL    HW239669   4.208   1.570   8.155  0.9245 -0.1406  0.3249
 9403SOL     OW39670   0.024   3.016   4.018 -0.1491  0.8261 -0.0967
 9403SOL    HW139671   0.096   3.043   4.075 -1.4953  2.4609  0.8123
 9403SOL    HW239672   0.028   2.920   4.023 -0.4802  0.9502  2.4372
 9404SOL     OW39673   2.174   4.133   4.323  0.1964 -0.1923 -0.3383
 9404SOL    HW139674   2.188   4.109   4.232  1.4494  1.3203 -0.5486
 9404SOL    HW239675   2.219   4.058   4.361 -2.5527 -1.6383  0.0511
 9405SOL     OW39676   2.089   1.492  17.391  0.3179  0.2600  0.3946
 9405SOL    HW139677   2.093   1.578  17.433 -1.2948  0.5315 -0.0053
 9405SOL    HW239678   1.995   1.473  17.382  0.1478  0.5355  1.6871
 9406SOL     OW39679   0.519   0.058   7.328 -0.0096  0.2470 -0.0141
 9406SOL    HW139680   0.565   4.700   7.345 -2.1162 -1.1109 -1.0031
 9406SOL    HW239681   0.525   0.107   7.410  1.3578  0.8493 -0.4671
 9407SOL     OW39682   4.487   1.012  15.558  0.5823  0.2052  0.9301
 9407SOL    HW139683   4.571   1.016  15.603  0.6482  2.8635  0.5494
 9407SOL    HW239684   4.505   1.057  15.476 -1.7994 -0.1929  0.1841
 9408SOL     OW39685   3.785   0.371   4.760  0.0165 -0.2158 -0.2045
 9408SOL    HW139686   3.710   0.406   4.808 -0.9180  3.7302 -4.6433
 9408SOL    HW239687   3.747   0.309   4.698  2.7266 -1.4853 -0.5812
 9409SOL     OW39688   1.583   0.991   3.164  0.4554  0.4400 -0.1889
 9409SOL    HW139689   1.594   1.064   3.103 -2.4513 -0.0407 -1.2686
 9409SOL    HW239690   1.612   1.035   3.244  0.7746  3.1474 -1.7794
 9410SOL     OW39691   0.884   0.776   5.733  0.2203  0.2193 -0.2603
 9410SOL    HW139692   0.887   0.687   5.698 -0.3081  0.3123 -0.5382
 9410SOL    HW239693   0.976   0.795   5.751  1.0041 -0.8506 -3.1657
 9411SOL     OW39694   3.029   4.193   4.632  0.2847 -0.1981  0.1657
 9411SOL    HW139695   3.000   4.250   4.561  2.0060 -1.8940 -1.8944
 9411SOL    HW239696   3.024   4.259   4.701 -0.4825 -0.5662  0.4607
 9412SOL     OW39697   2.106   4.214  12.470  0.1860 -0.4581 -0.4105
 9412SOL    HW139698   2.157   4.273  12.414 -1.3612  1.7732  0.5524
 9412SOL    HW239699   2.175   4.160  12.507  0.4103  2.9001  4.0731
 9413SOL     OW39700   2.017   1.887   1.523  0.1805 -0.2289 -0.4258
 9413SOL    HW139701   1.986   1.797   1.516  1.1831 -0.6692  0.6001
 9413SOL    HW239702   2.100   1.875   1.570 -0.1227  1.1296  0.4772
 9414SOL     OW39703   3.670   0.638   2.217  0.2430  0.1124 -0.3003
 9414SOL    HW139704   3.685   0.561   2.163 -1.5503 -0.5892  0.2035
 9414SOL    HW239705   3.683   0.596   2.302 -1.0953 -1.5527 -0.9157
 9415SOL     OW39706   0.737   1.103  12.526  0.0091 -0.0318 -0.0276
 9415SOL    HW139707   0.774   1.174  12.578  3.2436 -1.6121 -0.1721
 9415SOL    HW239708   0.722   1.040  12.595  3.4416  0.3055  1.0351
 9416SOL     OW39709   2.568   0.370  16.456 -0.1345 -0.1797  0.0014
 9416SOL    HW139710   2.577   0.463  16.434  0.1561  0.1371  1.4292
 9416SOL    HW239711   2.493   0.385  16.514 -0.5574 -1.5721 -0.2053
 9417SOL     OW39712   4.617   3.806   6.740  0.1665  0.0379  0.3078
 9417SOL    HW139713   4.671   3.755   6.800 -0.7909 -0.1175  1.0489
 9417SOL    HW239714   4.643   3.778   6.653 -0.9546 -0.0101 -0.0052
 9418SOL     OW39715   2.556   0.468   5.451 -0.8031  0.5386 -0.7190
 9418SOL    HW139716   2.651   0.472   5.453 -0.8113 -0.1191  1.2412
 9418SOL    HW239717   2.535   0.499   5.363  1.5801 -0.8048 -1.7651
 9419SOL     OW39718   4.716   2.033  15.229 -0.1970 -0.0190 -0.4306
 9419SOL    HW139719   4.684   2.123  15.229  0.8454  0.3552  0.0786
 9419SOL    HW239720   4.645   1.991  15.278 -2.2342  0.0746 -3.2815
 9420SOL     OW39721   4.263   0.426   1.870 -0.1109  0.2991  0.6520
 9420SOL    HW139722   4.263   0.368   1.946  0.7413  0.2242  0.5993
 9420SOL    HW239723   4.234   0.509   1.907  1.3727  1.8936 -1.7692
 9421SOL     OW39724   2.336   1.961   7.962 -0.1076  0.5605  0.4731
 9421SOL    HW139725   2.253   1.937   7.920 -0.2342 -0.3735  1.2611
 9421SOL    HW239726   2.392   1.886   7.942  0.3493  1.1512 -0.4309
 9422SOL     OW39727   3.168   3.539  16.019 -0.0299 -0.5107  0.0062
 9422SOL    HW139728   3.247   3.590  16.001 -0.2110 -0.7445 -1.4668
 9422SOL    HW239729   3.173   3.526  16.113 -0.4921 -1.2502 -0.0765
 9423SOL     OW39730   2.210   1.156   1.371 -0.2260 -0.1537 -0.3169
 9423SOL    HW139731   2.276   1.220   1.346 -1.1045  1.1260  0.6806
 9423SOL    HW239732   2.262   1.076   1.363  1.2693  0.9732 -1.7554
 9424SOL     OW39733   3.642   3.739   7.660  0.1795  0.1027  0.0736
 9424SOL    HW139734   3.630   3.685   7.739  1.2243  0.3337  0.3915
 9424SOL    HW239735   3.682   3.670   7.608 -1.2279  0.9670 -2.1512
 9425SOL     OW39736   1.841   0.463  11.939  0.4622  0.1032  0.2243
 9425SOL    HW139737   1.865   0.491  11.851  1.1253 -0.9733  0.0690
 9425SOL    HW239738   1.933   0.468  11.965  0.5371 -1.7610  0.2942
 9426SOL     OW39739   4.029   2.529   4.714  0.2209  0.0049  0.5975
 9426SOL    HW139740   4.113   2.575   4.725  0.4569  0.6254 -3.5964
 9426SOL    HW239741   3.983   2.544   4.797  0.8888  3.7664  0.2821
 9427SOL     OW39742   1.765   2.069   1.571 -0.2351  0.3591 -0.0978
 9427SOL    HW139743   1.850   2.055   1.529  0.2166  0.7698  0.6795
 9427SOL    HW239744   1.780   2.158   1.602  1.2049 -0.1525  0.6969
 9428SOL     OW39745   4.065   3.658   7.552 -0.1530 -0.0762  0.0970
 9428SOL    HW139746   4.025   3.744   7.547 -0.0480  0.1038  2.1962
 9428SOL    HW239747   4.031   3.611   7.476 -0.9579 -0.3523  0.6214
 9429SOL     OW39748   4.049   1.963   2.435 -0.9307 -0.6134 -0.6798
 9429SOL    HW139749   4.095   1.964   2.351 -0.1525  3.8533 -0.1777
 9429SOL    HW239750   3.998   1.882   2.435  0.5684 -1.5480  1.1006
 9430SOL     OW39751   2.126   2.694   7.031 -0.6177  0.0282  0.7476
 9430SOL    HW139752   2.133   2.627   6.963  0.1650  0.9209 -0.0570
 9430SOL    HW239753   2.192   2.664   7.093  0.1083 -0.1567 -0.1133
 9431SOL     OW39754   1.959   2.538  10.335  0.1445  0.4125  0.4140
 9431SOL    HW139755   1.864   2.541  10.325  0.1960  2.7561  0.5334
 9431SOL    HW239756   1.971   2.511  10.426  0.3007  4.0586  1.4650
 9432SOL     OW39757   3.525   3.108   7.733  0.0289 -0.4987  0.1239
 9432SOL    HW139758   3.449   3.073   7.686  1.2577  0.6560 -2.7228
 9432SOL    HW239759   3.593   3.042   7.725  2.1593  1.3459  3.2035
 9433SOL     OW39760   2.859   2.553  12.934  0.2436 -0.0941  0.1630
 9433SOL    HW139761   2.941   2.599  12.949  0.6265 -1.1047  1.1827
 9433SOL    HW239762   2.892   2.486  12.874  4.3018  0.0950  2.1628
 9434SOL     OW39763   0.109   1.975  11.257 -0.1141  0.3792  0.0257
 9434SOL    HW139764   0.182   1.921  11.228 -0.9526 -1.2880  1.0625
 9434SOL    HW239765   0.142   1.992  11.346 -0.9447 -3.4722  1.0711
 9435SOL     OW39766   4.137   0.465  10.151 -0.0895 -0.9095 -0.3090
 9435SOL    HW139767   4.155   0.549  10.194 -3.8050 -0.3356  0.1030
 9435SOL    HW239768   4.217   0.451  10.101  1.5445  3.9090  0.8682
 9436SOL     OW39769   4.476   4.083   1.811 -0.1443 -0.0142  0.9311
 9436SOL    HW139770   4.482   4.065   1.717  2.0553 -0.1195  1.0822
 9436SOL    HW239771   4.467   3.993   1.844  0.6096 -0.2460  0.5142
 9437SOL     OW39772   3.476   1.029   8.860 -0.1018  0.3699 -0.2746
 9437SOL    HW139773   3.478   1.100   8.924  1.0475  0.0631  0.0315
 9437SOL    HW239774   3.533   1.058   8.789 -0.5043 -2.2759 -1.6646
 9438SOL     OW39775   3.484   3.926   4.555  0.1762 -0.8357  0.0922
 9438SOL    HW139776   3.547   3.870   4.510 -0.9797 -0.5421 -1.8863
 9438SOL    HW239777   3.457   3.872   4.629  0.1634 -0.1195  0.6190
 9439SOL     OW39778   1.082   1.700   2.676 -0.6495 -0.5783 -0.8137
 9439SOL    HW139779   1.092   1.779   2.623  2.1335 -0.3115  0.0799
 9439SOL    HW239780   1.041   1.649   2.606  1.3855 -2.5395 -0.5698
 9440SOL     OW39781   0.891   3.793   1.801 -0.2452 -0.0752  0.4297
 9440SOL    HW139782   0.827   3.838   1.856 -1.7836 -0.9727 -0.6230
 9440SOL    HW239783   0.899   3.853   1.727 -2.6162 -0.1088  0.1164
 9441SOL     OW39784   1.178   3.341   2.338  0.2042 -0.1880  0.4370
 9441SOL    HW139785   1.196   3.434   2.329  0.8301 -0.3193  0.3401
 9441SOL    HW239786   1.090   3.345   2.376  0.6025 -2.5959  1.6061
 9442SOL     OW39787   0.353   2.511   2.148 -0.2869  0.1378 -0.4005
 9442SOL    HW139788   0.401   2.587   2.180 -0.4734  0.4696 -0.9102
 9442SOL    HW239789   0.271   2.553   2.122  0.6819  1.6625 -1.0033
 9443SOL     OW39790   3.165   3.623  14.580 -0.0387  0.1842  0.4126
 9443SOL    HW139791   3.187   3.550  14.521 -0.0323  0.0263  0.6113
 9443SOL    HW239792   3.125   3.572  14.650 -0.2654 -0.7661 -0.4017
 9444SOL     OW39793   4.412   0.427   4.759  0.2955  0.8682 -0.2235
 9444SOL    HW139794   4.382   0.427   4.668  0.2205  0.0501 -0.2004
 9444SOL    HW239795   4.505   0.442   4.742 -0.2013  2.9614 -1.2000
 9445SOL     OW39796   0.743   4.604   7.355  0.0207 -0.0373 -0.5215
 9445SOL    HW139797   0.832   4.631   7.375 -0.5153  0.9813  0.5076
 9445SOL    HW239798   0.713   4.557   7.433  1.4075  0.2191  0.1634
 9446SOL     OW39799   3.593   1.676   3.174 -0.2584 -0.0771 -0.1953
 9446SOL    HW139800   3.531   1.650   3.242 -2.0167  0.0492 -1.7689
 9446SOL    HW239801   3.636   1.590   3.168  2.3035  1.1334  0.8190
 9447SOL     OW39802   3.424   3.526   8.136  0.1238  0.4378  0.1395
 9447SOL    HW139803   3.439   3.614   8.103  1.8161  0.5866  1.2841
 9447SOL    HW239804   3.481   3.513   8.212 -1.3300 -2.3706  0.7658
 9448SOL     OW39805   1.232   3.220  14.800 -1.1022 -0.2503  0.3212
 9448SOL    HW139806   1.258   3.229  14.891  1.0381  0.6448 -0.3799
 9448SOL    HW239807   1.308   3.261  14.759 -1.1913  0.1998  0.6100
 9449SOL     OW39808   1.852   1.611   2.036 -0.4656 -0.4529 -0.2795
 9449SOL    HW139809   1.846   1.598   1.941  1.0065 -1.4055 -0.2487
 9449SOL    HW239810   1.779   1.670   2.053 -2.4809 -3.0418 -0.0714
 9450SOL     OW39811   3.006   0.627  12.019  0.3344 -0.7621 -0.2160
 9450SOL    HW139812   3.091   0.670  12.012 -0.9270  2.1785  2.9282
 9450SOL    HW239813   3.024   0.538  12.050  0.1008 -0.7992 -0.1857
 9451SOL     OW39814   1.376   2.267   1.653 -0.5140 -0.0460 -0.2003
 9451SOL    HW139815   1.408   2.287   1.741 -1.5766  0.6229  0.0394
 9451SOL    HW239816   1.405   2.347   1.607  2.3099 -1.0189 -0.1114
 9452SOL     OW39817   1.525   1.952   8.917  0.5797 -0.1325  0.8886
 9452SOL    HW139818   1.450   1.904   8.882  1.7837 -0.0716 -1.7804
 9452SOL    HW239819   1.583   1.876   8.915  1.5941  0.6896 -2.1091
 9453SOL     OW39820   2.339   1.674  14.240 -0.0937  0.1495 -0.0935
 9453SOL    HW139821   2.270   1.730  14.204 -2.6184 -2.4126  0.7551
 9453SOL    HW239822   2.414   1.703  14.187 -0.0792 -1.4951 -0.9742
 9454SOL     OW39823   1.359   0.948   6.103 -0.5286 -0.3626  0.1764
 9454SOL    HW139824   1.356   0.853   6.092  1.6268 -0.2487 -1.2935
 9454SOL    HW239825   1.395   0.971   6.017 -1.6885 -0.6874 -0.3935
 9455SOL     OW39826   3.751   3.438   8.382 -0.1289 -0.3319 -0.7164
 9455SOL    HW139827   3.694   3.515   8.371 -2.0935 -1.5795  0.6851
 9455SOL    HW239828   3.838   3.474   8.401  0.0414 -1.0723 -0.0874
 9456SOL     OW39829   2.415   3.325   4.243 -0.0635  0.0998  0.6011
 9456SOL    HW139830   2.435   3.290   4.330  1.3169 -1.1662 -0.2158
 9456SOL    HW239831   2.464   3.273   4.179  0.6663 -2.7717  3.5213
 9457SOL     OW39832   3.242   2.059   2.158 -0.1806  0.5130 -0.8425
 9457SOL    HW139833   3.278   1.993   2.218 -2.0749  0.0535 -0.2051
 9457SOL    HW239834   3.164   2.011   2.129 -2.4703  1.5469  3.6064
 9458SOL     OW39835   0.193   2.659   7.951 -0.2101 -0.2441  0.2921
 9458SOL    HW139836   0.114   2.610   7.971 -1.3110  1.0453 -0.9385
 9458SOL    HW239837   0.251   2.584   7.939  2.0905  1.9159 -2.2035
 9459SOL     OW39838   3.633   3.192   1.814  0.9777  0.7425  0.9746
 9459SOL    HW139839   3.705   3.222   1.758  1.7247  0.0586  1.5669
 9459SOL    HW239840   3.566   3.256   1.789  1.2487 -0.0340 -1.8174
 9460SOL     OW39841   2.164   0.146   7.477  0.4613 -0.3606  0.0665
 9460SOL    HW139842   2.183   0.057   7.506 -1.0293  0.1841  2.7156
 9460SOL    HW239843   2.231   0.201   7.516 -1.5728  2.3869 -0.3136
 9461SOL     OW39844   0.669   1.305   4.032 -0.1513 -0.2496 -0.0490
 9461SOL    HW139845   0.712   1.335   4.112 -2.5941  2.3767  0.3038
 9461SOL    HW239846   0.581   1.291   4.067 -0.2294  1.2002  0.3473
 9462SOL     OW39847   4.312   3.597   0.653 -0.4976 -0.3711 -0.2266
 9462SOL    HW139848   4.262   3.644   0.720  0.3183 -0.0789  0.1819
 9462SOL    HW239849   4.258   3.598   0.574  1.0990 -1.7449 -1.3521
 9463SOL     OW39850   0.143   1.053   1.042 -0.6491 -0.2172 -0.0171
 9463SOL    HW139851   0.210   1.065   0.974 -0.9347 -0.0453 -0.2701
 9463SOL    HW239852   0.080   1.010   0.985  1.4038 -0.2913 -2.2557
 9464SOL     OW39853   3.411   4.712   2.692  0.7641 -0.0944  0.0464
 9464SOL    HW139854   3.428   4.643   2.757 -1.3200 -0.1361  0.5589
 9464SOL    HW239855   3.482   4.699   2.629  1.2370  3.7006 -0.2001
 9465SOL     OW39856   3.268   1.705   1.252 -0.7641 -0.0664  0.1559
 9465SOL    HW139857   3.292   1.618   1.223  1.3125  0.5589  0.0234
 9465SOL    HW239858   3.301   1.751   1.175  2.7354  1.4670  2.5722
 9466SOL     OW39859   4.291   1.072  10.616 -0.3845 -0.3925 -0.7278
 9466SOL    HW139860   4.203   1.088  10.651  0.0285  0.7629 -0.2395
 9466SOL    HW239861   4.341   1.048  10.693  1.5387  1.3363 -1.4324
 9467SOL     OW39862   4.226   1.230   4.971  0.5439  0.0706  0.3077
 9467SOL    HW139863   4.297   1.170   4.950  0.2127  0.1077 -0.8795
 9467SOL    HW239864   4.169   1.180   5.031  1.9871 -1.5224  0.3570
 9468SOL     OW39865   2.436   4.064  11.548 -0.1825  0.4651 -0.0600
 9468SOL    HW139866   2.393   4.119  11.482  1.0230 -1.3696 -2.3436
 9468SOL    HW239867   2.523   4.105  11.543 -0.0425  0.2487  0.5847
 9469SOL     OW39868   1.677   2.011  11.683 -0.7480  0.2018  0.0515
 9469SOL    HW139869   1.682   2.059  11.600 -0.7708 -0.6866 -0.4692
 9469SOL    HW239870   1.582   2.017  11.697 -0.6157  0.7166  0.6960
 9470SOL     OW39871   3.455   1.752  12.028 -0.2524  0.7088  0.2175
 9470SOL    HW139872   3.456   1.823  12.092  1.7736  0.1759  0.7923
 9470SOL    HW239873   3.365   1.723  12.038  0.7445 -1.3805  2.9602
 9471SOL     OW39874   3.164   0.602  16.194  0.4160 -0.3456 -0.0551
 9471SOL    HW139875   3.164   0.669  16.262  0.3695 -0.3176 -0.0827
 9471SOL    HW239876   3.176   0.522  16.244 -1.5096  1.2983  2.9879
 9472SOL     OW39877   2.200   1.831   0.499  0.4126 -0.3215 -0.4146
 9472SOL    HW139878   2.127   1.809   0.440  0.7964 -0.9736 -0.6387
 9472SOL    HW239879   2.147   1.871   0.568  0.1047 -3.3181  1.0964
 9473SOL     OW39880   2.449   3.415   6.807 -0.5179 -0.4055  0.4008
 9473SOL    HW139881   2.528   3.380   6.847 -1.2353 -1.2653  1.0519
 9473SOL    HW239882   2.488   3.472   6.740  0.6590 -0.3807  1.1067
 9474SOL     OW39883   0.824   1.741   4.721  0.2390 -0.1148  0.6291
 9474SOL    HW139884   0.763   1.732   4.795  0.1548  1.3177  0.7492
 9474SOL    HW239885   0.885   1.671   4.741  1.2363 -0.3825 -3.4998
 9475SOL     OW39886   1.324   0.745   4.304 -0.2987  0.2578  0.6434
 9475SOL    HW139887   1.411   0.737   4.343  0.3537  0.5435 -0.7219
 9475SOL    HW239888   1.331   0.820   4.245 -0.0029 -0.4242 -0.1888
 9476SOL     OW39889   2.231   3.606   4.712  0.2851 -0.3873 -0.5400
 9476SOL    HW139890   2.208   3.556   4.790 -0.1098  0.5188 -0.0863
 9476SOL    HW239891   2.312   3.648   4.740  0.5320 -2.5467  2.0032
 9477SOL     OW39892   2.262   0.113  10.545 -0.0937 -0.1604  0.0800
 9477SOL    HW139893   2.281   0.097  10.638  1.4716 -1.4727 -0.4791
 9477SOL    HW239894   2.185   0.170  10.540  0.2885  0.4011  0.4881
 9478SOL     OW39895   2.335   4.530  11.306  0.0866 -0.1007 -0.2178
 9478SOL    HW139896   2.392   4.586  11.360 -2.8665  1.8319  0.8992
 9478SOL    HW239897   2.393   4.517  11.232 -0.3645 -0.8222 -0.4412
 9479SOL     OW39898   1.630   3.662   6.985 -0.7182  0.4199  0.4948
 9479SOL    HW139899   1.615   3.685   6.893  0.6668  0.5947  0.3222
 9479SOL    HW239900   1.541   3.637   7.012 -0.4757  0.0574  0.9565
 9480SOL     OW39901   4.229   4.698   2.033 -0.0466  0.0397  0.3974
 9480SOL    HW139902   4.258   4.606   2.035  0.1244  0.0597 -1.4809
 9480SOL    HW239903   4.171   4.692   1.957 -0.1184 -0.9116  0.5212
 9481SOL     OW39904   3.137   1.817   0.440 -0.1600  0.7087 -0.1427
 9481SOL    HW139905   3.202   1.766   0.392  1.1074  0.5993  1.6495
 9481SOL    HW239906   3.101   1.744   0.490 -0.4852 -0.1909 -1.6890
 9482SOL     OW39907   1.473   2.326   1.908  0.4278 -0.5587 -0.2881
 9482SOL    HW139908   1.523   2.274   1.971  0.4273 -1.0032 -0.6567
 9482SOL    HW239909   1.514   2.413   1.914  0.2356 -0.4053 -1.2353
 9483SOL     OW39910   0.280   1.869   8.543 -0.1257 -0.1355 -0.5558
 9483SOL    HW139911   0.205   1.836   8.592 -0.7538 -0.3468 -1.6436
 9483SOL    HW239912   0.334   1.790   8.540 -0.4205 -0.3524 -0.0486
 9484SOL     OW39913   0.978   4.694   8.874 -0.0667  0.6478 -0.4084
 9484SOL    HW139914   0.969   4.698   8.778  0.4318 -0.4199 -0.4940
 9484SOL    HW239915   1.046   0.035   8.889 -0.1819  0.9863 -1.3697
 9485SOL     OW39916   2.452   3.095   3.267 -0.0958 -0.4182 -0.2803
 9485SOL    HW139917   2.417   3.008   3.285  1.5976 -0.8064  1.1593
 9485SOL    HW239918   2.417   3.120   3.182  0.4796  1.9238  0.1730
 9486SOL     OW39919   2.206   0.272   9.390  0.0556 -0.1260  0.1599
 9486SOL    HW139920   2.127   0.277   9.338  0.1691  1.2318  0.1015
 9486SOL    HW239921   2.178   0.276   9.482  2.3010 -2.8785  0.9424
 9487SOL     OW39922   1.103   3.817   4.917  0.8607  0.0950  0.3719
 9487SOL    HW139923   1.068   3.748   4.860 -3.5851  2.1699  0.6023
 9487SOL    HW239924   1.088   3.895   4.863  4.1121  0.5280  0.1492
 9488SOL     OW39925   1.578   4.243   4.144  0.3429  0.4317 -1.3387
 9488SOL    HW139926   1.670   4.230   4.124  1.3107  0.6980  2.9792
 9488SOL    HW239927   1.549   4.171   4.086 -1.5156  0.4588 -0.4568
 9489SOL     OW39928   1.750   3.497  14.227  0.1647 -0.6657  0.1997
 9489SOL    HW139929   1.739   3.479  14.134 -0.1529 -0.8053  0.2664
 9489SOL    HW239930   1.814   3.568  14.234 -1.1729  0.4330  1.4216
 9490SOL     OW39931   2.310   4.605  17.223 -0.2446 -0.0814 -0.2560
 9490SOL    HW139932   2.232   4.555  17.200 -0.1546 -0.0157 -0.7003
 9490SOL    HW239933   2.342   4.568  17.306 -0.6841 -0.2045 -0.1453
 9491SOL     OW39934   2.263   3.299   6.984  0.0553 -0.1047 -0.0700
 9491SOL    HW139935   2.294   3.351   6.909 -1.9194 -1.6050 -1.9314
 9491SOL    HW239936   2.325   3.227   6.984  0.5427  0.3197  0.0697
 9492SOL     OW39937   3.256   2.903  15.555 -0.1906  0.4249  0.1893
 9492SOL    HW139938   3.196   2.902  15.481  0.7625  0.4936 -0.5838
 9492SOL    HW239939   3.231   2.817  15.589  0.7798  1.0489  2.5163
 9493SOL     OW39940   4.533   1.416   5.153  0.2113 -0.2235 -0.5982
 9493SOL    HW139941   4.479   1.345   5.188 -0.9788  1.3839  0.8129
 9493SOL    HW239942   4.557   1.386   5.065 -1.2767  0.3212 -1.2000
 9494SOL     OW39943   2.398   3.076   5.345  0.3330  1.0371 -0.0460
 9494SOL    HW139944   2.319   3.054   5.394  0.5793  0.0830 -0.0600
 9494SOL    HW239945   2.372   3.164   5.318 -2.7807 -0.1464 -0.8652
 9495SOL     OW39946   0.746   3.751  12.663 -0.0016  0.0151 -0.5942
 9495SOL    HW139947   0.774   3.838  12.691 -0.4911  0.2490 -0.8520
 9495SOL    HW239948   0.664   3.773  12.619 -1.2727  1.1808  2.3482
 9496SOL     OW39949   1.353   2.638   1.732  0.0394  0.9710 -0.0942
 9496SOL    HW139950   1.369   2.645   1.826 -1.7906 -0.2918  0.3117
 9496SOL    HW239951   1.258   2.644   1.721  0.0094  2.0861  0.7867
 9497SOL     OW39952   2.928   2.745   5.579  0.4311  0.1414  0.3722
 9497SOL    HW139953   2.986   2.769   5.651 -0.3830  0.5116  0.9070
 9497SOL    HW239954   2.911   2.831   5.540 -0.3749  0.5338  1.5741
 9498SOL     OW39955   3.272   3.337  16.782  0.0889  0.1243 -0.0441
 9498SOL    HW139956   3.272   3.272  16.711  1.6402  1.9734 -1.7378
 9498SOL    HW239957   3.295   3.282  16.857  3.2323  0.0895 -1.0563
 9499SOL     OW39958   1.622   0.232   8.935  0.3098 -0.4771  0.1448
 9499SOL    HW139959   1.576   0.311   8.963 -0.7306 -1.3615  0.8965
 9499SOL    HW239960   1.699   0.234   8.992 -1.1390  1.6186  1.9979
 9500SOL     OW39961   3.815   0.178  10.133 -0.3686 -0.1210  0.0265
 9500SOL    HW139962   3.861   0.228  10.200 -1.3570  3.9978 -2.3632
 9500SOL    HW239963   3.727   0.213  10.151  0.1895  0.3773  1.7864
 9501SOL     OW39964   0.923   3.425   5.603 -0.3352  0.4372  0.0921
 9501SOL    HW139965   0.843   3.372   5.601  0.3412 -0.5855  0.2020
 9501SOL    HW239966   0.971   3.380   5.672 -1.1512 -1.1109 -0.3684
 9502SOL     OW39967   4.673   0.456   4.697  0.2088 -0.2329 -0.4531
 9502SOL    HW139968   4.717   0.373   4.717  2.2307  0.9867  0.2290
 9502SOL    HW239969   0.006   0.520   4.739  1.3151 -1.6943  0.2098
 9503SOL     OW39970   1.925   4.500   3.178 -0.0310  0.1134  0.8224
 9503SOL    HW139971   1.971   4.545   3.107 -1.0779 -1.9532 -1.1727
 9503SOL    HW239972   1.993   4.476   3.241 -0.4989  0.7581  1.5637
 9504SOL     OW39973   1.668   0.995   7.879  0.7769  0.5404 -0.6008
 9504SOL    HW139974   1.680   0.904   7.905 -2.8070 -0.4304 -2.3917
 9504SOL    HW239975   1.605   1.020   7.947 -0.3318 -1.0686 -1.0371
 9505SOL     OW39976   1.500   4.114   8.336  0.0775  0.6646 -0.1978
 9505SOL    HW139977   1.431   4.047   8.334 -1.0787  1.8812 -0.7906
 9505SOL    HW239978   1.519   4.137   8.245  3.4605  0.8299  0.5399
 9506SOL     OW39979   3.159   0.032   7.751 -0.3449 -0.1396 -0.1240
 9506SOL    HW139980   3.125   0.037   7.662  0.3444 -1.7639 -0.4774
 9506SOL    HW239981   3.130   4.675   7.788 -0.3602  0.1101  0.4189
 9507SOL     OW39982   3.059   1.623  13.814  0.2438 -0.7997  0.7408
 9507SOL    HW139983   3.071   1.684  13.887 -0.0381 -0.0564  0.1789
 9507SOL    HW239984   3.121   1.558  13.847  2.3125  1.3051  0.9907
 9508SOL     OW39985   2.331   2.736   2.597 -0.1764  0.0949  0.1827
 9508SOL    HW139986   2.277   2.662   2.569 -0.0906  0.1015 -0.0006
 9508SOL    HW239987   2.342   2.796   2.523 -0.1202 -0.2504 -0.0908
 9509SOL     OW39988   3.245   4.022   7.645  0.1857 -0.5276 -0.0127
 9509SOL    HW139989   3.239   4.036   7.740 -0.8183 -0.1769 -0.1330
 9509SOL    HW239990   3.275   4.111   7.625 -2.4591  0.0969 -1.1214
 9510SOL     OW39991   4.704   0.060   2.471  0.5647  0.6889 -0.4399
 9510SOL    HW139992   4.670   0.062   2.560 -0.5086  1.1297 -0.8591
 9510SOL    HW239993   4.669   0.137   2.426 -1.3559  0.2763  0.3519
 9511SOL     OW39994   4.671   0.973   1.952 -0.5124 -0.1882  0.2332
 9511SOL    HW139995   4.707   1.062   1.957 -1.3906  0.2410 -0.9189
 9511SOL    HW239996   4.603   0.997   1.888 -0.1913  0.6037  0.1903
 9512SOL     OW39997   3.210   3.357   2.955 -0.3385  0.4927  0.1035
 9512SOL    HW139998   3.125   3.395   2.934  0.5416  1.5543 -1.4837
 9512SOL    HW239999   3.193   3.307   3.035  2.7110  0.0341  0.4539
 9513SOL     OW40000   0.779   1.195   0.701  0.1320 -0.2734  0.4555
 9513SOL    HW140001   0.754   1.154   0.784 -0.7363 -0.5383  0.0692
 9513SOL    HW240002   0.712   1.157   0.643  1.6489 -1.8881 -0.2423
 9514SOL     OW40003   1.659   1.672   8.585 -0.1117 -0.6846 -0.7057
 9514SOL    HW140004   1.708   1.737   8.636 -1.7687 -0.0005  0.0101
 9514SOL    HW240005   1.644   1.600   8.646 -0.2282 -0.2350 -0.2049
 9515SOL     OW40006   3.532   4.316   4.059 -0.1543  0.2542  0.2179
 9515SOL    HW140007   3.479   4.260   4.003  0.0405 -0.3102  0.6052
 9515SOL    HW240008   3.616   4.293   4.019 -0.7803 -0.6606 -0.5629
 9516SOL     OW40009   2.433   4.222   4.612  0.4699  0.1772  0.2634
 9516SOL    HW140010   2.455   4.134   4.641  2.0846 -0.4439 -2.8640
 9516SOL    HW240011   2.339   4.206   4.602  0.9347 -1.9773 -0.5273
 9517SOL     OW40012   1.001   3.403   4.979  0.0274  0.3458  0.0434
 9517SOL    HW140013   0.924   3.386   5.034  2.0468  0.1491  2.8097
 9517SOL    HW240014   0.963   3.382   4.894 -0.9133 -2.0248  1.0527
 9518SOL     OW40015   2.182   3.497   4.075  0.4376 -0.4949  0.1035
 9518SOL    HW140016   2.248   3.563   4.051  0.6869 -0.4481  0.8987
 9518SOL    HW240017   2.191   3.425   4.012  0.4782 -0.4279  0.0326
 9519SOL     OW40018   1.192   1.922  13.476  0.1186  0.0365  0.4796
 9519SOL    HW140019   1.195   1.923  13.381 -0.5226 -0.1952  0.4602
 9519SOL    HW240020   1.131   1.857  13.509 -0.2447  0.0548 -0.1719
 9520SOL     OW40021   0.735   2.256   2.637 -0.4734 -0.0410 -0.6992
 9520SOL    HW140022   0.717   2.336   2.589 -0.4206 -0.1278 -0.8645
 9520SOL    HW240023   0.796   2.293   2.701  0.7142 -1.1714 -1.1649
 9521SOL     OW40024   3.112   3.465   8.199  0.2218 -0.0260  0.5383
 9521SOL    HW140025   3.205   3.455   8.179  0.0225  1.2478 -1.0304
 9521SOL    HW240026   3.114   3.432   8.289  0.6272 -0.8605  0.2228
 9522SOL     OW40027   4.033   0.139  13.712 -0.2525 -0.4294  0.1571
 9522SOL    HW140028   4.011   0.054  13.750  0.6631 -0.0896  1.4627
 9522SOL    HW240029   4.120   0.161  13.745  0.0869  0.2723 -1.2235
 9523SOL     OW40030   2.352   0.390  14.030 -0.5110 -0.0921 -0.7039
 9523SOL    HW140031   2.310   0.304  14.035  0.2246 -0.2870  1.8448
 9523SOL    HW240032   2.444   0.367  14.020  0.1232  2.8521 -1.4869
 9524SOL     OW40033   0.113   2.293   1.061 -0.4200  0.3925 -0.4205
 9524SOL    HW140034   0.109   2.339   0.978  2.7959 -0.2753 -0.9459
 9524SOL    HW240035   0.019   2.285   1.075 -0.0517  0.5794  2.1328
 9525SOL     OW40036   2.668   4.719   1.831 -0.2083 -0.1526 -0.3708
 9525SOL    HW140037   2.610   4.698   1.905 -2.4895  0.3552 -2.0236
 9525SOL    HW240038   2.743   0.020   1.885  0.2752  0.5455 -1.3801
 9526SOL     OW40039   1.644   3.202   9.935  0.3783  0.8599  0.2684
 9526SOL    HW140040   1.683   3.281   9.973  1.1051 -1.6445  4.8203
 9526SOL    HW240041   1.724   3.166   9.897  1.3583  2.5806  0.6979
 9527SOL     OW40042   1.759   1.006   9.807 -0.1870 -0.8775 -0.0209
 9527SOL    HW140043   1.715   1.085   9.775  0.8853 -1.6328 -3.3926
 9527SOL    HW240044   1.717   0.999   9.892  0.1850 -1.8297  0.0770
 9528SOL     OW40045   2.171   4.483   9.002  0.3036 -0.1036 -0.3041
 9528SOL    HW140046   2.164   4.498   8.907 -0.1033  0.7318 -0.1396
 9528SOL    HW240047   2.238   4.547   9.026 -1.2882 -0.3132  4.5326
 9529SOL     OW40048   2.742   2.257   8.581  0.2225  0.0797 -1.1126
 9529SOL    HW140049   2.741   2.224   8.491  1.4011 -1.0953 -0.6938
 9529SOL    HW240050   2.807   2.327   8.581  1.1206 -0.7597 -0.3865
 9530SOL     OW40051   1.606   3.077   7.284  0.4555 -0.7600 -0.5490
 9530SOL    HW140052   1.646   3.163   7.301  0.1433 -0.8574  0.7299
 9530SOL    HW240053   1.515   3.085   7.315  1.2265  1.1608  1.2813
 9531SOL     OW40054   2.954   4.129   1.353 -0.0722 -0.3558 -0.4278
 9531SOL    HW140055   2.988   4.073   1.423 -0.5940 -0.3515 -0.1672
 9531SOL    HW240056   2.861   4.114   1.371  0.2597  1.0828  2.4556
 9532SOL     OW40057   0.799   2.739   0.016  0.2203  0.1370 -0.3908
 9532SOL    HW140058   0.831   2.806   0.076  0.3821  0.5786 -0.9703
 9532SOL    HW240059   0.708   2.763  17.700 -0.6773 -0.8686  2.8281
 9533SOL     OW40060   2.440   0.380   2.512  0.1599 -0.3824 -0.2738
 9533SOL    HW140061   2.506   0.312   2.501  1.7448  1.4479 -1.9560
 9533SOL    HW240062   2.463   0.442   2.444  2.0673  1.3246  1.9271
 9534SOL     OW40063   0.553   1.726   5.421  0.7677  0.1147 -0.1964
 9534SOL    HW140064   0.522   1.729   5.511  1.1781 -0.9892 -0.0175
 9534SOL    HW240065   0.500   1.659   5.376  0.6468 -2.9020  4.4352
 9535SOL     OW40066   1.101   4.720  11.346  0.0646  0.4741 -0.2087
 9535SOL    HW140067   1.185   0.013  11.303  0.4470 -0.3749  0.1773
 9535SOL    HW240068   1.046   0.006  11.269  1.8895  2.4733 -1.2122
 9536SOL     OW40069   2.892   3.730   2.797 -0.2780  0.2883 -0.4015
 9536SOL    HW140070   2.819   3.785   2.768 -0.2399 -0.2364 -1.4618
 9536SOL    HW240071   2.917   3.687   2.716 -0.5634 -0.1510 -0.2548
 9537SOL     OW40072   2.682   4.125  11.648 -0.0650 -0.4118 -0.2989
 9537SOL    HW140073   2.735   4.204  11.631 -2.7176  1.4254 -0.0221
 9537SOL    HW240074   2.675   4.120  11.743 -0.9176 -0.3815 -0.3648
 9538SOL     OW40075   3.416   2.570   8.898 -0.4473  0.1897  0.1777
 9538SOL    HW140076   3.504   2.554   8.865 -1.0552 -1.4511 -0.6650
 9538SOL    HW240077   3.373   2.609   8.822 -0.4585 -1.8709 -0.8644
 9539SOL     OW40078   3.764   0.378  12.292  0.1186 -0.4268  0.0944
 9539SOL    HW140079   3.725   0.343  12.372 -3.7387 -1.8150 -2.4021
 9539SOL    HW240080   3.707   0.452  12.271  1.2789  0.6857  0.8754
 9540SOL     OW40081   2.202   2.677   3.952 -0.4010  0.5266 -0.5126
 9540SOL    HW140082   2.146   2.713   3.883 -1.1222  0.0856 -0.1610
 9540SOL    HW240083   2.174   2.739   4.020  1.6061 -1.1852  1.8743
 9541SOL     OW40084   0.181   0.003   9.552  0.5463 -0.5386  0.2946
 9541SOL    HW140085   0.159   4.711   9.460 -2.0527  2.9258  0.2649
 9541SOL    HW240086   0.177   0.099   9.550 -0.4905 -0.5742  1.0520
 9542SOL     OW40087   1.867   4.128   9.907  0.1302 -0.2891  0.0863
 9542SOL    HW140088   1.846   4.035   9.893 -0.7947 -0.0618  0.0056
 9542SOL    HW240089   1.826   4.150   9.990  1.3829 -0.3469  0.7130
 9543SOL     OW40090   4.626   4.186  16.214 -0.0390  0.1689 -0.6917
 9543SOL    HW140091   4.649   4.233  16.294  0.6205  1.3919 -1.6027
 9543SOL    HW240092   4.536   4.163  16.237  0.6295 -3.6305 -1.9024
 9544SOL     OW40093   2.074   2.654   1.166  0.3345 -0.4962  0.1013
 9544SOL    HW140094   2.002   2.677   1.223 -3.0132 -1.6355 -3.6656
 9544SOL    HW240095   2.058   2.702   1.085 -1.5198  0.4992  1.0580
 9545SOL     OW40096   4.505   2.426  17.673  0.2877  0.1930  0.2728
 9545SOL    HW140097   4.521   2.422  17.579 -1.4547 -1.1716  0.0138
 9545SOL    HW240098   4.414   2.453  17.683  0.8101  2.1300 -0.2888
 9546SOL     OW40099   0.978   3.512  10.129 -0.0435  0.1719 -0.8367
 9546SOL    HW140100   1.052   3.469  10.173  0.9908  0.2464 -2.5264
 9546SOL    HW240101   0.923   3.525  10.207  1.4319  2.8393 -0.2400
 9547SOL     OW40102   2.431   3.411   3.142  0.1416  0.1905 -0.0951
 9547SOL    HW140103   2.459   3.480   3.202  1.6351 -1.1086  0.7178
 9547SOL    HW240104   2.512   3.361   3.155  0.5076  1.3027  1.8549
 9548SOL     OW40105   3.421   2.814  14.712 -0.2690  0.6350  0.5075
 9548SOL    HW140106   3.478   2.737  14.712  0.1583  0.9545 -1.7109
 9548SOL    HW240107   3.341   2.763  14.723  1.6910 -2.9466 -1.6023
 9549SOL     OW40108   3.889   3.590   4.274 -0.0853 -0.6668  0.3524
 9549SOL    HW140109   3.946   3.595   4.197 -0.9717 -0.4304 -0.2794
 9549SOL    HW240110   3.804   3.624   4.247  0.4555  1.8209  1.7083
 9550SOL     OW40111   2.654   1.251   4.496 -0.4841 -0.2226 -0.2005
 9550SOL    HW140112   2.744   1.283   4.500 -1.3571  1.9005  2.8248
 9550SOL    HW240113   2.675   1.176   4.441 -0.8519 -1.4914  1.3659
 9551SOL     OW40114   0.500   1.281   1.320 -0.1663 -0.7070  0.1164
 9551SOL    HW140115   0.420   1.230   1.317 -1.3497  1.1574 -0.2561
 9551SOL    HW240116   0.534   1.274   1.409 -1.0518  2.6876  0.7222
 9552SOL     OW40117   0.620   4.222   4.125 -0.3542  0.5323  0.8385
 9552SOL    HW140118   0.542   4.222   4.070  0.6585 -1.9267 -0.6352
 9552SOL    HW240119   0.627   4.317   4.130 -0.6232  0.5367  1.1199
 9553SOL     OW40120   1.463   2.939   8.104 -0.2868  0.1100  0.2612
 9553SOL    HW140121   1.449   2.844   8.106  0.3312  0.0320  0.6756
 9553SOL    HW240122   1.496   2.956   8.015  1.0810  1.4802  1.0323
 9554SOL     OW40123   4.385   0.986   7.264  0.3706  0.0259  0.2872
 9554SOL    HW140124   4.470   0.944   7.280  0.2007 -1.1316 -1.8188
 9554SOL    HW240125   4.352   0.990   7.354 -0.1132  1.8380  0.0197
 9555SOL     OW40126   3.590   3.603   2.971 -0.4794 -0.0000  0.5650
 9555SOL    HW140127   3.528   3.666   2.933  0.4074  2.0993  2.5530
 9555SOL    HW240128   3.526   3.533   2.983  0.4643 -1.0275 -0.3827
 9556SOL     OW40129   1.874   1.964  11.429 -0.2720  0.5027  0.3482
 9556SOL    HW140130   1.931   1.925  11.496 -0.3117  1.5271  0.9704
 9556SOL    HW240131   1.846   2.039  11.481  0.8723  0.3955  1.1244
 9557SOL     OW40132   1.883   2.472   2.175  0.4590 -0.1581 -0.4907
 9557SOL    HW140133   1.889   2.419   2.095 -0.7509 -0.4063 -0.4139
 9557SOL    HW240134   1.920   2.411   2.239  0.0112 -0.5853 -0.6380
 9558SOL     OW40135   2.247   1.523   1.400  0.1452  0.5275  0.5563
 9558SOL    HW140136   2.329   1.481   1.428  0.1489  0.3524  0.2831
 9558SOL    HW240137   2.177   1.466   1.432  1.1783 -0.5099  0.9684
 9559SOL     OW40138   2.363   0.305   2.763 -0.3332  0.1272 -0.1726
 9559SOL    HW140139   2.276   0.314   2.724 -0.7493  2.7655  1.3625
 9559SOL    HW240140   2.413   0.315   2.681  1.0705  4.2929  1.2037
 9560SOL     OW40141   3.580   4.139   5.450 -0.1308  0.3076  0.3449
 9560SOL    HW140142   3.520   4.116   5.521 -0.0390  0.1268  0.3626
 9560SOL    HW240143   3.566   4.234   5.447 -0.2893  0.3460  2.7566
 9561SOL     OW40144   1.954   4.600   7.319 -0.0477 -0.5977 -0.4856
 9561SOL    HW140145   1.885   4.571   7.260 -0.2689 -1.9278  0.4010
 9561SOL    HW240146   1.920   4.686   7.343 -0.9446 -0.3934 -2.5043
 9562SOL     OW40147   2.385   0.786   8.310  0.0973 -0.3494  0.2596
 9562SOL    HW140148   2.291   0.793   8.327  0.4213  1.8291  1.1758
 9562SOL    HW240149   2.390   0.722   8.239 -0.3697 -0.5874  0.4396
 9563SOL     OW40150   0.117   0.675   2.556 -0.0372  0.1715 -0.3060
 9563SOL    HW140151   0.046   0.739   2.551 -0.6608 -0.4636  0.4545
 9563SOL    HW240152   0.176   0.717   2.618 -0.8052  0.2393  0.3719
 9564SOL     OW40153   3.533   0.462  15.426  0.2862 -0.4277  0.0798
 9564SOL    HW140154   3.531   0.405  15.349  1.2681 -0.4085  0.0328
 9564SOL    HW240155   3.557   0.401  15.497 -0.1544 -0.8883 -0.1660
 9565SOL     OW40156   0.326   4.293  10.457  0.6020 -0.3514  0.1765
 9565SOL    HW140157   0.403   4.252  10.495  1.0360  1.0806  0.8389
 9565SOL    HW240158   0.271   4.294  10.535  0.5877  2.5745  0.1263
 9566SOL     OW40159   4.725   0.508  17.324  0.3658  0.1247  0.1090
 9566SOL    HW140160   0.019   0.556  17.243 -0.0986 -0.6447 -0.4583
 9566SOL    HW240161   4.637   0.540  17.346  0.2460  0.3782 -0.7241
 9567SOL     OW40162   4.074   2.190   4.301  0.2968  0.2134  0.3524
 9567SOL    HW140163   4.037   2.277   4.284 -1.9452 -0.8501 -0.2180
 9567SOL    HW240164   4.030   2.172   4.383  1.7482  2.7802  1.7134
 9568SOL     OW40165   0.552   3.272  13.992  0.4645 -0.0188  0.2088
 9568SOL    HW140166   0.509   3.356  13.977 -0.9228 -0.8959 -0.6934
 9568SOL    HW240167   0.586   3.292  14.079  2.0841 -4.2882  0.5241
   4.72528   4.72528  17.70246
