Membrane in water
40167
    1TCq1    O1    1   4.107   3.110  11.680 -0.3024  0.2359  0.3235
    1TCq1    C1    2   4.028   3.209  11.732 -0.9034 -0.1674 -0.6276
    1TCq1    O2    3   4.050   3.329  11.733  0.3182  0.9024  0.0375
    1TCq1    C2    4   3.894   3.153  11.724  0.4084 -0.3281  0.0494
    1TCq1    C3    5   3.790   3.233  11.699  0.6496  0.5942  0.1270
    1TCq1    C4    6   3.665   3.175  11.686 -0.5881 -0.2220 -0.1186
    1TCq1    C5    7   3.650   3.038  11.706 -0.1471 -1.5570  0.2560
    1TCq1    C6    8   3.764   2.963  11.736 -0.2237  0.1969 -0.0883
    1TCq1    C7    9   3.883   3.024  11.755  0.2928  0.2459  0.3669
    1TCq1    C8   10   3.755   2.821  11.757 -0.0451  0.4457 -0.0640
    1TCq1    O4   11   3.832   2.771  11.837  0.1126 -0.3447 -1.0282
    1TCq1    C9   12   3.541   3.253  11.654 -0.2771  0.2614  0.2241
    1TCq1    O5   13   3.539   3.368  11.701 -0.1004 -0.1861  0.2450
    1TCq1    O6   14   3.437   3.186  11.644  0.3096  0.9349  0.4303
    1TCq1    H1   15   4.066   3.022  11.672 -2.6871  1.4698 -0.9318
    1TCq1    H2   16   3.797   3.339  11.675  0.4060  0.1602 -1.8504
    1TCq1    H3   17   3.551   2.994  11.701  0.4631 -2.9765  0.6685
    1TCq1    H4   18   3.964   2.967  11.797 -0.3116  0.5067  1.8755
    2MPD2     C   19   3.494   2.378  11.744 -0.2862 -0.2327 -0.2365
    2MPD2    C1   20   3.620   2.407  11.784  0.1716 -0.1871 -0.2285
    2MPD2    C2   21   3.660   2.534  11.774 -0.0558 -0.1029  0.3938
    2MPD2    C3   22   3.591   2.636  11.709 -0.2854  0.3266 -0.6752
    2MPD2    C4   23   3.476   2.598  11.658  0.0369  0.4094  0.1686
    2MPD2    C5   24   3.425   2.477  11.676 -0.5997  0.1907  0.0432
    2MPD2     H   25   3.750   2.551  11.832  0.9457 -1.2839 -0.8081
    2MPD2    H1   26   3.435   2.672  11.591  0.6843 -0.5499 -1.2963
    2MPD2    H2   27   3.452   2.280  11.762 -2.7517  0.7939 -0.3154
    2MPD2    H3   28   3.328   2.461  11.630  0.0310 -1.5472 -0.6830
    2MPD2     N   29   3.638   2.769  11.702  0.4429  0.5292  0.3946
    2MPD2    H5   30   3.588   2.839  11.649  1.2850 -0.5569 -1.8385
    2MPD2    N1   31   3.709   2.319  11.855 -0.2882 -0.7974 -0.6293
    2MPD2    H7   32   3.790   2.364  11.897  0.7465 -1.3063 -2.0592
    3TCq1    O1   33   3.149   3.599  10.400  0.1659  0.0061 -0.0243
    3TCq1    C1   34   3.203   3.708  10.465 -0.2374  0.5294  0.5530
    3TCq1    O2   35   3.324   3.733  10.470 -0.4554  0.1979 -0.6667
    3TCq1    C2   36   3.097   3.810  10.479  0.0961  0.7208 -0.4342
    3TCq1    C3   37   3.137   3.941  10.473  0.7615  0.2060 -0.9498
    3TCq1    C4   38   3.050   4.041  10.501 -0.1375 -0.3304  1.6197
    3TCq1    C5   39   2.926   4.015  10.548  0.3511  0.3411  0.5775
    3TCq1    C6   40   2.883   3.881  10.551  0.7645 -0.5152 -0.2876
    3TCq1    C7   41   2.970   3.777  10.524  0.1836  0.4825 -0.3396
    3TCq1    C8   42   2.754   3.850  10.606 -0.5290 -0.7868 -0.0989
    3TCq1    O4   43   2.714   3.737  10.600 -0.4912  0.1397  0.4269
    3TCq1    C9   44   3.103   4.183  10.481  0.3263 -0.2581  0.3842
    3TCq1    O5   45   3.227   4.205  10.468  0.3086 -0.3716  0.2327
    3TCq1    O6   46   3.010   4.270  10.486 -1.2833 -0.2986  0.5258
    3TCq1    H1   47   3.053   3.598  10.380  0.3241  0.9713 -0.8222
    3TCq1    H2   48   3.235   3.963  10.431 -0.1495  1.6060 -2.3587
    3TCq1    H3   49   2.862   4.103  10.553  0.2146  0.5082 -4.3770
    3TCq1    H4   50   2.945   3.675  10.552 -0.4034  0.1663 -2.0214
    4MPD2     C   51   2.359   4.020  10.897  0.0446 -0.1892 -0.9889
    4MPD2    C1   52   2.443   4.122  10.867  0.6746 -0.2790  0.3476
    4MPD2    C2   53   2.564   4.097  10.806  0.8023 -0.4927  0.5862
    4MPD2    C3   54   2.586   3.970  10.755  0.1532 -0.1206 -0.2740
    4MPD2    C4   55   2.496   3.869  10.778  0.6453  0.5364  0.2119
    4MPD2    C5   56   2.382   3.897  10.846 -0.2450  0.2118  0.1791
    4MPD2     H   57   2.614   4.185  10.766  1.3435  0.4277  3.3186
    4MPD2    H1   58   2.514   3.764  10.757 -1.4178  0.1917  0.1004
    4MPD2    H2   59   2.265   4.037  10.948  0.0274 -1.0823 -0.7235
    4MPD2    H3   60   2.304   3.825  10.871 -1.0483  1.5234  1.4052
    4MPD2     N   61   2.708   3.962  10.680 -0.0390  0.5549 -0.5525
    4MPD2    H5   62   2.756   4.049  10.657  2.6916 -0.3171  1.8447
    4MPD2    N1   63   2.413   4.258  10.911 -0.7159  0.1648  0.2139
    4MPD2    H7   64   2.470   4.338  10.884  1.6477 -1.4106  0.5478
    5TCq1    O1   65   4.471   0.489  11.644 -0.0608  0.0985  0.0133
    5TCq1    C1   66   4.421   0.537  11.763 -0.7287 -0.3876 -0.1804
    5TCq1    O2   67   4.437   0.487  11.871  0.9940 -0.4065  0.2142
    5TCq1    C2   68   4.348   0.657  11.730  0.0648  0.2215  1.3413
    5TCq1    C3   69   4.327   0.733  11.830 -0.0965 -0.3824  0.0079
    5TCq1    C4   70   4.216   0.817  11.821 -0.6273 -0.4560  0.2851
    5TCq1    C5   71   4.131   0.818  11.717  0.2282  0.5867 -0.2984
    5TCq1    C6   72   4.163   0.739  11.611 -0.3283  0.2075 -0.5082
    5TCq1    C7   73   4.269   0.652  11.614 -0.7803  0.1854 -0.8479
    5TCq1    C8   74   4.080   0.726  11.496 -0.6251  0.3234  0.1154
    5TCq1    O4   75   4.114   0.639  11.419  0.0484 -0.4569 -0.5056
    5TCq1    C9   76   4.187   0.897  11.937  0.3714 -0.0604 -0.2983
    5TCq1    O5   77   4.098   0.986  11.927 -0.1972  0.4287  0.5433
    5TCq1    O6   78   4.262   0.875  12.041 -0.0898 -0.2450 -0.4038
    5TCq1    H1   79   4.448   0.548  11.569 -0.7036 -0.0638  0.0859
    5TCq1    H2   80   4.392   0.729  11.916 -0.0834 -1.1871 -0.0386
    5TCq1    H3   81   4.046   0.884  11.711 -0.7955 -0.6588  0.3892
    5TCq1    H4   82   4.297   0.575  11.542  0.1314 -1.2940  1.1014
    6MPD2     C   83   3.811   0.937  11.347  0.0005 -0.5817 -0.5089
    6MPD2    C1   84   3.885   0.825  11.372  0.5347 -0.0910 -0.5657
    6MPD2    C2   85   3.860   0.706  11.307  0.2551 -0.0768 -0.1380
    6MPD2    C3   86   3.776   0.711  11.198  0.2410  0.5130  0.3342
    6MPD2    C4   87   3.703   0.827  11.167 -0.5545  0.4448  0.0656
    6MPD2    C5   88   3.726   0.940  11.242 -0.6029  0.0247 -0.4388
    6MPD2     H   89   3.898   0.611  11.341 -0.8611 -0.3756  0.2711
    6MPD2    H1   90   3.627   0.837  11.091 -0.6368  4.1876  0.6367
    6MPD2    H2   91   3.830   1.025  11.408  1.2520 -0.0997 -1.5931
    6MPD2    H3   92   3.659   1.022  11.221 -2.2415 -0.6320  2.1409
    6MPD2     N   93   3.754   0.586  11.143 -0.6005 -0.3825 -0.3123
    6MPD2    H5   94   3.827   0.520  11.169  0.0976  0.5870  0.1550
    6MPD2    N1   95   3.984   0.821  11.480  0.2615 -0.1894 -0.0408
    6MPD2    H7   96   3.982   0.905  11.537  0.6322  1.3926 -2.3857
    7TCq1    O1   97   1.520   0.742  14.124  0.1374 -0.1269 -0.4952
    7TCq1    C1   98   1.531   0.625  14.058 -0.3251  0.4239 -0.1120
    7TCq1    O2   99   1.569   0.526  14.116  0.2761 -0.4371 -0.2635
    7TCq1    C2  100   1.471   0.631  13.922  0.5325 -0.3077  0.0984
    7TCq1    C3  101   1.462   0.751  13.855  0.4335  0.4562  0.2918
    7TCq1    C4  102   1.431   0.733  13.720 -0.3389  0.1946 -0.2383
    7TCq1    C5  103   1.417   0.612  13.663  0.0480 -0.3609  0.0630
    7TCq1    C6  104   1.428   0.498  13.735 -0.9027 -0.6559 -0.0021
    7TCq1    C7  105   1.454   0.502  13.866 -0.5405  0.6648 -0.1469
    7TCq1    C8  106   1.371   0.377  13.688 -0.5380 -0.5516  0.4825
    7TCq1    O4  107   1.437   0.274  13.703 -0.6772  0.3782  0.6121
    7TCq1    C9  108   1.436   0.849  13.630  1.1954 -0.4022  0.1330
    7TCq1    O5  109   1.469   0.827  13.508 -0.2272  0.7642 -0.5030
    7TCq1    O6  110   1.452   0.959  13.690  0.1065  0.2289 -0.1542
    7TCq1    H1  111   1.465   0.814  14.085  0.5574  0.4623 -0.0108
    7TCq1    H2  112   1.492   0.848  13.892  3.1044 -0.4844  0.5898
    7TCq1    H3  113   1.422   0.598  13.555 -0.3380 -0.5431  0.0669
    7TCq1    H4  114   1.458   0.409  13.921 -0.7663 -0.5322 -2.1977
    8MPD2     C  115   0.982   0.155  13.453 -0.7822  0.4894  0.4749
    8MPD2    C1  116   1.098   0.100  13.509  0.3790 -0.4006 -0.2291
    8MPD2    C2  117   1.183   0.183  13.579 -0.0734 -0.3605 -0.4383
    8MPD2    C3  118   1.169   0.322  13.570 -0.5220  0.5124  0.6422
    8MPD2    C4  119   1.054   0.378  13.511  0.2191  0.3344 -0.3250
    8MPD2    C5  120   0.959   0.292  13.454 -0.1521  0.5432 -0.0413
    8MPD2     H  121   1.269   0.138  13.628  1.5337  0.7150 -2.2922
    8MPD2    H1  122   1.028   0.483  13.522  1.6706  0.6400  0.1842
    8MPD2    H2  123   0.901   0.094  13.416  0.6548 -0.7357 -0.6135
    8MPD2    H3  124   0.867   0.340  13.423 -0.0206  0.7145 -0.1745
    8MPD2     N  125   1.250   0.411  13.635  0.0815  0.2200  0.2256
    8MPD2    H5  126   1.230   0.511  13.636  2.3586  0.6548  0.7823
    8MPD2    N1  127   1.114   4.684  13.509 -0.5133  0.3433 -0.8319
    8MPD2    H7  128   1.032   4.627  13.489 -0.4201 -0.8119  1.9785
    9TCq1    O1  129   3.115   3.539  10.721  0.6487  0.2624  0.3779
    9TCq1    C1  130   3.237   3.486  10.743 -0.1673 -0.0227  0.0992
    9TCq1    O2  131   3.328   3.469  10.662 -0.1864 -0.3729  0.2739
    9TCq1    C2  132   3.262   3.480  10.888  0.0175  0.7094 -0.5485
    9TCq1    C3  133   3.394   3.502  10.930 -0.2204  0.1828  0.2933
    9TCq1    C4  134   3.424   3.519  11.060  0.1283 -0.0950 -0.8593
    9TCq1    C5  135   3.323   3.513  11.154 -0.6719  0.1748  0.0546
    9TCq1    C6  136   3.190   3.486  11.107 -0.0636 -0.1710 -0.3920
    9TCq1    C7  137   3.159   3.471  10.981 -0.0067  0.2304 -0.3624
    9TCq1    C8  138   3.090   3.466  11.216 -0.0508  0.2888  0.4043
    9TCq1    O4  139   2.971   3.471  11.183  0.0123  0.3392 -0.1351
    9TCq1    C9  140   3.560   3.522  11.104  0.6290 -0.1036  0.4335
    9TCq1    O5  141   3.649   3.504  11.018 -0.0691  0.1183  0.2997
    9TCq1    O6  142   3.578   3.544  11.226  0.0223 -0.4481  0.0267
    9TCq1    H1  143   3.084   3.573  10.808  1.2835 -2.0916  1.5181
    9TCq1    H2  144   3.480   3.503  10.863 -0.5276  0.0712 -0.1027
    9TCq1    H3  145   3.347   3.529  11.259 -0.2548 -0.7455  0.1044
    9TCq1    H4  146   3.060   3.446  10.942  0.4714 -0.1123 -1.3654
   10MPD2     C  147   2.951   3.417  11.470 -0.0965  0.4486 -0.2192
   10MPD2    C1  148   3.084   3.378  11.443  0.2703 -0.0903  0.6954
   10MPD2    C2  149   3.153   3.311  11.545 -0.5505  0.1453  0.6688
   10MPD2    C3  150   3.108   3.293  11.675  0.1621 -0.6164  0.3114
   10MPD2    C4  151   2.983   3.336  11.697 -0.6223  0.3353 -0.7462
   10MPD2    C5  152   2.912   3.399  11.600 -0.2756 -0.3928 -0.9520
   10MPD2     H  153   3.249   3.265  11.526 -0.9879 -0.2557 -0.6094
   10MPD2    H1  154   2.932   3.348  11.792 -0.9813 -0.4832 -0.8348
   10MPD2    H2  155   2.884   3.452  11.392 -0.7673  1.0047  0.6035
   10MPD2    H3  156   2.813   3.442  11.613 -0.1510 -0.7873  1.3669
   10MPD2     N  157   3.195   3.226  11.766  0.3153  0.4038  0.4021
   10MPD2    H5  158   3.294   3.223  11.740  0.4923  2.6263  0.8637
   10MPD2    N1  159   3.150   3.400  11.320  0.5595  0.2842 -0.2246
   10MPD2    H7  160   3.248   3.375  11.314  0.3480 -0.5500 -0.2301
   11TCq1    O1  161   4.530   3.394  13.887  0.7574 -0.3270  0.0069
   11TCq1    C1  162   4.459   3.507  13.874 -0.0539  0.6762 -0.9591
   11TCq1    O2  163   4.459   3.610  13.938 -0.0424 -0.2823  0.4855
   11TCq1    C2  164   4.380   3.495  13.754  0.9851 -0.1075 -0.0840
   11TCq1    C3  165   4.360   3.604  13.677  0.2754 -0.3743 -0.1902
   11TCq1    C4  166   4.311   3.590  13.554 -0.4493  0.1874  0.3366
   11TCq1    C5  167   4.293   3.463  13.506  0.0718 -0.4394  0.0387
   11TCq1    C6  168   4.318   3.348  13.584 -0.1518 -0.0487 -0.0947
   11TCq1    C7  169   4.354   3.364  13.717  0.3598  0.3463  0.0651
   11TCq1    C8  170   4.259   3.227  13.538  0.1333 -0.2829  0.5509
   11TCq1    O4  171   4.202   3.238  13.431 -0.4682  0.3393  0.3682
   11TCq1    C9  172   4.304   3.703  13.474  0.4563  0.0770  0.2052
   11TCq1    O5  173   4.361   3.805  13.514 -0.1109  0.7712  0.3163
   11TCq1    O6  174   4.274   3.691  13.355 -0.0688  0.6484 -0.3182
   11TCq1    H1  175   4.537   3.351  13.799 -2.4320  3.8695 -2.2953
   11TCq1    H2  176   4.363   3.704  13.717  1.9488 -1.2188  1.8225
   11TCq1    H3  177   4.260   3.459  13.403 -1.7585  1.7778  0.5398
   11TCq1    H4  178   4.343   3.281  13.786 -0.2863  0.5972  0.2673
   12MPD2     C  179   4.107   2.978  13.555  0.4992  0.1952 -0.2219
   12MPD2    C1  180   4.237   2.985  13.590 -0.3396  0.5230  0.2805
   12MPD2    C2  181   4.293   2.866  13.635 -0.5975 -0.0953  0.8299
   12MPD2    C3  182   4.231   2.741  13.633 -0.3676 -0.8829 -0.7801
   12MPD2    C4  183   4.099   2.745  13.595 -0.1741  0.7903  0.7758
   12MPD2    C5  184   4.040   2.863  13.547 -0.0859  0.2434 -0.6340
   12MPD2     H  185   4.396   2.880  13.668 -1.2581  1.0984  2.4138
   12MPD2    H1  186   4.036   2.657  13.593 -0.2117  0.8095  1.1098
   12MPD2    H2  187   4.057   3.068  13.522 -0.3031  0.8990  2.9707
   12MPD2    H3  188   3.938   2.877  13.512 -1.1731 -0.9477  2.0423
   12MPD2     N  189   4.297   2.621  13.676 -0.3109 -0.3750 -0.3863
   12MPD2    H5  190   4.393   2.628  13.707 -0.3041  1.5303 -0.8110
   12MPD2    N1  191   4.303   3.114  13.601 -0.2334 -0.0049 -0.3119
   12MPD2    H7  192   4.388   3.121  13.656 -0.3899 -0.9494  0.0579
   13TCq1    O1  193   3.751   3.491  11.401 -0.3470  0.0590  0.4287
   13TCq1    C1  194   3.834   3.386  11.402 -0.0017 -0.1591  0.1906
   13TCq1    O2  195   3.943   3.390  11.456 -0.0706 -0.3110 -0.2583
   13TCq1    C2  196   3.781   3.279  11.316 -0.7350  1.2595 -0.2726
   13TCq1    C3  197   3.872   3.203  11.256 -0.1476  0.4236  0.2441
   13TCq1    C4  198   3.829   3.109  11.166 -0.6745 -0.2054  0.1193
   13TCq1    C5  199   3.692   3.080  11.153  0.2293  0.1164 -0.1255
   13TCq1    C6  200   3.606   3.157  11.234 -0.5507  0.2001 -0.1601
   13TCq1    C7  201   3.645   3.265  11.311 -0.5474 -0.6656 -0.3229
   13TCq1    C8  202   3.461   3.138  11.232 -0.0070 -0.2608 -0.7496
   13TCq1    O4  203   3.387   3.165  11.323 -0.3396 -0.8145  0.0441
   13TCq1    C9  204   3.927   3.026  11.095  0.8078 -0.1435 -0.5606
   13TCq1    O5  205   4.045   3.063  11.103  0.2055  0.4243 -0.2560
   13TCq1    O6  206   3.886   2.923  11.032 -0.2097  0.3870  0.9674
   13TCq1    H1  207   3.680   3.494  11.333  0.1015 -1.0698 -0.0906
   13TCq1    H2  208   3.977   3.225  11.245  0.0925  0.4795  2.5896
   13TCq1    H3  209   3.668   2.991  11.096 -0.4552  1.5682 -2.1100
   13TCq1    H4  210   3.585   3.336  11.367  1.8923 -1.3962  3.1763
   14MPD2     C  211   3.296   3.014  10.938 -0.0874 -1.0001  0.3309
   14MPD2    C1  212   3.295   3.052  11.067 -0.8555  0.1792 -0.7622
   14MPD2    C2  213   3.184   3.084  11.136  0.5578  0.3773  0.2125
   14MPD2    C3  214   3.062   3.084  11.075  0.3259  0.4805  0.0767
   14MPD2    C4  215   3.049   3.034  10.944 -0.0838  0.3849 -0.1461
   14MPD2    C5  216   3.168   3.006  10.879  0.1062 -0.7311  0.0421
   14MPD2     H  217   3.182   3.122  11.238  1.7110  0.8935  0.0391
   14MPD2    H1  218   2.956   3.025  10.890 -0.1620 -1.0304  0.2171
   14MPD2    H2  219   3.378   2.977  10.877  0.2749  3.4547 -1.9507
   14MPD2    H3  220   3.159   2.973  10.776 -0.5489 -0.2553 -0.0518
   14MPD2     N  221   2.951   3.131  11.152  0.5013  0.3924  0.1419
   14MPD2    H5  222   2.964   3.147  11.251  0.2903  1.8150 -0.0703
   14MPD2    N1  223   3.427   3.078  11.110  0.0199  0.2170 -0.3271
   14MPD2    H7  224   3.509   3.066  11.050  0.4556  0.4860  0.2142
   15TCq1    O1  225   0.889   2.452   2.004  0.4326  0.3539  0.0315
   15TCq1    C1  226   0.915   2.383   1.887  0.0752  0.6260 -0.3687
   15TCq1    O2  227   1.017   2.392   1.824 -0.1924  0.2986  0.4169
   15TCq1    C2  228   0.788   2.346   1.824 -0.4116 -0.0555 -0.1840
   15TCq1    C3  229   0.672   2.420   1.831  0.6033 -0.1287 -0.0874
   15TCq1    C4  230   0.586   2.406   1.722  0.1552  0.0081 -0.1542
   15TCq1    C5  231   0.605   2.303   1.631  0.3474  0.5094  0.7531
   15TCq1    C6  232   0.707   2.217   1.645 -0.5602  0.7608  0.4519
   15TCq1    C7  233   0.799   2.235   1.739 -0.1045  0.4075  0.1039
   15TCq1    C8  234   0.711   2.101   1.555 -0.4721  0.1080 -0.1345
   15TCq1    O4  235   0.754   1.991   1.595 -0.0715  0.3872  0.4140
   15TCq1    C9  236   0.481   2.505   1.698 -0.1860 -0.2553 -0.3592
   15TCq1    O5  237   0.440   2.516   1.576  0.4710 -0.2019  0.0494
   15TCq1    O6  238   0.473   2.592   1.789 -0.0968  0.1423 -0.1816
   15TCq1    H1  239   0.795   2.432   2.027  0.6881 -1.5540 -0.5887
   15TCq1    H2  240   0.667   2.511   1.889 -1.8435  2.0232 -3.6574
   15TCq1    H3  241   0.526   2.290   1.558  0.5316 -1.2007  0.8739
   15TCq1    H4  242   0.889   2.174   1.743 -0.2436  0.2444  0.7847
   16MPD2     C  243   0.561   2.074   1.222  0.2002 -0.4217 -0.0360
   16MPD2    C1  244   0.645   2.037   1.326 -0.3857  0.0451 -0.2856
   16MPD2    C2  245   0.725   1.923   1.313 -0.0305  0.3267 -0.2139
   16MPD2    C3  246   0.713   1.843   1.203  0.5141  0.1069 -0.3669
   16MPD2    C4  247   0.616   1.877   1.108 -0.5612 -0.0172 -0.6404
   16MPD2    C5  248   0.551   2.000   1.110 -0.0369  0.7126  0.1797
   16MPD2     H  249   0.788   1.891   1.395  0.4084  1.8975  0.0768
   16MPD2    H1  250   0.602   1.814   1.020  2.1475  0.7433 -1.6302
   16MPD2    H2  251   0.505   2.167   1.230  0.4688 -0.0268 -2.5408
   16MPD2    H3  252   0.485   2.032   1.031  0.1263 -1.0906 -0.6750
   16MPD2     N  253   0.796   1.729   1.188 -0.0532  0.3842 -0.0946
   16MPD2    H5  254   0.847   1.701   1.271 -1.3920 -0.6707  0.3648
   16MPD2    N1  255   0.647   2.122   1.435  0.0079  0.0666  0.4599
   16MPD2    H7  256   0.604   2.211   1.411  0.2764 -0.1816 -0.9530
   17TCq1    O1  257   3.466   2.756  11.335  0.3219  0.2454  0.1190
   17TCq1    C1  258   3.565   2.825  11.394 -0.1262 -0.4346  0.2218
   17TCq1    O2  259   3.548   2.921  11.469 -0.4458 -0.2021  0.4148
   17TCq1    C2  260   3.683   2.737  11.388  0.0225  0.3712 -0.0068
   17TCq1    C3  261   3.685   2.603  11.353  0.2633  0.2616 -0.5788
   17TCq1    C4  262   3.804   2.541  11.360  0.2614  0.8955  0.1251
   17TCq1    C5  263   3.921   2.606  11.385  0.0684 -0.6758 -0.4169
   17TCq1    C6  264   3.917   2.730  11.434 -0.7559 -0.7441  0.3313
   17TCq1    C7  265   3.803   2.801  11.431 -0.1347  0.0053  0.0532
   17TCq1    C8  266   4.044   2.793  11.463  0.4334 -0.3741  0.7089
   17TCq1    O4  267   4.057   2.872  11.555 -0.8033 -0.2682 -0.6020
   17TCq1    C9  268   3.814   2.411  11.291  0.1760  0.2549  0.0729
   17TCq1    O5  269   3.929   2.370  11.261 -0.0718  0.0330  0.0377
   17TCq1    O6  270   3.703   2.360  11.265 -0.6970  0.1361 -0.1328
   17TCq1    H1  271   3.502   2.707  11.258  2.5920  0.4722  1.0668
   17TCq1    H2  272   3.599   2.547  11.319  0.2195 -0.0090 -0.0199
   17TCq1    H3  273   4.012   2.548  11.394 -0.8264 -2.1578 -1.0090
   17TCq1    H4  274   3.804   2.905  11.463  2.2826  0.6193 -2.0141
   18MPD2     C  275   4.332   2.894  11.396  0.7399  0.4939  0.3164
   18MPD2    C1  276   4.259   2.805  11.317 -0.1606  0.1864 -0.5941
   18MPD2    C2  277   4.323   2.778  11.195 -0.4643 -0.1142 -0.5401
   18MPD2    C3  278   4.452   2.827  11.158 -0.2952  0.1295  0.1384
   18MPD2    C4  279   4.523   2.893  11.254  0.2836  0.0348  0.2202
   18MPD2    C5  280   4.469   2.919  11.368  0.0782  0.8475  0.5312
   18MPD2     H  281   4.262   2.730  11.119  1.4302 -2.9384 -0.2697
   18MPD2    H1  282   4.619   2.939  11.235 -0.8628  2.7561  0.9668
   18MPD2    H2  283   4.300   2.926  11.495 -0.9775 -0.4946  0.0788
   18MPD2    H3  284   4.524   2.967  11.449  1.4559 -1.1865  0.8050
   18MPD2     N  285   4.505   2.813  11.030 -0.3116  0.2362 -0.7441
   18MPD2    H5  286   4.581   2.876  11.004  1.2674 -0.6727  1.5868
   18MPD2    N1  287   4.126   2.759  11.354  0.7330 -0.4119  0.0832
   18MPD2    H7  288   4.085   2.699  11.283 -1.3067  0.5014  0.4868
   19TMC2    C1  289   0.991   3.209  13.772  0.5947 -0.2470 -0.8922
   19TMC2    C2  290   1.016   3.193  13.637 -0.1182  0.4232  0.0472
   19TMC2    C3  291   0.980   3.083  13.578 -0.0262 -0.0218  0.3739
   19TMC2    C4  292   0.918   3.114  13.840 -0.5385  0.4660 -0.2701
   19TMC2    C5  293   0.873   3.004  13.770 -0.3663  0.4640  0.4561
   19TMC2    C6  294   0.902   2.991  13.639  0.5514  0.2513  0.2230
   19TMC2     C  295   1.050   3.326  13.842  0.4594 -0.0534  0.3817
   19TMC2     O  296   1.079   3.428  13.776  0.1684 -0.1933  0.4233
   19TMC2     H  297   1.080   3.264  13.586  0.4995  0.9468  1.5722
   19TMC2    H1  298   0.883   3.128  13.942  0.5366 -0.2684  0.2025
   19TMC2    H2  299   0.899   2.893  13.592 -0.0608  0.2579  0.2394
   19TMC2    C7  300   0.797   2.906  13.841  1.2601 -0.4825 -0.3912
   19TMC2    C8  301   0.979   3.075  13.442 -0.2242 -0.0173  0.5710
   19TMC2    O1  302   0.799   2.905  13.965  0.0530  0.5262  0.3565
   19TMC2    O2  303   0.976   2.974  13.372  0.5576 -0.1202 -0.3201
   19TMC2    O5  304   0.930   3.195  13.401 -0.2985  0.6534 -0.3024
   19TMC2    H5  305   0.904   3.265  13.464 -2.3792 -0.7784  0.4476
   20MPD2     C  306   1.143   3.537  14.036 -0.2003  0.3401 -0.7077
   20MPD2    C1  307   1.141   3.400  14.063  0.5957 -0.3523 -0.1203
   20MPD2    C2  308   1.190   3.359  14.188  0.1720 -0.6429 -0.1741
   20MPD2    C3  309   1.238   3.453  14.289 -0.5173 -0.0439  0.3298
   20MPD2    C4  310   1.249   3.580  14.249 -0.3034 -0.5032 -0.0545
   20MPD2    C5  311   1.202   3.620  14.126 -0.6490 -0.5258  0.4171
   20MPD2     H  312   1.197   3.252  14.205  0.0302 -0.8189 -1.2097
   20MPD2    H1  313   1.281   3.653  14.322  2.1656 -1.3681 -0.2575
   20MPD2    H2  314   1.103   3.591  13.951 -2.7248 -0.6614 -0.1625
   20MPD2    H3  315   1.213   3.728  14.116  1.0475 -0.7451 -0.0052
   20MPD2     N  316   1.271   3.421  14.424 -0.7209  0.7335 -0.0015
   20MPD2    H5  317   1.326   3.488  14.477 -1.5006  1.1677  0.2743
   20MPD2    N1  318   1.082   3.302  13.972 -0.0045  0.0951  0.0328
   20MPD2    H7  319   1.093   3.207  14.007  2.6257  0.7599  1.0234
   21MPD2     C  320   3.381   3.970  14.389 -0.7258  0.4539  0.2638
   21MPD2    C1  321   3.445   3.863  14.332  0.4778  0.0393 -0.1318
   21MPD2    C2  322   3.401   3.734  14.342  0.6389 -0.0218 -0.6887
   21MPD2    C3  323   3.278   3.710  14.399  0.0936  0.5397  0.4663
   21MPD2    C4  324   3.221   3.813  14.467 -0.5057  0.1850 -0.1114
   21MPD2    C5  325   3.265   3.942  14.459  0.1027 -0.8489 -0.0570
   21MPD2     H  326   3.459   3.648  14.309  1.8514  1.2849 -1.9991
   21MPD2    H1  327   3.128   3.801  14.522 -0.4791 -0.5926 -0.2477
   21MPD2    H2  328   3.416   4.073  14.395  0.1595  0.2784 -1.8348
   21MPD2    H3  329   3.209   4.022  14.507  1.1118 -0.0446 -0.2041
   21MPD2     N  330   3.225   3.583  14.426  0.2862  0.3305 -0.1859
   21MPD2    H5  331   3.145   3.577  14.489  0.7718  2.0369  0.5756
   21MPD2    N1  332   3.569   3.865  14.270 -0.1082 -0.2691 -0.3533
   21MPD2    H7  333   3.605   3.772  14.253 -0.3329 -0.3722 -0.2739
   22TCq2    C1  334   3.288   3.464  14.398  0.6212  0.6400  0.5907
   22TCq2    O2  335   3.375   3.437  14.313  0.7451  0.5152  0.1720
   22TCq2    C2  336   3.256   3.356  14.492 -0.0636  0.6187 -0.5229
   22TCq2    C3  337   3.354   3.266  14.517  0.3645  0.1966 -0.2075
   22TCq2    C4  338   3.349   3.184  14.627  0.2768  0.4829  0.2070
   22TCq2    C5  339   3.237   3.185  14.710  0.2358 -0.5805  0.3449
   22TCq2    C6  340   3.129   3.267  14.669  0.2102 -0.6407 -0.2916
   22TCq2    C7  341   3.138   3.354  14.563 -0.7012 -0.7063  0.0171
   22TCq2    C8  342   3.012   3.265  14.764 -0.2294 -0.2190 -0.2097
   22TCq2    O4  343   3.023   3.199  14.864 -0.4038 -0.2486  0.2992
   22TCq2    C9  344   3.449   3.080  14.651  0.1282  0.4170 -0.3530
   22TCq2    O5  345   3.444   3.004  14.752  0.8497  0.4026 -0.0347
   22TCq2    O6  346   3.541   3.063  14.563  0.3906 -0.2881 -0.5555
   22TCq2    H2  347   3.451   3.267  14.467  0.5179  3.5705  0.1578
   22TCq2    H3  348   3.230   3.117  14.794 -1.0967 -0.7453  0.0974
   22TCq2    H4  349   3.050   3.399  14.518 -0.6499  0.1104  0.7398
   23MPD2     C  350   0.277   4.066  14.453  0.1710  0.5875  0.1498
   23MPD2    C1  351   0.156   4.108  14.510 -0.0025 -0.5126  0.5533
   23MPD2    C2  352   0.069   4.177  14.424  0.3538 -0.2394  0.1430
   23MPD2    C3  353   0.105   4.212  14.290  0.4050 -0.5000 -0.3156
   23MPD2    C4  354   0.231   4.174  14.241  0.7977  0.0696 -0.0336
   23MPD2    C5  355   0.304   4.104  14.321 -0.3165 -0.0811 -0.0510
   23MPD2     H  356   4.699   4.208  14.466  0.8584  0.2842  0.8903
   23MPD2    H1  357   0.253   4.196  14.137 -0.8523 -0.0841 -0.4175
   23MPD2    H2  358   0.354   4.010  14.503 -0.3426  0.2314  0.5396
   23MPD2    H3  359   0.402   4.082  14.282 -0.5631 -1.3706  0.0424
   23MPD2     N  360   0.039   4.296  14.193 -0.3108  0.0281 -0.1681
   23MPD2    H5  361   0.082   4.310  14.102 -1.7308  1.2605 -0.6581
   23MPD2    N1  362   0.125   4.104  14.648 -0.1936  0.1212  0.1384
   23MPD2    H7  363   0.041   4.151  14.678 -0.8487 -1.7458  1.2565
   24TCq2    C1  364   4.646   4.367  14.220 -0.4413  0.1981  0.4949
   24TCq2    O2  365   4.573   4.351  14.318  0.1661  0.5212 -0.3274
   24TCq2    C2  366   4.587   4.422  14.103 -0.5097  0.0939 -0.6392
   24TCq2    C3  367   4.671   4.449  13.998  0.2419  0.9298  0.3093
   24TCq2    C4  368   4.621   4.517  13.889 -0.2734 -0.3553  0.0158
   24TCq2    C5  369   4.497   4.562  13.900 -0.4511  0.2258  0.6724
   24TCq2    C6  370   4.411   4.548  14.011 -0.0255 -0.0579  0.0215
   24TCq2    C7  371   4.461   4.476  14.115  0.2378 -0.4161 -0.1844
   24TCq2    C8  372   4.268   4.580  13.989 -0.8615 -0.2811  0.3364
   24TCq2    O4  373   4.239   4.601  13.873  0.0519 -0.7382 -0.4052
   24TCq2    C9  374   4.701   4.551  13.772 -0.2553 -0.0709  0.2468
   24TCq2    O5  375   4.647   4.610  13.674 -0.3097 -0.0134  0.6575
   24TCq2    O6  376   0.100   4.534  13.778 -0.0177 -0.3124 -0.1563
   24TCq2    H2  377   0.052   4.428  13.996  0.1155  0.4953 -1.1676
   24TCq2    H3  378   4.457   4.619  13.817  0.0172 -0.7179 -0.1977
   24TCq2    H4  379   4.401   4.456  14.203  0.9849 -0.9637  0.1966
   25TMC2    C1  380   2.996   1.922  11.617 -0.1286 -0.2865  0.2440
   25TMC2    C2  381   2.868   1.963  11.589 -0.1510 -0.0044 -0.0462
   25TMC2    C3  382   2.828   2.081  11.646  0.2567 -0.0934 -0.1657
   25TMC2    C4  383   3.093   2.003  11.679  0.0529  0.3283 -0.0453
   25TMC2    C5  384   3.050   2.126  11.703  0.0101 -0.3512  0.7694
   25TMC2    C6  385   2.920   2.172  11.699  0.6264  0.6066  0.0462
   25TMC2     C  386   3.044   1.784  11.576  0.6517 -0.0747 -0.0078
   25TMC2     O  387   3.165   1.758  11.579 -0.9023  0.3495 -0.1697
   25TMC2     H  388   2.787   1.895  11.565 -1.3519  1.9465 -1.5377
   25TMC2    H1  389   3.199   1.981  11.680  0.1015  0.5594 -0.1244
   25TMC2    H2  390   2.899   2.272  11.734  0.1138  0.2136  0.8738
   25TMC2    C7  391   3.130   2.189  11.799  0.5207  0.1057 -0.1082
   25TMC2    C8  392   2.717   2.136  11.574 -0.4381  0.3139  0.0378
   25TMC2    O1  393   3.119   2.309  11.816  0.2240  0.5866 -0.0092
   25TMC2    O2  394   2.716   2.149  11.453 -0.0685  0.4159 -0.3885
   25TMC2    O5  395   2.628   2.184  11.668  0.1276  0.0826 -0.4715
   25TMC2    H5  396   2.665   2.158  11.756  0.4097 -0.8076 -0.8488
   26MPD2     C  397   2.946   1.369  11.297 -0.9310  0.4156  0.0151
   26MPD2    C1  398   2.832   1.413  11.351 -0.8419 -1.1170 -0.4577
   26MPD2    C2  399   2.831   1.520  11.433  0.2506  0.4331 -0.6712
   26MPD2    C3  400   2.951   1.583  11.462  0.3619  0.4130 -0.2548
   26MPD2    C4  401   3.071   1.538  11.410  0.8280 -0.1567 -0.5858
   26MPD2    C5  402   3.062   1.438  11.315 -0.1172  0.0575  0.1605
   26MPD2     H  403   2.742   1.557  11.483  1.2265  3.2968 -1.0420
   26MPD2    H1  404   3.162   1.596  11.420  2.1063 -1.8722 -2.1768
   26MPD2    H2  405   2.946   1.282  11.232  2.8826  0.9032 -0.5953
   26MPD2    H3  406   3.153   1.404  11.266 -1.0391  0.9631 -2.1905
   26MPD2     N  407   2.941   1.698  11.541 -0.4430  0.0015 -0.3855
   26MPD2    H5  408   2.850   1.714  11.583  0.3513  2.3697  0.4439
   26MPD2    N1  409   2.719   1.335  11.315 -0.0749  0.1680  0.1530
   26MPD2    H7  410   2.725   1.262  11.244  1.7375  0.2315  0.2421
   27TMC2    C1  411   1.791   4.022  12.112  0.2928 -0.0749 -0.1149
   27TMC2    C2  412   1.673   4.056  12.045  0.6034 -0.5638  0.1741
   27TMC2    C3  413   1.628   4.187  12.059 -0.5338 -0.1781 -0.3110
   27TMC2    C4  414   1.867   4.121  12.173  0.2047  0.0029 -0.1581
   27TMC2    C5  415   1.820   4.248  12.173 -0.6478 -0.0022 -0.0780
   27TMC2    C6  416   1.700   4.290  12.122  0.1161  0.2270 -0.2078
   27TMC2     C  417   1.762   3.910  12.201  1.1983 -0.0020  0.0792
   27TMC2     O  418   1.704   3.815  12.154  0.3370  0.3493  0.0617
   27TMC2     H  419   1.605   3.979  12.009  0.6848  0.4986 -2.2958
   27TMC2    H1  420   1.945   4.095  12.244 -1.1519  2.1466  2.0787
   27TMC2    H2  421   1.655   4.388  12.136 -2.0100 -1.0440  1.9586
   27TMC2    C7  422   1.840   4.301  12.311  0.2222 -0.3371 -0.0817
   27TMC2    C8  423   1.498   4.203  12.014  0.0479  0.8814  0.2066
   27TMC2    O1  424   1.841   4.208  12.392  0.4634 -0.0788 -0.0410
   27TMC2    O2  425   1.439   4.118  11.948  0.0432  0.0414 -0.0750
   27TMC2    O5  426   1.441   4.312  12.066 -0.4004 -0.1567 -0.3179
   27TMC2    H5  427   1.487   4.335  12.150 -0.8033  0.5889 -0.2980
   28MPD2     C  428   1.694   3.700  12.657  0.5676 -0.0212  0.9241
   28MPD2    C1  429   1.660   3.829  12.664  0.9996  0.5970 -0.2838
   28MPD2    C2  430   1.682   3.916  12.556 -0.7045  0.0349  0.4126
   28MPD2    C3  431   1.736   3.868  12.435  0.2997  0.8526  0.2113
   28MPD2    C4  432   1.765   3.737  12.428  0.0518 -0.3705  0.0714
   28MPD2    C5  433   1.743   3.658  12.537 -0.0051  0.1246 -0.2078
   28MPD2     H  434   1.656   4.021  12.551  1.0868  0.4789  0.4493
   28MPD2    H1  435   1.799   3.687  12.338  0.1195  0.2707 -0.2616
   28MPD2    H2  436   1.678   3.640  12.746  0.0238 -0.7529  0.3323
   28MPD2    H3  437   1.754   3.551  12.522 -0.0008  0.1907 -0.6847
   28MPD2     N  438   1.762   3.954  12.331 -0.0776 -0.1084  0.1284
   28MPD2    H5  439   1.790   4.048  12.356 -0.2522  0.8287 -3.0965
   28MPD2    N1  440   1.583   3.866  12.771 -0.2647 -0.0248 -0.0048
   28MPD2    H7  441   1.559   3.794  12.839  0.1704  0.5934  0.7989
   29MPD2     C  442   1.693   1.657  14.188  0.6236  0.7457 -0.5347
   29MPD2    C1  443   1.828   1.656  14.226  0.3222  0.4063  0.5440
   29MPD2    C2  444   1.882   1.771  14.286  0.2736 -0.1465 -0.3286
   29MPD2    C3  445   1.800   1.876  14.321  0.6174 -0.7777 -0.0055
   29MPD2    C4  446   1.667   1.873  14.285  0.0948  0.2899 -0.2612
   29MPD2    C5  447   1.611   1.766  14.220 -0.2551  0.9502 -0.7294
   29MPD2     H  448   1.990   1.765  14.297  0.5382  1.9855 -1.9061
   29MPD2    H1  449   1.604   1.954  14.320  0.2406 -1.6591  4.5334
   29MPD2    H2  450   1.636   1.575  14.147  1.1821  0.4080 -0.6252
   29MPD2    H3  451   1.506   1.752  14.199  0.0349 -0.5527 -1.2197
   29MPD2     N  452   1.848   1.995  14.384  0.4529 -0.2937 -0.5177
   29MPD2    H5  453   1.777   2.058  14.421  2.0244  0.1821  1.6624
   29MPD2    N1  454   1.901   1.538  14.193 -0.0478 -0.0249 -0.0784
   29MPD2    H7  455   1.990   1.527  14.241  0.3429  2.9331 -0.0685
   30TCq2    C1  456   1.980   2.038  14.392  0.2181 -1.0475  0.4019
   30TCq2    O2  457   2.075   1.990  14.333  0.4251 -0.2617 -0.1585
   30TCq2    C2  458   1.994   2.157  14.475  0.5708  0.7349  0.1931
   30TCq2    C3  459   1.915   2.176  14.588 -0.0992  0.1805  0.7176
   30TCq2    C4  460   1.933   2.295  14.651 -0.7504  0.5287  0.2383
   30TCq2    C5  461   2.029   2.384  14.620 -0.4564 -0.5787 -0.6316
   30TCq2    C6  462   2.107   2.355  14.512 -0.2104 -0.2530 -0.3424
   30TCq2    C7  463   2.089   2.245  14.430 -0.2926 -0.4084 -0.0749
   30TCq2    C8  464   2.183   2.456  14.445 -0.6713 -0.6669  0.0153
   30TCq2    O4  465   2.199   2.444  14.324 -0.0536 -0.2167 -0.0023
   30TCq2    C9  466   1.845   2.332  14.758  0.3620  0.3687 -0.0191
   30TCq2    O5  467   1.840   2.448  14.796 -0.0896 -0.6280  0.0966
   30TCq2    O6  468   1.763   2.240  14.792 -0.3190 -0.5774  0.6134
   30TCq2    H2  469   1.842   2.109  14.632 -0.2171 -1.3267 -1.7783
   30TCq2    H3  470   2.050   2.476  14.674  0.1892 -0.9872 -0.1873
   30TCq2    H4  471   2.144   2.223  14.339 -0.9927  2.5218 -1.2332
   31MPD2     C  472   4.664   1.011  14.727  0.6850  0.5790  1.0713
   31MPD2    C1  473   4.541   1.029  14.669  0.0718 -0.2922 -0.6289
   31MPD2    C2  474   4.425   0.983  14.740  0.3116  0.6533 -0.1474
   31MPD2    C3  475   4.438   0.921  14.859  0.7121  0.4045 -0.0260
   31MPD2    C4  476   4.561   0.917  14.926 -0.5745  0.0673 -0.1688
   31MPD2    C5  477   4.676   0.951  14.854 -0.5856 -0.0793 -0.1806
   31MPD2     H  478   4.328   0.989  14.693 -0.1328 -1.7978  0.4840
   31MPD2    H1  479   4.578   0.862  15.018 -0.2950  1.2156  0.4692
   31MPD2    H2  480   0.031   1.036  14.675  1.5831 -0.7687  2.0255
   31MPD2    H3  481   0.053   0.938  14.887 -0.7290 -0.7025  0.0318
   31MPD2     N  482   4.327   0.851  14.924  0.2488  0.7579 -0.3896
   31MPD2    H5  483   4.355   0.788  14.999 -1.4685  0.1622 -0.2357
   31MPD2    N1  484   4.538   1.098  14.545  0.0636 -0.3777 -0.1659
   31MPD2    H7  485   4.623   1.092  14.490  0.6558 -0.0178  0.7206
   32TCq2    C1  486   4.199   0.861  14.889 -0.4622 -0.4438 -0.6062
   32TCq2    O2  487   4.146   0.914  14.794  0.2014 -0.6363  0.0274
   32TCq2    C2  488   4.116   0.825  15.003  0.4065  0.4477 -0.0284
   32TCq2    C3  489   4.013   0.912  15.013  0.3095  0.1286 -0.9919
   32TCq2    C4  490   3.961   0.942  15.142 -0.4635  1.0188  0.0536
   32TCq2    C5  491   4.014   0.884  15.255  0.2375 -0.4475 -1.0704
   32TCq2    C6  492   4.121   0.802  15.238 -0.6085 -0.1392 -0.2847
   32TCq2    C7  493   4.172   0.772  15.113 -0.3864  0.4564  0.5927
   32TCq2    C8  494   4.205   0.761  15.349 -0.6013  0.6129  0.0466
   32TCq2    O4  495   4.273   0.660  15.335  0.3057 -0.4852  0.3646
   32TCq2    C9  496   3.862   1.045  15.159 -0.3442 -0.3703 -0.3836
   32TCq2    O5  497   3.864   1.107  15.268 -0.3035  0.0888 -0.3534
   32TCq2    O6  498   3.800   1.082  15.057 -0.1927 -0.7006 -0.7608
   32TCq2    H2  499   3.975   0.972  14.931 -1.7079  0.2940  0.0668
   32TCq2    H3  500   3.980   0.906  15.355  1.9806  0.8183 -0.7415
   32TCq2    H4  501   4.234   0.687  15.088 -2.7051 -2.2304  3.8895
   33MPD2     C  502   4.675   3.324  10.555 -0.1302  0.2192  1.1121
   33MPD2    C1  503   4.611   3.221  10.500  0.1880  0.0020  0.2416
   33MPD2    C2  504   4.540   3.238  10.385  0.2033 -0.3839  0.3857
   33MPD2    C3  505   4.543   3.357  10.313  0.1366 -0.4692 -0.5478
   33MPD2    C4  506   4.611   3.463  10.372  0.5493 -0.1586 -0.5818
   33MPD2    C5  507   4.668   3.449  10.495  0.4646  0.6376  0.1135
   33MPD2     H  508   4.479   3.153  10.354 -0.6483  0.4352 -0.1932
   33MPD2    H1  509   4.614   3.562  10.329  0.2744 -1.3346 -3.3115
   33MPD2    H2  510   4.718   3.306  10.653 -0.1075  0.2532  1.1082
   33MPD2    H3  511   4.710   3.535  10.547 -0.5286  1.4352 -0.3855
   33MPD2     N  512   4.483   3.375  10.186 -0.3970  0.6689 -0.1829
   33MPD2    H5  513   4.493   3.463  10.136  0.0737 -0.2766 -1.7377
   33MPD2    N1  514   4.626   3.094  10.573  0.3308 -0.5240 -0.5271
   33MPD2    H7  515   4.687   3.089  10.654 -1.3461 -0.5576  0.7435
   34TCq2    C1  516   4.407   3.277  10.126 -0.1007 -0.5254 -0.2886
   34TCq2    O2  517   4.373   3.167  10.159 -0.9165 -0.2206  0.0811
   34TCq2    C2  518   4.357   3.320   9.997  0.5662  0.0263  0.3690
   34TCq2    C3  519   4.244   3.261   9.950  0.1511  0.3120 -0.3315
   34TCq2    C4  520   4.190   3.316   9.840  1.0231  0.1899  0.7225
   34TCq2    C5  521   4.243   3.426   9.782  0.4673 -0.3214  0.0151
   34TCq2    C6  522   4.368   3.473   9.828 -1.5049  0.4813  0.0649
   34TCq2    C7  523   4.432   3.413   9.930  0.4553 -0.5120  0.5723
   34TCq2    C8  524   4.408   3.612   9.804  0.4282  0.0766 -0.2849
   34TCq2    O4  525   4.529   3.633   9.819 -0.6113  0.3850 -0.0824
   34TCq2    C9  526   4.053   3.272   9.791  0.7307 -0.3587  0.1467
   34TCq2    O5  527   4.018   3.317   9.676 -0.1289  0.3697  0.1994
   34TCq2    O6  528   3.983   3.194   9.859 -0.6561  0.1698  0.3559
   34TCq2    H2  529   4.192   3.180  10.001 -0.4655  0.5637 -0.5616
   34TCq2    H3  530   4.180   3.467   9.704 -0.7667  1.6969  2.0693
   34TCq2    H4  531   4.530   3.439   9.966  0.5431  0.7776 -0.5863
   35MPD2     C  532   1.148   4.463  12.085  0.0706  0.6893  0.0708
   35MPD2    C1  533   1.045   4.387  12.041  0.1564  0.2752 -0.4324
   35MPD2    C2  534   0.962   4.440  11.945 -0.4683 -0.1424 -0.1040
   35MPD2    C3  535   0.968   4.576  11.906  0.1336 -0.2258  0.6633
   35MPD2    C4  536   1.073   4.650  11.959 -0.5177  0.4319  1.1125
   35MPD2    C5  537   1.156   4.594  12.047 -0.6431  0.2426  0.0886
   35MPD2     H  538   0.889   4.380  11.891 -0.3136 -1.4029  1.0891
   35MPD2    H1  539   1.085   0.031  11.943 -0.9652 -0.1059 -2.9499
   35MPD2    H2  540   1.229   4.440  12.153 -0.5604  0.9826  0.9108
   35MPD2    H3  541   1.217   4.658  12.111 -2.1157  0.7511  0.9793
   35MPD2     N  542   0.874   4.626  11.811  0.3634  0.1645  0.5162
   35MPD2    H5  543   0.799   4.562  11.785 -1.0935  2.6157 -1.3450
   35MPD2    N1  544   1.027   4.259  12.107 -0.3426  0.0551 -0.1245
   35MPD2    H7  545   1.089   4.229  12.181 -1.3507 -1.2634  0.1755
   36TCq2    C1  546   0.875   0.033  11.762  0.6431 -0.2841  0.1256
   36TCq2    O2  547   0.952   0.131  11.793  0.1681  0.4063  0.1626
   36TCq2    C2  548   0.776   0.062  11.657 -0.7621  0.4514  0.7823
   36TCq2    C3  549   0.795   0.184  11.594  0.2280 -0.4471 -0.0697
   36TCq2    C4  550   0.711   0.216  11.490 -0.5918 -0.3946 -0.7152
   36TCq2    C5  551   0.623   0.128  11.440 -0.8869  0.5806  0.8702
   36TCq2    C6  552   0.608   0.009  11.507 -0.0371  0.0254  1.0648
   36TCq2    C7  553   0.685   4.696  11.613 -0.0809 -0.5204  0.1270
   36TCq2    C8  554   0.515   4.637  11.449 -1.0047  0.2240  0.2193
   36TCq2    O4  555   0.484   4.660  11.332 -0.0217 -0.1297  0.5379
   36TCq2    C9  556   0.736   0.336  11.420  0.3949 -0.2203  0.3188
   36TCq2    O5  557   0.843   0.397  11.441  0.0358  0.0437 -0.8895
   36TCq2    O6  558   0.637   0.380  11.350 -0.0769 -0.2104 -0.0825
   36TCq2    H2  559   0.883   0.239  11.624  1.1649 -1.8535 -0.2220
   36TCq2    H3  560   0.565   0.156  11.354  0.4312 -0.3680 -0.3251
   36TCq2    H4  561   0.683   4.597  11.658  1.2585 -0.0164  1.3138
   37TMC2    C1  562   2.820   4.336  11.497  0.6939  0.3720  0.1073
   37TMC2    C2  563   2.816   4.364  11.361  0.3712 -0.0683 -0.3002
   37TMC2    C3  564   2.937   4.375  11.293 -0.2276  0.2165 -0.0063
   37TMC2    C4  565   2.942   4.307  11.562 -0.2475 -0.4661 -0.1080
   37TMC2    C5  566   3.058   4.310  11.494  0.5792 -0.1492  0.2001
   37TMC2    C6  567   3.055   4.351  11.354  0.2086 -0.3582 -0.1669
   37TMC2     C  568   2.725   4.404  11.573 -0.8037 -0.0752 -0.2288
   37TMC2     O  569   2.686   4.511  11.524 -0.0174 -0.6819 -0.3422
   37TMC2     H  570   2.722   4.383  11.311 -0.4466 -0.0222  1.2668
   37TMC2    H1  571   2.944   4.283  11.668 -1.8147 -2.8601 -0.6272
   37TMC2    H2  572   3.151   4.356  11.304 -0.3130  0.6472 -1.0562
   37TMC2    C7  573   3.183   4.324  11.573 -0.4304 -0.1538 -0.0187
   37TMC2    C8  574   2.944   4.368  11.148  0.5160  0.0321 -0.6243
   37TMC2    O1  575   3.165   4.360  11.691  0.6521 -0.1318 -0.2902
   37TMC2    O2  576   3.028   4.305  11.084  0.2075  0.1809  0.4671
   37TMC2    O5  577   2.824   4.392  11.092 -0.5359  0.0308 -0.5184
   37TMC2    H5  578   2.772   4.456  11.145  1.9596  0.0931  1.8709
   38MPD2     C  579   2.531   4.515  12.031  0.7848  0.2296 -0.2841
   38MPD2    C1  580   2.609   4.397  12.047  0.4544 -0.0820 -0.3496
   38MPD2    C2  581   2.667   4.344  11.933  1.1604  0.3222 -0.0748
   38MPD2    C3  582   2.647   4.399  11.809 -0.5568  0.3171 -0.3301
   38MPD2    C4  583   2.564   4.508  11.792  0.1513 -0.5347  0.4304
   38MPD2    C5  584   2.515   4.566  11.907  0.7063 -0.2285  0.0185
   38MPD2     H  585   2.720   4.250  11.945 -0.2696 -0.4921 -0.1125
   38MPD2    H1  586   2.533   4.542  11.694  0.7048 -1.8528 -0.2167
   38MPD2    H2  587   2.496   4.573  12.115 -0.4817  0.8107 -1.2159
   38MPD2    H3  588   2.434   4.636  11.892 -0.4647 -1.3848  1.0073
   38MPD2     N  589   2.712   4.345  11.697  0.1596 -0.5010  0.5266
   38MPD2    H5  590   2.766   4.261  11.714  1.6331  0.1479 -0.9612
   38MPD2    N1  591   2.635   4.340  12.172  0.5447 -0.7269 -0.0558
   38MPD2    H7  592   2.703   4.264  12.176  0.4935 -0.7908 -0.4151
   39MPD2     C  593   1.654   0.900   1.507  0.7377 -0.7491  0.2467
   39MPD2    C1  594   1.631   0.986   1.606 -0.4499  0.0614 -0.2830
   39MPD2    C2  595   1.500   1.023   1.630 -0.4372 -0.8249 -0.0922
   39MPD2    C3  596   1.404   0.991   1.535 -0.3563  0.7784  0.0094
   39MPD2    C4  597   1.432   0.909   1.427 -0.1784  0.1382 -0.6112
   39MPD2    C5  598   1.559   0.862   1.417  0.6458  0.1091 -0.3288
   39MPD2     H  599   1.475   1.083   1.716  0.7812  2.3395 -1.9428
   39MPD2    H1  600   1.365   0.885   1.345  0.5448 -1.0815 -0.8399
   39MPD2    H2  601   1.757   0.870   1.492  0.7514  0.1310 -1.4400
   39MPD2    H3  602   1.587   0.791   1.340 -0.9514 -0.5946 -0.2630
   39MPD2     N  603   1.269   1.042   1.533 -0.6521  0.1794 -0.2282
   39MPD2    H5  604   1.212   1.006   1.458  0.2703  0.3315 -0.9907
   39MPD2    N1  605   1.738   1.020   1.689  0.4809 -0.3212 -0.2514
   39MPD2    H7  606   1.829   0.982   1.664  1.8012 -0.1112  4.1805
   40TCq2    C1  607   1.725   1.103   1.800 -0.4205 -0.3320  0.1399
   40TCq2    O2  608   1.621   1.120   1.869  0.3445  0.3895 -0.3725
   40TCq2    C2  609   1.855   1.141   1.859 -0.1470 -0.2871  0.7441
   40TCq2    C3  610   1.857   1.167   1.997 -0.7171  0.5952 -1.1022
   40TCq2    C4  611   1.979   1.172   2.054  0.3184 -0.0428 -0.0578
   40TCq2    C5  612   2.096   1.192   1.983  0.5058 -0.0469 -0.5044
   40TCq2    C6  613   2.087   1.181   1.843 -0.4011 -0.2140  0.0353
   40TCq2    C7  614   1.967   1.136   1.779 -0.1906 -0.0527 -0.8254
   40TCq2    C8  615   2.201   1.221   1.761 -0.2247  0.6553  0.0885
   40TCq2    O4  616   2.316   1.207   1.805  0.7214  0.3234  0.3896
   40TCq2    C9  617   1.985   1.162   2.190  0.4928 -0.0778 -0.0858
   40TCq2    O5  618   1.875   1.123   2.244 -0.4223  0.3707  0.1413
   40TCq2    O6  619   2.099   1.181   2.245  0.1269 -0.4270  0.8390
   40TCq2    H2  620   1.765   1.181   2.051  1.2161  1.8215  1.8791
   40TCq2    H3  621   2.189   1.215   2.034 -0.3985 -2.0346  2.0364
   40TCq2    H4  622   1.978   1.098   1.678  0.8901 -0.2440 -0.6311
   41TMC2    C1  623   0.056   0.411  13.639  0.2407 -0.8826  0.2703
   41TMC2    C2  624   0.176   0.482  13.655  0.0632 -0.6174  0.0155
   41TMC2    C3  625   0.244   0.521  13.540 -0.2975 -0.3359 -0.4160
   41TMC2    C4  626   0.002   0.401  13.509  0.2633 -0.2001  0.3235
   41TMC2    C5  627   0.079   0.441  13.399  0.3770 -0.2340 -0.5790
   41TMC2    C6  628   0.201   0.498  13.413  0.0287  0.4677  0.0338
   41TMC2     C  629   4.712   0.343  13.745 -0.3831 -0.3020  0.1208
   41TMC2     O  630   4.618   0.272  13.711  0.2033 -0.3417  0.4498
   41TMC2     H  631   0.230   0.490  13.749  0.4837  1.6306 -0.4206
   41TMC2    H1  632   4.645   0.338  13.477  0.8415 -1.4366  1.2979
   41TMC2    H2  633   0.250   0.540  13.326  0.9115 -0.3136  0.1609
   41TMC2    C7  634   0.029   0.392  13.271 -0.4293  0.0107 -0.3015
   41TMC2    C8  635   0.369   0.589  13.560  0.4756 -0.2597  0.2528
   41TMC2    O1  636   4.634   0.389  13.251  0.5067  0.9301  0.0979
   41TMC2    O2  637   0.387   0.662  13.656 -0.6921  0.4534  0.2209
   41TMC2    O5  638   0.454   0.513  13.497 -0.0559  0.2651 -0.2791
   41TMC2    H5  639   0.418   0.435  13.450 -2.3228  1.2860 -0.2379
   42MPD2     C  640   4.634   0.187  14.000 -0.6191  0.1636 -0.7454
   42MPD2    C1  641   4.722   0.294  13.995 -0.3660  0.1273  1.1960
   42MPD2    C2  642   0.045   0.342  14.114 -0.7550 -0.2782  0.5824
   42MPD2    C3  643   0.013   0.283  14.236  0.1798  0.2718  1.1317
   42MPD2    C4  644   4.658   0.176  14.232  0.2697 -0.7411 -0.5191
   42MPD2    C5  645   4.598   0.138  14.119  0.1398 -0.3018 -0.4598
   42MPD2     H  646   0.113   0.426  14.117 -0.0008 -0.9555  2.2737
   42MPD2    H1  647   4.630   0.118  14.320  0.7439 -1.2098 -0.6725
   42MPD2    H2  648   4.589   0.130  13.920  0.0678 -0.8080 -0.4501
   42MPD2    H3  649   4.528   0.055  14.127 -0.5840  0.2455 -1.1642
   42MPD2     N  650   0.052   0.329  14.361 -0.0772 -0.2007 -0.7605
   42MPD2    H5  651   0.027   0.269  14.439  0.6022 -1.6737 -1.6731
   42MPD2    N1  652   0.034   0.363  13.874 -0.0549 -0.3001  0.1378
   42MPD2    H7  653   0.108   0.432  13.871  0.7763 -1.2008  0.1633
   43MPD2     C  654   1.367   2.005   0.601  0.0621 -0.4125  0.3966
   43MPD2    C1  655   1.481   1.975   0.675  0.4938 -0.5672  0.1193
   43MPD2    C2  656   1.475   1.996   0.811 -0.0698  0.0905  0.1138
   43MPD2    C3  657   1.374   2.060   0.880 -0.7953  0.6145  0.0906
   43MPD2    C4  658   1.268   2.098   0.805  0.1644 -0.6299  0.2055
   43MPD2    C5  659   1.261   2.065   0.671  0.4949 -0.0191 -0.3508
   43MPD2     H  660   1.562   1.964   0.867 -0.2573  0.8008  0.8152
   43MPD2    H1  661   1.188   2.150   0.857  1.0571  1.8526 -0.9114
   43MPD2    H2  662   1.357   1.990   0.494 -0.9183 -1.3221  0.6251
   43MPD2    H3  663   1.168   2.085   0.618  0.8841 -0.7016 -1.2957
   43MPD2     N  664   1.376   2.098   1.011  0.6835  0.2143  0.0049
   43MPD2    H5  665   1.307   2.166   1.041 -0.6204 -0.7735 -0.7710
   43MPD2    N1  666   1.610   1.938   0.618 -0.7220 -0.2807  0.0282
   43MPD2    H7  667   1.689   1.925   0.680 -0.1740 -0.8499 -0.7924
   44TCq2    C1  668   1.553   2.131   1.577 -0.0084  0.2823 -0.7534
   44TCq2    O2  669   1.569   2.008   1.583  0.7632 -0.0170 -0.2532
   44TCq2    C2  670   1.520   2.183   1.443 -0.4263 -0.7072  0.3651
   44TCq2    C3  671   1.534   2.319   1.429 -0.0174 -0.4248 -0.0960
   44TCq2    C4  672   1.506   2.365   1.304 -0.4557  1.5634  0.2397
   44TCq2    C5  673   1.469   2.279   1.208  0.0759 -0.0039 -0.3578
   44TCq2    C6  674   1.466   2.143   1.225 -0.0847 -0.2329  0.0063
   44TCq2    C7  675   1.497   2.091   1.347  0.6313 -0.2490  0.4093
   44TCq2    C8  676   1.470   2.061   1.107 -0.4957  0.2710 -0.1607
   44TCq2    O4  677   1.550   1.969   1.106 -0.0053 -0.2974  0.0179
   44TCq2    C9  678   1.519   2.502   1.270 -0.3781 -0.0376  0.1731
   44TCq2    O5  679   1.606   2.562   1.336  0.0317 -0.9385 -0.2797
   44TCq2    O6  680   1.492   2.533   1.152 -0.0594  0.1421  0.1332
   44TCq2    H2  681   1.558   2.391   1.507  0.6162  1.4746 -2.0386
   44TCq2    H3  682   1.457   2.319   1.108 -0.2715  0.0449 -0.2960
   44TCq2    H4  683   1.508   1.983   1.359 -1.0927 -0.6949 -2.1134
   45TMC2    C1  684   2.366   4.032   9.708 -0.7807 -0.3508 -0.4603
   45TMC2    C2  685   2.480   4.018   9.785 -0.5215 -0.1508 -0.4560
   45TMC2    C3  686   2.529   4.124   9.853  0.1901 -0.2294  0.2491
   45TMC2    C4  687   2.292   4.148   9.713  0.0506  0.3711  1.3810
   45TMC2    C5  688   2.336   4.247   9.801  0.0691 -0.6634 -0.3991
   45TMC2    C6  689   2.457   4.242   9.872 -0.2386 -0.8333  0.8905
   45TMC2     C  690   2.306   3.911   9.645 -0.3337 -0.0341 -0.0150
   45TMC2     O  691   2.365   3.814   9.676 -0.7346  0.0766 -0.6528
   45TMC2     H  692   2.541   3.929   9.774 -0.3157  0.4297 -4.0168
   45TMC2    H1  693   2.194   4.151   9.666  1.2921 -0.9518 -1.3074
   45TMC2    H2  694   2.505   4.318   9.932  1.3201 -1.5983  0.6169
   45TMC2    C7  695   2.242   4.356   9.819 -0.7797  0.6936 -0.2032
   45TMC2    C8  696   2.640   4.107   9.934  0.3096  0.9044  0.3737
   45TMC2    O1  697   2.126   4.341   9.777  0.2203 -0.1975  0.5005
   45TMC2    O2  698   2.658   4.150  10.046 -0.3692 -0.3327  0.4650
   45TMC2    O5  699   2.736   4.064   9.850 -0.0555 -0.2502 -0.0490
   45TMC2    H5  700   2.720   4.053   9.753 -0.9900 -0.5134  0.1350
   46MPD2     C  701   2.132   3.708   9.536 -0.2805 -0.6047 -0.1335
   46MPD2    C1  702   2.118   3.843   9.512 -0.2304 -0.0163  0.2298
   46MPD2    C2  703   2.013   3.895   9.442  0.7346  0.1885  0.4257
   46MPD2    C3  704   1.912   3.809   9.405  0.5932 -0.2850  0.0371
   46MPD2    C4  705   1.919   3.676   9.435  0.6081 -0.2475 -0.1982
   46MPD2    C5  706   2.031   3.623   9.501  0.3346 -0.2690  0.3780
   46MPD2     H  707   2.020   3.997   9.405  2.5667 -0.5497 -1.2373
   46MPD2    H1  708   1.838   3.609   9.411 -1.2487  1.8932  0.0922
   46MPD2    H2  709   2.210   3.662   9.596  0.2473  0.6608  0.1421
   46MPD2    H3  710   2.037   3.520   9.533 -0.7848  0.0690  1.6678
   46MPD2     N  711   1.809   3.861   9.326  0.5661  0.0529  0.9055
   46MPD2    H5  712   1.823   3.961   9.312 -0.5487  0.1282  0.3671
   46MPD2    N1  713   2.207   3.937   9.562 -0.4153 -0.4063  0.8052
   46MPD2    H7  714   2.162   4.027   9.548 -1.3744 -1.0456 -0.1691
   47TMC2    C1  715   4.524   4.570   9.884  0.3449 -0.6746 -0.1262
   47TMC2    C2  716   4.589   4.497   9.788  0.4879  0.0125 -0.3750
   47TMC2    C3  717   4.509   4.416   9.711 -0.0243  0.2014 -0.9679
   47TMC2    C4  718   4.386   4.590   9.886 -0.1781  0.9259  0.4181
   47TMC2    C5  719   4.312   4.512   9.806  0.1146 -0.5388  0.5598
   47TMC2    C6  720   4.370   4.424   9.719 -0.0188 -0.0760  1.0305
   47TMC2     C  721   4.599   4.638   9.987 -0.0907  0.7636  0.3072
   47TMC2     O  722   4.536   0.001  10.038  0.5713  0.0892 -0.1986
   47TMC2     H  723   4.694   4.510   9.766  0.1866 -1.3649 -2.6967
   47TMC2    H1  724   4.345   4.626   9.979 -0.8741 -0.2600  0.5735
   47TMC2    H2  725   4.311   4.375   9.643  1.3039  0.5396 -0.3850
   47TMC2    C7  726   4.168   4.513   9.815  0.0469  0.2779 -0.1266
   47TMC2    C8  727   4.563   4.321   9.617  0.0931 -1.0548  0.4424
   47TMC2    O1  728   4.113   4.434   9.745  0.1973  0.3419 -0.2972
   47TMC2    O2  729   4.516   4.306   9.507 -0.2797  0.6482 -0.4791
   47TMC2    O5  730   4.691   4.305   9.650  0.1519 -0.8216  0.6890
   47TMC2    H5  731   4.689   4.297   9.748  1.2419 -0.7018  0.7227
   48MPD2     C  732   0.065   0.014  10.195 -0.1602  0.1589  1.4295
   48MPD2    C1  733   0.083   4.621  10.120  0.4738  0.4533  0.0949
   48MPD2    C2  734   0.201   4.547  10.133 -0.8660  0.1801 -0.5444
   48MPD2    C3  735   0.299   4.577  10.229  0.6517 -0.2822  1.2759
   48MPD2    C4  736   0.278   4.689  10.305  0.4945 -0.0957 -0.0728
   48MPD2    C5  737   0.170   0.044  10.277 -0.1824  0.3557 -0.5220
   48MPD2     H  738   0.212   4.469  10.058  1.2922 -2.1983  2.2041
   48MPD2    H1  739   0.348   4.725  10.379  0.8771 -1.5117  0.2396
   48MPD2    H2  740   4.710   0.086  10.180 -0.2673 -0.1752  0.4360
   48MPD2    H3  741   0.153   0.131  10.340  1.0065  0.9354 -1.0101
   48MPD2     N  742   0.412   4.494  10.242 -0.3472 -0.1437 -0.1122
   48MPD2    H5  743   0.419   4.409  10.186 -1.1917  0.9065 -1.7814
   48MPD2    N1  744   4.713   4.571  10.025  0.0887 -0.4287  0.0455
   48MPD2    H7  745   0.010   4.498   9.958 -0.4119 -0.2561 -0.3088
   49MPD2     C  746   3.324   2.152   9.864 -0.1848 -0.6509 -0.3420
   49MPD2    C1  747   3.223   2.117   9.949 -0.0426 -0.5097  0.2837
   49MPD2    C2  748   3.230   2.140  10.081  0.5069  0.2944  0.2884
   49MPD2    C3  749   3.348   2.203  10.125 -0.2722  0.8302 -0.3171
   49MPD2    C4  750   3.445   2.235  10.038 -0.0196  0.6901  0.5638
   49MPD2    C5  751   3.434   2.210   9.905  0.6323  0.4059  0.0699
   49MPD2     H  752   3.144   2.113  10.140  1.7466  0.8420  2.3484
   49MPD2    H1  753   3.542   2.276  10.066 -0.6089  1.7548  1.0406
   49MPD2    H2  754   3.330   2.132   9.758 -1.5218  1.1780 -0.7543
   49MPD2    H3  755   3.508   2.241   9.832  0.1830  0.2954 -0.4359
   49MPD2     N  756   3.373   2.222  10.263 -0.6583  0.0046 -0.3666
   49MPD2    H5  757   3.466   2.256  10.284 -0.9517  0.6736 -0.1659
   49MPD2    N1  758   3.119   2.036   9.904 -0.9540  0.1511 -0.7590
   49MPD2    H7  759   3.030   2.043   9.953 -1.9958 -0.2824 -2.6101
   50TCq2    C1  760   3.116   1.967   9.787 -0.3266 -0.5795  0.0322
   50TCq2    O2  761   3.194   1.965   9.689 -0.1642 -0.2333 -0.1188
   50TCq2    C2  762   2.982   1.920   9.769  0.1439 -0.4682  0.3027
   50TCq2    C3  763   2.967   1.840   9.659 -0.0573  0.2869  0.4641
   50TCq2    C4  764   2.846   1.798   9.619 -0.0623 -0.0724 -0.5762
   50TCq2    C5  765   2.736   1.821   9.699  0.1513  0.0611  0.0641
   50TCq2    C6  766   2.754   1.901   9.809 -0.7047  0.7667  0.0267
   50TCq2    C7  767   2.879   1.953   9.853 -0.1024 -0.2050 -0.2602
   50TCq2    C8  768   2.633   1.953   9.872  0.9727 -0.3902 -0.7595
   50TCq2    O4  769   2.535   1.898   9.822  0.2645  0.2875  0.4495
   50TCq2    C9  770   2.827   1.716   9.508 -0.1170 -0.2020 -0.1867
   50TCq2    O5  771   2.718   1.655   9.506  0.5554 -0.4333 -0.7153
   50TCq2    O6  772   2.934   1.671   9.458 -0.1769  0.8373 -0.1966
   50TCq2    H2  773   3.046   1.822   9.587  2.3271  2.5744  2.4864
   50TCq2    H3  774   2.639   1.783   9.669  0.0576  1.6910 -1.6848
   50TCq2    H4  775   2.892   2.003   9.948  1.3754 -0.7973 -0.1543
   51MPD2     C  776   4.145   4.673   1.678  0.5051  0.2240  0.4322
   51MPD2    C1  777   4.155   0.075   1.625 -0.3924 -0.0130  0.4554
   51MPD2    C2  778   4.192   0.188   1.702 -0.6621  0.2774  0.0553
   51MPD2    C3  779   4.206   0.154   1.838  0.3140 -0.0581  0.4943
   51MPD2    C4  780   4.187   0.023   1.886  0.3462  0.5235  0.0092
   51MPD2    C5  781   4.152   4.649   1.807 -0.1159 -0.1299 -0.4283
   51MPD2     H  782   4.200   0.287   1.661 -0.0409  0.1316 -0.1757
   51MPD2    H1  783   4.215   0.001   1.988  1.7582 -1.2594 -0.7517
   51MPD2    H2  784   4.111   4.585   1.624 -0.8257  0.9222  0.1336
   51MPD2    H3  785   4.145   4.545   1.839  0.0774 -0.1395 -0.4202
   51MPD2     N  786   4.235   0.256   1.939 -0.2199  0.2819  0.3563
   51MPD2    H5  787   4.268   0.226   2.031  0.0241  0.0888  0.2036
   51MPD2    N1  788   4.126   0.105   1.491  0.1593  0.7237 -0.2289
   51MPD2    H7  789   4.117   0.201   1.460  0.2538  0.8719  0.2033
   52TCq2    C1  790   4.230   0.389   1.912 -0.2551  0.8907 -0.0210
   52TCq2    O2  791   4.190   0.446   1.811 -0.1654  0.3798  0.2561
   52TCq2    C2  792   4.261   0.471   2.025  0.0628 -0.0425 -0.0228
   52TCq2    C3  793   4.273   0.419   2.151  0.0489 -0.0114 -0.1222
   52TCq2    C4  794   4.313   0.506   2.246 -0.0277 -0.6939 -0.2438
   52TCq2    C5  795   4.337   0.633   2.223 -0.6456  0.3189 -0.6618
   52TCq2    C6  796   4.320   0.688   2.094 -0.2242  0.3794 -0.5395
   52TCq2    C7  797   4.281   0.600   1.989 -0.0289 -0.1644  0.5279
   52TCq2    C8  798   4.321   0.833   2.078 -0.0874 -0.6256  0.2575
   52TCq2    O4  799   4.322   0.894   2.185 -0.0065 -0.3919  0.3094
   52TCq2    C9  800   4.336   0.459   2.382 -0.3170 -0.1873  0.6028
   52TCq2    O5  801   4.340   0.339   2.399  0.5306  0.0042 -0.1243
   52TCq2    O6  802   4.360   0.546   2.474  0.2623 -0.8753 -0.2656
   52TCq2    H2  803   4.257   0.315   2.178 -0.2104  0.0276 -0.1236
   52TCq2    H3  804   4.381   0.690   2.304  0.9324 -0.7797 -0.7583
   52TCq2    H4  805   4.250   0.645   1.895 -1.9091  0.1706  1.3013
   53TMC2    C1  806   3.730   4.468  12.064 -0.4583  0.2281  0.0534
   53TMC2    C2  807   3.838   4.464  12.147  0.8996 -0.7076 -0.7214
   53TMC2    C3  808   3.832   4.504  12.281  0.3379  0.3767  0.5576
   53TMC2    C4  809   3.607   4.501  12.118 -0.2364 -0.2324 -0.1990
   53TMC2    C5  810   3.602   4.539  12.245  0.3135  0.1320  0.3904
   53TMC2    C6  811   3.714   4.543  12.329 -0.0922 -0.4731 -0.0029
   53TMC2     C  812   3.731   4.391  11.937 -0.2928 -0.0592 -0.4768
   53TMC2     O  813   3.842   4.381  11.892 -0.1053 -0.0867  0.4691
   53TMC2     H  814   3.929   4.424  12.105  1.2128  1.1973 -1.8661
   53TMC2    H1  815   3.521   4.518  12.053 -0.3987 -3.2273 -0.8107
   53TMC2    H2  816   3.711   4.583  12.429  0.8652 -0.4898  0.0287
   53TMC2    C7  817   3.473   4.551  12.297  0.4458  0.0783 -1.0542
   53TMC2    C8  818   3.945   4.506  12.368 -0.6570 -0.0958  0.2084
   53TMC2    O1  819   3.377   4.554  12.226  0.3335  0.1859  0.2246
   53TMC2    O2  820   3.950   4.583  12.469  0.0547 -0.4033  0.4599
   53TMC2    O5  821   4.013   4.392  12.351 -0.7375 -0.4833 -0.0212
   53TMC2    H5  822   3.972   4.343  12.277 -0.8741  1.9295 -1.5500
   54MPD2     C  823   3.687   4.310  11.662  0.0499 -0.1166 -0.3148
   54MPD2    C1  824   3.580   4.348  11.744 -0.0949  0.6143  0.0792
   54MPD2    C2  825   3.449   4.348  11.693  0.2282  0.0401  0.2929
   54MPD2    C3  826   3.428   4.309  11.563 -0.0313  0.3489  0.0131
   54MPD2    C4  827   3.535   4.275  11.480  0.0432  0.1489  0.1153
   54MPD2    C5  828   3.657   4.266  11.537  0.3075  0.0811 -0.0704
   54MPD2     H  829   3.369   4.376  11.762 -1.1428 -2.5930 -0.2412
   54MPD2    H1  830   3.519   4.247  11.376 -1.4501 -1.1443  0.6939
   54MPD2    H2  831   3.792   4.308  11.687 -0.2691 -0.5502  0.9953
   54MPD2    H3  832   3.743   4.239  11.477  0.2852 -0.0626 -0.0374
   54MPD2     N  833   3.300   4.301  11.508  0.3034 -0.1858  0.1835
   54MPD2    H5  834   3.294   4.271  11.412  1.3070 -2.3292  0.7836
   54MPD2    N1  835   3.600   4.389  11.882  0.0966  0.4098 -0.1321
   54MPD2    H7  836   3.522   4.418  11.939 -1.1387  0.9514 -2.1047
   55MPD2     C  837   4.329   2.120   0.097  0.0779 -0.0437  0.0068
   55MPD2    C1  838   4.253   2.070   0.201  0.1033  0.1501 -0.6418
   55MPD2    C2  839   4.157   2.148   0.258 -0.3184 -0.5280 -0.4723
   55MPD2    C3  840   4.153   2.283   0.232  0.3071 -0.1185 -0.3112
   55MPD2    C4  841   4.230   2.334   0.127 -0.3305 -0.1779  0.3333
   55MPD2    C5  842   4.301   2.245   0.052  0.0658 -0.0729 -0.0565
   55MPD2     H  843   4.101   2.116   0.346 -0.2214  0.4697 -0.0444
   55MPD2    H1  844   4.223   2.439   0.102 -0.5730 -0.7812 -2.0788
   55MPD2    H2  845   4.394   2.050   0.045 -0.0844 -0.0628 -0.1714
   55MPD2    H3  846   4.346   2.286  17.665 -0.6118 -1.0335 -0.8256
   55MPD2     N  847   4.075   2.366   0.309  0.7985 -1.1194 -0.2554
   55MPD2    H5  848   4.022   2.330   0.388  2.0465 -0.0305  1.0774
   55MPD2    N1  849   4.272   1.936   0.238  0.4874  0.3549 -0.0100
   55MPD2    H7  850   4.342   1.877   0.193 -3.1475 -2.4320 -1.9651
   56TCq2    C1  851   4.221   1.881   0.355 -0.0771  0.1101  0.0533
   56TCq2    O2  852   4.153   1.926   0.445 -0.2556  0.1078 -0.1766
   56TCq2    C2  853   4.304   1.765   0.391 -0.2849 -0.5776  0.3532
   56TCq2    C3  854   4.378   1.707   0.293 -0.4390 -0.6021 -0.6720
   56TCq2    C4  855   4.469   1.612   0.331  0.3816  0.6883 -0.1709
   56TCq2    C5  856   4.499   1.586   0.461 -0.1608 -0.6422 -0.1781
   56TCq2    C6  857   4.433   1.663   0.556 -0.3442  0.6148 -0.1838
   56TCq2    C7  858   4.335   1.753   0.522  0.0135  0.1675  0.8996
   56TCq2    C8  859   4.473   1.652   0.693 -0.7499  0.3787 -0.0147
   56TCq2    O4  860   4.535   1.552   0.723 -0.4845  0.0276 -0.0623
   56TCq2    C9  861   4.553   1.550   0.232 -0.1278 -0.2689  0.5984
   56TCq2    O5  862   4.565   1.609   0.122 -0.0894  0.1675 -0.2230
   56TCq2    O6  863   4.610   1.445   0.275  0.0725  0.3639 -0.1515
   56TCq2    H2  864   4.357   1.710   0.187 -0.4672 -0.9421 -0.6768
   56TCq2    H3  865   4.585   1.527   0.489 -0.0058 -0.1692  0.3394
   56TCq2    H4  866   4.274   1.804   0.595 -0.1678 -0.9041  1.4939
   57TMC2    C1  867   3.447   3.504  13.672 -0.1396  0.5065  0.0333
   57TMC2    C2  868   3.483   3.419  13.775  0.5995  0.2990  0.7301
   57TMC2    C3  869   3.575   3.321  13.756  0.7404 -0.2503  0.2795
   57TMC2    C4  870   3.468   3.470  13.543  0.1651  0.4485  0.1851
   57TMC2    C5  871   3.552   3.359  13.524  0.3987  0.4353 -0.3234
   57TMC2    C6  872   3.615   3.295  13.629 -0.1705  0.1129  0.1468
   57TMC2     C  873   3.369   3.626  13.685  0.5614  0.6478  0.0489
   57TMC2     O  874   3.338   3.691  13.585 -0.4765 -0.5980  0.2117
   57TMC2     H  875   3.436   3.419  13.873 -2.2327  0.5507 -0.6242
   57TMC2    H1  876   3.447   3.540  13.462  2.1319  0.0595 -0.6700
   57TMC2    H2  877   3.692   3.222  13.607 -0.1942  0.7785 -2.1216
   57TMC2    C7  878   3.560   3.309  13.388 -0.7357 -0.2540  0.5869
   57TMC2    C8  879   3.569   3.214  13.858  0.1599 -0.1709 -0.3667
   57TMC2    O1  880   3.513   3.378  13.294  0.2095 -0.5112 -0.2837
   57TMC2    O2  881   3.606   3.098  13.831  0.3434 -0.0807 -0.1337
   57TMC2    O5  882   3.569   3.260  13.984  0.6781  0.0036 -0.2498
   57TMC2    H5  883   3.544   3.352  14.005 -0.6423 -0.4365  0.0981
   58MPD2     C  884   3.171   3.991  13.964  0.5263 -0.0635 -0.4407
   58MPD2    C1  885   3.137   3.953  13.834  0.7199  0.9650  1.0696
   58MPD2    C2  886   3.205   3.845  13.782 -0.4243  0.3130  0.7179
   58MPD2    C3  887   3.295   3.770  13.862 -0.3825  0.0298 -0.1657
   58MPD2    C4  888   3.309   3.797  13.994 -0.1394 -0.4881  0.2606
   58MPD2    C5  889   3.255   3.915  14.048 -0.3997  0.2569  0.1290
   58MPD2     H  890   3.192   3.824  13.676 -0.1219 -1.4134  1.0094
   58MPD2    H1  891   3.357   3.720  14.053 -0.4965 -1.4444 -0.6775
   58MPD2    H2  892   3.136   4.081  14.013  0.2920 -0.8799  0.8790
   58MPD2    H3  893   3.254   3.938  14.154  2.6622 -0.8536  0.3896
   58MPD2     N  894   3.362   3.660  13.817  0.1237 -0.6930 -0.1824
   58MPD2    H5  895   3.423   3.612  13.882  1.7571  0.0651 -1.1420
   58MPD2    N1  896   3.036   4.030  13.757  0.2001 -0.4893  0.1251
   58MPD2    H7  897   3.014   4.000  13.663  0.8394  1.2931 -0.5989
   59MPD2     C  898   1.301   3.508  13.509  0.4815  0.3900 -0.2423
   59MPD2    C1  899   1.400   3.517  13.413 -0.6835 -0.3041 -0.5377
   59MPD2    C2  900   1.518   3.588  13.442 -0.0308  0.1955 -0.4620
   59MPD2    C3  901   1.537   3.654  13.563 -0.4032  0.1877  0.8949
   59MPD2    C4  902   1.439   3.642  13.658  0.4875  0.0030  0.6038
   59MPD2    C5  903   1.325   3.565  13.634  0.6329 -0.6026 -0.1769
   59MPD2     H  904   1.589   3.600  13.361  0.9213  0.1356  0.3627
   59MPD2    H1  905   1.458   3.691  13.753  1.2430  2.0019 -0.6005
   59MPD2    H2  906   1.207   3.454  13.504  0.5594  0.1751  0.5948
   59MPD2    H3  907   1.260   3.545  13.719  0.2161 -0.3594 -0.4388
   59MPD2     N  908   1.647   3.734  13.599 -0.1612 -1.2240  0.6848
   59MPD2    H5  909   1.654   3.758  13.697 -3.1263 -0.7821  0.7819
   59MPD2    N1  910   1.388   3.462  13.283  0.1712  0.3284 -0.2550
   59MPD2    H7  911   1.464   3.465  13.216 -0.6926  0.1965 -1.2306
   60TCq2    C1  912   1.282   3.386  13.241  0.1993  0.2139  0.0750
   60TCq2    O2  913   1.182   3.346  13.305  0.7859 -0.1702  0.5216
   60TCq2    C2  914   1.311   3.327  13.109  0.6214 -0.1697  0.9821
   60TCq2    C3  915   1.242   3.203  13.093  0.2447  0.8017 -0.3377
   60TCq2    C4  916   1.216   3.158  12.965 -0.2018 -0.6506  0.0031
   60TCq2    C5  917   1.247   3.241  12.863  0.5427 -0.7425  0.0742
   60TCq2    C6  918   1.291   3.370  12.884  0.1874  0.1811  0.2517
   60TCq2    C7  919   1.323   3.418  13.005 -0.7244  0.3366  0.3785
   60TCq2    C8  920   1.341   3.438  12.767 -0.1338 -0.5268  0.8216
   60TCq2    O4  921   1.412   3.378  12.692  0.1714 -0.0475 -0.5232
   60TCq2    C9  922   1.155   3.029  12.942  0.7310 -1.3556  0.0929
   60TCq2    O5  923   1.148   2.986  12.823  0.0114 -0.4181 -0.4580
   60TCq2    O6  924   1.134   2.956  13.043 -0.1131 -0.5147 -0.1854
   60TCq2    H2  925   1.221   3.140  13.179  0.2584  0.3538 -0.6636
   60TCq2    H3  926   1.229   3.220  12.759  0.7561  1.7443 -0.4619
   60TCq2    H4  927   1.368   3.515  13.023 -0.8838  0.5352 -0.3270
   61MPD2     C  928   1.113   0.218  14.695  0.6366 -0.2135 -1.0940
   61MPD2    C1  929   1.191   0.315  14.750 -0.4509  0.4932  0.1024
   61MPD2    C2  930   1.236   0.420  14.674  0.6474 -0.7554  0.5058
   61MPD2    C3  931   1.193   0.433  14.549  0.2969 -0.2694 -0.5171
   61MPD2    C4  932   1.111   0.338  14.491  0.3319 -0.0196 -0.0659
   61MPD2    C5  933   1.080   0.222  14.565 -0.3624  0.2706  0.2162
   61MPD2     H  934   1.292   0.486  14.739  0.3425 -1.0059  1.0168
   61MPD2    H1  935   1.078   0.351  14.389  0.6687  0.1688 -0.1500
   61MPD2    H2  936   1.080   0.130  14.749  0.6968 -0.5793 -1.6504
   61MPD2    H3  937   1.021   0.145  14.516  0.7609  0.1381 -0.9260
   61MPD2     N  938   1.220   0.549  14.473  0.2384  0.0188  0.7865
   61MPD2    H5  939   1.160   0.577  14.396 -0.8679 -1.0168  1.2769
   61MPD2    N1  940   1.208   0.322  14.892  0.4593  0.3612 -0.1618
   61MPD2    H7  941   1.252   0.409  14.919 -0.7144  0.6018  1.0000
   62TCq2    C1  942   1.185   0.232  14.995 -0.2453  0.3554 -0.6104
   62TCq2    O2  943   1.147   0.114  14.990  0.4971  0.4019  0.3711
   62TCq2    C2  944   1.219   0.288  15.125  0.1740 -0.7901  0.2115
   62TCq2    C3  945   1.224   0.188  15.221  0.3180  0.1578 -0.2421
   62TCq2    C4  946   1.252   0.229  15.351  0.4084  0.2919 -0.5299
   62TCq2    C5  947   1.267   0.360  15.386 -0.7588 -0.0557 -0.3913
   62TCq2    C6  948   1.263   0.457  15.285 -0.4524  0.6634 -0.3105
   62TCq2    C7  949   1.243   0.419  15.155  0.8076  0.0706  0.2452
   62TCq2    C8  950   1.228   0.595  15.314 -0.4246 -0.8511  0.4297
   62TCq2    O4  951   1.214   0.675  15.224  0.5090 -0.2433  0.0752
   62TCq2    C9  952   1.257   0.127  15.453  0.3757  0.6698 -0.0747
   62TCq2    O5  953   1.277   0.174  15.569  0.1297 -0.2031 -0.1931
   62TCq2    O6  954   1.239   0.003  15.424  0.1553 -0.1258 -0.4283
   62TCq2    H2  955   1.222   0.084  15.194 -1.9173  0.3746 -0.9053
   62TCq2    H3  956   1.278   0.390  15.490 -0.6698 -0.7911 -0.1952
   62TCq2    H4  957   1.234   0.490  15.074  2.6083  0.2286  0.1785
   63TMC2    C1  958   4.714   0.365  10.722  0.0301 -0.4642  0.0604
   63TMC2    C2  959   0.044   0.445  10.820  0.2071  0.0492  0.0961
   63TMC2    C3  960   0.116   0.550  10.774  0.1918 -0.7432  1.2371
   63TMC2    C4  961   0.015   0.384  10.590 -0.1510 -1.0202 -0.1193
   63TMC2    C5  962   0.087   0.496  10.553 -0.3120  0.2849  0.1501
   63TMC2    C6  963   0.138   0.578  10.644 -0.8649  0.6832 -0.3578
   63TMC2     C  964   4.644   0.245  10.760 -0.3567 -0.0673  0.1758
   63TMC2     O  965   4.677   0.148  10.694 -0.3666  0.6116 -0.1288
   63TMC2     H  966   0.031   0.411  10.922  2.5301  0.8817  0.6507
   63TMC2    H1  967   4.695   0.316  10.519  1.0664  1.5630 -3.3547
   63TMC2    H2  968   0.204   0.657  10.611  0.2270  0.0624  0.3605
   63TMC2    C7  969   0.068   0.546  10.427 -0.5470 -0.2904  0.1435
   63TMC2    C8  970   0.226   0.589  10.857 -0.2115 -0.4184  0.1351
   63TMC2    O1  971   4.681   0.535  10.384  0.3577  0.3410  0.3315
   63TMC2    O2  972   0.247   0.537  10.966  1.3096  0.0331  0.1530
   63TMC2    O5  973   0.234   0.716  10.827 -0.7409  0.0953 -0.2970
   63TMC2    H5  974   0.165   0.751  10.766 -0.4134  0.3926 -0.4995
   64MPD2     C  975   4.227   0.016  10.958  0.1225 -0.4831  0.4630
   64MPD2    C1  976   4.345   4.694  10.903  0.4175  0.7212  0.0881
   64MPD2    C2  977   4.450   0.048  10.866  0.0726  0.4915  0.0642
   64MPD2    C3  978   4.442   0.184  10.889  0.3264 -0.5496 -0.6243
   64MPD2    C4  979   4.322   0.237  10.938  0.8779  0.2795 -0.4389
   64MPD2    C5  980   4.218   0.152  10.978  0.5295 -0.2492  0.6374
   64MPD2     H  981   4.533   0.008  10.809 -0.6927 -1.2338  0.1609
   64MPD2    H1  982   4.304   0.342  10.955 -1.2778 -0.4376  1.7713
   64MPD2    H2  983   4.139   4.681  10.975 -1.8042  1.8119 -1.4023
   64MPD2    H3  984   4.123   0.186  11.018  0.9923  2.6956 -0.7623
   64MPD2     N  985   4.538   0.275  10.843 -0.2635 -0.0716 -0.2732
   64MPD2    H5  986   4.517   0.372  10.863 -2.0056 -0.5460  0.2177
   64MPD2    N1  987   4.357   4.556  10.875 -0.0407  0.2822 -0.3679
   64MPD2    H7  988   4.449   4.523  10.848  0.2563  0.5215  0.3450
   65MPD2     C  989   1.653   4.440  15.699  0.1808  0.0431 -0.1918
   65MPD2    C1  990   1.613   4.460  15.570 -0.1055 -0.2924  0.5524
   65MPD2    C2  991   1.570   4.358  15.489 -0.2592  0.0005  0.0572
   65MPD2    C3  992   1.561   4.236  15.549  0.0748 -0.7317  0.7525
   65MPD2    C4  993   1.583   4.211  15.686  0.2251  0.7229 -0.1880
   65MPD2    C5  994   1.634   4.319  15.761  0.4621 -0.4247 -0.5063
   65MPD2     H  995   1.547   4.378  15.384  2.7614  0.1190 -0.5843
   65MPD2    H1  996   1.577   4.111  15.728 -1.5560  1.1610  0.5926
   65MPD2    H2  997   1.702   4.519  15.754  0.1469 -0.0130 -0.0791
   65MPD2    H3  998   1.663   4.302  15.864  2.1629  2.7620 -0.4595
   65MPD2     N  999   1.537   4.120  15.462  0.1255  0.1563  0.1110
   65MPD2    H5 1000   1.505   4.039  15.514 -3.9298  0.9848 -1.0782
   65MPD2    N1 1001   1.614   4.589  15.510  0.2582 -0.7957  0.1792
   65MPD2    H7 1002   1.582   4.591  15.414 -1.3022 -0.4311  0.7113
   66TCq2    C1 1003   1.645   4.713  15.568 -0.2023  0.1722 -0.1311
   66TCq2    O2 1004   1.674   0.012  15.685  0.3007  0.1960  0.3048
   66TCq2    C2 1005   1.648   0.087  15.465  0.9402 -0.3123  0.1856
   66TCq2    C3 1006   1.633   0.062  15.328 -0.0608  0.3326 -0.6229
   66TCq2    C4 1007   1.619   0.171  15.242  0.2677  0.4433  0.4478
   66TCq2    C5 1008   1.602   0.303  15.282 -0.0375 -0.3667 -0.0296
   66TCq2    C6 1009   1.607   0.317  15.416  0.2736  0.7379  0.2519
   66TCq2    C7 1010   1.639   0.219  15.509 -0.2213  0.7051  0.6304
   66TCq2    C8 1011   1.579   0.444  15.468 -0.7558 -0.0146 -0.3349
   66TCq2    O4 1012   1.563   0.530  15.384 -0.4348 -0.6408 -0.0751
   66TCq2    C9 1013   1.626   0.145  15.093  0.2187  0.1046  0.3831
   66TCq2    O5 1014   1.639   0.241  15.012 -0.0217 -0.2203 -0.1233
   66TCq2    O6 1015   1.652   0.027  15.057 -0.6931  0.2171 -0.5151
   66TCq2    H2 1016   1.652   4.689  15.288  2.6344  0.6424 -0.1532
   66TCq2    H3 1017   1.585   0.377  15.205 -1.0492 -0.7505 -0.1774
   66TCq2    H4 1018   1.665   0.233  15.613  1.8521  0.3914  0.1495
   67MPD2     C 1019   1.204   3.862  13.851 -0.0679 -0.1010 -0.8839
   67MPD2    C1 1020   1.196   3.988  13.907  0.1548  0.1117 -0.3434
   67MPD2    C2 1021   1.086   4.066  13.871 -0.1868 -0.2309  0.3699
   67MPD2    C3 1022   0.994   4.014  13.778  0.3192 -0.0810 -0.1562
   67MPD2    C4 1023   1.009   3.889  13.726 -0.2580 -0.3967  0.3021
   67MPD2    C5 1024   1.119   3.807  13.755  0.5415  0.6302  0.5009
   67MPD2     H 1025   1.078   4.163  13.919  1.2751  0.3770 -0.6218
   67MPD2    H1 1026   0.938   3.856  13.650  0.8857 -2.7007  0.2454
   67MPD2    H2 1027   1.285   3.792  13.873  0.6866  0.6355 -1.3369
   67MPD2    H3 1028   1.125   3.708  13.712  0.8924  0.3817  1.1274
   67MPD2     N 1029   0.883   4.088  13.733 -0.2124 -0.1266  0.0099
   67MPD2    H5 1030   0.812   4.027  13.692  0.1490  0.1519 -1.0121
   67MPD2    N1 1031   1.270   4.039  14.016  0.5441 -0.4050  0.8029
   67MPD2    H7 1032   1.248   4.133  14.046 -2.3790 -0.7426 -0.2590
   68TCq2    C1 1033   1.372   3.964  14.079 -0.2603 -0.1431  0.7972
   68TCq2    O2 1034   1.430   3.870  14.032 -0.0394 -0.3194 -0.3508
   68TCq2    C2 1035   1.436   4.043  14.193 -0.2904 -0.7566 -0.6671
   68TCq2    C3 1036   1.418   4.181  14.202 -0.5033 -0.4816  0.8869
   68TCq2    C4 1037   1.504   4.256  14.272 -0.3930 -0.0689 -0.0280
   68TCq2    C5 1038   1.607   4.202  14.338 -0.6483  0.1439  0.2234
   68TCq2    C6 1039   1.635   4.068  14.313 -1.1038 -0.1843 -0.1622
   68TCq2    C7 1040   1.546   3.987  14.241 -0.2103 -0.3177 -0.7191
   68TCq2    C8 1041   1.745   4.006  14.365  0.0718  0.8140  0.2619
   68TCq2    O4 1042   1.764   3.902  14.305 -0.0978 -0.3225 -0.1148
   68TCq2    C9 1043   1.504   4.398  14.275  0.0663 -0.8129  0.0192
   68TCq2    O5 1044   1.582   4.464  14.353  0.1840 -0.6402  0.5158
   68TCq2    O6 1045   1.421   4.454  14.198 -0.8439 -0.4955 -0.0609
   68TCq2    H2 1046   1.340   4.232  14.147 -0.3677  0.9192  1.9837
   68TCq2    H3 1047   1.687   4.258  14.387 -0.4878 -0.6219  0.8413
   68TCq2    H4 1048   1.550   3.879  14.241 -1.6573 -0.3648  0.2412
   69TMC2    C1 1049   3.162   0.231  12.452  0.5678  0.3416  0.3142
   69TMC2    C2 1050   3.082   0.203  12.344 -0.2821  0.1886  0.1329
   69TMC2    C3 1051   3.129   0.183  12.222 -0.4570 -0.7313  0.2122
   69TMC2    C4 1052   3.301   0.240  12.442  0.0846  0.1956 -0.2330
   69TMC2    C5 1053   3.343   0.230  12.314  0.3120 -0.1078 -0.5270
   69TMC2    C6 1054   3.261   0.216  12.205 -0.4578 -0.3709  0.0697
   69TMC2     C 1055   3.095   0.252  12.581 -0.0909 -0.5021 -0.3390
   69TMC2     O 1056   2.975   0.215  12.582 -0.0629 -0.6340  0.5777
   69TMC2     H 1057   2.975   0.200  12.361 -0.6514  2.6717 -1.9382
   69TMC2    H1 1058   3.357   0.250  12.534 -0.5417  1.7574 -0.0158
   69TMC2    H2 1059   3.305   0.215  12.106  1.0219 -0.0337  0.7199
   69TMC2    C7 1060   3.481   0.239  12.279 -1.1383 -0.1393 -0.3828
   69TMC2    C8 1061   3.038   0.242  12.122  0.7103 -0.1043 -0.2957
   69TMC2    O1 1062   3.517   0.168  12.184 -0.3872  0.0551  0.4450
   69TMC2    O2 1063   2.952   0.319  12.155  0.5216 -0.0340  0.6050
   69TMC2    O5 1064   3.017   0.139  12.032 -0.1770 -0.0352  0.6744
   69TMC2    H5 1065   3.093   0.077  12.034  0.4568  0.6691 -1.9540
   70MPD2     C 1066   3.186   0.419  12.890 -0.5630  0.4084 -0.1028
   70MPD2    C1 1067   3.111   0.331  12.811  0.4766  0.0984 -0.0419
   70MPD2    C2 1068   3.007   0.264  12.868 -0.5946  0.5945 -0.2447
   70MPD2    C3 1069   2.972   0.281  13.001 -0.7955 -0.0413 -0.2567
   70MPD2    C4 1070   3.034   0.377  13.073  0.4706  0.0983 -0.1613
   70MPD2    C5 1071   3.147   0.438  13.018  0.6252  0.8961  0.4867
   70MPD2     H 1072   2.960   0.179  12.819  1.9028 -1.1571  0.3605
   70MPD2    H1 1073   3.007   0.396  13.176 -5.0788 -1.9303 -1.2299
   70MPD2    H2 1074   3.277   0.468  12.859  0.4774 -0.8939  0.9108
   70MPD2    H3 1075   3.203   0.497  13.089  0.8217  0.7471  0.4542
   70MPD2     N 1076   2.887   0.195  13.072  0.3087 -0.0918 -0.0107
   70MPD2    H5 1077   2.889   0.195  13.174  1.9001 -0.5022 -0.0428
   70MPD2    N1 1078   3.169   0.309  12.682 -0.4658  0.0145  0.2795
   70MPD2    H7 1079   3.260   0.345  12.656 -0.6523  0.1230 -0.2311
   71TMC2    C1 1080   0.527   4.718   1.768 -0.1062 -1.0913  0.1091
   71TMC2    C2 1081   0.620   4.618   1.793 -0.7540  0.1045 -0.0301
   71TMC2    C3 1082   0.572   4.489   1.812  0.8546  0.2004  0.0108
   71TMC2    C4 1083   0.394   4.691   1.751 -0.4498  0.6384 -0.2439
   71TMC2    C5 1084   0.351   4.563   1.770 -0.1815 -0.0959  0.3750
   71TMC2    C6 1085   0.437   4.465   1.809 -0.2177 -0.0917 -1.0218
   71TMC2     C 1086   0.581   0.105   1.684  0.9356 -0.4610  0.4438
   71TMC2     O 1087   0.502   0.159   1.610 -0.6597  0.2959  0.3894
   71TMC2     H 1088   0.725   4.635   1.817 -0.1739 -2.1108 -0.9611
   71TMC2    H1 1089   0.325   0.043   1.721 -0.7797  0.1309 -0.7997
   71TMC2    H2 1090   0.404   4.362   1.813 -0.0163 -0.1572 -1.0607
   71TMC2    C7 1091   0.228   4.521   1.701 -0.0811  1.1276  0.0265
   71TMC2    C8 1092   0.655   4.394   1.889 -0.6860 -0.1217  0.1582
   71TMC2    O1 1093   0.223   4.406   1.658  0.0280 -0.2941  0.2072
   71TMC2    O2 1094   0.598   4.313   1.968 -0.5687 -0.1595 -0.0777
   71TMC2    O5 1095   0.786   4.428   1.890 -0.3816  0.1009 -0.3303
   71TMC2    H5 1096   0.818   4.474   1.809 -1.3530  2.2342  0.4847
   72MPD2     C 1097   0.958   0.346   1.447 -0.1514  0.2789  0.3789
   72MPD2    C1 1098   0.834   0.322   1.403 -0.2725 -0.6829  0.4550
   72MPD2    C2 1099   0.750   0.253   1.486  1.0194 -0.3283  0.5311
   72MPD2    C3 1100   0.791   0.212   1.608  0.2981 -0.5895 -0.1937
   72MPD2    C4 1101   0.919   0.243   1.650  0.3577 -0.5390 -0.2238
   72MPD2    C5 1102   0.996   0.322   1.572  0.2759  0.8618  0.4387
   72MPD2     H 1103   0.651   0.216   1.459  2.0742 -2.8172  0.0782
   72MPD2    H1 1104   0.955   0.202   1.743  3.8717  0.9156 -0.9698
   72MPD2    H2 1105   1.034   0.398   1.390  1.2036 -0.5909  1.3812
   72MPD2    H3 1106   1.096   0.350   1.604  1.0409 -0.9178 -0.3769
   72MPD2     N 1107   0.715   0.125   1.697 -0.4903 -0.2540 -0.1507
   72MPD2    H5 1108   0.757   0.108   1.788  1.2273  2.7353 -0.3533
   72MPD2    N1 1109   0.791   0.349   1.271  0.0712  0.4992  0.7867
   72MPD2    H7 1110   0.697   0.320   1.247  0.3805 -1.1499  1.5998
   73TMC2    C1 1111   1.086   2.825  14.205 -0.5570  0.0584 -0.5481
   73TMC2    C2 1112   1.135   2.695  14.195 -0.4049 -0.2778  0.1466
   73TMC2    C3 1113   1.196   2.641  14.304 -0.2368  0.3188  0.6953
   73TMC2    C4 1114   1.106   2.894  14.324 -0.2464  0.6048  0.6121
   73TMC2    C5 1115   1.164   2.836  14.424  0.1733 -0.0497  0.1761
   73TMC2    C6 1116   1.212   2.707  14.422  0.2363 -0.9159  0.1125
   73TMC2     C 1117   1.082   2.903  14.085 -0.3719 -0.0038 -0.6842
   73TMC2     O 1118   1.085   3.024  14.106 -0.3981  0.5699  0.3947
   73TMC2     H 1119   1.131   2.630  14.109  3.5721 -1.5984  0.9625
   73TMC2    H1 1120   1.074   2.997  14.334 -0.2507  0.9680 -2.9344
   73TMC2    H2 1121   1.294   2.694  14.492  0.6189 -1.3504 -0.4163
   73TMC2    C7 1122   1.269   2.917  14.480 -0.6705  0.5172  0.2962
   73TMC2    C8 1123   1.289   2.530  14.281 -0.1286  0.6123 -0.7074
   73TMC2    O1 1124   1.302   2.911  14.598  0.2970 -0.4878  0.1779
   73TMC2    O2 1125   1.337   2.533  14.172 -0.2996  0.6785 -0.1012
   73TMC2    O5 1126   1.349   2.498  14.394 -0.8952  0.4442  0.5225
   73TMC2    H5 1127   1.283   2.480  14.464 -1.0223 -1.0371  0.0114
   74MPD2     C 1128   1.319   2.941  13.632 -0.0718  0.1273  0.0005
   74MPD2    C1 1129   1.319   3.030  13.741  0.9175 -0.4913  0.5952
   74MPD2    C2 1130   1.240   2.996  13.847  0.1413 -0.4132 -0.6608
   74MPD2    C3 1131   1.187   2.868  13.862 -0.2610 -0.5866  0.6226
   74MPD2    C4 1132   1.209   2.778  13.765 -0.0095 -0.3662  0.2522
   74MPD2    C5 1133   1.270   2.816  13.648 -0.2401 -0.5190 -0.0348
   74MPD2     H 1134   1.229   3.069  13.927 -1.5604 -1.3531 -0.0360
   74MPD2    H1 1135   1.167   2.679  13.769 -0.7449 -0.0266  0.8638
   74MPD2    H2 1136   1.377   2.964  13.543  1.0386 -1.1609  0.3831
   74MPD2    H3 1137   1.274   2.731  13.581  2.8645  1.1824 -1.9681
   74MPD2     N 1138   1.120   2.822  13.980  0.2448 -0.4277 -0.1657
   74MPD2    H5 1139   1.096   2.723  13.981 -2.2739  0.1858 -0.4809
   74MPD2    N1 1140   1.402   3.141  13.735 -0.5522 -0.1619 -0.3170
   74MPD2    H7 1141   1.441   3.163  13.644 -1.1359  1.2387 -0.2328
   75TCq2    C1 1142   0.864   4.221  13.751 -0.0842  0.2817  1.0559
   75TCq2    O2 1143   0.947   4.298  13.801 -0.1644  0.2245  0.4122
   75TCq2    C2 1144   0.728   4.274  13.715 -0.4426 -0.6590 -0.3307
   75TCq2    C3 1145   0.705   4.393  13.777 -0.2043 -0.4549 -1.2933
   75TCq2    C4 1146   0.610   4.476  13.724  0.0628  0.2836 -0.1809
   75TCq2    C5 1147   0.546   4.442  13.606 -0.4266  0.4543 -0.3725
   75TCq2    C6 1148   0.575   4.317  13.545 -0.3893  0.1649 -0.4788
   75TCq2    C7 1149   0.671   4.234  13.599 -0.2134  0.5269 -0.5572
   75TCq2    C8 1150   0.532   4.301  13.406 -0.6698 -0.6863 -0.7727
   75TCq2    O4 1151   0.566   4.200  13.351 -0.1239  0.0952  0.3615
   75TCq2    C9 1152   0.577   4.589  13.800 -0.2794  0.2387  0.3151
   75TCq2    O5 1153   0.645   4.604  13.904 -0.5906  0.4432  0.2274
   75TCq2    O6 1154   0.465   4.641  13.781 -0.0165  0.0141 -0.1740
   75TCq2    H2 1155   0.758   4.423  13.867 -0.2807  0.0621 -1.4193
   75TCq2    H3 1156   0.465   4.509  13.581 -2.1885 -1.2991  0.6486
   75TCq2    H4 1157   0.688   4.138  13.552  2.0714  1.9961 -2.7066
   76MPD2     C 1158   4.331   4.362  12.014  0.8849  0.1777  0.3017
   76MPD2    C1 1159   4.414   4.469  11.990  0.3099 -0.4448  0.0981
   76MPD2    C2 1160   4.549   4.451  11.980  0.1457 -0.7391 -0.4021
   76MPD2    C3 1161   4.598   4.319  11.989 -0.0521 -0.1807 -0.0476
   76MPD2    C4 1162   4.516   4.210  11.989  0.0523 -0.0652  0.3911
   76MPD2    C5 1163   4.388   4.237  12.009 -0.8854  0.3798 -0.4986
   76MPD2     H 1164   4.605   4.538  11.947  0.8554 -0.6083  1.1577
   76MPD2    H1 1165   4.555   4.109  11.989  0.5401  0.1224  0.1959
   76MPD2    H2 1166   4.223   4.367  12.016  0.8274  0.2478 -3.0529
   76MPD2    H3 1167   4.327   4.148  12.007 -0.8795  0.3490  1.5081
   76MPD2     N 1168   0.013   4.303  11.966 -0.9105  0.7488 -0.3237
   76MPD2    H5 1169   0.053   4.210  11.964 -0.1548  1.0634  0.3974
   76MPD2    N1 1170   4.370   4.601  11.982 -0.2284  0.1331 -0.1322
   76MPD2    H7 1171   4.435   4.679  11.969 -0.6604  0.2088 -1.8506
   77TCq2    C1 1172   0.117   4.401  11.945  0.3111 -0.4607 -0.7423
   77TCq2    O2 1173   0.122   4.522  11.931 -0.0391 -0.5247 -0.0438
   77TCq2    C2 1174   0.247   4.334  11.937 -0.0552  0.3942 -0.2962
   77TCq2    C3 1175   0.348   4.400  11.871 -0.7877  0.0589 -0.1144
   77TCq2    C4 1176   0.471   4.334  11.878  0.3344  0.1050  0.1998
   77TCq2    C5 1177   0.489   4.214  11.941  0.0783 -0.3014  0.6746
   77TCq2    C6 1178   0.380   4.160  12.000  0.8369  0.1024  0.0968
   77TCq2    C7 1179   0.257   4.213  12.006 -0.0764 -0.0518  0.5359
   77TCq2    C8 1180   0.415   4.074  12.113 -0.0798  0.1065 -0.0359
   77TCq2    O4 1181   0.475   3.970  12.088  0.6324 -0.5288 -0.4689
   77TCq2    C9 1182   0.587   4.401  11.832  0.5172 -0.4076  0.2320
   77TCq2    O5 1183   0.681   4.330  11.779 -0.5393 -0.9643  0.2458
   77TCq2    O6 1184   0.566   4.521  11.822 -0.3024  0.3488  0.4935
   77TCq2    H2 1185   0.326   4.494  11.821  1.6450 -0.2068 -1.6538
   77TCq2    H3 1186   0.588   4.173  11.957  0.2291 -0.2794 -0.2318
   77TCq2    H4 1187   0.185   4.164  12.070  0.1149  1.5121  1.9409
   78MPD1     C 1188   0.861   4.164   0.772 -0.3072  0.8059  0.1308
   78MPD1    C1 1189   0.779   4.249   0.842 -0.7636 -0.2270 -0.3788
   78MPD1    C2 1190   0.827   4.289   0.966 -0.4849 -0.6497  0.9684
   78MPD1    C3 1191   0.959   4.259   1.010  0.0603  0.3185  0.4527
   78MPD1    C4 1192   1.042   4.183   0.936 -0.0602 -0.1313 -0.0587
   78MPD1    C5 1193   0.994   4.142   0.812  0.7740  0.7861 -0.6296
   78MPD1     H 1194   0.757   4.343   1.030 -0.3703  0.7625 -0.1014
   78MPD1    H1 1195   1.140   4.174   0.982  0.0234  1.9517  0.1939
   78MPD1    H2 1196   0.831   4.126   0.675 -1.3465  0.6803  0.5033
   78MPD1    H3 1197   1.064   4.081   0.756  0.3510  0.5410 -0.8911
   78MPD1     N 1198   1.012   4.310   1.128 -0.6648 -0.1432  0.8588
   78MPD1    H5 1199   1.112   4.300   1.143 -0.9060 -1.7651  1.3841
   78MPD1    N1 1200   0.644   4.284   0.807 -0.1113  0.0075  0.3574
   78MPD1    H6 1201   0.619   4.374   0.848 -1.3125 -0.2131  0.1141
   78MPD1    H7 1202   0.646   4.309   0.708 -0.9418  1.0440  0.6070
   79TCq2    C1 1203   0.943   4.366   1.226 -0.6083  0.0653  0.2994
   79TCq2    O2 1204   0.825   4.386   1.245  0.2364  0.4040 -0.3199
   79TCq2    C2 1205   1.039   4.407   1.330 -0.0262 -0.4504  0.3818
   79TCq2    C3 1206   1.003   4.422   1.460 -0.0453  0.6906  0.5716
   79TCq2    C4 1207   1.086   4.468   1.552  0.2921  1.1594  0.2784
   79TCq2    C5 1208   1.218   4.504   1.515 -1.0003 -0.1638 -0.9321
   79TCq2    C6 1209   1.252   4.490   1.387 -0.7501 -0.1444  0.0424
   79TCq2    C7 1210   1.167   4.443   1.295 -1.6024 -0.0549 -0.2468
   79TCq2    C8 1211   1.395   4.519   1.343 -0.0332  0.8065 -0.1686
   79TCq2    O4 1212   1.481   4.524   1.430  0.0630  0.7495 -0.5288
   79TCq2    C9 1213   1.040   4.517   1.678  0.6767  0.2955 -0.1620
   79TCq2    O5 1214   1.125   4.548   1.773  0.0471 -0.1451 -0.0666
   79TCq2    O6 1215   0.919   4.511   1.681 -0.1432 -0.4040 -0.6205
   79TCq2    H2 1216   0.900   4.403   1.489  0.1533 -1.8396 -0.3589
   79TCq2    H3 1217   1.279   4.556   1.587 -1.0154  0.0612 -1.0822
   79TCq2    H4 1218   1.202   4.445   1.193 -1.4141 -0.1493 -0.1839
   80MPD2     C 1219   3.496   4.048  12.334 -0.1246 -0.2617  0.6045
   80MPD2    C1 1220   3.417   4.106  12.238 -0.5402  0.2468 -0.3306
   80MPD2    C2 1221   3.304   4.173  12.279 -0.2283  0.5410  0.1195
   80MPD2    C3 1222   3.265   4.179  12.411 -0.3633 -0.0228 -0.1057
   80MPD2    C4 1223   3.349   4.133  12.507  0.3310 -1.2788  0.5293
   80MPD2    C5 1224   3.454   4.059  12.462 -0.4842  0.9569  0.2413
   80MPD2     H 1225   3.238   4.208  12.200 -0.4541 -0.2439 -0.0387
   80MPD2    H1 1226   3.324   4.130  12.612  2.0659 -1.9555  0.9240
   80MPD2    H2 1227   3.582   3.985  12.316  0.6057  0.4931  1.4261
   80MPD2    H3 1228   3.516   4.003  12.531 -1.6643  1.0410  1.3682
   80MPD2     N 1229   3.133   4.213  12.457 -0.0547  0.0222  0.2986
   80MPD2    H5 1230   3.102   4.210  12.554  0.9146  0.5911  0.6276
   80MPD2    N1 1231   3.447   4.099  12.100 -0.3661 -0.1252 -0.0147
   80MPD2    H7 1232   3.386   4.151  12.037  0.3241 -1.0928 -1.4837
   81TCq2    C1 1233   3.544   4.032  12.034  0.1676  0.0799  0.1384
   81TCq2    O2 1234   3.622   3.950  12.076  0.0911  0.3872  0.2564
   81TCq2    C2 1235   3.512   4.040  11.891  0.1684 -0.3049 -0.6479
   81TCq2    C3 1236   3.609   3.996  11.800 -0.0047  0.4373 -0.3994
   81TCq2    C4 1237   3.564   3.955  11.677 -0.1357  0.1471  0.0888
   81TCq2    C5 1238   3.427   3.956  11.648  0.0384  0.0448 -0.7550
   81TCq2    C6 1239   3.333   4.009  11.733  0.4066 -0.2146 -0.4258
   81TCq2    C7 1240   3.371   4.047  11.859 -0.4619  0.1321 -0.7179
   81TCq2    C8 1241   3.198   3.961  11.712  0.2895 -0.1466  0.6866
   81TCq2    O4 1242   3.152   3.986  11.597 -0.2005  0.1872  0.8773
   81TCq2    C9 1243   3.659   3.923  11.574  0.4312  1.2809 -0.3320
   81TCq2    O5 1244   3.782   3.938  11.595  0.1521  0.1042  0.3235
   81TCq2    O6 1245   3.608   3.864  11.476  0.1839  0.2930 -0.1593
   81TCq2    H2 1246   3.714   4.014  11.816  0.3552 -0.6210 -1.5346
   81TCq2    H3 1247   3.403   3.951  11.542  0.6175  2.0996 -0.9857
   81TCq2    H4 1248   3.299   4.094  11.925 -0.0717 -0.1572 -0.0870
   82MPD2     C 1249   1.764   4.303  10.776 -0.3815  0.0878  0.2468
   82MPD2    C1 1250   1.790   4.174  10.729  0.0846  0.4060 -0.4036
   82MPD2    C2 1251   1.867   4.090  10.808  0.0632 -0.0788 -0.0728
   82MPD2    C3 1252   1.925   4.133  10.920 -0.0681  0.6435 -0.0166
   82MPD2    C4 1253   1.911   4.264  10.956 -0.5955 -0.5761 -0.1131
   82MPD2    C5 1254   1.830   4.350  10.887 -0.0130 -0.0946 -0.3936
   82MPD2     H 1255   1.870   3.986  10.779 -0.0390 -0.5642  1.6423
   82MPD2    H1 1256   1.949   4.298  11.051 -0.8740  0.8926 -0.5304
   82MPD2    H2 1257   1.706   4.373  10.717 -0.2295 -1.3359 -1.6035
   82MPD2    H3 1258   1.809   4.449  10.924 -2.3007 -0.2707 -1.2270
   82MPD2     N 1259   2.009   4.051  10.998  0.3299  0.0175 -0.0650
   82MPD2    H5 1260   2.054   4.100  11.074  1.5246  0.7310 -1.2248
   82MPD2    N1 1261   1.705   4.128  10.630  0.1008 -0.2412 -0.1499
   82MPD2    H7 1262   1.627   4.181  10.592  1.2200 -0.1025 -2.2317
   83TCq2    C1 1263   2.009   3.912  11.003 -0.2718 -0.1149 -0.0698
   83TCq2    O2 1264   1.945   3.835  10.932  0.1761 -0.3219  0.1122
   83TCq2    C2 1265   2.092   3.852  11.099 -0.2040 -0.1092 -0.1138
   83TCq2    C3 1266   2.167   3.914  11.192 -0.1760 -0.0512 -0.4595
   83TCq2    C4 1267   2.212   3.851  11.306  0.1179 -0.8027  0.4116
   83TCq2    C5 1268   2.191   3.720  11.329  0.1991 -0.8771  0.3551
   83TCq2    C6 1269   2.107   3.656  11.237  0.6135 -0.2755  0.0576
   83TCq2    C7 1270   2.061   3.717  11.121 -0.0081 -1.3575  0.0727
   83TCq2    C8 1271   2.032   3.540  11.288 -0.5004  0.3981 -0.3419
   83TCq2    O4 1272   2.027   3.528  11.406  0.2924 -0.2497  0.4194
   83TCq2    C9 1273   2.282   3.932  11.409 -0.1904  0.7565 -0.4384
   83TCq2    O5 1274   2.308   4.054  11.384  0.2199 -0.8332 -0.4948
   83TCq2    O6 1275   2.340   3.869  11.500  0.3921 -0.1607 -0.0338
   83TCq2    H2 1276   2.172   4.022  11.201 -0.4589 -0.0643 -0.1227
   83TCq2    H3 1277   2.219   3.685  11.428 -0.0559 -0.8905  0.4219
   83TCq2    H4 1278   2.010   3.655  11.048  2.0850 -0.0845 -2.4919
   84TCq2    C1 1279   3.286   2.215  10.367  0.0729 -0.1162  0.5921
   84TCq2    O2 1280   3.164   2.198  10.379  0.5386 -0.4841  0.3751
   84TCq2    C2 1281   3.351   2.263  10.487  0.3328 -0.1651  0.1618
   84TCq2    C3 1282   3.487   2.257  10.486 -0.1549  0.2171  0.1867
   84TCq2    C4 1283   3.547   2.277  10.602 -0.0311  0.0976  0.3071
   84TCq2    C5 1284   3.480   2.305  10.718  0.3119  0.3258  0.3179
   84TCq2    C6 1285   3.344   2.305  10.723 -0.2307 -0.1389  0.3957
   84TCq2    C7 1286   3.277   2.293  10.604  0.2784 -0.5040 -1.0996
   84TCq2    C8 1287   3.260   2.310  10.840 -0.2580 -0.1236 -0.0680
   84TCq2    O4 1288   3.140   2.310  10.824 -0.2022 -0.0400 -0.8093
   84TCq2    C9 1289   3.681   2.226  10.613 -0.1358 -0.8673 -0.8566
   84TCq2    O5 1290   3.758   2.274  10.702 -0.4014 -0.9738  0.1748
   84TCq2    O6 1291   3.705   2.115  10.556  0.5658 -0.7898  0.8813
   84TCq2    H2 1292   3.556   2.225  10.409  0.4548 -0.8979  1.1945
   84TCq2    H3 1293   3.543   2.309  10.806  2.0736 -0.7668 -0.9100
   84TCq2    H4 1294   3.169   2.295  10.597  0.1957 -0.7822  0.1160
   85MPD2     C 1295   3.824   0.724  16.576  0.6471 -0.3290  0.5274
   85MPD2    C1 1296   3.711   0.714  16.493  0.0215 -0.3917  0.8415
   85MPD2    C2 1297   3.660   0.838  16.450 -0.0913  0.5054 -0.4490
   85MPD2    C3 1298   3.727   0.960  16.472  0.0586  0.3366 -0.4499
   85MPD2    C4 1299   3.838   0.962  16.554  0.4722 -0.7300 -0.3701
   85MPD2    C5 1300   3.885   0.845  16.604  0.0636  0.2335 -0.6050
   85MPD2     H 1301   3.573   0.820  16.388 -0.1573 -0.7770  0.0166
   85MPD2    H1 1302   3.888   1.056  16.577 -1.8536  0.2229  0.8702
   85MPD2    H2 1303   3.870   0.641  16.630  0.7884 -0.7731 -0.2754
   85MPD2    H3 1304   3.972   0.848  16.669 -0.8013  1.5693  0.4915
   85MPD2     N 1305   3.674   1.087  16.435 -0.3155  0.1869  0.3094
   85MPD2    H5 1306   3.726   1.171  16.459  0.9773 -0.4934 -0.1133
   85MPD2    N1 1307   3.646   0.591  16.460 -0.1206  0.7688 -0.3312
   85MPD2    H7 1308   3.569   0.603  16.394 -1.3807  2.6002  1.4834
   86TCq2    C1 1309   3.544   1.108  16.388 -0.0701  0.4519  0.0285
   86TCq2    O2 1310   3.443   1.043  16.409 -0.1544 -0.0601 -0.4243
   86TCq2    C2 1311   3.527   1.233  16.322 -1.0867  0.4019  0.2149
   86TCq2    C3 1312   3.423   1.310  16.353 -0.0297 -0.6272  0.6675
   86TCq2    C4 1313   3.414   1.431  16.283 -0.2266  0.2418  0.6329
   86TCq2    C5 1314   3.508   1.465  16.193  0.5491 -0.0315 -0.0420
   86TCq2    C6 1315   3.614   1.381  16.171 -0.3551  0.7860 -0.3147
   86TCq2    C7 1316   3.630   1.262  16.238 -0.3143 -0.0888 -0.3928
   86TCq2    C8 1317   3.728   1.428  16.101 -0.0338 -0.2389 -0.1582
   86TCq2    O4 1318   3.740   1.551  16.096 -0.1911  0.4039 -0.3168
   86TCq2    C9 1319   3.299   1.520  16.295  0.2894 -0.6240  0.4113
   86TCq2    O5 1320   3.222   1.504  16.197 -0.4414  0.1814  0.2339
   86TCq2    O6 1321   3.328   1.626  16.360  0.0300 -0.0748 -0.0277
   86TCq2    H2 1322   3.357   1.296  16.438 -0.0801  1.6241  1.0189
   86TCq2    H3 1323   3.501   1.550  16.126  1.7240 -1.1440 -1.5662
   86TCq2    H4 1324   3.703   1.185  16.214  0.8929  0.5271  1.3012
   87MPD2     C 1325   0.457   3.870   1.698  0.4774 -0.6079 -1.1182
   87MPD2    C1 1326   0.572   3.895   1.619 -0.1067 -0.2099  0.3011
   87MPD2    C2 1327   0.591   4.027   1.573 -0.4724 -0.4753  0.3254
   87MPD2    C3 1328   0.486   4.114   1.604  0.1329 -0.8761  0.5723
   87MPD2    C4 1329   0.376   4.087   1.675 -0.1304 -0.3752  0.7843
   87MPD2    C5 1330   0.367   3.967   1.733  0.6444  0.1184  0.6406
   87MPD2     H 1331   0.683   4.055   1.524 -1.3456  0.0707 -1.0265
   87MPD2    H1 1332   0.290   4.152   1.676 -1.0322 -1.5355 -0.6495
   87MPD2    H2 1333   0.445   3.774   1.746 -1.6810  0.0922 -0.2522
   87MPD2    H3 1334   0.286   3.941   1.800 -0.9312 -0.6221 -1.5621
   87MPD2     N 1335   0.479   4.245   1.552 -0.5759  0.6298 -0.3005
   87MPD2    H5 1336   0.392   4.294   1.571 -0.2889  1.2266 -0.4972
   87MPD2    N1 1337   0.663   3.791   1.596 -0.2568  0.1102  0.6525
   87MPD2    H7 1338   0.644   3.704   1.644 -3.4691  0.6256  0.3080
   88TCq2    C1 1339   0.766   3.796   1.513 -0.0985 -0.4284 -0.1952
   88TCq2    O2 1340   0.799   3.884   1.438 -0.1774 -0.1221  0.6129
   88TCq2    C2 1341   0.841   3.671   1.514 -0.5098 -0.6896 -0.3777
   88TCq2    C3 1342   0.887   3.629   1.634  0.2990 -0.5402 -0.1224
   88TCq2    C4 1343   0.994   3.548   1.641  0.7223  0.5729 -0.2434
   88TCq2    C5 1344   1.052   3.500   1.527 -0.8156 -0.2362 -0.1711
   88TCq2    C6 1345   1.003   3.549   1.409  0.4755 -0.2165  0.0978
   88TCq2    C7 1346   0.903   3.640   1.398  0.4055 -0.2186  0.3091
   88TCq2    C8 1347   1.062   3.525   1.280  0.6530 -0.5263 -0.2427
   88TCq2    O4 1348   1.050   3.611   1.188  0.2202  0.5344 -0.3063
   88TCq2    C9 1349   1.051   3.507   1.771 -0.5396  0.5404  0.6746
   88TCq2    O5 1350   1.165   3.459   1.765 -0.5409  0.4435  0.3771
   88TCq2    O6 1351   0.985   3.543   1.872  0.0314 -0.1270 -0.2563
   88TCq2    H2 1352   0.846   3.665   1.727 -2.9530  0.1866 -1.8303
   88TCq2    H3 1353   1.130   3.425   1.535  0.2425  0.8310 -0.5165
   88TCq2    H4 1354   0.866   3.682   1.305 -0.5549 -0.8789  0.3963
   89MPD2     C 1355   2.382   1.240   1.536 -0.3273  0.4687  0.5004
   89MPD2    C1 1356   2.250   1.272   1.523  0.0183  0.7509 -0.8331
   89MPD2    C2 1357   2.203   1.325   1.412 -0.0560  0.5552  0.2596
   89MPD2    C3 1358   2.285   1.353   1.303 -0.0414 -0.4715 -0.2371
   89MPD2    C4 1359   2.416   1.314   1.316 -0.9061  0.8373  0.7193
   89MPD2    C5 1360   2.467   1.261   1.431  0.4096  0.0377  0.3475
   89MPD2     H 1361   2.098   1.353   1.413 -0.7215 -2.0016  0.4408
   89MPD2    H1 1362   2.491   1.340   1.242 -1.1589 -1.2691 -0.2768
   89MPD2    H2 1363   2.423   1.196   1.626  0.0594  0.6642  0.4188
   89MPD2    H3 1364   2.570   1.233   1.450  0.7156  0.6020 -0.4863
   89MPD2     N 1365   2.243   1.437   1.201  0.0941 -0.2108 -0.0259
   89MPD2    H5 1366   2.145   1.461   1.208 -0.5235 -2.9290  0.8621
   89MPD2    N1 1367   2.162   1.241   1.629 -0.1411 -0.4829  0.4565
   89MPD2    H7 1368   2.063   1.248   1.608  0.4619 -2.1574 -3.0803
   90TCq2    C1 1369   2.309   1.486   1.089  0.6011 -0.4655  0.3295
   90TCq2    O2 1370   2.397   1.424   1.032 -0.5146 -0.2482 -0.1746
   90TCq2    C2 1371   2.246   1.586   1.002  0.5984  0.6313  0.2479
   90TCq2    C3 1372   2.151   1.664   1.059  0.4028 -0.2767 -0.4246
   90TCq2    C4 1373   2.118   1.778   1.002  0.0730  0.1769 -0.4599
   90TCq2    C5 1374   2.172   1.822   0.885 -0.5177 -0.2062  0.2643
   90TCq2    C6 1375   2.262   1.733   0.821  0.1576 -0.3568  0.3849
   90TCq2    C7 1376   2.302   1.621   0.882  0.6908  0.3287  0.2423
   90TCq2    C8 1377   2.330   1.763   0.695 -0.2292  0.1774  0.9291
   90TCq2    O4 1378   2.418   1.686   0.654  0.5608 -0.4498  0.3653
   90TCq2    C9 1379   2.020   1.864   1.068  0.1768 -0.5286 -0.1480
   90TCq2    O5 1380   1.986   1.965   1.009 -0.6544 -0.1562  0.2104
   90TCq2    O6 1381   1.968   1.821   1.173 -0.4570 -0.5698  0.3112
   90TCq2    H2 1382   2.104   1.638   1.152 -2.2629 -0.8023 -1.9160
   90TCq2    H3 1383   2.148   1.921   0.850 -0.3738  0.4581  2.0413
   90TCq2    H4 1384   2.390   1.573   0.842  0.4825 -0.5073  0.7920
   91TMC2    C1 1385   3.771   1.530  16.550 -0.0338  0.2185 -0.8839
   91TMC2    C2 1386   3.761   1.628  16.449  0.4083 -0.1053 -0.1984
   91TMC2    C3 1387   3.653   1.707  16.445 -0.0643  0.1630  0.4384
   91TMC2    C4 1388   3.671   1.502  16.632 -0.0572 -0.3771  0.2893
   91TMC2    C5 1389   3.554   1.572  16.610 -0.7926  0.2096 -0.7191
   91TMC2    C6 1390   3.543   1.681  16.520 -0.4932  0.4097  0.2008
   91TMC2     C 1391   3.859   1.428  16.505  0.7223  0.6047 -0.1261
   91TMC2     O 1392   3.814   1.316  16.506 -0.6603 -0.4662 -0.4884
   91TMC2     H 1393   3.839   1.641  16.375  0.0780  0.7959 -0.3855
   91TMC2    H1 1394   3.674   1.414  16.696 -1.9186 -0.0012  0.8892
   91TMC2    H2 1395   3.461   1.751  16.525 -2.6960 -2.2642  1.1827
   91TMC2    C7 1396   3.447   1.567  16.706 -0.6647 -0.7331  0.8895
   91TMC2    C8 1397   3.636   1.802  16.340  0.3914 -0.1620  0.0513
   91TMC2    O1 1398   3.466   1.520  16.817 -0.4206  0.2421  0.4590
   91TMC2    O2 1399   3.731   1.854  16.284  0.6611  0.1801 -0.0241
   91TMC2    O5 1400   3.516   1.791  16.279  0.0056 -0.3264 -0.1164
   91TMC2    H5 1401   3.465   1.727  16.333 -0.7431  0.8715  0.6115
   92MPD2     C 1402   4.057   1.244  16.368  0.3634 -0.1514  0.0288
   92MPD2    C1 1403   4.083   1.376  16.407  0.7799 -0.5170  0.2363
   92MPD2    C2 1404   4.212   1.416  16.408  0.4019 -0.6915  0.2296
   92MPD2    C3 1405   4.313   1.349  16.344  0.2456  0.2395  1.0389
   92MPD2    C4 1406   4.283   1.225  16.288  0.2056  0.1429  0.0979
   92MPD2    C5 1407   4.158   1.169  16.311  0.0696 -0.2336 -1.0874
   92MPD2     H 1408   4.235   1.515  16.446 -0.0993 -1.1512  1.7470
   92MPD2    H1 1409   4.359   1.161  16.244 -0.4187  2.2898 -4.1945
   92MPD2    H2 1410   3.957   1.202  16.370 -0.3141  1.4372 -0.0138
   92MPD2    H3 1411   4.139   1.068  16.278  0.6938 -0.9572  0.7742
   92MPD2     N 1412   4.435   1.416  16.319  0.5496 -0.4649 -0.1173
   92MPD2    H5 1413   4.451   1.514  16.341 -0.0729  0.0298 -1.8778
   92MPD2    N1 1414   3.981   1.459  16.459 -0.1858  0.4274 -0.0634
   92MPD2    H7 1415   4.006   1.556  16.478  1.9033 -0.0954 -0.1620
   93MPD2     C 1416   0.714   2.173  13.891 -0.1206  0.5985 -0.1671
   93MPD2    C1 1417   0.694   2.144  14.026 -0.7320 -0.2539  0.0124
   93MPD2    C2 1418   0.570   2.119  14.074  0.0605  0.5295  0.8228
   93MPD2    C3 1419   0.460   2.126  13.987 -0.2908 -0.0751 -0.7525
   93MPD2    C4 1420   0.481   2.146  13.855 -0.3002 -0.2709 -0.0838
   93MPD2    C5 1421   0.603   2.172  13.802 -0.4469 -0.0615  0.3133
   93MPD2     H 1422   0.554   2.102  14.180 -1.5128 -1.7654  0.2293
   93MPD2    H1 1423   0.400   2.149  13.783  1.0559 -0.9363 -1.6383
   93MPD2    H2 1424   0.807   2.204  13.844  1.2310 -0.9193  1.4947
   93MPD2    H3 1425   0.621   2.202  13.700  2.0190  1.0787  1.0753
   93MPD2     N 1426   0.321   2.123  14.023  0.1512 -0.2271 -0.0533
   93MPD2    H5 1427   0.250   2.124  13.950 -1.8118 -2.5005  1.8035
   93MPD2    N1 1428   0.804   2.143  14.110 -0.4767 -0.6127 -0.4646
   93MPD2    H7 1429   0.787   2.137  14.210  1.8771  1.9628  0.0972
   94TCq2    C1 1430   0.939   2.146  14.082 -0.1270 -0.7478  0.3434
   94TCq2    O2 1431   0.976   2.116  13.968  0.2602 -1.0667  1.0787
   94TCq2    C2 1432   1.028   2.141  14.195  0.1946  0.1716 -0.8765
   94TCq2    C3 1433   1.003   2.217  14.308  0.3882  0.3853 -0.3265
   94TCq2    C4 1434   1.102   2.249  14.391 -0.2217 -0.8026 -0.0776
   94TCq2    C5 1435   1.235   2.211  14.363 -0.3120 -0.4548 -0.6659
   94TCq2    C6 1436   1.258   2.148  14.246 -0.2066  0.5270 -0.6494
   94TCq2    C7 1437   1.155   2.108  14.165  0.7718 -0.2114  0.0164
   94TCq2    C8 1438   1.392   2.124  14.197  0.2764  0.3076  0.1238
   94TCq2    O4 1439   1.401   2.064  14.093  0.1640 -0.2031  0.5339
   94TCq2    C9 1440   1.079   2.324  14.514  0.6384  0.2670 -0.2484
   94TCq2    O5 1441   1.175   2.391  14.552  0.0505 -0.4865 -0.6083
   94TCq2    O6 1442   0.962   2.309  14.561  0.1960  0.2708  0.4160
   94TCq2    H2 1443   0.902   2.245  14.334  0.0350  1.5813 -2.9180
   94TCq2    H3 1444   1.308   2.239  14.438 -1.6371 -1.9847  1.1969
   94TCq2    H4 1445   1.182   2.066  14.069 -0.3098  1.6560 -1.1047
   95TMC2    C1 1446   0.946   3.220  15.564  0.2957 -0.5557 -0.1445
   95TMC2    C2 1447   0.972   3.117  15.481  0.3905  0.5493 -0.2202
   95TMC2    C3 1448   0.939   2.988  15.515 -0.2443  0.3737  0.1326
   95TMC2    C4 1449   0.915   3.200  15.695 -0.0764 -0.2751 -0.1599
   95TMC2    C5 1450   0.884   3.066  15.722  0.2037  0.3616 -0.3118
   95TMC2    C6 1451   0.893   2.959  15.638  0.0808  0.0514  0.1373
   95TMC2     C 1452   1.007   3.347  15.534 -0.5680  0.1579 -0.2886
   95TMC2     O 1453   1.086   3.349  15.440  0.4832  0.0082  0.5198
   95TMC2     H 1454   1.012   3.143  15.384  1.1763 -1.9927 -0.5848
   95TMC2    H1 1455   0.922   3.274  15.774 -0.4581 -1.2129  0.7587
   95TMC2    H2 1456   0.877   2.862  15.684  1.0602 -0.2516 -0.1805
   95TMC2    C7 1457   0.808   3.032  15.842 -0.1379 -0.0837 -0.1610
   95TMC2    C8 1458   0.971   2.882  15.424 -0.1991 -0.3947 -0.0034
   95TMC2    O1 1459   0.788   2.913  15.869 -0.6799  0.4112  0.8860
   95TMC2    O2 1460   1.073   2.891  15.358  0.1055 -0.2849 -0.4278
   95TMC2    O5 1461   0.923   2.768  15.475 -0.0270 -0.5186  0.5319
   95TMC2    H5 1462   0.834   2.766  15.516 -1.0134  0.5495 -1.5270
   96MPD2     C 1463   1.010   3.865  15.530 -0.4600 -0.1757  0.5565
   96MPD2    C1 1464   1.082   3.770  15.457 -0.0656  0.3323 -0.1518
   96MPD2    C2 1465   1.074   3.641  15.486 -0.9121  0.1955 -0.0550
   96MPD2    C3 1466   0.992   3.593  15.584 -0.4553  1.3797 -0.8097
   96MPD2    C4 1467   0.914   3.686  15.649 -0.4912 -0.2342 -0.9062
   96MPD2    C5 1468   0.938   3.818  15.631  0.4319  0.0014 -0.0961
   96MPD2     H 1469   1.117   3.561  15.426 -1.4421 -1.1518  1.3790
   96MPD2    H1 1470   0.845   3.659  15.729 -0.3568  0.8388 -0.4354
   96MPD2    H2 1471   1.026   3.971  15.515 -1.4423 -0.1426 -0.2185
   96MPD2    H3 1472   0.880   3.892  15.684  1.4165  1.0863 -0.5256
   96MPD2     N 1473   0.957   3.457  15.603  0.3479  0.0870  0.2946
   96MPD2    H5 1474   0.894   3.428  15.678 -2.0109  1.0504 -1.3214
   96MPD2    N1 1475   1.181   3.813  15.365  0.3426 -0.4241 -0.0006
   96MPD2    H7 1476   1.204   3.912  15.357 -0.0730 -0.2239  1.2648
   97MPD2     C 1477   3.064   0.007   0.851  0.4228  0.4806  0.2259
   97MPD2    C1 1478   3.074   0.132   0.904  0.4870  1.1102 -0.5800
   97MPD2    C2 1479   3.175   0.212   0.852 -1.2078  0.6471 -0.0497
   97MPD2    C3 1480   3.264   0.172   0.752  0.3626  0.3610 -0.7039
   97MPD2    C4 1481   3.256   0.049   0.703 -0.3391  0.1337  0.2477
   97MPD2    C5 1482   3.162   4.696   0.754 -0.0623  0.3538  0.4792
   97MPD2     H 1483   3.186   0.313   0.892 -0.7238 -0.2663  2.1298
   97MPD2    H1 1484   3.324   0.014   0.627  0.4034 -1.0754  1.4542
   97MPD2    H2 1485   2.983   4.665   0.878 -0.2851  2.2577  2.5382
   97MPD2    H3 1486   3.151   4.594   0.719  0.1444  0.0142  1.4165
   97MPD2     N 1487   3.363   0.260   0.708  0.4327  0.0120 -0.5559
   97MPD2    H5 1488   3.428   0.224   0.638 -0.4169 -1.1541 -0.7427
   97MPD2    N1 1489   2.993   0.156   1.018 -0.4390 -0.3502 -0.3901
   97MPD2    H7 1490   2.945   0.078   1.061  0.7871 -2.1426 -2.2746
   98TCq2    C1 1491   3.367   0.396   0.722 -0.1427  0.6970  0.3987
   98TCq2    O2 1492   3.285   0.476   0.769 -0.0033 -0.0484 -0.1507
   98TCq2    C2 1493   3.479   0.447   0.638  0.2856  0.0295 -0.1401
   98TCq2    C3 1494   3.513   0.376   0.520  0.3197  0.7261  0.4873
   98TCq2    C4 1495   3.567   0.445   0.421 -0.4521  0.2496 -0.5498
   98TCq2    C5 1496   3.581   0.586   0.422  0.3258 -0.1315 -0.4222
   98TCq2    C6 1497   3.549   0.645   0.544 -0.2579 -0.3482 -0.4682
   98TCq2    C7 1498   3.490   0.580   0.652  0.0396  0.4119 -0.1353
   98TCq2    C8 1499   3.510   0.784   0.547  0.6925  0.2109  0.2943
   98TCq2    O4 1500   3.593   0.862   0.500  0.1827  0.2207  0.1572
   98TCq2    C9 1501   3.590   0.377   0.296  0.6106 -0.3037 -0.5485
   98TCq2    O5 1502   3.580   0.248   0.298 -0.1506 -0.0838 -0.1983
   98TCq2    O6 1503   3.632   0.447   0.199 -0.2978  0.4337 -0.2504
   98TCq2    H2 1504   3.493   0.269   0.515  0.0274  0.7830  0.4306
   98TCq2    H3 1505   3.621   0.634   0.334 -0.0133  1.1542  0.1202
   98TCq2    H4 1506   3.477   0.624   0.750 -1.3049  0.3845 -0.2999
   99MPD2     C 1507   1.683   2.171   2.080  0.0166 -0.4111  0.7507
   99MPD2    C1 1508   1.645   2.296   2.029 -0.9660 -0.9449  0.7329
   99MPD2    C2 1509   1.609   2.307   1.897  0.9661  0.0478  0.0798
   99MPD2    C3 1510   1.610   2.205   1.811 -0.6195  0.2847 -0.4972
   99MPD2    C4 1511   1.652   2.080   1.854 -1.3027 -0.4490  0.1762
   99MPD2    C5 1512   1.680   2.062   1.990 -0.0946  0.5857 -0.1161
   99MPD2     H 1513   1.578   2.404   1.860  2.4157 -0.1967 -1.8336
   99MPD2    H1 1514   1.652   1.996   1.786 -0.2714 -0.2195 -0.1112
   99MPD2    H2 1515   1.704   2.165   2.187 -1.7656 -0.5513  1.0912
   99MPD2    H3 1516   1.706   1.960   2.017  1.8920  0.9824 -0.4731
   99MPD2     N 1517   1.575   2.225   1.677  0.7374  0.2375 -0.4397
   99MPD2    H5 1518   1.559   2.321   1.649  2.6862  0.9566  0.8683
   99MPD2    N1 1519   1.633   2.407   2.113  0.5756 -0.0763  0.5366
   99MPD2    H7 1520   1.605   2.494   2.068  2.4216 -0.2118 -0.8756
  100TCq2    C1 1521   1.671   2.417   2.252  0.1770 -0.0327 -0.3419
  100TCq2    O2 1522   1.740   2.337   2.319  0.4656 -0.3856 -0.5375
  100TCq2    C2 1523   1.668   2.549   2.299 -0.1311  0.1946  0.3943
  100TCq2    C3 1524   1.757   2.572   2.406 -0.0330 -0.2959 -0.4043
  100TCq2    C4 1525   1.797   2.701   2.429 -0.2455  0.5457  0.5547
  100TCq2    C5 1526   1.770   2.805   2.346 -0.7061  1.1734  0.1392
  100TCq2    C6 1527   1.676   2.781   2.248 -0.1789 -0.2295 -0.0432
  100TCq2    C7 1528   1.629   2.655   2.224  0.1990 -0.1271  0.1384
  100TCq2    C8 1529   1.624   2.901   2.182 -0.4089 -0.2633  0.4359
  100TCq2    O4 1530   1.648   3.008   2.237  0.4472 -0.4188 -1.0701
  100TCq2    C9 1531   1.876   2.729   2.544  0.0503  0.4406  0.0973
  100TCq2    O5 1532   1.881   2.629   2.619 -0.2684  0.3452 -0.5498
  100TCq2    O6 1533   1.898   2.852   2.567  0.2517  0.6295 -0.3250
  100TCq2    H2 1534   1.782   2.484   2.464  1.1263  0.6601  0.5404
  100TCq2    H3 1535   1.815   2.902   2.365 -0.8278  1.3021 -0.2114
  100TCq2    H4 1536   1.557   2.636   2.145  1.1405 -1.4994 -0.4008
  101MPD2     C 1537   2.133   4.444  13.070  0.1020  0.4133 -0.1074
  101MPD2    C1 1538   2.050   4.511  13.158 -0.3144  0.5422 -0.5100
  101MPD2    C2 1539   2.003   4.436  13.264  0.1091 -0.2093  0.0448
  101MPD2    C3 1540   2.001   4.297  13.253  0.1555  0.2143 -0.8358
  101MPD2    C4 1541   2.063   4.231  13.154  0.4690 -0.2927  0.0503
  101MPD2    C5 1542   2.136   4.306  13.065  0.0591  0.5240  0.1360
  101MPD2     H 1543   1.946   4.480  13.345 -0.4979  0.3732 -0.7049
  101MPD2    H1 1544   2.072   4.124  13.145  1.1027 -0.4573  2.8448
  101MPD2    H2 1545   2.178   4.495  12.985 -1.2539 -0.5445 -1.3985
  101MPD2    H3 1546   2.197   4.261  12.988 -0.3148  0.0620  0.1057
  101MPD2     N 1547   1.931   4.215  13.345  0.1223  0.5148  0.4179
  101MPD2    H5 1548   1.939   4.116  13.329 -0.8856  0.3754  0.7454
  101MPD2    N1 1549   2.019   4.647  13.123  0.0811  0.0313  0.4084
  101MPD2    H7 1550   2.068   4.687  13.043  0.5802  1.1699  1.2681
  102TCq2    C1 1551   2.068   0.332  12.891  0.2622  0.5166  0.2757
  102TCq2    O2 1552   2.184   0.306  12.923  0.1761 -0.0900 -0.6054
  102TCq2    C2 1553   1.967   0.289  12.990 -0.8535 -0.0827  0.0572
  102TCq2    C3 1554   1.839   0.316  12.959  0.9497  0.5770 -0.0760
  102TCq2    C4 1555   1.741   0.243  13.024 -0.5542  0.1525 -0.8245
  102TCq2    C5 1556   1.768   0.142  13.109 -0.2818 -0.0007 -0.0782
  102TCq2    C6 1557   1.899   0.117  13.136 -0.5114 -0.0174 -0.1116
  102TCq2    C7 1558   2.004   0.187  13.072 -0.1207 -0.1117 -0.2847
  102TCq2    C8 1559   1.934   4.719  13.204  0.5557 -1.1633 -0.5820
  102TCq2    O4 1560   1.867   4.691  13.300  0.6048  0.2078 -0.4940
  102TCq2    C9 1561   1.602   0.277  12.996  0.5470  0.5008 -0.1972
  102TCq2    O5 1562   1.513   0.188  13.026  0.2555  0.3286 -0.0955
  102TCq2    O6 1563   1.583   0.361  12.903 -0.6182 -0.1713  0.3618
  102TCq2    H2 1564   1.805   0.409  12.915 -0.8440  0.2993  0.7507
  102TCq2    H3 1565   1.691   0.083  13.157 -1.1098  1.0576 -0.0919
  102TCq2    H4 1566   2.108   0.176  13.102 -0.3451  3.5665  1.9092
  103TMC2    C1 1567   0.580   4.516  12.735 -0.0137 -0.0235 -0.1572
  103TMC2    C2 1568   0.717   4.530  12.742 -0.0106  0.5977 -0.1957
  103TMC2    C3 1569   0.774   4.642  12.795 -0.7499 -0.3428 -0.1757
  103TMC2    C4 1570   0.502   4.615  12.782 -0.6498  0.1799  0.5583
  103TMC2    C5 1571   0.561   0.010  12.824 -0.5785 -0.1501 -0.1383
  103TMC2    C6 1572   0.697   0.024  12.834 -0.1896 -0.5382 -0.1333
  103TMC2     C 1573   0.522   4.416  12.645 -0.2090 -0.1622 -0.3383
  103TMC2     O 1574   0.416   4.451  12.589 -0.1638  0.2828 -0.3482
  103TMC2     H 1575   0.782   4.453  12.702  1.7474  1.7545  0.4110
  103TMC2    H1 1576   0.398   4.593  12.803 -1.0903  0.0139 -1.7692
  103TMC2    H2 1577   0.734   0.119  12.870  1.5388 -2.0034  1.8947
  103TMC2    C7 1578   0.480   0.112  12.882 -0.0143  0.4091  0.1355
  103TMC2    C8 1579   0.920   4.643  12.798  0.4110  0.1823 -0.4387
  103TMC2    O1 1580   0.516   0.178  12.979 -0.0258 -0.8084 -0.1865
  103TMC2    O2 1581   0.990   4.546  12.786 -0.1348 -0.1218  0.1139
  103TMC2    O5 1582   0.958   0.046  12.761 -0.0202 -0.3924  0.4231
  103TMC2    H5 1583   0.885   0.107  12.739  0.0397  0.4649  2.5677
  104MPD2     C 1584   0.601   4.073  12.580 -0.9491  0.2597  0.2920
  104MPD2    C1 1585   0.547   4.191  12.558 -0.5015  0.0617  0.0175
  104MPD2    C2 1586   0.476   4.214  12.440 -0.6904 -0.3270 -0.7523
  104MPD2    C3 1587   0.467   4.109  12.351  0.2493  0.2195  0.1569
  104MPD2    C4 1588   0.520   3.989  12.382 -0.2581  0.0705  0.0022
  104MPD2    C5 1589   0.583   3.972  12.497 -0.2153  0.2536  0.7966
  104MPD2     H 1590   0.439   4.314  12.418  2.7349  0.9224 -0.8574
  104MPD2    H1 1591   0.524   3.906  12.312 -1.8631  1.1766 -1.3937
  104MPD2    H2 1592   0.663   4.064  12.668 -0.1620 -0.5453 -0.3503
  104MPD2    H3 1593   0.629   3.875  12.516 -0.0850  0.0000 -0.7895
  104MPD2     N 1594   0.402   4.141  12.228  0.1769  0.5385  0.9063
  104MPD2    H5 1595   0.354   4.230  12.220 -0.5456 -0.0850 -1.9020
  104MPD2    N1 1596   0.579   4.294  12.642 -0.0713  0.0454  0.1034
  104MPD2    H7 1597   0.657   4.276  12.703 -0.2349  2.2505  0.9748
  105MPD2     C 1598   2.213   3.541   0.124 -0.5613 -0.1670 -0.5272
  105MPD2    C1 1599   2.130   3.654   0.109  0.2442 -0.9350 -0.2042
  105MPD2    C2 1600   2.017   3.664   0.185  0.0443  0.0004  0.1386
  105MPD2    C3 1601   1.993   3.580   0.285  0.4819 -0.5698 -0.5737
  105MPD2    C4 1602   2.074   3.472   0.307  0.9329  0.1191  0.4708
  105MPD2    C5 1603   2.174   3.450   0.225 -0.4440 -0.2250 -0.0364
  105MPD2     H 1604   1.951   3.746   0.161  0.3709  0.5221  0.9952
  105MPD2    H1 1605   2.068   3.416   0.400  0.4107  0.5584  0.7058
  105MPD2    H2 1606   2.306   3.531   0.070 -0.3342 -0.9850  0.0281
  105MPD2    H3 1607   2.248   3.376   0.251 -1.8483 -1.0600  1.5250
  105MPD2     N 1608   1.882   3.601   0.360  0.2967 -0.0910  0.3123
  105MPD2    H5 1609   1.840   3.691   0.338 -1.3413 -0.3719  2.2600
  105MPD2    N1 1610   2.153   3.750   0.014 -0.7607 -0.1397 -0.0223
  105MPD2    H7 1611   2.093   3.831   0.019  0.1361  0.5844 -0.7912
  106TCq2    C1 1612   1.824   3.513   0.456  0.4366  0.4961  0.2723
  106TCq2    O2 1613   1.847   3.393   0.462  0.1827 -0.6513  0.0714
  106TCq2    C2 1614   1.703   3.559   0.516  0.8974  0.5188  0.6563
  106TCq2    C3 1615   1.663   3.690   0.503  0.1840 -0.3727  0.0630
  106TCq2    C4 1616   1.568   3.730   0.600  0.1877  0.1519 -0.0360
  106TCq2    C5 1617   1.501   3.642   0.683 -0.5491  0.3569 -0.0649
  106TCq2    C6 1618   1.540   3.508   0.682  0.3706  0.2279  0.0054
  106TCq2    C7 1619   1.643   3.465   0.602  0.2796 -0.0511 -0.4322
  106TCq2    C8 1620   1.477   3.410   0.771  0.5156 -1.5288 -0.4549
  106TCq2    O4 1621   1.495   3.290   0.738  0.5595  0.3435  0.4981
  106TCq2    C9 1622   1.538   3.874   0.609 -0.3240 -0.3153  0.6397
  106TCq2    O5 1623   1.469   3.918   0.706 -0.3702  0.6240  0.7561
  106TCq2    O6 1624   1.610   3.949   0.535 -0.3070 -0.3313  0.2513
  106TCq2    H2 1625   1.712   3.758   0.435 -1.6575 -0.7120 -1.6073
  106TCq2    H3 1626   1.429   3.682   0.753 -0.8356  0.6440 -0.5229
  106TCq2    H4 1627   1.683   3.365   0.594  0.3823 -0.0987  0.5669
  107TMC2    C1 1628   2.618   2.503  11.562 -0.5225 -0.2810  0.4048
  107TMC2    C2 1629   2.529   2.462  11.472 -0.4097 -0.0255 -0.2173
  107TMC2    C3 1630   2.579   2.427  11.352  0.0623 -0.4484 -0.0786
  107TMC2    C4 1631   2.750   2.498  11.538 -0.0276 -0.0333 -0.4954
  107TMC2    C5 1632   2.803   2.452  11.419  0.5539 -0.3362  0.8793
  107TMC2    C6 1633   2.710   2.432  11.321  0.1988  0.0049  0.0624
  107TMC2     C 1634   2.570   2.607  11.650 -0.6188  0.4695  0.2146
  107TMC2     O 1635   2.644   2.629  11.748 -0.0222 -0.6269 -0.9658
  107TMC2     H 1636   2.424   2.456  11.496 -0.2586  0.6221  0.6680
  107TMC2    H1 1637   2.815   2.535  11.617  0.6932 -0.7410 -0.7619
  107TMC2    H2 1638   2.738   2.397  11.222  2.3527 -0.1051  0.6989
  107TMC2    C7 1639   2.943   2.445  11.404  0.3459 -1.1013  0.3328
  107TMC2    C8 1640   2.493   2.362  11.259 -0.5032 -0.1945 -0.1080
  107TMC2    O1 1641   3.004   2.465  11.507  0.1269 -0.0268 -0.2363
  107TMC2    O2 1642   2.376   2.388  11.265 -0.3851 -0.6928  0.4240
  107TMC2    O5 1643   2.540   2.234  11.252  0.5216  0.2203 -0.1639
  107TMC2    H5 1644   2.598   2.215  11.328  0.2848  0.6000  0.1099
  108MPD2     C 1645   2.366   2.890  11.540 -0.7805 -0.1776  0.6689
  108MPD2    C1 1646   2.433   2.814  11.628 -0.2312  0.1909 -0.1000
  108MPD2    C2 1647   2.437   2.853  11.760  0.8394  0.0229  0.0321
  108MPD2    C3 1648   2.378   2.972  11.801 -0.3122  0.0817 -0.2621
  108MPD2    C4 1649   2.312   3.048  11.705 -1.1712  0.5681  0.3742
  108MPD2    C5 1650   2.300   3.002  11.580  1.0891 -0.0636  0.3126
  108MPD2     H 1651   2.479   2.786  11.834  1.0747 -2.9925 -2.8267
  108MPD2    H1 1652   2.269   3.146  11.720 -2.0481  0.4755 -1.5535
  108MPD2    H2 1653   2.350   2.862  11.436  0.1272 -0.5783  0.6362
  108MPD2    H3 1654   2.238   3.053  11.506 -0.0091 -0.6710  0.8113
  108MPD2     N 1655   2.389   3.023  11.940 -0.4785  0.7296  0.1284
  108MPD2    H5 1656   2.361   3.117  11.964  1.1213  0.6158  2.4435
  108MPD2    N1 1657   2.491   2.694  11.574  0.3134  0.5720 -0.0966
  108MPD2    H7 1658   2.466   2.669  11.479  2.2373  0.3003 -0.5403
  109MPD2     C 1659   2.060   3.946   1.637 -0.1670 -0.2474 -0.3706
  109MPD2    C1 1660   2.163   4.008   1.566  0.2625  1.0835 -0.1255
  109MPD2    C2 1661   2.287   4.017   1.631 -0.2648 -0.5272  0.2115
  109MPD2    C3 1662   2.302   4.000   1.765 -0.0892 -0.7805 -0.0252
  109MPD2    C4 1663   2.203   3.939   1.832 -0.6944  0.5559  0.4454
  109MPD2    C5 1664   2.089   3.904   1.765  0.6507 -0.0531  0.2750
  109MPD2     H 1665   2.369   4.069   1.583 -1.2876  0.2691 -0.6675
  109MPD2    H1 1666   2.201   3.912   1.937 -1.4991 -1.4868 -0.1056
  109MPD2    H2 1667   1.961   3.931   1.597 -0.2415 -2.1495  0.5191
  109MPD2    H3 1668   2.013   3.846   1.818 -0.7523 -1.5715 -3.4037
  109MPD2     N 1669   2.417   4.058   1.833  0.0697  0.1466 -0.7149
  109MPD2    H5 1670   2.499   4.089   1.783  1.2165  1.5325  2.0278
  109MPD2    N1 1671   2.144   4.074   1.439  0.2716  0.1816 -0.3270
  109MPD2    H7 1672   2.049   4.086   1.408  0.5276  0.3838 -1.0350
  110TCq2    C1 1673   2.437   4.067   1.969  0.0203  0.6182  0.4148
  110TCq2    O2 1674   2.354   4.039   2.055  0.0502 -0.5857  0.7324
  110TCq2    C2 1675   2.548   4.153   2.013 -0.8654  0.1746 -1.2212
  110TCq2    C3 1676   2.602   4.150   2.134 -0.3973  0.6021 -0.6942
  110TCq2    C4 1677   2.701   4.243   2.168  0.7381 -0.2376 -0.6260
  110TCq2    C5 1678   2.748   4.337   2.077  0.6705 -1.0039  0.1384
  110TCq2    C6 1679   2.694   4.327   1.954  0.2430  0.1517  0.2988
  110TCq2    C7 1680   2.599   4.234   1.911 -0.0827  0.3337  0.3922
  110TCq2    C8 1681   2.727   4.437   1.866  0.4250  0.1375 -0.6945
  110TCq2    O4 1682   2.660   4.457   1.767  0.0226 -0.1544  0.2231
  110TCq2    C9 1683   2.767   4.252   2.299  0.0048  0.3868 -0.0595
  110TCq2    O5 1684   2.749   4.143   2.361  0.3485 -0.1245  0.0878
  110TCq2    O6 1685   2.840   4.350   2.331  0.5741  0.2944  0.4705
  110TCq2    H2 1686   2.570   4.076   2.206 -0.2104 -0.8433 -2.1018
  110TCq2    H3 1687   2.814   4.413   2.116 -0.4148 -0.0656  0.1570
  110TCq2    H4 1688   2.544   4.258   1.821  2.2521  0.9322 -0.8790
  111TMC2    C1 1689   1.911   0.413  11.795 -0.3865  0.4749 -0.4018
  111TMC2    C2 1690   1.809   0.362  11.871 -0.1960 -0.3552 -0.1554
  111TMC2    C3 1691   1.839   0.266  11.966  0.2930 -0.0696 -0.0712
  111TMC2    C4 1692   2.032   0.352  11.802 -0.2271 -0.1184  0.0078
  111TMC2    C5 1693   2.058   0.261  11.901 -0.6709  1.0267  0.1472
  111TMC2    C6 1694   1.967   0.223  11.992  0.3753  0.0414  0.1317
  111TMC2     C 1695   1.878   0.474  11.671 -0.1706  0.0743 -0.1643
  111TMC2     O 1696   1.940   0.450  11.569  0.1034  0.1489 -0.0098
  111TMC2     H 1697   1.712   0.411  11.868 -0.0174  0.0750  1.1949
  111TMC2    H1 1698   2.117   0.386  11.744  0.0234  1.9744  1.5925
  111TMC2    H2 1699   1.996   0.155  12.071  1.1243  0.1194 -0.0816
  111TMC2    C7 1700   2.202   0.228  11.942 -0.6963 -0.3286  0.6934
  111TMC2    C8 1701   1.746   0.269  12.077  0.9698  0.3521 -0.3286
  111TMC2    O1 1702   2.213   0.201  12.061 -0.7204 -0.3970 -0.0594
  111TMC2    O2 1703   1.676   0.368  12.092 -0.1734  0.2764  0.3840
  111TMC2    O5 1704   1.786   0.187  12.175  0.1400  0.0672 -0.6119
  111TMC2    H5 1705   1.811   0.098  12.144 -0.1892 -0.7786  1.5255
  112MPD2     C 1706   1.628   0.817  11.377  0.3713  0.2853 -0.0629
  112MPD2    C1 1707   1.692   0.696  11.351 -0.9505 -0.0788  0.3545
  112MPD2    C2 1708   1.740   0.618  11.454  0.1613 -0.3094  0.1825
  112MPD2    C3 1709   1.734   0.657  11.582  0.3378 -0.7753  1.0806
  112MPD2    C4 1710   1.663   0.773  11.612 -0.6854 -0.5755  0.3639
  112MPD2    C5 1711   1.614   0.850  11.510  0.2186  0.1902  0.2492
  112MPD2     H 1712   1.779   0.520  11.429  1.9491  0.0011  1.7380
  112MPD2    H1 1713   1.657   0.801  11.716 -1.4527  1.7179 -0.3116
  112MPD2    H2 1714   1.580   0.888  11.312 -0.5342 -0.0478  0.2387
  112MPD2    H3 1715   1.551   0.934  11.539 -0.4821 -0.3395  0.2481
  112MPD2     N 1716   1.779   0.570  11.688 -0.6507 -0.4106  0.7542
  112MPD2    H5 1717   1.743   0.596  11.779 -0.1171 -1.0664  1.1529
  112MPD2    N1 1718   1.703   0.639  11.227 -0.0461 -0.0406 -0.4517
  112MPD2    H7 1719   1.757   0.554  11.220 -1.0818 -0.7017 -0.3987
  113MPD2     C 1720   0.188   2.790   0.699 -0.1027 -0.6264  0.1630
  113MPD2    C1 1721   0.244   2.734   0.810 -0.8987 -0.1519  0.4942
  113MPD2    C2 1722   0.226   2.599   0.832  0.1854 -0.6738  0.2442
  113MPD2    C3 1723   0.165   2.522   0.737  0.0902  0.1196  0.0349
  113MPD2    C4 1724   0.119   2.580   0.622 -0.7497 -0.3496 -1.0519
  113MPD2    C5 1725   0.128   2.715   0.603 -0.6949 -0.4451 -0.1922
  113MPD2     H 1726   0.267   2.557   0.923  0.7217  0.1787  0.3994
  113MPD2    H1 1727   0.070   2.517   0.548 -2.9334  1.8684 -1.4677
  113MPD2    H2 1728   0.196   2.897   0.685  0.5642 -0.7817 -0.5777
  113MPD2    H3 1729   0.075   2.764   0.522 -1.1162 -0.0607  0.3173
  113MPD2     N 1730   0.147   2.383   0.759  0.5543  0.3536 -0.1616
  113MPD2    H5 1731   0.090   2.339   0.687  3.1122 -2.7723 -0.2589
  113MPD2    N1 1732   0.313   2.810   0.909  0.3961 -0.5881 -0.6438
  113MPD2    H7 1733   0.340   2.752   0.988 -0.2018 -0.1986 -0.1487
  114TCq2    C1 1734   0.177   2.306   0.869 -0.3052  0.4529  0.2462
  114TCq2    O2 1735   0.227   2.328   0.978  0.0219  0.3668  0.9891
  114TCq2    C2 1736   0.148   2.166   0.848  0.1160  0.0542 -0.2879
  114TCq2    C3 1737   0.093   2.119   0.736 -0.2653  0.3978 -0.1056
  114TCq2    C4 1738   0.084   1.984   0.737  0.2600  0.0530 -0.5660
  114TCq2    C5 1739   0.106   1.891   0.832  0.0336  0.1441 -0.0007
  114TCq2    C6 1740   0.168   1.947   0.942  0.2287 -0.3351  0.3504
  114TCq2    C7 1741   0.190   2.082   0.951  0.7676  0.3798 -0.0917
  114TCq2    C8 1742   0.215   1.853   1.038 -0.7737  0.2535 -0.1997
  114TCq2    O4 1743   0.219   1.735   0.998  0.1500 -0.2379  0.2503
  114TCq2    C9 1744   0.033   1.919   0.620 -0.0611 -0.0346  0.3235
  114TCq2    O5 1745   0.068   1.800   0.599  0.3311 -0.4079 -0.2522
  114TCq2    O6 1746   4.684   1.989   0.547  0.2753  0.0491 -0.0388
  114TCq2    H2 1747   0.059   2.173   0.649  0.5191  1.3774  0.2044
  114TCq2    H3 1748   0.091   1.784   0.821 -0.3209  0.3608 -1.6488
  114TCq2    H4 1749   0.244   2.122   1.036  0.2785  0.3586  0.2325
  115TMC2    C1 1750   1.353   0.674   0.274  0.2619 -0.0664  0.0803
  115TMC2    C2 1751   1.489   0.693   0.283  0.4575 -0.8791  0.0276
  115TMC2    C3 1752   1.542   0.819   0.285  0.0582 -0.2295 -0.1904
  115TMC2    C4 1753   1.274   0.777   0.246 -0.5965 -0.1189 -0.1698
  115TMC2    C5 1754   1.326   0.902   0.275 -0.4929 -0.2013 -0.3158
  115TMC2    C6 1755   1.458   0.928   0.302  0.5525  0.3778  0.2991
  115TMC2     C 1756   1.301   0.537   0.255 -0.1477  0.0459  0.1877
  115TMC2     O 1757   1.380   0.449   0.237  0.0693 -0.0762 -0.1971
  115TMC2     H 1758   1.552   0.606   0.298  0.7034 -0.7252 -0.1100
  115TMC2    H1 1759   1.169   0.767   0.224  0.1478 -2.1971 -2.7722
  115TMC2    H2 1760   1.496   1.028   0.318 -1.5014  1.3430 -0.8181
  115TMC2    C7 1761   1.242   1.011   0.240 -0.0810 -0.8431  0.3969
  115TMC2    C8 1762   1.668   0.843   0.344  0.0449 -0.4889 -0.0928
  115TMC2    O1 1763   1.121   0.994   0.229 -0.2750 -0.1871 -0.1973
  115TMC2    O2 1764   1.731   0.756   0.401 -0.4268 -0.3331  0.3347
  115TMC2    O5 1765   1.721   0.953   0.291 -0.1150 -0.0985  0.3066
  115TMC2    H5 1766   1.666   0.990   0.219  1.5971 -0.3298 -1.1077
  116MPD2     C 1767   0.937   0.198   0.119  0.0184  0.0062  0.3085
  116MPD2    C1 1768   1.078   0.193   0.110  0.1818  0.4544 -0.0740
  116MPD2    C2 1769   1.157   0.300   0.156  0.1012 -0.4416 -0.1601
  116MPD2    C3 1770   1.097   0.409   0.209 -0.2809 -0.3369  0.4386
  116MPD2    C4 1771   0.962   0.415   0.218  0.2236  0.3138 -0.6828
  116MPD2    C5 1772   0.886   0.317   0.165  0.5203 -0.8074  0.4288
  116MPD2     H 1773   1.265   0.293   0.145  0.0995 -1.3382  0.4434
  116MPD2    H1 1774   0.905   0.498   0.259  0.0982  0.8713 -1.9849
  116MPD2    H2 1775   0.868   0.123   0.082  0.3220 -0.7829  1.3610
  116MPD2    H3 1776   0.778   0.319   0.176  0.4136  0.2981 -0.8330
  116MPD2     N 1777   1.168   0.528   0.248  0.1107 -0.5302  0.4305
  116MPD2    H5 1778   1.112   0.608   0.277 -0.3479 -0.7396  0.1199
  116MPD2    N1 1779   1.138   0.094   0.027 -0.8870  0.2253  0.6467
  116MPD2    H7 1780   1.072   0.027  17.692  0.7848 -1.1543  0.1596
  117TMC2    C1 1781   0.467   2.408  14.453  0.8301 -0.1128  0.1118
  117TMC2    C2 1782   0.554   2.431  14.554 -0.0633 -0.9896  0.5368
  117TMC2    C3 1783   0.681   2.462  14.531 -0.5481  0.4028  0.5312
  117TMC2    C4 1784   0.506   2.423  14.323  0.5000  0.0059  0.3363
  117TMC2    C5 1785   0.639   2.458  14.303  0.4673 -0.8868  0.0622
  117TMC2    C6 1786   0.729   2.471  14.405 -0.1450 -0.1943 -0.0468
  117TMC2     C 1787   0.327   2.376  14.485 -0.1879  0.1358 -0.3209
  117TMC2     O 1788   0.294   2.327  14.591  0.6215 -0.3134  0.7478
  117TMC2     H 1789   0.515   2.420  14.654  1.0629 -0.0552  1.0715
  117TMC2    H1 1790   0.434   2.409  14.243 -0.0652  1.4941  0.5744
  117TMC2    H2 1791   0.828   2.507  14.379 -1.6128  2.0537 -2.4515
  117TMC2    C7 1792   0.682   2.504  14.173 -0.1737  0.0921  0.3651
  117TMC2    C8 1793   0.740   2.538  14.638 -0.3227  0.1869  0.3535
  117TMC2    O1 1794   0.796   2.542  14.150 -0.0050  0.3273 -0.2255
  117TMC2    O2 1795   0.681   2.623  14.700 -0.0658 -0.2720  0.2746
  117TMC2    O5 1796   0.875   2.543  14.619 -0.0141  0.7909 -0.6066
  117TMC2    H5 1797   0.904   2.453  14.594 -0.2478  0.1911  1.2863
  118MPD2     C 1798   0.517   2.480  13.853 -0.3686  0.4552  0.3338
  118MPD2    C1 1799   0.593   2.541  13.949 -0.3951 -0.2770  0.0752
  118MPD2    C2 1800   0.656   2.664  13.933  0.8288 -0.2648 -0.9080
  118MPD2    C3 1801   0.644   2.719  13.809  0.3548 -0.0560  0.1962
  118MPD2    C4 1802   0.576   2.649  13.709  0.2744 -0.3404 -0.3251
  118MPD2    C5 1803   0.506   2.533  13.727  0.8088 -0.1406 -0.4393
  118MPD2     H 1804   0.698   2.716  14.019 -1.8293 -3.2879  2.2071
  118MPD2    H1 1805   0.571   2.697  13.611 -2.1855  0.1118  0.0124
  118MPD2    H2 1806   0.450   2.397  13.872 -0.5401  1.1473  2.7566
  118MPD2    H3 1807   0.447   2.487  13.648 -1.1133  2.0183 -0.2641
  118MPD2     N 1808   0.714   2.834  13.764 -0.0617 -0.0248  0.2642
  118MPD2    H5 1809   0.711   2.849  13.663 -0.2828  1.2200  0.4536
  118MPD2    N1 1810   0.582   2.497  14.080  0.2848  0.5762  0.6606
  118MPD2    H7 1811   0.502   2.436  14.093 -0.2547  1.6924  2.4275
  119MPD2     C 1812   2.587   4.374  13.128 -0.7300 -0.0168  0.0439
  119MPD2    C1 1813   2.702   4.311  13.166 -0.6161 -0.0325 -0.2506
  119MPD2    C2 1814   2.802   4.300  13.073  0.5791  0.8507  0.7187
  119MPD2    C3 1815   2.791   4.339  12.945 -0.2227  0.1108  0.7124
  119MPD2    C4 1816   2.674   4.409  12.906  0.4812 -0.5561  0.3837
  119MPD2    C5 1817   2.572   4.418  12.998  0.3662 -0.3410 -0.1522
  119MPD2     H 1818   2.895   4.257  13.107  0.7832 -0.0162 -0.9515
  119MPD2    H1 1819   2.648   4.431  12.803 -1.2705  0.6981  1.0968
  119MPD2    H2 1820   2.510   4.386  13.203 -0.7833 -0.4942  0.0689
  119MPD2    H3 1821   2.475   4.452  12.963  0.6529 -1.9295 -2.4371
  119MPD2     N 1822   2.888   4.317  12.843 -0.8625 -0.2492 -0.0577
  119MPD2    H5 1823   2.875   4.377  12.763  0.9451  3.0792  2.1726
  119MPD2    N1 1824   2.718   4.251  13.292 -1.1220  0.2495 -0.5280
  119MPD2    H7 1825   2.634   4.240  13.348 -0.0612 -0.1934  0.9613
  120TCq2    C1 1826   2.983   4.220  12.844 -0.5536  0.5458  0.4636
  120TCq2    O2 1827   3.071   4.209  12.766 -0.2613  0.1965 -0.8530
  120TCq2    C2 1828   2.965   4.099  12.931  0.3435  0.1099 -0.5657
  120TCq2    C3 1829   3.084   4.032  12.951 -1.0656 -0.4210 -0.2381
  120TCq2    C4 1830   3.081   3.921  13.024  0.6818  0.2804  0.1166
  120TCq2    C5 1831   2.965   3.870  13.074  0.4486 -0.0632 -0.0289
  120TCq2    C6 1832   2.845   3.930  13.040  0.8276 -0.0672 -0.1474
  120TCq2    C7 1833   2.848   4.040  12.966 -0.3206 -0.3663  0.3492
  120TCq2    C8 1834   2.724   3.892  13.108  0.2821  0.4546 -0.0633
  120TCq2    O4 1835   2.632   3.960  13.071  0.3034  0.0768  0.0788
  120TCq2    C9 1836   3.200   3.849  13.055  0.4304 -0.0975  0.6058
  120TCq2    O5 1837   3.191   3.762  13.143  0.4068  0.2215 -0.3407
  120TCq2    O6 1838   3.301   3.861  12.978 -0.6861  0.2392 -0.5031
  120TCq2    H2 1839   3.176   4.084  12.926 -2.8362  3.9764  2.4366
  120TCq2    H3 1840   2.976   3.775  13.126 -0.2746 -1.2154 -2.0158
  120TCq2    H4 1841   2.754   4.089  12.943 -1.1882 -2.0565  0.3304
  121TMC2    C1 1842   4.639   0.722  14.444  0.2705 -1.0258  0.1010
  121TMC2    C2 1843   4.644   0.699  14.581  0.3343 -0.2230  0.3245
  121TMC2    C3 1844   4.583   0.586  14.623 -0.3183  0.3119  0.2600
  121TMC2    C4 1845   4.572   0.640  14.355  0.3955  0.0653  0.0347
  121TMC2    C5 1846   4.503   0.538  14.408  0.1375  0.1343  0.5814
  121TMC2    C6 1847   4.505   0.509  14.543  0.2142  0.5557  0.6008
  121TMC2     C 1848   0.008   0.823  14.394 -0.5435  0.6352 -0.0204
  121TMC2     O 1849   0.082   0.868  14.482  0.2557 -0.3812 -0.0182
  121TMC2     H 1850   4.701   0.760  14.650  0.2504  1.8441 -1.4178
  121TMC2    H1 1851   4.572   0.662  14.249  1.0040 -2.2054 -0.4341
  121TMC2    H2 1852   4.431   0.436  14.576  2.1467 -2.2546 -1.3309
  121TMC2    C7 1853   4.428   0.453  14.321  0.0218 -0.0000  0.5869
  121TMC2    C8 1854   4.554   0.578  14.764 -0.7448  0.3250 -0.3946
  121TMC2    O1 1855   4.416   0.334  14.354 -0.5083 -0.0314 -0.1058
  121TMC2    O2 1856   4.641   0.606  14.849 -0.0039 -0.3566  0.3333
  121TMC2    O5 1857   4.425   0.539  14.786 -0.0520 -0.4125  0.3597
  121TMC2    H5 1858   4.379   0.561  14.702  1.9473 -0.9161 -0.8577
  122MPD2     C 1859   0.127   1.058  14.267 -0.1908 -0.2921  0.4008
  122MPD2    C1 1860   0.077   0.949  14.190  0.0386  0.4098 -0.4617
  122MPD2    C2 1861   0.074   0.960  14.052  0.0649  0.6275  0.5482
  122MPD2    C3 1862   0.139   1.063  13.989  0.4766 -0.4335 -0.2678
  122MPD2    C4 1863   0.190   1.165  14.062  0.3775  0.3146 -0.1886
  122MPD2    C5 1864   0.178   1.167  14.200 -0.3949  0.1189  0.6279
  122MPD2     H 1865   0.025   0.885  13.992 -0.3107  0.6623  0.8037
  122MPD2    H1 1866   0.256   1.238  14.015  1.0938 -0.3717 -0.2502
  122MPD2    H2 1867   0.105   1.063  14.373  1.2857 -1.1193  0.7443
  122MPD2    H3 1868   0.221   1.249  14.256  0.5618  0.2451 -0.2844
  122MPD2     N 1869   0.148   1.077  13.849  0.7909 -0.2853  0.1529
  122MPD2    H5 1870   0.193   1.165  13.826  0.7629 -0.2433  0.2585
  122MPD2    N1 1871   0.006   0.849  14.260  0.1047 -0.0518 -0.0638
  122MPD2    H7 1872   4.678   0.789  14.197  1.2523 -1.7089  0.5524
  123MPD2     C 1873   2.822   2.019   9.386 -0.1600 -0.3832  0.4626
  123MPD2    C1 1874   2.771   2.098   9.493  0.5246 -0.6576 -0.3511
  123MPD2    C2 1875   2.853   2.179   9.558 -0.0082 -0.4275 -0.1709
  123MPD2    C3 1876   2.989   2.196   9.518 -0.2343  0.5430  0.5597
  123MPD2    C4 1877   3.034   2.127   9.411 -0.7217 -0.5941 -0.1914
  123MPD2    C5 1878   2.952   2.048   9.342 -0.4858 -0.2921  0.2027
  123MPD2     H 1879   2.807   2.231   9.642  2.6474  0.6880  0.5848
  123MPD2    H1 1880   3.141   2.121   9.394 -0.7809 -0.6511 -0.5528
  123MPD2    H2 1881   2.763   1.947   9.331 -0.0927  0.2380 -0.4276
  123MPD2    H3 1882   2.988   1.981   9.265 -0.8008 -0.1188 -0.0972
  123MPD2     N 1883   3.081   2.282   9.585 -0.6702 -0.8486 -0.3881
  123MPD2    H5 1884   3.171   2.299   9.540 -0.2261  1.7774  1.4439
  123MPD2    N1 1885   2.629   2.076   9.513 -0.1860  0.0845  0.3905
  123MPD2    H7 1886   2.588   1.998   9.463  0.5213 -1.3885  2.1035
  124TCq2    C1 1887   3.055   2.342   9.705  0.3248  0.2119 -0.4839
  124TCq2    O2 1888   2.963   2.326   9.782  0.4604 -0.6672 -0.2436
  124TCq2    C2 1889   3.143   2.451   9.734 -0.3062 -0.0521 -0.1876
  124TCq2    C3 1890   3.231   2.497   9.640 -0.1089 -0.2566  0.7971
  124TCq2    C4 1891   3.346   2.553   9.679 -0.3697  0.2373  0.3684
  124TCq2    C5 1892   3.367   2.592   9.813  0.3186 -0.3550 -0.0775
  124TCq2    C6 1893   3.270   2.556   9.902 -0.9833  0.1316 -0.8944
  124TCq2    C7 1894   3.161   2.480   9.869  0.2609  0.4163  0.5436
  124TCq2    C8 1895   3.302   2.557  10.041  0.3847 -0.5413  0.9063
  124TCq2    O4 1896   3.213   2.540  10.121  0.1008  0.6967  0.1209
  124TCq2    C9 1897   3.445   2.598   9.582 -0.6622 -0.4275 -1.1018
  124TCq2    O5 1898   3.544   2.659   9.635  0.6760  0.0296 -0.3310
  124TCq2    O6 1899   3.433   2.542   9.473  0.0834 -0.0534 -0.8154
  124TCq2    H2 1900   3.204   2.490   9.535  1.1600 -1.9236  0.5853
  124TCq2    H3 1901   3.444   2.664   9.840 -0.4277 -0.9203  3.5364
  124TCq2    H4 1902   3.092   2.438   9.941  0.3755 -2.6760 -1.1234
  125TMC2    C1 1903   3.440   4.279   9.479  0.7803  0.0736 -0.1200
  125TMC2    C2 1904   3.353   4.336   9.394  0.4829 -0.0380  0.0577
  125TMC2    C3 1905   3.322   4.464   9.422 -0.0358 -0.3566  0.3844
  125TMC2    C4 1906   3.505   4.342   9.581 -0.0544 -0.4621  0.0284
  125TMC2    C5 1907   3.475   4.469   9.599  0.1307 -0.4016 -0.5703
  125TMC2    C6 1908   3.384   4.535   9.521 -0.0373  0.0522 -0.2527
  125TMC2     C 1909   3.480   4.139   9.463 -0.5011 -0.1267 -0.2696
  125TMC2     O 1910   3.584   4.101   9.514 -0.2835  0.1654 -0.0019
  125TMC2     H 1911   3.319   4.291   9.302  3.5545 -0.9395 -0.6235
  125TMC2    H1 1912   3.578   4.293   9.644 -0.0944 -1.6443 -0.8579
  125TMC2    H2 1913   3.355   4.637   9.542 -0.6098 -0.3916  1.1050
  125TMC2    C7 1914   3.526   4.544   9.709  0.3655 -0.0838  0.2192
  125TMC2    C8 1915   3.267   4.544   9.314 -0.2968 -0.4345  0.1462
  125TMC2    O1 1916   3.441   4.592   9.782 -0.2089  0.2641 -0.0395
  125TMC2    O2 1917   3.172   4.617   9.326 -0.4216 -0.5150 -0.2455
  125TMC2    O5 1918   3.370   4.558   9.229 -0.0414 -0.5156  0.3429
  125TMC2    H5 1919   3.440   4.490   9.246  0.1740 -0.4505 -0.2840
  126MPD1     C 1920   3.347   3.664   9.374  1.0649 -0.4546 -0.4296
  126MPD1    C1 1921   3.251   3.740   9.312 -0.1750 -0.2864 -0.1543
  126MPD1    C2 1922   3.270   3.877   9.326  0.1541 -0.1631 -0.1151
  126MPD1    C3 1923   3.374   3.931   9.396  0.4488  0.0217  0.0924
  126MPD1    C4 1924   3.470   3.849   9.450  0.0007 -0.3440 -0.2604
  126MPD1    C5 1925   3.457   3.714   9.439  0.2659  0.4306  0.3992
  126MPD1     H 1926   3.195   3.942   9.280 -0.6759 -0.0273  1.4407
  126MPD1    H1 1927   3.558   3.880   9.504 -0.2779  2.1521 -1.2708
  126MPD1    H2 1928   3.335   3.557   9.375  0.8205 -0.4505 -1.9528
  126MPD1    H3 1929   3.539   3.651   9.472 -1.8324 -1.0536  2.7752
  126MPD1     N 1930   3.377   4.066   9.404 -0.3321  0.2119 -0.2450
  126MPD1    H5 1931   3.308   4.120   9.353  0.2942  0.3624 -0.9544
  126MPD1    N1 1932   3.129   3.697   9.265  0.8365  0.1755  0.1576
  126MPD1    H6 1933   3.098   3.759   9.191  4.3075  1.9626  0.1988
  126MPD1    H7 1934   3.135   3.603   9.227  0.5013  0.2521 -0.0924
  127MPD2     C 1935   0.678   4.110   9.562  0.2756 -0.4157 -0.5083
  127MPD2    C1 1936   0.550   4.124   9.616 -0.5243 -0.0461  0.3521
  127MPD2    C2 1937   0.544   4.150   9.754  0.2963  0.4736  0.3256
  127MPD2    C3 1938   0.660   4.159   9.827 -0.1233 -0.0850 -0.2310
  127MPD2    C4 1939   0.785   4.141   9.769 -0.7860  0.1291 -0.2316
  127MPD2    C5 1940   0.793   4.116   9.637  0.0105  0.2379  0.4466
  127MPD2     H 1941   0.447   4.172   9.798 -0.6727 -1.6219 -0.7076
  127MPD2    H1 1942   0.884   4.147   9.813 -1.1656  0.8603  0.5330
  127MPD2    H2 1943   0.685   4.077   9.459 -0.7716  0.8367 -0.9758
  127MPD2    H3 1944   0.886   4.090   9.586  1.2559  1.8378  1.8897
  127MPD2     N 1945   0.651   4.199   9.961  0.2199  0.4730  0.2730
  127MPD2    H5 1946   0.561   4.227   9.999  0.3885 -2.4825  2.8244
  127MPD2    N1 1947   0.437   4.094   9.532 -0.2240  0.1743  0.2085
  127MPD2    H7 1948   0.449   4.074   9.434 -2.0212 -0.4163  0.1038
  128TCq2    C1 1949   0.305   4.114   9.565 -1.0882  0.7833  0.1232
  128TCq2    O2 1950   0.257   4.136   9.675  0.1220 -0.8169  0.2198
  128TCq2    C2 1951   0.225   4.098   9.446  0.1894  0.7624  0.0003
  128TCq2    C3 1952   0.277   4.135   9.325  0.2020  0.3200  0.7054
  128TCq2    C4 1953   0.192   4.138   9.217  0.2240 -0.0267 -0.3115
  128TCq2    C5 1954   0.068   4.090   9.237 -0.2045 -0.6144  0.2313
  128TCq2    C6 1955   0.022   4.072   9.358 -0.7775  0.4040 -0.0610
  128TCq2    C7 1956   0.102   4.061   9.466  0.1330 -0.2251  0.5795
  128TCq2    C8 1957   4.608   4.042   9.372  0.4838 -0.1549 -0.1596
  128TCq2    O4 1958   4.527   4.072   9.292  0.3024  0.5114  0.2140
  128TCq2    C9 1959   0.246   4.172   9.090 -0.1414  0.2064 -0.6369
  128TCq2    O5 1960   0.367   4.200   9.079  0.5098 -0.0161  0.0487
  128TCq2    O6 1961   0.170   4.162   8.993  0.1417 -0.5394  0.1091
  128TCq2    H2 1962   0.369   4.190   9.314  0.6984 -0.6206  0.1000
  128TCq2    H3 1963   0.002   4.085   9.151 -0.6826 -1.8069  0.6654
  128TCq2    H4 1964   0.067   4.049   9.568 -1.7774 -0.3252 -0.0811
  129MPD2     C 1965   3.286   4.567   1.139 -0.5188  0.0979  0.1758
  129MPD2    C1 1966   3.358   4.585   1.262  0.5785  0.4721  0.0783
  129MPD2    C2 1967   3.493   4.612   1.268  0.1975 -0.0018  0.3350
  129MPD2    C3 1968   3.552   4.655   1.149 -0.1744  0.1256  0.3607
  129MPD2    C4 1969   3.480   4.648   1.027  0.2690 -0.4153 -0.2758
  129MPD2    C5 1970   3.347   4.612   1.026  0.2176 -0.2194  0.6176
  129MPD2     H 1971   3.544   4.604   1.364 -0.7266  1.6254  0.9599
  129MPD2    H1 1972   3.532   4.645   0.932 -1.0477 -1.7909 -0.9446
  129MPD2    H2 1973   3.190   4.516   1.138 -0.7169  0.4712  0.2341
  129MPD2    H3 1974   3.286   4.612   0.936  0.9736  1.6859  0.1138
  129MPD2     N 1975   3.693   4.691   1.154 -0.4081 -0.4256 -0.4695
  129MPD2    H5 1976   3.733   4.702   1.247  0.8685  2.2259 -1.3496
  129MPD2    N1 1977   3.299   4.545   1.380 -0.4092  0.0507  0.2361
  129MPD2    H7 1978   3.356   4.524   1.461  0.0640 -0.8320 -0.3200
  130TCq2    C1 1979   3.164   4.514   1.404 -0.5010  0.1966 -0.0853
  130TCq2    O2 1980   3.068   4.534   1.333 -0.1732  0.5252  0.1643
  130TCq2    C2 1981   3.151   4.445   1.532  0.4459  0.8014  0.5469
  130TCq2    C3 1982   3.253   4.447   1.617 -0.5893  0.7175 -0.0595
  130TCq2    C4 1983   3.252   4.354   1.722  0.3754 -0.4792  0.5932
  130TCq2    C5 1984   3.153   4.262   1.737 -0.2057  0.0172 -0.1671
  130TCq2    C6 1985   3.067   4.254   1.632  0.5941  0.0783 -0.3309
  130TCq2    C7 1986   3.069   4.337   1.527 -0.2210  0.0046 -0.1079
  130TCq2    C8 1987   2.947   4.179   1.642  0.1252  0.1097 -0.6782
  130TCq2    O4 1988   2.860   4.193   1.560  0.2965 -0.1935 -0.0840
  130TCq2    C9 1989   3.337   4.377   1.831 -0.1133 -0.6502  0.2366
  130TCq2    O5 1990   3.434   4.452   1.812 -0.2389 -0.0414 -0.0814
  130TCq2    O6 1991   3.315   4.330   1.952  0.2153 -0.9208  0.2582
  130TCq2    H2 1992   3.316   4.535   1.620  2.2588 -1.3039 -0.9278
  130TCq2    H3 1993   3.150   4.176   1.803  0.0642 -1.2194 -1.7385
  130TCq2    H4 1994   2.985   4.335   1.458 -0.0748  1.6394 -0.3379
  131MPD2     C 1995   2.097   2.877   9.731  0.8444  0.1749 -0.2211
  131MPD2    C1 1996   2.232   2.844   9.734  0.4687  0.4880 -0.4639
  131MPD2    C2 1997   2.267   2.709   9.742  0.0085  0.4232  0.9637
  131MPD2    C3 1998   2.173   2.608   9.742  0.4462  0.3621  0.0245
  131MPD2    C4 1999   2.037   2.644   9.742 -0.9699  0.1733 -0.1952
  131MPD2    C5 2000   2.005   2.778   9.734  0.0911  0.2080  0.4800
  131MPD2     H 2001   2.372   2.683   9.756 -0.2643 -0.9842  0.4187
  131MPD2    H1 2002   1.957   2.572   9.729 -0.0708 -0.4395 -2.3423
  131MPD2    H2 2003   2.060   2.978   9.726 -1.0248 -0.5699 -1.1702
  131MPD2    H3 2004   1.899   2.798   9.726  0.8014  2.5666 -3.0932
  131MPD2     N 2005   2.220   2.480   9.727 -0.0144 -0.4799 -0.0097
  131MPD2    H5 2006   2.320   2.468   9.736  0.2195  1.3309 -0.1773
  131MPD2    N1 2007   2.320   2.951   9.747 -0.3683  0.2674 -0.0582
  131MPD2    H7 2008   2.280   3.044   9.748  3.1267  1.7668  1.4952
  132TCq2    C1 2009   2.885   3.170   9.757 -0.3110 -0.5896  0.5816
  132TCq2    O2 2010   2.940   3.065   9.733 -0.3287 -0.3534 -0.3537
  132TCq2    C2 2011   2.732   3.179   9.770 -0.4820 -0.0570 -0.6572
  132TCq2    C3 2012   2.677   3.298   9.754 -0.1218  0.5816  0.2353
  132TCq2    C4 2013   2.538   3.301   9.739  0.0729 -0.4927 -0.0835
  132TCq2    C5 2014   2.462   3.187   9.739 -1.3672 -0.3314 -0.0342
  132TCq2    C6 2015   2.524   3.065   9.753 -0.8538 -0.4761 -1.2670
  132TCq2    C7 2016   2.666   3.063   9.758 -0.2385 -0.2225 -0.5476
  132TCq2    C8 2017   2.453   2.940   9.763  0.6153  0.8469  0.3492
  132TCq2    O4 2018   2.522   2.843   9.781  0.5027  0.2383  0.6131
  132TCq2    C9 2019   2.476   3.426   9.720 -0.0778 -0.2101  0.1354
  132TCq2    O5 2020   2.543   3.526   9.750  0.5794 -1.0346 -0.4953
  132TCq2    O6 2021   2.355   3.429   9.689 -0.5991 -0.1191  0.5827
  132TCq2    H2 2022   2.728   3.394   9.759  1.6960 -0.1385 -4.4181
  132TCq2    H3 2023   2.357   3.200   9.765 -1.1329 -0.5190  0.9978
  132TCq2    H4 2024   2.725   2.972   9.766 -1.1092 -0.4421  3.3818
  133MPD2     C 2025   2.013   4.620   9.516 -0.4286  0.8097  0.0951
  133MPD2    C1 2026   2.055   4.490   9.483  0.8216  0.3784 -0.0200
  133MPD2    C2 2027   1.968   4.397   9.430  0.2010 -0.7627  0.5384
  133MPD2    C3 2028   1.841   4.439   9.388  0.1792  0.4611  0.2299
  133MPD2    C4 2029   1.805   4.572   9.400  0.2074  0.3555 -0.3322
  133MPD2    C5 2030   1.891   4.658   9.469  0.0467 -1.1829  0.1453
  133MPD2     H 2031   1.992   4.292   9.437 -1.7868 -1.2775 -0.4859
  133MPD2    H1 2032   1.706   4.608   9.375 -0.1935 -0.5930 -0.1024
  133MPD2    H2 2033   2.077   4.695   9.561  2.1365 -2.0893  1.3581
  133MPD2    H3 2034   1.856   0.033   9.491  0.7931 -1.2264  1.5232
  133MPD2     N 2035   1.747   4.343   9.342  0.2753  0.0864  0.0223
  133MPD2    H5 2036   1.654   4.383   9.336  0.3743  0.0963 -1.4219
  133MPD2    N1 2037   2.189   4.468   9.496 -0.1138  0.1700  0.2005
  133MPD2    H7 2038   2.245   4.546   9.531  0.1040 -0.1548  0.5892
  134TCq2    C1 2039   2.259   4.349   9.467 -0.4622  1.0896 -0.6261
  134TCq2    O2 2040   2.214   4.239   9.432 -0.1744  0.2982 -0.1240
  134TCq2    C2 2041   2.401   4.361   9.477 -0.7229  0.4816 -0.0585
  134TCq2    C3 2042   2.465   4.242   9.441 -0.1757 -0.1341 -0.0246
  134TCq2    C4 2043   2.587   4.210   9.495 -0.3513  0.0359 -0.3560
  134TCq2    C5 2044   2.646   4.289   9.594 -0.3814 -0.2180 -0.3914
  134TCq2    C6 2045   2.581   4.410   9.624 -0.4724  0.8655 -0.2005
  134TCq2    C7 2046   2.458   4.446   9.571  0.0005  0.2635  0.1896
  134TCq2    C8 2047   2.646   4.507   9.716 -0.6667  0.5257  0.9035
  134TCq2    O4 2048   2.717   4.460   9.804  0.6198  0.8346  0.5097
  134TCq2    C9 2049   2.651   4.082   9.467  0.6663 -0.0969  0.1109
  134TCq2    O5 2050   2.724   4.040   9.559  0.3795  0.5170  0.3765
  134TCq2    O6 2051   2.601   4.010   9.378  0.6601  0.0589 -0.0960
  134TCq2    H2 2052   2.423   4.163   9.381 -0.7188 -2.1829  3.0896
  134TCq2    H3 2053   2.745   4.270   9.634  0.4512 -0.7423 -2.6756
  134TCq2    H4 2054   2.400   4.519   9.626  0.1469 -0.4937  1.3621
  135MPD2     C 2055   4.517   0.335   9.946 -0.0248  0.6612 -0.5366
  135MPD2    C1 2056   4.582   0.244   9.866  0.3538 -0.2118  0.0825
  135MPD2    C2 2057   4.721   0.218   9.891  0.3394 -0.2614  0.3292
  135MPD2    C3 2058   0.062   0.285   9.990  0.1839  0.1740  0.0853
  135MPD2    C4 2059   4.714   0.374  10.068 -0.0549  0.2125 -0.2951
  135MPD2    C5 2060   4.586   0.401  10.039 -0.1369  0.4358  0.4778
  135MPD2     H 2061   0.047   0.140   9.836  0.4424  1.0125 -1.4244
  135MPD2    H1 2062   0.027   0.418  10.159  3.6675 -1.0548 -1.2296
  135MPD2    H2 2063   4.413   0.363   9.933 -0.7644 -0.2453  3.4922
  135MPD2    H3 2064   4.528   0.463  10.107 -0.6479  0.6411 -0.1400
  135MPD2     N 2065   0.193   0.261  10.035 -0.6962 -0.2549 -0.4159
  135MPD2    H5 2066   0.238   0.318  10.106 -1.4146  1.0508 -0.9928
  135MPD2    N1 2067   4.521   0.178   9.763  0.5371 -0.1237  0.0204
  135MPD2    H7 2068   4.582   0.111   9.718 -1.6235 -2.1718  0.1792
  136TCq2    C1 2069   4.389   0.188   9.722  0.2278 -0.0612  0.1646
  136TCq2    O2 2070   4.301   0.252   9.777  0.0373 -0.5670 -0.0935
  136TCq2    C2 2071   4.356   0.098   9.608 -0.3503  0.3279 -0.1252
  136TCq2    C3 2072   4.456   0.029   9.546 -0.2213  0.1239  0.3728
  136TCq2    C4 2073   4.427   4.673   9.443 -0.6834 -0.0402  0.2261
  136TCq2    C5 2074   4.295   4.645   9.409 -0.2134  0.3618 -0.0403
  136TCq2    C6 2075   4.200   4.713   9.478  0.4366  0.3438 -0.4110
  136TCq2    C7 2076   4.229   0.078   9.574 -0.0924 -0.4266 -0.1912
  136TCq2    C8 2077   4.067   4.716   9.423  0.1568  0.3478 -0.3101
  136TCq2    O4 2078   4.056   4.656   9.317  0.4163  0.2252 -0.4228
  136TCq2    C9 2079   4.537   4.595   9.380 -0.4342  0.5675 -0.1746
  136TCq2    O5 2080   4.504   4.524   9.281  0.7452 -0.5694 -0.1830
  136TCq2    O6 2081   4.657   4.634   9.408 -0.0796  0.2221 -0.1397
  136TCq2    H2 2082   4.561   0.031   9.575 -0.3584  0.4679  0.8430
  136TCq2    H3 2083   4.285   4.572   9.330 -0.9374 -0.9238  1.2124
  136TCq2    H4 2084   4.159   0.151   9.613  0.3087  0.2231 -0.6687
  137MPD2     C 2085   4.499   4.599  10.380  0.4970 -0.4936 -0.2736
  137MPD2    C1 2086   4.381   4.542  10.343  0.3222  0.1506 -0.5838
  137MPD2    C2 2087   4.261   4.597  10.387 -0.0123  0.2629 -1.0358
  137MPD2    C3 2088   4.264   4.708  10.469  0.0807  0.0140 -0.5195
  137MPD2    C4 2089   4.385   0.041  10.503 -0.2999  0.2357 -0.1396
  137MPD2    C5 2090   4.503   4.706  10.465  0.2087 -0.5684 -1.0990
  137MPD2     H 2091   4.170   4.546  10.359 -0.3971  1.0083 -1.1551
  137MPD2    H1 2092   4.389   0.118  10.580  0.6987 -0.3886  0.4392
  137MPD2    H2 2093   4.596   4.563  10.348  0.6086  0.0300 -0.5272
  137MPD2    H3 2094   4.598   0.026  10.488 -2.1443  3.0674  1.3630
  137MPD2     N 2095   4.144   0.039  10.513  0.0027 -0.3650 -0.8381
  137MPD2    H5 2096   4.054   4.722  10.491 -0.0062 -0.2047 -1.1120
  137MPD2    N1 2097   4.401   4.440  10.246  0.4595 -0.6579 -0.1213
  137MPD2    H7 2098   4.495   4.408  10.229  0.2328 -2.0957  1.2567
  138TCq2    C1 2099   4.303   4.389  10.165  0.3017  0.1586  0.2536
  138TCq2    O2 2100   4.182   4.407  10.164 -0.1811  0.0691  0.0012
  138TCq2    C2 2101   4.357   4.272  10.086 -0.2883  0.1896 -0.2430
  138TCq2    C3 2102   4.490   4.264  10.072  0.7706  0.5268  0.1897
  138TCq2    C4 2103   4.530   4.154  10.001 -0.0747  0.3493  0.5771
  138TCq2    C5 2104   4.448   4.050   9.975  0.3785 -0.3905  0.2409
  138TCq2    C6 2105   4.314   4.061   9.998 -0.3042 -0.0932  0.0679
  138TCq2    C7 2106   4.265   4.177  10.043  0.3684  0.1984 -0.6089
  138TCq2    C8 2107   4.234   3.939  10.014  0.1786 -0.0892 -0.2438
  138TCq2    O4 2108   4.292   3.838  10.052  0.1632  0.4348 -0.4466
  138TCq2    C9 2109   4.665   4.157   9.961 -0.9204 -0.2010  0.3150
  138TCq2    O5 2110   0.004   4.050   9.958 -0.0924 -0.1413  0.8118
  138TCq2    O6 2111   4.702   4.263   9.904 -0.4485 -0.3481 -0.1313
  138TCq2    H2 2112   4.564   4.333  10.112  0.5508  0.8181  0.1001
  138TCq2    H3 2113   4.494   3.960   9.935  1.1276 -0.3052  0.9069
  138TCq2    H4 2114   4.159   4.189  10.064  0.6926  0.0565  1.0973
  139TMC2    C1 2115   4.055   3.093  13.094 -0.0281 -0.2908  0.5955
  139TMC2    C2 2116   4.032   3.112  12.962  0.7301 -0.4719 -0.1805
  139TMC2    C3 2117   3.971   3.227  12.921 -0.4367 -0.4357 -0.5096
  139TMC2    C4 2118   4.032   3.185  13.194 -0.2862 -0.1996  0.2995
  139TMC2    C5 2119   3.949   3.287  13.152 -0.7560  0.7248 -0.0434
  139TMC2    C6 2120   3.912   3.307  13.019 -0.3054 -0.6932  0.0476
  139TMC2     C 2121   4.161   3.001  13.109  0.3015  0.5911 -0.3362
  139TMC2     O 2122   4.163   2.904  13.040 -0.4757  0.0598 -0.1586
  139TMC2     H 2123   4.073   3.047  12.886 -0.9286 -2.2011  0.4232
  139TMC2    H1 2124   4.017   3.155  13.297 -0.8544 -1.4146 -0.1397
  139TMC2    H2 2125   3.855   3.395  12.993  2.6360  0.4369 -2.5203
  139TMC2    C7 2126   3.888   3.378  13.242 -0.5695 -0.8841  0.3904
  139TMC2    C8 2127   3.943   3.253  12.775 -0.6471 -0.1397 -0.2951
  139TMC2    O1 2128   3.808   3.460  13.196  0.1406  0.1431 -0.2057
  139TMC2    O2 2129   3.890   3.158  12.717  0.1851 -0.1472  0.4741
  139TMC2    O5 2130   3.905   3.385  12.764  0.4680 -0.4967 -0.2905
  139TMC2    H5 2131   3.969   3.436  12.817 -0.7901  1.5887 -0.7953
  140MPD2     C 2132   4.443   3.016  13.341  0.3692  0.3442  0.4091
  140MPD2    C1 2133   4.364   2.958  13.247 -0.0672 -0.3108  0.0552
  140MPD2    C2 2134   4.401   2.831  13.196  0.3265  0.7929 -0.2614
  140MPD2    C3 2135   4.514   2.768  13.230  0.6378 -0.0008  0.1238
  140MPD2    C4 2136   4.600   2.832  13.316 -0.3678 -0.1104 -0.3601
  140MPD2    C5 2137   4.556   2.949  13.368  1.1603  0.0679  0.5867
  140MPD2     H 2138   4.335   2.778  13.128 -1.5283  2.0253  0.5628
  140MPD2    H1 2139   4.696   2.791  13.346  0.3989  2.3853  0.6287
  140MPD2    H2 2140   4.428   3.114  13.385  0.9552  1.0280 -0.8754
  140MPD2    H3 2141   4.629   3.003  13.428  1.9200  0.5863 -0.7932
  140MPD2     N 2142   4.540   2.640  13.177 -0.1277 -0.0208 -0.7087
  140MPD2    H5 2143   4.473   2.597  13.114 -1.1072  1.7576 -0.8850
  140MPD2    N1 2144   4.245   3.032  13.212 -0.3066  0.0344 -0.7169
  140MPD2    H7 2145   4.235   3.119  13.264  2.7938 -0.2511  0.3598
  141TCq2    C1 2146   0.126   0.442  14.395  0.4028 -0.1819  0.9573
  141TCq2    O2 2147   0.177   0.534  14.330 -0.4974  0.0857 -0.5590
  141TCq2    C2 2148   0.153   0.450  14.540  0.3762 -0.1645  0.2304
  141TCq2    C3 2149   0.115   0.347  14.623 -0.2061 -0.1595 -0.3830
  141TCq2    C4 2150   0.135   0.360  14.755  0.9489 -0.3931 -0.9789
  141TCq2    C5 2151   0.201   0.467  14.805  0.6657  0.1274 -0.6242
  141TCq2    C6 2152   0.246   0.562  14.721 -0.8110  0.2609  0.3228
  141TCq2    C7 2153   0.219   0.554  14.586  0.4610 -0.1450 -0.1867
  141TCq2    C8 2154   0.316   0.671  14.779  0.2563  0.6945 -0.6492
  141TCq2    O4 2155   0.273   0.729  14.877 -0.2920  0.0527  0.2876
  141TCq2    C9 2156   0.063   0.272  14.842  0.9332  0.3599 -0.2571
  141TCq2    O5 2157   0.047   0.311  14.961 -0.1145  0.1746 -0.0725
  141TCq2    O6 2158   0.031   0.165  14.796  0.4060  0.0130  0.5437
  141TCq2    H2 2159   0.059   0.259  14.595 -2.4415  1.1031  0.1092
  141TCq2    H3 2160   0.211   0.485  14.912 -0.3177  1.0413 -0.6876
  141TCq2    H4 2161   0.260   0.630  14.521  0.3365  1.7552  1.9366
  142MPD2     C 2162   2.657   2.769  11.252  0.0828 -0.4209 -0.1779
  142MPD2    C1 2163   2.653   2.715  11.121  0.5985 -0.4787 -0.2743
  142MPD2    C2 2164   2.775   2.676  11.065 -0.2154 -0.4442 -0.4828
  142MPD2    C3 2165   2.899   2.696  11.119  0.8665  0.9394 -0.9923
  142MPD2    C4 2166   2.899   2.750  11.248 -0.6733  0.0186  0.1966
  142MPD2    C5 2167   2.780   2.782  11.310  0.0211 -0.4181  0.2292
  142MPD2     H 2168   2.774   2.618  10.973  0.0386 -1.3278  0.0729
  142MPD2    H1 2169   2.991   2.764  11.304 -0.1594  1.5866 -1.0419
  142MPD2    H2 2170   2.569   2.788  11.313  0.3102  0.1385 -0.0263
  142MPD2    H3 2171   2.786   2.822  11.410  0.0441 -1.9518  0.8414
  142MPD2     N 2172   3.024   2.665  11.059  0.6131 -0.0575 -0.1218
  142MPD2    H5 2173   3.106   2.697  11.109  0.7962  1.0659 -1.1263
  142MPD2    N1 2174   2.528   2.690  11.062 -0.3468 -0.7400  0.5341
  142MPD2    H7 2175   2.453   2.675  11.128 -0.4988  1.2640  0.8153
  143TCq2    C1 2176   3.041   2.625  10.935  0.3391 -0.0019  0.6335
  143TCq2    O2 2177   2.961   2.596  10.848  0.2713  0.4149 -0.3317
  143TCq2    C2 2178   3.177   2.642  10.881 -0.1372  0.1948 -0.1768
  143TCq2    C3 2179   3.279   2.666  10.968 -0.6876 -0.5074  0.1662
  143TCq2    C4 2180   3.405   2.688  10.912 -0.2936  0.0383  0.1184
  143TCq2    C5 2181   3.429   2.681  10.778  0.9006 -0.3145 -0.0399
  143TCq2    C6 2182   3.318   2.663  10.701  0.3286 -0.7547 -0.4184
  143TCq2    C7 2183   3.191   2.652  10.747  0.1477 -0.4753 -0.0129
  143TCq2    C8 2184   3.335   2.623  10.565 -0.3122  0.2180  0.4029
  143TCq2    O4 2185   3.237   2.628  10.493 -0.2038  0.4350  0.1820
  143TCq2    C9 2186   3.505   2.738  11.013 -0.2538  1.0798 -0.3089
  143TCq2    O5 2187   3.525   2.661  11.111 -0.0635 -0.4937  0.2825
  143TCq2    O6 2188   3.603   2.799  10.965  0.3662 -0.2346 -0.1290
  143TCq2    H2 2189   3.268   2.670  11.076  0.5535  0.9252  0.2451
  143TCq2    H3 2190   3.528   2.704  10.740  0.6449  1.0879  0.1343
  143TCq2    H4 2191   3.101   2.645  10.686 -0.6858  0.6142  1.0811
  144MPD2     C 2192   0.415   2.287   0.662  0.5033 -0.0107 -0.1570
  144MPD2    C1 2193   0.438   2.166   0.607 -0.5750 -0.4141 -0.4533
  144MPD2    C2 2194   0.537   2.084   0.654  0.3496  0.3119  0.4391
  144MPD2    C3 2195   0.622   2.126   0.760 -0.3992 -0.0567  0.4916
  144MPD2    C4 2196   0.594   2.249   0.821 -0.0561 -0.8953  0.4146
  144MPD2    C5 2197   0.495   2.328   0.771  0.0752  0.6069 -0.5915
  144MPD2     H 2198   0.553   1.985   0.612 -1.7094  1.5476 -3.2413
  144MPD2    H1 2199   0.657   2.285   0.901  1.2177 -0.2418 -0.8782
  144MPD2    H2 2200   0.334   2.356   0.640  1.3730  1.1439  0.2692
  144MPD2    H3 2201   0.474   2.418   0.827 -0.8593 -1.8133  2.9583
  144MPD2     N 2202   0.734   2.056   0.816 -0.1304  0.1399  0.3504
  144MPD2    H5 2203   0.782   2.104   0.891  0.8064  1.8152 -1.3263
  144MPD2    N1 2204   0.364   2.110   0.498  0.1338 -0.9462  0.3295
  144MPD2    H7 2205   0.383   2.014   0.470 -0.5339 -1.9640  3.4018
  145TCq2    C1 2206   0.795   1.952   0.756 -0.5049 -0.2581  0.5065
  145TCq2    O2 2207   0.764   1.892   0.655  0.1151 -0.0916 -0.2610
  145TCq2    C2 2208   0.919   1.911   0.813  0.0568 -0.0176 -0.9840
  145TCq2    C3 2209   0.999   1.835   0.739  0.2439 -0.8191 -0.5165
  145TCq2    C4 2210   1.111   1.769   0.790  1.1195 -0.5225  0.1585
  145TCq2    C5 2211   1.140   1.789   0.924  1.1023  0.3904  0.5459
  145TCq2    C6 2212   1.063   1.873   0.996 -0.2065 -0.0639  0.7060
  145TCq2    C7 2213   0.946   1.929   0.944 -1.4551 -0.4238 -0.0497
  145TCq2    C8 2214   1.106   1.910   1.131  0.0067 -0.5278 -0.6679
  145TCq2    O4 2215   1.187   1.837   1.184 -0.2002 -0.4077  0.4727
  145TCq2    C9 2216   1.198   1.692   0.705 -0.2327 -0.0431  0.5633
  145TCq2    O5 2217   1.286   1.621   0.762 -0.2371 -0.0026  0.0597
  145TCq2    O6 2218   1.152   1.665   0.590  0.6196 -0.1868 -0.1145
  145TCq2    H2 2219   0.983   1.813   0.634  2.5706  1.1072 -1.2813
  145TCq2    H3 2220   1.224   1.737   0.968  1.5483 -0.0153 -0.7863
  145TCq2    H4 2221   0.873   1.972   1.012 -0.0845 -2.3844  2.6680
  146TMC2    C1 2222   1.882   0.869  12.285 -0.2957  0.1013 -0.1985
  146TMC2    C2 2223   1.765   0.846  12.221 -0.5439 -0.4987  0.0991
  146TMC2    C3 2224   1.765   0.750  12.120  0.3092  0.5645 -0.0922
  146TMC2    C4 2225   1.995   0.796  12.262 -0.6746  0.2453 -0.1530
  146TMC2    C5 2226   1.991   0.702  12.161  0.2806  0.1808  1.0160
  146TMC2    C6 2227   1.880   0.682  12.090  0.5759  0.7104 -0.2980
  146TMC2     C 2228   1.875   0.972  12.389  0.2246  0.6432 -0.8598
  146TMC2     O 2229   1.783   1.050  12.387 -0.0363 -0.3549  0.4237
  146TMC2     H 2230   1.673   0.894  12.253 -0.0121 -0.5096  1.6315
  146TMC2    H1 2231   2.087   0.816  12.316 -0.7184  4.4208 -1.6456
  146TMC2    H2 2232   1.882   0.606  12.013  2.1011  1.4146 -0.9523
  146TMC2    C7 2233   2.110   0.631  12.121 -0.4911 -0.4246 -0.2813
  146TMC2    C8 2234   1.660   0.745  12.020  0.0246  0.1824  0.2021
  146TMC2    O1 2235   2.139   0.604  12.005 -0.1331  0.6069 -0.0673
  146TMC2    O2 2236   1.654   0.655  11.942 -0.5196 -0.1750 -0.7073
  146TMC2    O5 2237   1.653   0.869  11.977 -0.3138 -0.3672 -0.0381
  146TMC2    H5 2238   1.700   0.929  12.039 -0.4465  0.7082 -0.9636
  147MPD2     C 2239   2.591   0.494  12.253  0.0907  0.0315  0.5661
  147MPD2    C1 2240   2.516   0.538  12.368  0.2702  0.1889  0.2767
  147MPD2    C2 2241   2.383   0.575  12.353 -0.4274  0.2524 -0.3406
  147MPD2    C3 2242   2.321   0.564  12.225  0.6269  0.4170 -0.1029
  147MPD2    C4 2243   2.395   0.518  12.116  0.0222  0.7295  0.4704
  147MPD2    C5 2244   2.525   0.473  12.129  0.4697  0.0278 -0.1396
  147MPD2     H 2245   2.331   0.602  12.444  0.0259  0.4759 -0.1475
  147MPD2    H1 2246   2.354   0.519  12.016  0.4558 -1.1221  0.2636
  147MPD2    H2 2247   2.694   0.464  12.268  1.0575  2.4666 -1.1637
  147MPD2    H3 2248   2.580   0.437  12.043  2.1708  1.0058  0.5429
  147MPD2     N 2249   2.192   0.620  12.228  0.2395  0.5057 -0.3569
  147MPD2    H5 2250   2.154   0.646  12.318  1.3931 -0.3480  0.3714
  147MPD2    N1 2251   2.585   0.548  12.497  0.0869 -0.3032  0.0042
  147MPD2    H7 2252   2.680   0.513  12.508  0.7470  1.0427 -1.2317
  148MPD2     C 2253   3.210   3.885  10.107 -0.1350 -0.0115 -0.2165
  148MPD2    C1 2254   3.135   3.772  10.080 -0.2391 -0.2427 -0.3586
  148MPD2    C2 2255   2.997   3.791  10.090  0.8089 -0.0741 -0.5868
  148MPD2    C3 2256   2.944   3.915  10.122  0.2038 -0.6761 -0.5857
  148MPD2    C4 2257   3.018   4.022  10.146  0.1433 -0.6292  0.3885
  148MPD2    C5 2258   3.152   4.001  10.136  0.3971 -0.0036 -0.5817
  148MPD2     H 2259   2.928   3.710  10.070  0.6643 -0.0894 -0.0195
  148MPD2    H1 2260   2.977   4.120  10.169 -0.5299 -1.2172  1.6800
  148MPD2    H2 2261   3.318   3.880  10.108 -0.0869  0.8104 -2.1311
  148MPD2    H3 2262   3.221   4.081  10.159 -0.2827  0.4749 -0.1985
  148MPD2     N 2263   2.805   3.925  10.162  0.0458  0.0927 -0.1903
  148MPD2    H5 2264   2.774   4.020  10.181 -1.5550 -0.1146 -1.7393
  148MPD2    N1 2265   3.188   3.640  10.071 -0.4144 -0.5571 -0.0965
  148MPD2    H7 2266   3.125   3.563  10.050  0.9605 -1.2801 -1.5538
  149TCq2    C1 2267   3.322   3.604  10.077 -0.0098  1.0249 -0.5228
  149TCq2    O2 2268   3.425   3.672  10.066  0.1564  0.3629  0.4625
  149TCq2    C2 2269   3.325   3.460  10.063 -0.2113 -0.3470  0.1728
  149TCq2    C3 2270   3.434   3.403  10.001  0.1683  0.1386 -0.4719
  149TCq2    C4 2271   3.432   3.269   9.978 -0.7013  0.3627 -0.5628
  149TCq2    C5 2272   3.313   3.200   9.981 -0.1687  0.1869  0.0207
  149TCq2    C6 2273   3.211   3.258  10.047  0.7041  0.3248  0.0410
  149TCq2    C7 2274   3.212   3.388  10.088  0.0982  0.7473  0.3784
  149TCq2    C8 2275   3.088   3.185  10.069  0.2282 -0.5576 -0.3465
  149TCq2    O4 2276   2.991   3.251  10.096  0.2202  0.3041 -0.0109
  149TCq2    C9 2277   3.536   3.216   9.895  0.0019 -0.0848  1.1894
  149TCq2    O5 2278   3.639   3.281   9.863  0.4260 -0.5718  0.5803
  149TCq2    O6 2279   3.520   3.098   9.857  0.2666 -0.2210 -0.3919
  149TCq2    H2 2280   3.520   3.469  10.002  1.7594 -1.8734 -3.1511
  149TCq2    H3 2281   3.297   3.107   9.929  1.9602  1.8796 -3.6349
  149TCq2    H4 2282   3.123   3.424  10.138  0.5230  0.5928  1.2483
  150MPD2     C 2283   3.925   2.990  12.102  0.0534  0.1979 -0.6465
  150MPD2    C1 2284   3.853   3.098  12.069 -0.5089 -1.1960 -0.4156
  150MPD2    C2 2285   3.921   3.219  12.047 -0.2261  0.0674 -0.7023
  150MPD2    C3 2286   4.052   3.226  12.077 -0.4682 -0.2744 -0.1142
  150MPD2    C4 2287   4.124   3.112  12.117  0.1383 -0.1263 -0.0098
  150MPD2    C5 2288   4.061   2.991  12.112  0.3619 -0.1217  0.2119
  150MPD2     H 2289   3.869   3.310  12.021 -0.3471 -0.0630 -0.9176
  150MPD2    H1 2290   4.229   3.107  12.143  0.1330  0.2445  0.0738
  150MPD2    H2 2291   3.882   2.890  12.103 -1.2824  0.7734 -1.7933
  150MPD2    H3 2292   4.115   2.899  12.135 -0.6123 -0.2156  2.0692
  150MPD2     N 2293   4.104   3.356  12.061  0.3197 -0.4615  0.5138
  150MPD2    H5 2294   4.044   3.433  12.033  1.0177 -0.7000 -1.6202
  150MPD2    N1 2295   3.711   3.073  12.059  0.4067 -0.0219 -0.3848
  150MPD2    H7 2296   3.685   2.978  12.086 -0.7286  0.7015  1.0312
  151TCq2    C1 2297   4.223   3.394  12.109  0.7798  0.1909 -0.1535
  151TCq2    O2 2298   4.302   3.334  12.177 -0.2932  0.4592  0.1133
  151TCq2    C2 2299   4.270   3.515  12.041  0.0567 -0.0815  0.2956
  151TCq2    C3 2300   4.235   3.544  11.910  0.4608 -0.1653 -0.9159
  151TCq2    C4 2301   4.294   3.645  11.833  0.7195 -0.1336  0.0712
  151TCq2    C5 2302   4.394   3.714  11.892  0.0687 -0.3938 -0.8031
  151TCq2    C6 2303   4.425   3.688  12.021  0.2033  0.7476  0.5255
  151TCq2    C7 2304   4.372   3.582  12.094 -0.7626 -1.0587 -0.3056
  151TCq2    C8 2305   4.544   3.752  12.071 -0.4080 -0.0579 -0.5564
  151TCq2    O4 2306   4.598   3.834  11.998  0.6040  0.8358 -0.0646
  151TCq2    C9 2307   4.268   3.661  11.695  0.4647 -0.2919 -1.3011
  151TCq2    O5 2308   4.307   3.764  11.640 -0.1828  0.6409 -0.0103
  151TCq2    O6 2309   4.202   3.574  11.635  0.8271 -0.8401 -0.0297
  151TCq2    H2 2310   4.182   3.468  11.854  1.1136 -1.1440 -0.2226
  151TCq2    H3 2311   4.452   3.773  11.822  3.3007  1.1053  3.1365
  151TCq2    H4 2312   4.385   3.572  12.202  0.5798  0.9032 -0.2804
  152MPD2     C 2313   3.650   3.009  12.431  0.6288 -0.2151  0.8405
  152MPD2    C1 2314   3.648   3.144  12.398 -0.5185  0.0344 -0.3094
  152MPD2    C2 2315   3.526   3.209  12.386 -0.8819  0.2042 -0.3205
  152MPD2    C3 2316   3.409   3.139  12.422 -0.0862  0.8276 -0.5138
  152MPD2    C4 2317   3.416   3.006  12.469 -0.1315  0.7150  0.1912
  152MPD2    C5 2318   3.539   2.942  12.473 -0.5861  0.0757 -0.5794
  152MPD2     H 2319   3.521   3.312  12.353  2.7688  0.4611 -0.0212
  152MPD2    H1 2320   3.327   2.951  12.497 -0.3518  1.1807  0.3991
  152MPD2    H2 2321   3.741   2.950  12.432  0.6326 -0.2309 -0.0331
  152MPD2    H3 2322   3.543   2.837  12.499  0.3136  0.5826  1.3068
  152MPD2     N 2323   3.290   3.216  12.414  0.0488 -0.4706  0.5749
  152MPD2    H5 2324   3.291   3.307  12.367 -1.1122 -0.3231  0.8418
  152MPD2    N1 2325   3.771   3.204  12.380 -0.3149 -0.2464 -1.0388
  152MPD2    H7 2326   3.856   3.151  12.398  0.8626  2.3697  1.1299
  153TCq2    C1 2327   3.793   3.340  12.357  0.4240 -0.2866 -0.6978
  153TCq2    O2 2328   3.707   3.429  12.357  0.1163 -0.0727 -0.1512
  153TCq2    C2 2329   3.936   3.379  12.383  0.5182  0.5759  0.1889
  153TCq2    C3 2330   4.028   3.290  12.419 -0.7340 -0.0451  1.1827
  153TCq2    C4 2331   4.158   3.337  12.458  0.2976  0.0080  0.5835
  153TCq2    C5 2332   4.195   3.467  12.441 -0.8382 -0.0136  0.3818
  153TCq2    C6 2333   4.088   3.556  12.405  0.4131 -0.3218 -0.1585
  153TCq2    C7 2334   3.960   3.507  12.383  0.3338 -0.0582 -0.1232
  153TCq2    C8 2335   4.124   3.693  12.379 -0.3354  0.5698  0.3357
  153TCq2    O4 2336   4.034   3.770  12.341  0.6277  0.5536  0.2623
  153TCq2    C9 2337   4.255   3.232  12.499 -0.0221  0.3769  0.4803
  153TCq2    O5 2338   4.228   3.109  12.485 -0.0224  0.0607 -0.0692
  153TCq2    O6 2339   4.351   3.282  12.559  0.5299  0.4871  0.1947
  153TCq2    H2 2340   4.007   3.185  12.436 -0.7782 -0.4085 -1.1943
  153TCq2    H3 2341   4.299   3.495  12.448 -1.1789  0.4937  3.5328
  153TCq2    H4 2342   3.893   3.583  12.344  0.7336  0.4357  0.1415
  154MPD2     C 2343   1.222   4.029   0.354 -0.2431 -0.3402 -0.7876
  154MPD2    C1 2344   1.182   3.902   0.375  0.4780 -0.3269 -0.2192
  154MPD2    C2 2345   1.052   3.880   0.417 -0.3726 -0.0087  0.2367
  154MPD2    C3 2346   0.966   3.984   0.432  0.1310 -0.1939  0.3338
  154MPD2    C4 2347   1.002   4.107   0.385  0.3084 -0.4520  0.0778
  154MPD2    C5 2348   1.129   4.126   0.351 -0.4902  0.2006  0.2863
  154MPD2     H 2349   1.024   3.783   0.457 -2.7413  0.2262 -0.8370
  154MPD2    H1 2350   0.946   4.200   0.394 -2.7595 -2.4159  1.1654
  154MPD2    H2 2351   1.322   4.065   0.337  0.0606 -0.2281  1.2374
  154MPD2    H3 2352   1.167   4.223   0.319  0.1409 -0.8136 -2.0106
  154MPD2     N 2353   0.832   3.952   0.468  0.4666  0.1364 -0.2339
  154MPD2    H5 2354   0.817   3.859   0.506  1.9178  0.8376  2.0421
  154MPD2    N1 2355   1.284   3.803   0.357 -0.5887  0.3199  0.1261
  154MPD2    H7 2356   1.369   3.839   0.316  0.2389 -0.5205  1.1226
  155TCq2    C1 2357   1.261   3.671   0.387  0.1375 -0.2307  0.0888
  155TCq2    O2 2358   1.188   3.616   0.469 -0.1861 -0.4596 -0.9076
  155TCq2    C2 2359   1.362   3.582   0.331  0.1237  0.5467 -0.7425
  155TCq2    C3 2360   1.382   3.453   0.372  0.4404 -0.3022 -0.0714
  155TCq2    C4 2361   1.471   3.375   0.301  0.2332  0.1581 -0.2244
  155TCq2    C5 2362   1.535   3.423   0.193  0.3306 -0.0288 -0.2184
  155TCq2    C6 2363   1.522   3.556   0.166  0.2641  0.6252 -0.0217
  155TCq2    C7 2364   1.430   3.635   0.225  0.2555  0.5624  0.1042
  155TCq2    C8 2365   1.589   3.600   0.044  0.8785 -0.2160 -0.5278
  155TCq2    O4 2366   1.532   3.690  17.680 -0.0127 -0.0285 -0.3093
  155TCq2    C9 2367   1.492   3.243   0.353 -0.6177 -0.3881  0.0779
  155TCq2    O5 2368   1.598   3.180   0.326  0.2113  0.3218 -0.0377
  155TCq2    O6 2369   1.389   3.189   0.407 -0.5381  0.3719 -0.2907
  155TCq2    H2 2370   1.325   3.411   0.454  0.1115 -0.4739 -0.3871
  155TCq2    H3 2371   1.580   3.356   0.121  1.4893 -1.0649  1.4824
  155TCq2    H4 2372   1.424   3.736   0.184 -1.3688  0.1158 -0.7684
  156MPD2     C 2373   4.571   0.872  11.620 -0.8748 -0.2898  0.4928
  156MPD2    C1 2374   4.464   0.953  11.585 -0.3715 -0.0457  0.6766
  156MPD2    C2 2375   4.428   1.059  11.670 -0.1144 -0.6786 -0.1232
  156MPD2    C3 2376   4.496   1.078  11.786  0.0686 -0.3122 -0.7815
  156MPD2    C4 2377   4.602   0.997  11.818 -0.2053  0.6214 -0.6695
  156MPD2    C5 2378   4.643   0.897  11.734  0.5088 -0.9908 -0.8490
  156MPD2     H 2379   4.340   1.117  11.644 -0.7539 -1.8400 -0.5399
  156MPD2    H1 2380   4.664   1.019  11.904 -1.4923 -1.9247  0.9157
  156MPD2    H2 2381   4.603   0.797  11.548 -1.9254 -1.1876  0.9490
  156MPD2    H3 2382   0.002   0.832  11.751  1.2735  0.5151  1.1262
  156MPD2     N 2383   4.440   1.180  11.873 -0.0512  0.2536 -0.1771
  156MPD2    H5 2384   4.353   1.226  11.847 -1.6612 -1.9041  1.3605
  156MPD2    N1 2385   4.413   0.921  11.457  0.3411  0.3399 -0.2054
  156MPD2    H7 2386   4.456   0.844  11.407  0.7036  0.5870 -0.2726
  157TCq2    C1 2387   4.313   0.989  11.392  0.2535  0.2277 -0.5189
  157TCq2    O2 2388   4.254   1.089  11.425  0.0952  0.0793  0.1115
  157TCq2    C2 2389   4.271   0.929  11.265 -0.0613 -0.0327  0.5067
  157TCq2    C3 2390   4.312   0.797  11.239 -1.0849  0.3466 -0.6298
  157TCq2    C4 2391   4.244   0.730  11.141 -0.0295 -0.1415 -0.3717
  157TCq2    C5 2392   4.144   0.792  11.067  0.3843 -0.1539 -0.5523
  157TCq2    C6 2393   4.115   0.925  11.085  0.0059 -0.9465  0.2492
  157TCq2    C7 2394   4.176   0.996  11.184 -0.1279  0.3674  0.3469
  157TCq2    C8 2395   4.027   1.001  10.991  0.4693 -0.4321 -0.7542
  157TCq2    O4 2396   4.014   1.120  11.014 -0.2318  0.9450 -0.0871
  157TCq2    C9 2397   4.272   0.588  11.109  0.1026  0.1090  0.3709
  157TCq2    O5 2398   4.361   0.531  11.175  0.4374  0.4021 -0.9221
  157TCq2    O6 2399   4.188   0.530  11.042  0.6497 -0.2663 -0.4528
  157TCq2    H2 2400   4.397   0.748  11.285 -1.8429  1.3107  1.7881
  157TCq2    H3 2401   4.103   0.741  10.981  0.7835  1.7034 -1.8581
  157TCq2    H4 2402   4.146   1.094  11.220 -1.3640 -1.8216  5.3122
  158TMC2    C1 2403   4.547   4.396  13.104 -0.6318 -0.3106 -0.0123
  158TMC2    C2 2404   4.611   4.453  12.990  0.3676 -0.4349 -0.3773
  158TMC2    C3 2405   4.529   4.526  12.911 -0.6159  0.3580  0.1710
  158TMC2    C4 2406   4.410   4.420  13.131 -0.7545 -0.4065 -0.3759
  158TMC2    C5 2407   4.340   4.502  13.045 -0.2482 -0.3632  0.3335
  158TMC2    C6 2408   4.402   4.569  12.949  0.1663 -0.3935  0.4370
  158TMC2     C 2409   4.626   4.315  13.193  0.1020 -0.3585 -0.0281
  158TMC2     O 2410   4.715   4.247  13.135 -0.0028 -0.4714 -0.0104
  158TMC2     H 2411   4.706   4.408  12.963  2.1637  2.1649  1.6614
  158TMC2    H1 2412   4.365   4.376  13.220  0.1088 -0.2413  0.1401
  158TMC2    H2 2413   4.342   4.634  12.886  2.1503  2.3541  1.3671
  158TMC2    C7 2414   4.204   4.548  13.066  0.0140  0.3770 -0.3191
  158TMC2    C8 2415   4.585   4.618  12.824  0.3182  0.1081 -0.1906
  158TMC2    O1 2416   4.171   4.659  13.023  0.2448  0.2532 -0.2695
  158TMC2    O2 2417   4.530   4.715  12.775 -0.1982 -0.0954  0.1854
  158TMC2    O5 2418   4.700   4.568  12.785 -0.0498  0.3784  0.4211
  158TMC2    H5 2419   4.718   4.482  12.828 -0.3650 -0.9086 -2.0022
  159MPD2     C 2420   0.012   4.099  13.640  0.3594 -0.2767 -0.6712
  159MPD2    C1 2421   4.612   4.159  13.651  0.8825  0.3827  0.3874
  159MPD2    C2 2422   4.560   4.236  13.548  0.0602 -0.4125  1.1109
  159MPD2    C3 2423   4.638   4.246  13.435 -0.1178 -0.4348 -0.0369
  159MPD2    C4 2424   0.040   4.191  13.425 -0.7372 -0.2161 -0.3720
  159MPD2    C5 2425   0.080   4.116  13.528  0.1367  0.0629  0.1987
  159MPD2     H 2426   4.459   4.274  13.549  0.3715  0.4167  0.8008
  159MPD2    H1 2427   0.102   4.194  13.336  2.4572 -0.2228  1.8388
  159MPD2    H2 2428   0.063   4.036  13.712  0.3642  2.1704  1.4625
  159MPD2    H3 2429   0.178   4.070  13.525 -0.2075 -0.6755  0.3239
  159MPD2     N 2430   4.579   4.313  13.324 -0.1180 -0.0906  0.0532
  159MPD2    H5 2431   4.501   4.373  13.348  0.1539  0.5955 -0.7948
  159MPD2    N1 2432   4.546   4.133  13.769  0.1964  0.7401 -0.2482
  159MPD2    H7 2433   4.577   4.050  13.820 -2.2552 -0.5112 -0.8220
  160TMC2    C1 2434   4.543   2.406   1.404  0.0639  0.7075 -0.4668
  160TMC2    C2 2435   4.598   2.282   1.379 -0.0358  0.2106  0.1588
  160TMC2    C3 2436   4.695   2.273   1.291  0.7218 -0.2525  1.4205
  160TMC2    C4 2437   4.584   2.519   1.342  0.4955  0.4272  1.2364
  160TMC2    C5 2438   4.689   2.501   1.260 -0.2612 -0.1103 -0.2557
  160TMC2    C6 2439   0.015   2.382   1.224  0.1491  0.1365  0.7209
  160TMC2     C 2440   4.422   2.404   1.485  0.2126 -0.3434  0.1639
  160TMC2     O 2441   4.391   2.298   1.538 -0.3341 -0.0891  0.2038
  160TMC2     H 2442   4.568   2.196   1.438 -3.2510  1.1898 -0.0219
  160TMC2    H1 2443   4.533   2.610   1.369 -0.3847  0.6972 -1.3377
  160TMC2    H2 2444   0.093   2.380   1.149  0.4817 -1.1259  1.1076
  160TMC2    C7 2445   4.718   2.609   1.169  0.2174  0.6562 -0.1209
  160TMC2    C8 2446   0.057   2.159   1.302 -0.7548 -0.5977  0.6017
  160TMC2    O1 2447   0.011   2.576   1.050  0.2416 -0.5006  0.1489
  160TMC2    O2 2448   0.016   2.045   1.302  0.5711  0.4815 -0.5467
  160TMC2    O5 2449   0.187   2.190   1.262  0.6939 -0.4054 -0.4297
  160TMC2    H5 2450   0.202   2.286   1.279 -1.1174 -0.1149 -0.4076
  161MPD2     C 2451   4.167   2.453   1.647 -0.1465 -0.2670  0.9784
  161MPD2    C1 2452   4.221   2.543   1.550  0.5109  0.1906 -0.1831
  161MPD2    C2 2453   4.136   2.647   1.506  0.0455  0.0753 -0.0293
  161MPD2    C3 2454   4.004   2.647   1.553  0.1445  0.1261 -0.6366
  161MPD2    C4 2455   3.960   2.562   1.656  0.1469 -0.3338 -0.1841
  161MPD2    C5 2456   4.045   2.468   1.701 -0.2690  0.2805  0.6361
  161MPD2     H 2457   4.166   2.708   1.421 -1.1617  1.0990  0.2925
  161MPD2    H1 2458   3.861   2.565   1.700  1.2115 -0.8985  2.2299
  161MPD2    H2 2459   4.226   2.368   1.681 -0.1088 -0.6647 -0.0949
  161MPD2    H3 2460   4.012   2.402   1.781 -0.6577 -0.6669 -0.2931
  161MPD2     N 2461   3.912   2.744   1.510 -1.0070  0.5953  0.2927
  161MPD2    H5 2462   3.819   2.743   1.551 -1.0441  1.3934  0.2224
  161MPD2    N1 2463   4.348   2.522   1.488 -0.3100 -0.4720  0.0206
  161MPD2    H7 2464   4.374   2.591   1.417 -0.2378  0.7984  1.2804
  162TMC2    C1 2465   1.917   4.327   0.713 -0.1513  0.0102  0.8114
  162TMC2    C2 2466   1.823   4.335   0.616  0.7519  0.0369  0.8036
  162TMC2    C3 2467   1.713   4.256   0.632  0.9452  0.5062  0.3079
  162TMC2    C4 2468   1.904   4.238   0.819  1.3384  0.6291 -0.0148
  162TMC2    C5 2469   1.788   4.163   0.839  0.2695 -0.3811  0.3992
  162TMC2    C6 2470   1.696   4.175   0.740 -0.1181 -0.5869 -0.1656
  162TMC2     C 2471   2.051   4.364   0.676  0.4872 -0.4897  0.3689
  162TMC2     O 2472   2.147   4.337   0.749  0.2584  0.3839  0.8915
  162TMC2     H 2473   1.822   4.403   0.532 -2.7783 -0.0435  0.7946
  162TMC2    H1 2474   1.971   4.252   0.903  1.2857 -0.0485  0.1359
  162TMC2    H2 2475   1.597   4.134   0.756 -0.9666  1.5348  0.0254
  162TMC2    C7 2476   1.752   4.106   0.972 -0.0799  0.1744 -0.0105
  162TMC2    C8 2477   1.594   4.292   0.560  0.5472 -0.6920  0.7327
  162TMC2    O1 2478   1.633   4.086   0.996 -0.9019 -0.0586 -0.5796
  162TMC2    O2 2479   1.582   4.398   0.504  0.3915  0.4888  0.1848
  162TMC2    O5 2480   1.553   4.183   0.497  0.0010  0.1091 -0.3140
  162TMC2    H5 2481   1.582   4.097   0.535 -1.8866 -0.2764  0.2486
  163MPD2     C 2482   2.356   4.460   0.276  0.0781 -0.5695 -0.0780
  163MPD2    C1 2483   2.370   4.378   0.387 -0.2348  0.1567 -0.2336
  163MPD2    C2 2484   2.282   4.371   0.491 -0.0087 -0.0531 -0.4481
  163MPD2    C3 2485   2.159   4.427   0.464 -0.5949  0.1654  0.5225
  163MPD2    C4 2486   2.133   4.501   0.351  0.8013 -0.3420  0.2761
  163MPD2    C5 2487   2.235   4.523   0.261  0.3404  0.4229  0.0346
  163MPD2     H 2488   2.303   4.314   0.581 -1.2374 -1.4037 -1.0117
  163MPD2    H1 2489   2.040   4.551   0.324  1.2656 -0.2511 -1.1448
  163MPD2    H2 2490   2.438   4.476   0.208 -0.0044 -1.4673 -0.3910
  163MPD2    H3 2491   2.217   4.595   0.182 -1.0050 -0.3467 -0.3564
  163MPD2     N 2492   2.053   4.420   0.550  0.9245  0.2457  0.3108
  163MPD2    H5 2493   1.966   4.461   0.520  0.9530 -0.9725 -1.4606
  163MPD2    N1 2494   2.496   4.316   0.389 -0.0313 -0.1301  0.0492
  163MPD2    H7 2495   2.564   4.342   0.318 -0.5583  1.4409  0.1301
  164TCq2    C1 2496   2.313   4.292  11.002  0.8089  0.4062  0.4802
  164TCq2    O2 2497   2.228   4.222  11.059 -0.4053  0.0588 -0.5332
  164TCq2    C2 2498   2.333   4.431  11.051 -0.4329  0.2198  0.2376
  164TCq2    C3 2499   2.454   4.466  11.102  0.5673  0.8169 -0.1344
  164TCq2    C4 2500   2.448   4.587  11.172 -0.0128  0.5426 -0.2853
  164TCq2    C5 2501   2.342   4.657  11.198 -0.0497  0.1988  0.0863
  164TCq2    C6 2502   2.221   4.623  11.145  0.3459  0.2146  0.3641
  164TCq2    C7 2503   2.224   4.511  11.070 -1.0883 -1.0497 -0.3564
  164TCq2    C8 2504   2.095   4.668  11.203 -0.6792 -0.6318 -0.2003
  164TCq2    O4 2505   1.988   4.634  11.150  0.1749 -0.2275 -0.0059
  164TCq2    C9 2506   2.569   4.629  11.235  0.7140 -0.3640 -0.3123
  164TCq2    O5 2507   2.561   4.698  11.337 -0.2019  0.3682  0.6235
  164TCq2    O6 2508   2.674   4.587  11.189 -0.3153 -0.1925 -0.3873
  164TCq2    H2 2509   2.544   4.408  11.087  0.3722  0.7364 -0.9534
  164TCq2    H3 2510   2.349   0.029  11.246 -0.8338  1.2186 -1.8881
  164TCq2    H4 2511   2.132   4.484  11.020 -0.8945  1.1553 -1.8694
  165MPD2     C 2512   4.414   1.021   1.765  0.6711  0.0344  0.0754
  165MPD2    C1 2513   4.377   1.003   1.902  0.0483  0.1723 -0.1022
  165MPD2    C2 2514   4.364   1.118   1.982 -0.4734 -0.0538  0.2591
  165MPD2    C3 2515   4.397   1.247   1.939  1.1821 -0.5961  1.2249
  165MPD2    C4 2516   4.439   1.262   1.809  0.7019  0.2275  0.0064
  165MPD2    C5 2517   4.442   1.152   1.722 -0.7580  0.0079 -0.3460
  165MPD2     H 2518   4.340   1.105   2.087 -0.1997 -1.7078  0.1075
  165MPD2    H1 2519   4.463   1.360   1.768  1.6962 -0.1456 -0.3175
  165MPD2    H2 2520   4.427   0.946   1.688  3.9390  0.9086 -0.2626
  165MPD2    H3 2521   4.462   1.161   1.616 -0.6620  0.3908 -0.2951
  165MPD2     N 2522   4.380   1.361   2.020 -0.5603 -0.3497  0.1315
  165MPD2    H5 2523   4.425   1.448   1.991 -0.1147 -0.2524  1.1279
  165MPD2    N1 2524   4.350   0.875   1.947 -0.5525  0.4664  0.5717
  165MPD2    H7 2525   4.372   0.797   1.885 -1.6076  0.4671  0.1990
  166TCq2    C1 2526   4.332   1.366   2.149 -0.6286  0.9344 -0.5905
  166TCq2    O2 2527   4.257   1.281   2.207  0.1243 -0.2369 -0.4144
  166TCq2    C2 2528   4.334   1.501   2.207 -0.0393 -0.2054 -0.5168
  166TCq2    C3 2529   4.242   1.524   2.305  0.1519  0.4463  0.0656
  166TCq2    C4 2530   4.276   1.603   2.409 -0.3640 -1.1633 -0.1393
  166TCq2    C5 2531   4.395   1.662   2.420  0.6703  0.0248 -0.0631
  166TCq2    C6 2532   4.492   1.644   2.319 -0.2816  0.0051  0.2349
  166TCq2    C7 2533   4.455   1.562   2.216  0.0900  0.5293  0.2430
  166TCq2    C8 2534   4.603   1.740   2.304 -0.6984 -0.2562  0.5866
  166TCq2    O4 2535   4.665   1.738   2.197 -0.3710 -0.5796 -0.1769
  166TCq2    C9 2536   4.163   1.625   2.494  0.1267  0.4900  0.1105
  166TCq2    O5 2537   4.172   1.704   2.588 -0.0768 -0.1155  0.2853
  166TCq2    O6 2538   4.081   1.534   2.489 -0.3969 -0.3060  0.3995
  166TCq2    H2 2539   4.142   1.489   2.283  0.9743 -2.4563  0.9454
  166TCq2    H3 2540   4.394   1.731   2.504  0.4495 -1.8068  1.4448
  166TCq2    H4 2541   4.514   1.563   2.125  1.0211  1.7376  0.8531
  167TMC2    C1 2542   1.708   4.344  13.011 -0.7618 -0.5746 -0.3787
  167TMC2    C2 2543   1.632   4.356  13.126 -0.1995  0.5529 -0.0515
  167TMC2    C3 2544   1.626   4.244  13.216  0.5794  0.2854 -0.3851
  167TMC2    C4 2545   1.772   4.228  12.977  0.1628  0.6263 -0.6668
  167TMC2    C5 2546   1.749   4.116  13.053 -0.2525  0.0152 -0.6725
  167TMC2    C6 2547   1.670   4.126  13.167  0.2576  0.1547 -0.6565
  167TMC2     C 2548   1.730   4.466  12.918  0.5643 -0.0162  0.7393
  167TMC2     O 2549   1.716   4.579  12.962  0.7673 -0.1704 -0.5925
  167TMC2     H 2550   1.587   4.452  13.151 -1.4648 -0.4457  1.4561
  167TMC2    H1 2551   1.841   4.224  12.894 -0.5326  0.9988 -1.2669
  167TMC2    H2 2552   1.651   4.042  13.233 -0.2414  1.2334  0.5830
  167TMC2    C7 2553   1.836   3.998  13.047  0.0860  0.5237  0.8527
  167TMC2    C8 2554   1.514   4.236  13.312  0.1684  0.1957 -0.2559
  167TMC2    O1 2555   1.851   3.947  13.158  0.1555 -0.0320  0.5345
  167TMC2    O2 2556   1.478   4.133  13.369  0.2581  0.2703 -0.3684
  167TMC2    O5 2557   1.454   4.353  13.328  0.0106 -0.1830  0.0508
  167TMC2    H5 2558   1.491   4.429  13.280 -0.5871  1.2688  1.9013
  168MPD2     C 2559   1.855   4.627  12.696 -0.0461 -0.0632  0.2113
  168MPD2    C1 2560   1.797   4.500  12.680  0.3392  0.6323 -0.4199
  168MPD2    C2 2561   1.790   4.443  12.554 -0.6061 -0.5735  0.3408
  168MPD2    C3 2562   1.848   4.503  12.444 -0.5579  0.5634  0.2820
  168MPD2    C4 2563   1.902   4.626  12.463  0.0194  0.2958  0.0993
  168MPD2    C5 2564   1.912   4.685  12.584 -0.4336  0.7553 -0.4965
  168MPD2     H 2565   1.744   4.347  12.539  2.0018 -1.3777 -2.5304
  168MPD2    H1 2566   1.932   4.686  12.377 -3.6008 -0.1172 -1.4802
  168MPD2    H2 2567   1.846   4.682  12.789 -1.1514  1.2748 -0.6891
  168MPD2    H3 2568   1.956   0.058  12.593  1.5508 -0.2233  0.5407
  168MPD2     N 2569   1.847   4.436  12.317 -0.3541  0.1846 -0.1727
  168MPD2    H5 2570   1.876   4.492  12.237  1.1173  2.2460  1.7917
  168MPD2    N1 2571   1.749   4.420  12.788 -0.3751  0.1360 -0.2921
  168MPD2    H7 2572   1.737   4.320  12.777 -1.1951  0.3816 -1.7239
  169MPD1     C 2573   3.763   3.882   9.239 -0.1561  0.5081  0.1399
  169MPD1    C1 2574   3.869   3.965   9.209 -0.4082 -0.7701  0.5605
  169MPD1    C2 2575   3.996   3.916   9.222 -0.2877 -0.0562 -0.1268
  169MPD1    C3 2576   4.021   3.787   9.265 -0.2041 -0.0344 -0.9107
  169MPD1    C4 2577   3.910   3.709   9.286  0.0681  0.4549 -0.5323
  169MPD1    C5 2578   3.782   3.755   9.269  0.1169  0.6801  0.0951
  169MPD1     H 2579   4.071   3.991   9.198 -1.3667  0.9623 -0.2844
  169MPD1    H1 2580   3.918   3.603   9.308 -1.2471  0.2307 -1.1130
  169MPD1    H2 2581   3.664   3.920   9.217  0.6052  2.7188  0.4772
  169MPD1    H3 2582   3.699   3.684   9.268  2.7086 -2.3269 -1.5468
  169MPD1     N 2583   4.160   3.741   9.268 -0.4181  0.0818 -0.5051
  169MPD1    H5 2584   4.235   3.801   9.235  0.5793 -1.2047 -0.5739
  169MPD1    N1 2585   3.841   4.097   9.161 -0.2013 -0.4384  0.2199
  169MPD1    H6 2586   3.922   4.156   9.178  0.0370 -0.7793  0.2642
  169MPD1    H7 2587   3.760   4.142   9.205 -0.4332  1.7752 -2.4467
  170MPD1     C 2588   3.980   1.822  13.853 -0.0132 -1.0913  0.2969
  170MPD1    C1 2589   3.927   1.851  13.976  0.4904  0.0930 -0.1097
  170MPD1    C2 2590   3.796   1.812  13.995 -0.6686 -0.0528 -0.3425
  170MPD1    C3 2591   3.706   1.781  13.894 -0.6006 -0.0310 -0.0521
  170MPD1    C4 2592   3.759   1.784  13.764  0.3248 -0.6472 -0.1657
  170MPD1    C5 2593   3.895   1.795  13.747  0.0073 -0.2611 -0.6566
  170MPD1     H 2594   3.751   1.822  14.094 -1.6075  0.3294 -0.8087
  170MPD1    H1 2595   3.695   1.772  13.678  0.4883 -1.8375 -0.1227
  170MPD1    H2 2596   4.086   1.832  13.832 -0.2521 -1.1757 -0.9547
  170MPD1    H3 2597   3.937   1.798  13.647  0.8112 -3.3192 -0.4226
  170MPD1     N 2598   3.570   1.751  13.925  0.6397 -0.0086 -0.1927
  170MPD1    H5 2599   3.552   1.733  14.024  0.7513  0.6908 -0.0460
  170MPD1    N1 2600   4.015   1.886  14.083 -0.3430  0.2892  1.0992
  170MPD1    H6 2601   3.965   1.937  14.156 -1.4816  0.7494 -0.0094
  170MPD1    H7 2602   4.091   1.947  14.052 -0.7570  0.8517  1.1934
  171MPD1     C 2603   1.707   3.164  15.419 -0.5342  0.4868  0.4977
  171MPD1    C1 2604   1.707   3.028  15.388  0.1896  0.1874  0.3926
  171MPD1    C2 2605   1.708   2.937  15.490 -0.2359  0.1373  0.1430
  171MPD1    C3 2606   1.731   2.977  15.623 -0.3741  0.3927  0.0727
  171MPD1    C4 2607   1.744   3.115  15.650 -0.5262  0.3310 -0.1923
  171MPD1    C5 2608   1.723   3.204  15.550 -0.3922 -0.3200  0.4193
  171MPD1     H 2609   1.709   2.832  15.462  1.9209  0.4561 -0.9906
  171MPD1    H1 2610   1.765   3.153  15.750 -0.2620  0.9750 -0.4932
  171MPD1    H2 2611   1.694   3.242  15.345 -1.3332 -0.3908 -0.2755
  171MPD1    H3 2612   1.721   3.310  15.575 -0.8593 -0.5343  1.2977
  171MPD1     N 2613   1.728   2.887  15.731 -0.2445  0.2013  0.8845
  171MPD1    H5 2614   1.746   2.924  15.824  0.8729 -1.2606  1.2516
  171MPD1    N1 2615   1.679   2.990  15.252 -0.2576 -0.1971  0.3719
  171MPD1    H6 2616   1.742   2.912  15.232  0.3848  0.5844 -0.6374
  171MPD1    H7 2617   1.715   3.065  15.194  1.3192 -1.2045  0.0382
  172MPD1     C 2618   0.609   1.572   0.247  0.3620  0.4349  0.1105
  172MPD1    C1 2619   0.546   1.678   0.293 -0.7719 -0.4351  0.5914
  172MPD1    C2 2620   0.621   1.793   0.326 -0.0754  0.2392 -0.1752
  172MPD1    C3 2621   0.760   1.791   0.312 -0.5423  0.3806  0.6277
  172MPD1    C4 2622   0.819   1.675   0.279  0.0452 -0.0804 -0.0284
  172MPD1    C5 2623   0.747   1.567   0.243  0.2376  0.1974 -0.0045
  172MPD1     H 2624   0.566   1.880   0.356 -0.9964 -0.6962  0.8257
  172MPD1    H1 2625   0.926   1.656   0.270  0.1450 -1.2421  3.3575
  172MPD1    H2 2626   0.557   1.487   0.203 -0.7026 -0.0569  2.2738
  172MPD1    H3 2627   0.800   1.481   0.205 -0.3548  0.8313 -2.2216
  172MPD1     N 2628   0.838   1.914   0.336  0.1222 -0.5772  0.8736
  172MPD1    H5 2629   0.937   1.901   0.353 -0.0519 -1.2995  1.3859
  172MPD1    N1 2630   0.403   1.676   0.293 -0.8374  0.0818 -0.0839
  172MPD1    H6 2631   0.365   1.587   0.324  1.5007 -1.1096 -0.5849
  172MPD1    H7 2632   0.377   1.738   0.369 -1.0299 -0.4584  0.2928
  173MPD1     C 2633   3.014   2.848  14.728 -0.1639  1.5218 -0.5409
  173MPD1    C1 2634   2.960   2.776  14.836 -0.0292  0.1146 -0.4082
  173MPD1    C2 2635   2.846   2.697  14.806  0.1725 -0.0909  0.5313
  173MPD1    C3 2636   2.803   2.672  14.678  1.0620 -0.3170 -0.0067
  173MPD1    C4 2637   2.868   2.741  14.574  0.4627  0.1679  0.7396
  173MPD1    C5 2638   2.969   2.833  14.596 -0.0164 -0.2700  0.4261
  173MPD1     H 2639   2.814   2.633  14.887 -1.8628  1.6913  1.1196
  173MPD1    H1 2640   2.843   2.729  14.469  0.2250 -2.1835  1.0646
  173MPD1    H2 2641   3.081   2.932  14.741  0.3958  1.3406 -2.2471
  173MPD1    H3 2642   3.018   2.894  14.521  2.1543 -1.1109  1.1491
  173MPD1     N 2643   2.712   2.570  14.656  0.5706  0.2123  0.0962
  173MPD1    H5 2644   2.674   2.528  14.740 -1.5087  1.9145 -0.0083
  173MPD1    N1 2645   3.005   2.805  14.964  0.2003  0.8213  0.2055
  173MPD1    H6 2646   3.095   2.851  14.975  0.9425 -0.2628 -1.2459
  173MPD1    H7 2647   3.013   2.724  15.025  0.1539  0.1754 -0.6411
  174MPD1     C 2648   2.582   1.895  13.908 -0.5096 -0.3416 -0.1092
  174MPD1    C1 2649   2.561   1.830  14.028 -0.2243 -0.5072  0.2083
  174MPD1    C2 2650   2.541   1.902  14.143 -0.6170 -0.3367 -0.0325
  174MPD1    C3 2651   2.523   2.039  14.132 -0.1217  0.1998  0.0271
  174MPD1    C4 2652   2.529   2.101  14.007  0.1524  0.1511  0.2057
  174MPD1    C5 2653   2.559   2.028  13.896  0.9436 -0.0161 -0.0826
  174MPD1     H 2654   2.548   1.853  14.240 -2.3588  2.2248  1.3936
  174MPD1    H1 2655   2.512   2.208  14.002 -1.3212 -0.0415  0.9668
  174MPD1    H2 2656   2.617   1.845  13.819  2.8097  1.2777  0.2909
  174MPD1    H3 2657   2.571   2.073  13.798 -0.3147  0.9530  0.2020
  174MPD1     N 2658   2.495   2.128  14.233 -0.1048  0.7101  0.4673
  174MPD1    H5 2659   2.482   2.225  14.205  0.2231  0.7757  0.5317
  174MPD1    N1 2660   2.596   1.691  14.034 -0.6474  0.3213  0.6536
  174MPD1    H6 2661   2.554   1.650  13.951  0.8473  1.1876 -0.5227
  174MPD1    H7 2662   2.554   1.642  14.113  1.0932 -0.5726  1.0340
  175MPD1     C 2663   0.937   2.500  16.376 -0.3461  0.4668 -0.1087
  175MPD1    C1 2664   0.826   2.569  16.397 -0.5345  0.5687 -0.2370
  175MPD1    C2 2665   0.830   2.640  16.520  0.1064 -0.6889 -0.2828
  175MPD1    C3 2666   0.929   2.632  16.618  0.7993  0.5460  0.3277
  175MPD1    C4 2667   1.039   2.557  16.586  0.9372 -0.1584 -0.1153
  175MPD1    C5 2668   1.039   2.495  16.465 -0.2274  0.0539  0.0325
  175MPD1     H 2669   0.749   2.710  16.534 -0.8181 -2.2465  2.2459
  175MPD1    H1 2670   1.120   2.538  16.655  0.3348  3.0350  1.4542
  175MPD1    H2 2671   0.947   2.441  16.286 -3.2779 -2.3468  1.4150
  175MPD1    H3 2672   1.125   2.431  16.448  0.0308  0.9969 -2.2367
  175MPD1     N 2673   0.940   2.706  16.738  0.2427 -0.0559  0.1433
  175MPD1    H5 2674   1.034   2.706  16.777  0.2722  0.8209  0.0612
  175MPD1    N1 2675   0.746   2.603  16.288 -0.5530  0.3188  0.3524
  175MPD1    H6 2676   0.656   2.635  16.324 -0.4343  2.1426 -0.9846
  175MPD1    H7 2677   0.722   2.524  16.228 -1.0141  0.9021 -0.2435
  176MPD1     C 2678   3.560   0.949   0.026 -0.1896 -0.0124 -0.5579
  176MPD1    C1 2679   3.471   1.055   0.011  0.0048  0.1163 -0.7120
  176MPD1    C2 2680   3.350   1.039   0.064  0.5509 -0.0061 -0.3397
  176MPD1    C3 2681   3.316   0.923   0.125 -0.7194  0.7739 -0.6754
  176MPD1    C4 2682   3.399   0.819   0.137  0.6580 -0.4895  0.0188
  176MPD1    C5 2683   3.520   0.832   0.078  0.8172 -0.1120  0.1877
  176MPD1     H 2684   3.267   1.105   0.043  1.9124  1.5061 -1.0019
  176MPD1    H1 2685   3.372   0.719   0.169  0.2398 -0.4181 -0.0987
  176MPD1    H2 2686   3.660   0.955  17.689 -0.2095  2.4327 -0.2472
  176MPD1    H3 2687   3.589   0.749   0.085 -0.1236 -0.7942  1.3514
  176MPD1     N 2688   3.184   0.914   0.178  0.3016  0.5259 -0.2074
  176MPD1    H5 2689   3.134   1.001   0.173 -0.7747 -0.0182  1.0117
  176MPD1    N1 2690   3.515   1.177  17.664  0.5236 -0.7040  0.4782
  176MPD1    H6 2691   3.578   1.156  17.587 -1.5445 -3.2511 -0.5154
  176MPD1    H7 2692   3.433   1.226  17.630  1.0043 -1.6444 -2.0457
  177MPD1     C 2693   0.994   3.807  10.822  0.2508  0.4844 -0.2619
  177MPD1    C1 2694   1.024   3.773  10.693 -0.1468  0.0142 -0.6684
  177MPD1    C2 2695   0.997   3.870  10.596 -0.2904 -0.6119 -0.3832
  177MPD1    C3 2696   0.924   3.983  10.625  0.0686 -0.0622 -0.2338
  177MPD1    C4 2697   0.877   4.000  10.753 -0.0875 -0.5712 -0.4225
  177MPD1    C5 2698   0.909   3.913  10.852  0.5567 -0.3056  0.5054
  177MPD1     H 2699   1.025   3.844  10.495  1.8289 -0.7289  0.2468
  177MPD1    H1 2700   0.837   4.093  10.790  0.0111 -1.4216  1.8135
  177MPD1    H2 2701   1.041   3.756  10.905  1.1546 -0.5427 -1.4042
  177MPD1    H3 2702   0.885   3.937  10.955 -0.5025  1.1355 -0.0725
  177MPD1     N 2703   0.891   4.073  10.523 -0.3096 -0.3507  0.2828
  177MPD1    H5 2704   0.932   4.047  10.434 -0.8354 -0.6483  0.1308
  177MPD1    N1 2705   1.105   3.665  10.665 -0.2755 -0.6189  0.4374
  177MPD1    H6 2706   1.113   3.633  10.569 -1.0362 -1.0229  0.5079
  177MPD1    H7 2707   1.091   3.588  10.731 -0.0836  0.0262  1.2395
  178MPD1     C 2708   3.793   1.140   0.980  0.1137 -0.2631  0.0854
  178MPD1    C1 2709   3.897   1.049   0.980  0.3568 -0.9892 -0.1213
  178MPD1    C2 2710   3.901   0.958   0.878 -0.4322 -0.2429 -0.3339
  178MPD1    C3 2711   3.824   0.965   0.764 -0.2348 -0.3953  0.4554
  178MPD1    C4 2712   3.719   1.048   0.765 -0.8892  0.1120 -0.2361
  178MPD1    C5 2713   3.701   1.135   0.875 -0.0992 -0.0166  0.4742
  178MPD1     H 2714   3.983   0.887   0.882 -0.0611  0.1664 -0.6323
  178MPD1    H1 2715   3.645   1.055   0.686  2.0439  1.1522 -2.8988
  178MPD1    H2 2716   3.785   1.226   1.046 -0.2165  0.8555 -1.4075
  178MPD1    H3 2717   3.617   1.203   0.868 -0.3258 -0.4271 -0.8969
  178MPD1     N 2718   3.841   0.886   0.642  0.5263  0.3293 -0.0399
  178MPD1    H5 2719   3.784   0.920   0.566  0.3070  2.4045  1.0468
  178MPD1    N1 2720   3.979   1.036   1.099 -0.1275 -0.0927  0.4868
  178MPD1    H6 2721   4.072   1.007   1.072 -0.0615  0.0131  0.6024
  178MPD1    H7 2722   3.992   1.127   1.142 -2.2911  1.1355 -1.4662
  179MPD1     C 2723   3.844   3.200  15.292 -0.1918  0.6356  0.9028
  179MPD1    C1 2724   3.762   3.304  15.251  0.3557  0.5524  0.1300
  179MPD1    C2 2725   3.658   3.345  15.330 -0.2549 -0.0498  0.3104
  179MPD1    C3 2726   3.637   3.290  15.450  0.8305  0.7662 -0.6483
  179MPD1    C4 2727   3.717   3.188  15.491  0.1411 -0.2431 -0.2816
  179MPD1    C5 2728   3.822   3.147  15.417 -0.4057 -0.6488  0.3112
  179MPD1     H 2729   3.583   3.407  15.281  0.7144 -0.3925 -1.6181
  179MPD1    H1 2730   3.694   3.148  15.589 -0.2061  0.2538 -0.1588
  179MPD1    H2 2731   3.928   3.155  15.241  0.2028 -0.2956  2.3800
  179MPD1    H3 2732   3.881   3.063  15.452  1.4087 -0.4924 -2.3823
  179MPD1     N 2733   3.530   3.325  15.536 -0.1265  0.1128 -0.3695
  179MPD1    H5 2734   3.518   3.277  15.625  1.1955 -1.2786 -0.9374
  179MPD1    N1 2735   3.761   3.347  15.119 -0.1113  0.2620 -0.4710
  179MPD1    H6 2736   3.741   3.447  15.119  2.6172  0.8230 -0.3967
  179MPD1    H7 2737   3.844   3.328  15.063 -0.0188 -0.5266 -0.0707
  180MPD1     C 2738   2.597   1.119  14.928  0.0553 -0.6789  0.0191
  180MPD1    C1 2739   2.709   1.098  14.843  0.4969 -0.6620 -0.0927
  180MPD1    C2 2740   2.735   0.966  14.819 -0.4533 -0.5299 -0.4319
  180MPD1    C3 2741   2.654   0.855  14.843 -0.0377 -0.1781 -0.6426
  180MPD1    C4 2742   2.535   0.884  14.914  0.1549 -0.5613 -0.3411
  180MPD1    C5 2743   2.513   1.014  14.947 -0.3076 -0.2824  0.3103
  180MPD1     H 2744   2.824   0.942  14.763 -0.9238  0.9157 -1.8020
  180MPD1    H1 2745   2.459   0.809  14.932 -1.3919  0.6685 -1.8774
  180MPD1    H2 2746   2.566   1.215  14.968 -0.3034 -0.0429 -1.7744
  180MPD1    H3 2747   2.415   1.028  14.991 -1.4646  1.1251 -2.6927
  180MPD1     N 2748   2.689   0.725  14.788 -0.7203 -0.6234  0.5546
  180MPD1    H5 2749   2.781   0.727  14.743 -1.8208  2.9879 -1.5698
  180MPD1    N1 2750   2.799   1.201  14.840  0.9191 -0.4756  0.1134
  180MPD1    H6 2751   2.864   1.196  14.761  1.7735  0.6846  0.7464
  180MPD1    H7 2752   2.752   1.291  14.840 -0.0762 -1.0003  0.7975
  181MPD1     C 2753   3.849   2.565   8.626  0.2520  0.1946 -0.3716
  181MPD1    C1 2754   3.834   2.435   8.646  0.9122 -0.5732 -0.5453
  181MPD1    C2 2755   3.924   2.377   8.734  0.6192  0.0375  0.3855
  181MPD1    C3 2756   4.021   2.455   8.796  1.1592 -0.5005  0.1038
  181MPD1    C4 2757   4.036   2.589   8.770 -0.0763  0.2363 -0.2383
  181MPD1    C5 2758   3.949   2.643   8.681 -0.3183  0.0160 -0.6169
  181MPD1     H 2759   3.938   2.269   8.742 -2.3366 -0.1953  2.2446
  181MPD1    H1 2760   4.107   2.655   8.819  1.5173 -0.4195 -1.6762
  181MPD1    H2 2761   3.785   2.621   8.558  0.2916 -0.1518 -0.6943
  181MPD1    H3 2762   3.940   2.750   8.670  0.8553  0.2083  0.4003
  181MPD1     N 2763   4.100   2.406   8.907 -0.3102 -0.7045 -0.7660
  181MPD1    H5 2764   4.150   2.479   8.955 -3.0707  0.5684  0.1954
  181MPD1    N1 2765   3.744   2.358   8.573 -0.0695  0.0485  0.3508
  181MPD1    H6 2766   3.697   2.299   8.640 -0.2004 -1.5278 -1.1238
  181MPD1    H7 2767   3.675   2.406   8.516  0.1726 -0.0005  0.0137
  182MPD1     C 2768   0.216   0.304   1.572 -0.3140  0.5083 -0.1822
  182MPD1    C1 2769   0.164   0.413   1.638 -0.5287 -0.1778 -0.2126
  182MPD1    C2 2770   0.138   0.534   1.578 -0.2292  0.1179  0.1958
  182MPD1    C3 2771   0.159   0.544   1.440  0.5838 -0.1803  0.0353
  182MPD1    C4 2772   0.210   0.435   1.368  0.1208  0.4696 -0.4365
  182MPD1    C5 2773   0.238   0.315   1.431 -0.3705 -0.1001  0.7888
  182MPD1     H 2774   0.102   0.616   1.639 -0.1753  0.2142  0.0984
  182MPD1    H1 2775   0.234   0.452   1.264  3.3487 -0.7870  0.1051
  182MPD1    H2 2776   0.239   0.206   1.612 -1.5831  0.0287 -0.6324
  182MPD1    H3 2777   0.284   0.234   1.375  0.9747 -0.5072  2.4700
  182MPD1     N 2778   0.131   0.662   1.368  0.2069 -0.3373 -0.5600
  182MPD1    H5 2779   0.147   0.658   1.267  1.5066  1.0052 -0.4068
  182MPD1    N1 2780   0.155   0.403   1.778  0.1009  0.1847  0.1819
  182MPD1    H6 2781   0.144   0.310   1.818  0.7485  0.0001 -0.0652
  182MPD1    H7 2782   0.077   0.457   1.816 -0.6008  0.5094 -1.7416
  183MPD1     C 2783   0.320   1.089   9.165 -0.7688  0.2694 -0.7610
  183MPD1    C1 2784   0.233   1.180   9.216 -0.0829 -0.1297  0.3669
  183MPD1    C2 2785   0.289   1.283   9.296 -1.0393 -0.3240 -0.3646
  183MPD1    C3 2786   0.424   1.287   9.318  0.2074 -0.1967  0.3260
  183MPD1    C4 2787   0.506   1.185   9.272 -0.3787 -0.3698  0.1055
  183MPD1    C5 2788   0.450   1.088   9.202  0.1032 -0.2055  0.4337
  183MPD1     H 2789   0.228   1.351   9.354  0.1438  1.3678 -1.0828
  183MPD1    H1 2790   0.609   1.168   9.300 -0.3391  0.5650  0.5375
  183MPD1    H2 2791   0.278   1.014   9.100 -2.4736 -1.0753  1.8714
  183MPD1    H3 2792   0.510   1.004   9.169  0.0604 -0.7100  1.6667
  183MPD1     N 2793   0.489   1.392   9.393  0.3635 -0.0598 -0.6274
  183MPD1    H5 2794   0.590   1.396   9.405  0.3061 -2.3158  0.5976
  183MPD1    N1 2795   0.092   1.152   9.202 -0.3274  0.2333  0.0296
  183MPD1    H6 2796   0.039   1.239   9.204 -0.2817  0.2947 -1.5017
  183MPD1    H7 2797   0.068   1.104   9.116 -0.1827 -0.2848  0.2787
  184MPD1     C 2798   3.488   4.061  10.378  0.1861 -0.1055 -0.1561
  184MPD1    C1 2799   3.580   4.153  10.422 -0.1049 -0.3167 -0.1440
  184MPD1    C2 2800   3.715   4.132  10.412  0.1383  0.7005 -0.7606
  184MPD1    C3 2801   3.761   4.019  10.347  0.6593  0.2209  0.2518
  184MPD1    C4 2802   3.669   3.931  10.294  0.5736  0.3007 -0.5493
  184MPD1    C5 2803   3.539   3.948  10.318  0.6046  0.3812 -0.5887
  184MPD1     H 2804   3.787   4.199  10.455 -0.2678 -2.2054  4.3844
  184MPD1    H1 2805   3.704   3.840  10.246  3.0941 -0.5860  2.9837
  184MPD1    H2 2806   3.381   4.080  10.371  0.5935  2.0873 -0.4192
  184MPD1    H3 2807   3.477   3.875  10.267  0.1134  0.8748 -0.6933
  184MPD1     N 2808   3.895   3.984  10.341  0.1846 -0.2351  0.1953
  184MPD1    H5 2809   3.921   3.892  10.308  1.5349 -0.2408  1.2800
  184MPD1    N1 2810   3.534   4.281  10.448 -0.3798  0.4994 -0.5420
  184MPD1    H6 2811   3.586   4.337  10.515 -0.9938  0.2532  0.1359
  184MPD1    H7 2812   3.435   4.281  10.471 -0.0433  2.8344  0.9017
  185MPD1     C 2813   4.331   3.296  10.780  0.2265 -0.4160 -0.2443
  185MPD1    C1 2814   4.257   3.289  10.667  0.1129 -0.1795 -0.4700
  185MPD1    C2 2815   4.235   3.410  10.603 -0.3129 -0.3107  0.6411
  185MPD1    C3 2816   4.324   3.521  10.620 -0.5545 -0.0894  0.0374
  185MPD1    C4 2817   4.411   3.511  10.723 -0.2384  0.2874 -0.5051
  185MPD1    C5 2818   4.413   3.403  10.809 -0.4689  0.3792  0.6953
  185MPD1     H 2819   4.136   3.424  10.560  0.8569  1.3741 -1.5402
  185MPD1    H1 2820   4.475   3.594  10.751  0.0838  0.3924 -1.5393
  185MPD1    H2 2821   4.357   3.204  10.830 -2.5779  0.6595  3.2333
  185MPD1    H3 2822   4.484   3.398  10.890 -0.6833 -0.3360  0.8397
  185MPD1     N 2823   4.328   3.639  10.538 -0.6381 -0.0060 -0.9426
  185MPD1    H5 2824   4.399   3.710  10.555 -1.8269  0.5111  1.9453
  185MPD1    N1 2825   4.166   3.183  10.650 -0.2388  0.0710 -0.0056
  185MPD1    H6 2826   4.199   3.094  10.688 -0.1609  0.3204  0.5107
  185MPD1    H7 2827   4.142   3.168  10.552 -0.7742 -1.3267  0.3290
  186MPD1     C 2828   3.669   3.444  16.219 -0.4003 -0.0125 -0.0161
  186MPD1    C1 2829   3.602   3.471  16.331  0.1126  0.9105 -0.0524
  186MPD1    C2 2830   3.615   3.598  16.391 -0.3154  0.0443 -0.0683
  186MPD1    C3 2831   3.688   3.703  16.326  0.5966  0.0516  0.6008
  186MPD1    C4 2832   3.755   3.673  16.212 -0.0851  0.5229 -0.3797
  186MPD1    C5 2833   3.746   3.548  16.166  0.0049 -0.2850 -0.1031
  186MPD1     H 2834   3.571   3.617  16.489 -2.2875  1.2747 -1.1960
  186MPD1    H1 2835   3.831   3.734  16.164 -0.4696 -0.5646 -2.4023
  186MPD1    H2 2836   3.669   3.351  16.165  1.2505 -1.6238  2.7240
  186MPD1    H3 2837   3.806   3.530  16.077 -1.1901  0.3397 -1.0283
  186MPD1     N 2838   3.695   3.838  16.385  0.0574  0.9194 -0.0962
  186MPD1    H5 2839   3.649   3.852  16.474  0.9979  1.6347  0.2763
  186MPD1    N1 2840   3.525   3.370  16.380  0.5243 -0.2959 -0.0238
  186MPD1    H6 2841   3.494   3.365  16.477  1.0410  2.9762  0.3032
  186MPD1    H7 2842   3.570   3.282  16.357 -0.8296 -0.5501 -1.7890
  187MPD1     C 2843   2.692   1.086   0.510 -0.1471  0.2898  0.2718
  187MPD1    C1 2844   2.771   1.140   0.406  0.4439  0.6355  0.9238
  187MPD1    C2 2845   2.720   1.163   0.278  0.5684  0.1117  0.3474
  187MPD1    C3 2846   2.584   1.135   0.261  0.1818 -0.4673 -0.0139
  187MPD1    C4 2847   2.512   1.077   0.366 -0.4391  0.3605  0.2079
  187MPD1    C5 2848   2.567   1.055   0.489 -0.3247 -0.2939 -0.6129
  187MPD1     H 2849   2.781   1.196   0.195  1.0996  1.4381  1.2623
  187MPD1    H1 2850   2.404   1.073   0.361 -0.4741  0.7455  0.6162
  187MPD1    H2 2851   2.737   1.061   0.605 -0.0439  1.9845  0.6632
  187MPD1    H3 2852   2.505   1.017   0.570  2.3575 -0.6214  1.2975
  187MPD1     N 2853   2.508   1.166   0.146  0.3811  0.1527 -0.3187
  187MPD1    H5 2854   2.410   1.141   0.137  0.7624 -1.2362 -0.5871
  187MPD1    N1 2855   2.905   1.190   0.429 -0.5006 -0.5036 -0.1708
  187MPD1    H6 2856   2.953   1.181   0.339 -0.2199  1.0242 -0.1617
  187MPD1    H7 2857   2.960   1.142   0.499  1.3836  1.7839 -0.1084
  188MPD1     C 2858   2.002   0.723  10.650 -0.1555 -0.7528  0.1821
  188MPD1    C1 2859   1.943   0.733  10.531 -0.3485 -0.2096  0.0634
  188MPD1    C2 2860   1.937   0.626  10.444 -0.2326  0.6836 -0.5892
  188MPD1    C3 2861   1.995   0.505  10.484  0.5559 -0.1300  0.4319
  188MPD1    C4 2862   2.047   0.492  10.610  0.3714 -0.4035  0.5789
  188MPD1    C5 2863   2.055   0.604  10.698 -0.9010  0.5175 -0.0214
  188MPD1     H 2864   1.885   0.639  10.350 -0.8629  0.1469 -0.3167
  188MPD1    H1 2865   2.085   0.397  10.644  0.2552 -0.9663 -0.8719
  188MPD1    H2 2866   1.993   0.796  10.730 -1.3959 -1.0824  0.3411
  188MPD1    H3 2867   2.105   0.599  10.794 -1.3568 -0.9786  0.1293
  188MPD1     N 2868   2.002   0.388  10.400  0.3871  0.5407 -0.6619
  188MPD1    H5 2869   2.027   0.295  10.433  0.9437  1.6661  2.0581
  188MPD1    N1 2870   1.865   0.852  10.525  0.7971  0.1980  0.3870
  188MPD1    H6 2871   1.858   0.892  10.431 -1.0687 -2.1449 -0.4923
  188MPD1    H7 2872   1.907   0.923  10.584  0.8242 -1.1418  1.9753
  189MPD1     C 2873   4.195   1.540   1.050 -0.2168  0.4780  0.2226
  189MPD1    C1 2874   4.154   1.419   1.000 -0.5181  0.2947  0.7199
  189MPD1    C2 2875   4.031   1.415   0.933 -0.2414  1.0968  0.1211
  189MPD1    C3 2876   3.964   1.536   0.916 -0.0639 -0.6284  0.0677
  189MPD1    C4 2877   4.023   1.656   0.958 -0.4395 -0.8713  0.5744
  189MPD1    C5 2878   4.133   1.658   1.028 -0.2584  0.0769 -0.4689
  189MPD1     H 2879   3.986   1.321   0.905  0.2612  0.9081 -0.0551
  189MPD1    H1 2880   3.990   1.755   0.929 -3.5535 -1.5945  1.6562
  189MPD1    H2 2881   4.290   1.544   1.103  0.6840  1.2888 -1.4405
  189MPD1    H3 2882   4.189   1.744   1.062  0.1261 -0.6779  0.8060
  189MPD1     N 2883   3.835   1.532   0.853  0.5160 -0.0968  1.1331
  189MPD1    H5 2884   3.804   1.440   0.823  1.9724  0.8487 -3.2267
  189MPD1    N1 2885   4.223   1.304   1.042  0.5670  0.6275 -0.2408
  189MPD1    H6 2886   4.320   1.331   1.052  0.9980  0.4608 -4.0393
  189MPD1    H7 2887   4.213   1.215   0.994 -0.8071  0.8310 -0.3539
  190MPD1     C 2888   2.651   1.515  15.862 -0.3335  0.3535  0.0280
  190MPD1    C1 2889   2.626   1.405  15.938 -0.4415 -0.0053 -0.3505
  190MPD1    C2 2890   2.717   1.297  15.938  0.0246 -0.3177 -0.2790
  190MPD1    C3 2891   2.832   1.305  15.866  0.3043  0.3674  0.0502
  190MPD1    C4 2892   2.862   1.420  15.805  0.2155  0.2737  0.6449
  190MPD1    C5 2893   2.765   1.518  15.790 -0.2895  0.5155  0.0965
  190MPD1     H 2894   2.682   1.217  16.003 -1.3692  1.7361  1.5078
  190MPD1    H1 2895   2.955   1.430  15.751 -0.2926 -0.2701 -0.3305
  190MPD1    H2 2896   2.571   1.587  15.850  1.3914  1.9571 -1.7064
  190MPD1    H3 2897   2.777   1.603  15.725  0.2644  2.2195  2.4325
  190MPD1     N 2898   2.919   1.191  15.879 -0.2276  0.5495 -0.3848
  190MPD1    H5 2899   2.896   1.112  15.939  0.8801 -1.1919 -2.2523
  190MPD1    N1 2900   2.500   1.387  15.998 -0.0945 -0.1645  0.1247
  190MPD1    H6 2901   2.457   1.476  16.022  2.8444  1.0210  1.0143
  190MPD1    H7 2902   2.488   1.318  16.071  0.3976  0.2030  0.5536
  191MPD1     C 2903   1.901   2.752  12.709  0.5813 -0.7429  0.0660
  191MPD1    C1 2904   1.809   2.685  12.638  0.7282 -0.3211 -0.3706
  191MPD1    C2 2905   1.853   2.569  12.577 -0.8097  0.8681  0.4711
  191MPD1    C3 2906   1.976   2.509  12.596 -0.4460 -0.5980 -0.5257
  191MPD1    C4 2907   2.063   2.580  12.681  0.4118 -0.4852  0.7365
  191MPD1    C5 2908   2.025   2.700  12.738  0.8550 -0.3075  0.0327
  191MPD1     H 2909   1.781   2.515  12.516 -0.8055  0.1951  1.0597
  191MPD1    H1 2910   2.157   2.534  12.708 -1.0036 -2.7139  1.9182
  191MPD1    H2 2911   1.874   2.850  12.746 -0.7507 -0.6028 -1.3010
  191MPD1    H3 2912   2.095   2.752  12.802 -1.0809  1.0076  1.0710
  191MPD1     N 2913   2.020   2.401  12.509  0.2205  0.2719  0.0328
  191MPD1    H5 2914   1.952   2.367  12.441 -1.0234  1.5574  0.6345
  191MPD1    N1 2915   1.697   2.754  12.588 -0.2576 -0.0755 -0.9979
  191MPD1    H6 2916   1.624   2.709  12.533 -1.7548  1.2824 -0.1136
  191MPD1    H7 2917   1.655   2.808  12.663 -0.2593  0.1999 -1.1991
  192MPD1     C 2918   1.590   1.803  12.043 -0.5350 -0.9176  0.2081
  192MPD1    C1 2919   1.677   1.879  11.970 -0.0938 -0.7995  0.5275
  192MPD1    C2 2920   1.782   1.930  12.034  0.8233  0.0270  0.0432
  192MPD1    C3 2921   1.801   1.912  12.170 -0.3822  0.2370  0.5813
  192MPD1    C4 2922   1.713   1.828  12.236 -0.4493 -0.0628  0.2647
  192MPD1    C5 2923   1.608   1.768  12.171 -0.3389  0.4608 -0.9452
  192MPD1     H 2924   1.843   1.998  11.977 -1.2295  0.9803 -1.0286
  192MPD1    H1 2925   1.729   1.833  12.343  1.7987  1.1165 -0.1278
  192MPD1    H2 2926   1.508   1.746  12.001 -0.7478 -1.3178  1.1783
  192MPD1    H3 2927   1.539   1.700  12.220  0.6675  1.7468  2.2618
  192MPD1     N 2928   1.905   1.976  12.245  0.2264  0.0174  0.0295
  192MPD1    H5 2929   1.905   1.959  12.345  0.8609 -1.5269 -0.2174
  192MPD1    N1 2930   1.655   1.914  11.841  0.0607  0.3687  0.1049
  192MPD1    H6 2931   1.738   1.940  11.787 -2.1928  0.1401 -3.4547
  192MPD1    H7 2932   1.598   1.843  11.794 -1.6667  0.1693  2.5284
  193MPD1     C 2933   1.562   2.338  16.425  0.3724 -0.3249 -0.1487
  193MPD1    C1 2934   1.694   2.351  16.377  0.3775 -0.3089 -0.2109
  193MPD1    C2 2935   1.772   2.441  16.431 -0.2949 -0.0792 -0.5461
  193MPD1    C3 2936   1.727   2.526  16.533  0.6473 -0.2480 -0.0753
  193MPD1    C4 2937   1.602   2.514  16.583 -0.2694  0.1230 -0.1078
  193MPD1    C5 2938   1.520   2.423  16.525 -0.2355  0.9296 -0.2290
  193MPD1     H 2939   1.872   2.441  16.391 -0.0074  0.2458  0.1883
  193MPD1    H1 2940   1.567   2.580  16.661  1.5766  1.9273 -0.7884
  193MPD1    H2 2941   1.493   2.263  16.388  0.0774  0.4255 -1.1371
  193MPD1    H3 2942   1.416   2.419  16.553  0.2461  0.0444  1.4309
  193MPD1     N 2943   1.818   2.631  16.567 -0.3052 -0.3971  0.1545
  193MPD1    H5 2944   1.907   2.631  16.518  0.4175 -2.8354  1.4551
  193MPD1    N1 2945   1.731   2.263  16.274  0.5042  0.0269 -0.3750
  193MPD1    H6 2946   1.798   2.302  16.208  0.5308  0.9551  0.1981
  193MPD1    H7 2947   1.657   2.230  16.213  1.0168 -1.6693 -0.0855
  194MPD1     C 2948   0.622   0.822  17.362  0.0290  0.3839 -0.4336
  194MPD1    C1 2949   0.731   0.738  17.367 -0.3827 -0.0452 -0.7289
  194MPD1    C2 2950   0.716   0.625  17.444 -0.1184  0.0269 -0.4160
  194MPD1    C3 2951   0.594   0.587  17.491  0.9893 -0.3619  0.2050
  194MPD1    C4 2952   0.486   0.673  17.477  0.3378  0.2289  0.2956
  194MPD1    C5 2953   0.498   0.787  17.404  0.2525 -0.5690 -0.2411
  194MPD1     H 2954   0.804   0.566  17.466  0.5886  1.5429  0.7092
  194MPD1    H1 2955   0.392   0.646  17.524  0.3033 -0.8446 -0.3925
  194MPD1    H2 2956   0.627   0.919  17.314 -1.3164  0.3777 -0.5799
  194MPD1    H3 2957   0.415   0.855  17.388  0.5849 -0.0275  0.3239
  194MPD1     N 2958   0.573   0.468  17.558 -1.0216 -0.7644 -0.2344
  194MPD1    H5 2959   0.479   0.458  17.596 -0.5544 -1.6608  0.6887
  194MPD1    N1 2960   0.857   0.776  17.317 -0.7580 -0.0779 -0.3931
  194MPD1    H6 2961   0.920   0.695  17.317 -0.2636  0.3033 -1.1227
  194MPD1    H7 2962   0.845   0.825  17.228  2.5470 -0.2075 -0.9347
  195MPD1     C 2963   1.815   1.622   0.172  0.4279 -0.2377  0.1912
  195MPD1    C1 2964   1.921   1.539   0.163  0.5303 -0.4407  0.3647
  195MPD1    C2 2965   1.928   1.425   0.239  0.2675  0.4249  0.5382
  195MPD1    C3 2966   1.829   1.398   0.327  0.1811 -0.0081  0.4877
  195MPD1    C4 2967   1.733   1.495   0.351  0.6920 -0.3462 -0.5817
  195MPD1    C5 2968   1.721   1.606   0.268 -0.4543  0.2720 -0.5710
  195MPD1     H 2969   2.014   1.361   0.223 -1.1475 -0.9413 -1.6138
  195MPD1    H1 2970   1.663   1.489   0.434  2.2539  0.5136  0.7778
  195MPD1    H2 2971   1.820   1.712   0.113 -1.6565  0.9232  1.7801
  195MPD1    H3 2972   1.628   1.661   0.276 -0.7606 -0.7111  2.3553
  195MPD1     N 2973   1.830   1.289   0.412  0.6383  0.7502 -0.4596
  195MPD1    H5 2974   1.760   1.284   0.485 -0.3196 -0.9315 -1.4916
  195MPD1    N1 2975   2.025   1.570   0.068 -0.2236  0.1361  1.2225
  195MPD1    H6 2976   2.017   1.496  17.701 -0.7124  1.3948 -0.0562
  195MPD1    H7 2977   2.025   1.662   0.022  1.9118 -0.3274  0.3025
  196MPD1     C 2978   0.467   4.520   0.541 -0.5144 -0.6559  0.0162
  196MPD1    C1 2979   0.597   4.544   0.586  0.4586 -0.8318 -0.6597
  196MPD1    C2 2980   0.630   4.654   0.660 -0.4610 -0.0473  0.5341
  196MPD1    C3 2981   0.530   0.016   0.695 -0.4119  0.5072  0.6341
  196MPD1    C4 2982   0.405   4.720   0.645  0.1273  0.1506 -0.2139
  196MPD1    C5 2983   0.374   4.610   0.573 -0.6580 -0.7957 -0.0214
  196MPD1     H 2984   0.733   4.672   0.688 -0.6805  3.2357 -0.7844
  196MPD1    H1 2985   0.318   0.056   0.665 -1.6074 -1.9517 -1.2610
  196MPD1    H2 2986   0.441   4.441   0.471  0.5004 -0.7753 -0.2276
  196MPD1    H3 2987   0.272   4.600   0.538 -1.0226  0.7247  0.6114
  196MPD1     N 2988   0.546   0.125   0.782 -0.6393  0.1920 -0.0265
  196MPD1    H5 2989   0.467   0.182   0.808 -0.6041 -0.1707  0.8519
  196MPD1    N1 2990   0.694   4.449   0.556  0.1424  0.3205  0.5968
  196MPD1    H6 2991   0.668   4.397   0.473  0.4497 -0.8046  1.2080
  196MPD1    H7 2992   0.791   4.474   0.574  0.0258  1.2493 -0.0437
  197MPD1     C 2993   1.026   3.139  17.510 -0.3374 -0.7483  0.0529
  197MPD1    C1 2994   1.013   3.279  17.523  0.0683 -0.2755  0.2689
  197MPD1    C2 2995   1.056   3.359  17.416  0.4645 -0.1724  0.3802
  197MPD1    C3 2996   1.132   3.305  17.314  0.1459 -0.4709 -0.8764
  197MPD1    C4 2997   1.157   3.169  17.313 -0.1467  0.1573 -0.0044
  197MPD1    C5 2998   1.094   3.084  17.406 -0.1174  0.9209 -0.0931
  197MPD1     H 2999   1.036   3.464  17.428  0.0287 -0.1218 -0.7643
  197MPD1    H1 3000   1.196   3.125  17.222 -2.3838 -2.8227  0.4896
  197MPD1    H2 3001   0.973   3.075  17.580 -0.5563 -1.1921 -0.5205
  197MPD1    H3 3002   1.093   2.977  17.394 -0.4738  0.7728  1.2790
  197MPD1     N 3003   1.183   3.374  17.198 -0.0627 -0.0727 -0.8388
  197MPD1    H5 3004   1.214   3.316  17.121 -0.6018 -0.7241 -0.5605
  197MPD1    N1 3005   0.929   3.328  17.623  0.5762 -0.6380 -0.8503
  197MPD1    H6 3006   0.930   3.272   0.004  2.4205 -1.1268 -1.1984
  197MPD1    H7 3007   0.964   3.421  17.647  3.7351 -2.2480  0.7443
  198MPD1     C 3008   1.966   1.456  16.432  0.1072 -0.1615  0.4056
  198MPD1    C1 3009   2.008   1.550  16.523  0.3340 -0.2996  0.1630
  198MPD1    C2 3010   2.120   1.626  16.489  0.3977  0.1169 -0.0869
  198MPD1    C3 3011   2.188   1.599  16.370 -0.5037 -0.3517  0.1087
  198MPD1    C4 3012   2.136   1.515  16.274 -0.3575 -0.0808 -0.3235
  198MPD1    C5 3013   2.029   1.437  16.311  0.0993  0.4035 -0.4194
  198MPD1     H 3014   2.157   1.702  16.557  0.7909 -0.8004  0.7210
  198MPD1    H1 3015   2.171   1.488  16.175  0.5331  0.6835 -0.2235
  198MPD1    H2 3016   1.893   1.381  16.463 -0.3859 -1.3927 -3.7471
  198MPD1    H3 3017   1.989   1.364  16.241 -0.6372 -1.4336  1.9058
  198MPD1     N 3018   2.306   1.672  16.353 -0.2926 -0.2205 -0.0558
  198MPD1    H5 3019   2.334   1.734  16.429 -0.4436 -1.1242  0.7398
  198MPD1    N1 3020   1.958   1.551  16.652  0.0423 -0.3340  0.3123
  198MPD1    H6 3021   1.968   1.644  16.692 -0.5587 -0.0923 -0.0933
  198MPD1    H7 3022   1.859   1.529  16.648  0.0272 -0.2908  0.4688
  199MPD1     C 3023   3.766   2.028   9.229 -0.1841 -0.2807  0.3349
  199MPD1    C1 3024   3.818   2.146   9.172  0.4397 -0.7714  0.2831
  199MPD1    C2 3025   3.888   2.242   9.253 -0.3618  0.4674  0.3634
  199MPD1    C3 3026   3.894   2.218   9.391  0.2711  0.5100  0.2038
  199MPD1    C4 3027   3.847   2.097   9.447 -0.0305 -0.4047 -0.6108
  199MPD1    C5 3028   3.784   2.008   9.365  0.4534  0.0798 -0.2428
  199MPD1     H 3029   3.935   2.329   9.209  0.6482  0.2278  0.9685
  199MPD1    H1 3030   3.842   2.090   9.555  1.1885 -1.7021 -0.6443
  199MPD1    H2 3031   3.704   1.956   9.177 -0.3587 -0.1673  0.3843
  199MPD1    H3 3032   3.748   1.919   9.415 -0.5703  0.0113 -1.0996
  199MPD1     N 3033   3.938   2.314   9.486  0.0432 -0.0922  0.1290
  199MPD1    H5 3034   3.909   2.291   9.580  0.0513 -2.6233 -0.4757
  199MPD1    N1 3035   3.793   2.185   9.035  0.2747 -0.1840  0.3036
  199MPD1    H6 3036   3.760   2.107   8.978 -1.1355  1.2207 -0.8089
  199MPD1    H7 3037   3.871   2.226   8.983 -1.3393 -0.3993 -2.2739
  200MPD1     C 3038   4.023   2.727  14.722 -0.0153  0.0097  0.8164
  200MPD1    C1 3039   3.988   2.725  14.589 -0.3632  0.2074 -0.6407
  200MPD1    C2 3040   4.082   2.772  14.505 -0.3839  0.7267 -0.1807
  200MPD1    C3 3041   4.205   2.813  14.547 -0.3189 -0.6292 -0.3317
  200MPD1    C4 3042   4.238   2.802  14.685  0.0663  0.3748 -0.6858
  200MPD1    C5 3043   4.142   2.768  14.774  0.1056 -0.5835 -0.6342
  200MPD1     H 3044   4.061   2.792  14.401 -0.5298 -1.3388 -0.5341
  200MPD1    H1 3045   4.330   2.840  14.730 -0.9719  0.8547  1.0555
  200MPD1    H2 3046   3.961   2.690  14.802 -0.4748 -2.7673 -0.8131
  200MPD1    H3 3047   4.162   2.769  14.880 -0.5327  0.1760 -0.5266
  200MPD1     N 3048   4.284   2.875  14.453 -0.1079  0.4131 -0.4472
  200MPD1    H5 3049   4.251   2.890  14.358  0.1551 -2.7952 -1.0528
  200MPD1    N1 3050   3.854   2.695  14.550 -0.7947 -0.3981 -1.1633
  200MPD1    H6 3051   3.803   2.635  14.615 -0.4254  0.7799  0.2140
  200MPD1    H7 3052   3.869   2.649  14.461  0.5626 -1.0394 -0.6021
  201MPD1     C 3053   1.527   2.229  13.206  0.7484  0.2337 -0.2958
  201MPD1    C1 3054   1.537   2.168  13.330 -0.4058 -0.3867 -0.7096
  201MPD1    C2 3055   1.573   2.036  13.335  0.3060  0.3391  0.5837
  201MPD1    C3 3056   1.573   1.961  13.223  0.3799  0.5583  0.5958
  201MPD1    C4 3057   1.565   2.022  13.099 -0.3028 -0.3021  0.2333
  201MPD1    C5 3058   1.538   2.155  13.095  0.5059 -0.1628  0.4212
  201MPD1     H 3059   1.591   1.984  13.428 -0.1094  0.2464  0.6102
  201MPD1    H1 3060   1.578   1.967  13.006 -0.3741 -0.4899  0.3328
  201MPD1    H2 3061   1.499   2.334  13.198 -0.0181  0.0736  0.3040
  201MPD1    H3 3062   1.534   2.209  13.001 -0.2389 -0.8469  0.0643
  201MPD1     N 3063   1.576   1.822  13.238 -0.0765 -0.2637 -0.5934
  201MPD1    H5 3064   1.598   1.783  13.330 -0.5232  0.3459 -0.2271
  201MPD1    N1 3065   1.554   2.250  13.444 -0.5689  0.2078  0.0064
  201MPD1    H6 3066   1.540   2.194  13.528 -1.0142 -0.4889 -0.5339
  201MPD1    H7 3067   1.500   2.335  13.458  0.4721  1.3169 -2.6967
  202MPD1     C 3068   0.404   0.225   9.589 -0.1461 -0.5021  0.2734
  202MPD1    C1 3069   0.353   0.311   9.682 -0.6642  0.5014  0.6637
  202MPD1    C2 3070   0.450   0.397   9.735  0.1679  0.4309 -0.3377
  202MPD1    C3 3071   0.587   0.385   9.721  0.1317  0.0948 -0.4830
  202MPD1    C4 3072   0.631   0.273   9.657 -0.6975 -0.5626  0.1336
  202MPD1    C5 3073   0.542   0.191   9.595  0.1053  0.4208  0.2124
  202MPD1     H 3074   0.412   0.471   9.804  2.1197  1.2397 -0.1119
  202MPD1    H1 3075   0.736   0.254   9.637 -0.2739  2.2078 -0.2576
  202MPD1    H2 3076   0.340   0.177   9.517 -0.1173 -1.1391  0.6695
  202MPD1    H3 3077   0.581   0.120   9.523 -0.3514  0.9112 -0.5209
  202MPD1     N 3078   0.681   0.464   9.787  0.0879 -0.4114 -0.0163
  202MPD1    H5 3079   0.777   0.431   9.781  1.0097  2.0991  1.1802
  202MPD1    N1 3080   0.217   0.362   9.668  0.0642 -0.7765  0.7406
  202MPD1    H6 3081   0.196   0.407   9.757  3.3632 -0.0523  1.1578
  202MPD1    H7 3082   0.149   0.287   9.656 -0.7971 -0.0839  1.2885
  203MPD1     C 3083   0.102   2.606  12.670  0.0341 -0.1892  0.5397
  203MPD1    C1 3084   0.120   2.548  12.548  0.4477  0.1433  0.2577
  203MPD1    C2 3085   0.173   2.417  12.555  0.4497 -0.5686 -0.0600
  203MPD1    C3 3086   0.216   2.353  12.669  0.1996 -0.2270 -0.1885
  203MPD1    C4 3087   0.198   2.428  12.787  0.1637  0.5296  0.0388
  203MPD1    C5 3088   0.126   2.539  12.779  0.3200 -0.2412 -0.0158
  203MPD1     H 3089   0.174   2.366  12.460  0.3612 -1.4878  0.4307
  203MPD1    H1 3090   0.205   2.379  12.884  0.6497 -0.1590 -0.3431
  203MPD1    H2 3091   0.050   2.701  12.679  0.4893  0.1424 -0.3682
  203MPD1    H3 3092   0.078   2.565  12.872  1.1682  2.6206 -0.3547
  203MPD1     N 3093   0.259   2.221  12.675 -0.5363 -0.0690 -0.2643
  203MPD1    H5 3094   0.250   2.162  12.593 -0.2927  0.0674 -0.3878
  203MPD1    N1 3095   0.051   2.597  12.434  0.0556  0.2558 -0.6354
  203MPD1    H6 3096   0.035   2.697  12.440  0.5783  0.1782  2.0128
  203MPD1    H7 3097   0.105   2.581  12.349 -0.6979 -1.8129 -0.7187
  204MPD1     C 3098   4.169   3.389   0.721  0.5190  0.0899 -0.2552
  204MPD1    C1 3099   4.236   3.436   0.613 -0.2993  0.0181 -0.4429
  204MPD1    C2 3100   4.223   3.366   0.496 -0.3464  0.7529  0.2062
  204MPD1    C3 3101   4.158   3.247   0.489  0.2943  0.5846 -0.2263
  204MPD1    C4 3102   4.089   3.203   0.598 -0.2472  0.6395 -0.2939
  204MPD1    C5 3103   4.099   3.266   0.718 -0.0618 -0.0225  0.1853
  204MPD1     H 3104   4.262   3.409   0.405 -1.6272  1.2805 -0.1019
  204MPD1    H1 3105   4.010   3.129   0.591 -0.0120  0.3878 -0.2331
  204MPD1    H2 3106   4.170   3.439   0.818  2.5402 -1.0806  0.3363
  204MPD1    H3 3107   4.032   3.238   0.798  0.9597  0.1579  1.0924
  204MPD1     N 3108   4.161   3.174   0.367  0.1168 -0.2135 -0.0586
  204MPD1    H5 3109   4.206   3.216   0.286 -1.5725  0.0317 -0.8622
  204MPD1    N1 3110   4.328   3.541   0.617  0.4050  0.3995 -0.7192
  204MPD1    H6 3111   4.338   3.593   0.530  0.7432 -1.5568 -1.8619
  204MPD1    H7 3112   4.306   3.610   0.688 -0.1170  1.5107 -1.9665
  205MPD1     C 3113   0.059   1.874  17.036 -0.0858  0.5692  0.0533
  205MPD1    C1 3114   4.662   1.908  16.981 -0.4213  0.2178  0.8304
  205MPD1    C2 3115   4.551   1.910  17.065  0.0798 -0.2044  0.3952
  205MPD1    C3 3116   4.563   1.867  17.196 -0.2052 -0.2143 -0.0220
  205MPD1    C4 3117   4.686   1.816  17.244  0.2862  0.7585 -0.3402
  205MPD1    C5 3118   0.070   1.820  17.162  0.4171  0.0920 -0.5893
  205MPD1     H 3119   4.460   1.953  17.023  0.4051 -0.9516 -1.0776
  205MPD1    H1 3120   4.694   1.772  17.342 -2.8826 -0.8712 -0.8205
  205MPD1    H2 3121   0.152   1.893  16.983  0.7291 -1.4855  0.7468
  205MPD1    H3 3122   0.170   1.789  17.189 -0.1903 -1.2647  0.1022
  205MPD1     N 3123   4.450   1.859  17.289  0.2862 -0.0550  0.4394
  205MPD1    H5 3124   4.475   1.813  17.376 -0.9498 -0.7272  0.4389
  205MPD1    N1 3125   4.659   1.971  16.858  0.4545  0.3374 -0.3121
  205MPD1    H6 3126   4.566   1.946  16.826  0.9251  0.0668 -1.4575
  205MPD1    H7 3127   4.721   1.921  16.794  0.5552 -0.0764  0.1111
  206MPD1     C 3128   0.026   0.538  16.734 -0.5381  0.4098  0.5674
  206MPD1    C1 3129   0.025   0.408  16.684 -0.1201  0.4294 -0.3204
  206MPD1    C2 3130   4.696   0.378  16.556 -0.3755 -0.1712  0.1164
  206MPD1    C3 3131   4.620   0.474  16.496 -0.7031 -0.4497 -0.0185
  206MPD1    C4 3132   4.623   0.613  16.534  0.3014 -0.1545 -0.8287
  206MPD1    C5 3133   4.685   0.639  16.656 -0.1394  0.6730  0.3234
  206MPD1     H 3134   4.695   0.278  16.515  1.3960  0.3331 -1.1503
  206MPD1    H1 3135   4.551   0.683  16.493 -0.4105  0.2928  1.2065
  206MPD1    H2 3136   0.063   0.568  16.832 -1.5213 -3.0663  2.0032
  206MPD1    H3 3137   4.680   0.740  16.695  1.5956  1.4034 -1.3471
  206MPD1     N 3138   4.573   0.452  16.363  0.1491 -0.0179  0.1447
  206MPD1    H5 3139   4.530   0.532  16.317  3.1358  2.6468  1.9460
  206MPD1    N1 3140   0.095   0.306  16.754 -0.2225  0.4347 -0.5050
  206MPD1    H6 3141   0.156   0.336  16.830 -0.8725  0.6734 -0.0762
  206MPD1    H7 3142   0.131   0.231  16.696  0.8506 -1.6272  2.8234
  207MPD1     C 3143   2.023   2.567  10.095  0.7407  0.1032 -0.1570
  207MPD1    C1 3144   2.131   2.646  10.120  0.9392  0.5868 -0.2260
  207MPD1    C2 3145   2.186   2.637  10.250  0.2932 -0.1062 -0.6503
  207MPD1    C3 3146   2.148   2.534  10.336  0.6363 -0.0280  0.1106
  207MPD1    C4 3147   2.045   2.447  10.301 -0.4598 -0.0790 -0.5072
  207MPD1    C5 3148   1.985   2.464  10.182  0.1549 -0.6430  0.7549
  207MPD1     H 3149   2.273   2.696  10.275 -0.2065  1.2334 -2.0587
  207MPD1    H1 3150   2.008   2.373  10.371  0.2603  1.4774  1.5402
  207MPD1    H2 3151   1.969   2.560  10.001  1.6303 -2.5110 -0.5026
  207MPD1    H3 3152   1.898   2.404  10.159 -0.9059  0.7629  1.1175
  207MPD1     N 3153   2.190   2.524  10.471  0.0690 -0.0334  0.7450
  207MPD1    H5 3154   2.143   2.452  10.523  0.3470 -2.0840 -1.8790
  207MPD1    N1 3155   2.151   2.758  10.045  0.0489  0.1921  0.2965
  207MPD1    H6 3156   2.143   2.733   9.947  0.5704 -1.2709  0.6324
  207MPD1    H7 3157   2.246   2.796  10.051 -0.5553  1.7697 -0.0329
  208MPD1     C 3158   0.225   0.534  17.331  0.5360  0.4101  0.4500
  208MPD1    C1 3159   0.206   0.455  17.448  0.3321 -0.2128 -0.3391
  208MPD1    C2 3160   0.149   0.518  17.561 -0.3337 -0.0698  0.1700
  208MPD1    C3 3161   0.089   0.641  17.547 -0.1559 -0.7584 -0.6878
  208MPD1    C4 3162   0.089   0.709  17.427 -1.1815 -0.1718 -0.1842
  208MPD1    C5 3163   0.162   0.656  17.322  0.3475  0.2888  0.3972
  208MPD1     H 3164   0.148   0.457  17.651  0.3392  0.9660  0.8771
  208MPD1    H1 3165   0.055   0.809  17.405  0.5874  0.6954  0.9944
  208MPD1    H2 3166   0.287   0.491  17.252 -0.7748 -1.0471  0.2015
  208MPD1    H3 3167   0.175   0.721  17.236 -0.9472 -1.9979 -1.5506
  208MPD1     N 3168   0.029   0.695  17.665 -0.3098 -0.4794 -0.0039
  208MPD1    H5 3169   0.052   0.650   0.049 -1.1980  3.0751  2.0677
  208MPD1    N1 3170   0.284   0.337  17.461  0.1541  0.5649 -0.4244
  208MPD1    H6 3171   0.231   0.276  17.521 -2.5416  0.3491 -3.0018
  208MPD1    H7 3172   0.283   0.292  17.369 -1.1986  1.1990 -0.7195
  209MPD1     C 3173   1.980   0.984  11.173 -0.0318  0.4412  0.2890
  209MPD1    C1 3174   2.045   1.049  11.068 -0.2679 -0.3681  0.0821
  209MPD1    C2 3175   2.063   1.191  11.084 -0.0157  0.3783  0.1019
  209MPD1    C3 3176   2.064   1.243  11.214  1.3677  0.3839  0.3201
  209MPD1    C4 3177   2.007   1.172  11.318  0.9296 -0.5250  0.4407
  209MPD1    C5 3178   1.958   1.049  11.290 -0.2880  0.3380  0.0855
  209MPD1     H 3179   2.107   1.247  11.002  3.8638 -0.4468  1.5893
  209MPD1    H1 3180   1.976   1.216  11.412 -0.5017 -1.1205  0.2358
  209MPD1    H2 3181   1.945   0.883  11.156  1.4011 -0.4252  2.4516
  209MPD1    H3 3182   1.887   1.007  11.360 -0.7496 -0.5625 -0.9204
  209MPD1     N 3183   2.118   1.375  11.235  0.6819 -0.4939 -0.2373
  209MPD1    H5 3184   2.146   1.422  11.150 -0.2243 -0.9928 -0.8205
  209MPD1    N1 3185   2.046   0.990  10.938  0.0451  0.2271 -0.2888
  209MPD1    H6 3186   2.125   1.041  10.899 -1.4457  1.0920 -2.1818
  209MPD1    H7 3187   2.066   0.891  10.950  0.2650 -0.2174 -4.1989
  210MPD1     C 3188   2.843   1.650  11.897 -0.0889 -0.1314  0.0835
  210MPD1    C1 3189   2.766   1.761  11.870  0.0048 -0.1841  0.0006
  210MPD1    C2 3190   2.660   1.761  11.781  0.0534  0.1322  0.0760
  210MPD1    C3 3191   2.626   1.638  11.719  0.0008 -0.3058 -0.3915
  210MPD1    C4 3192   2.705   1.530  11.748  0.3719  0.2909 -0.3272
  210MPD1    C5 3193   2.817   1.537  11.827  0.7396  0.3565  0.8623
  210MPD1     H 3194   2.615   1.854  11.749  2.5125  1.0566 -0.7476
  210MPD1    H1 3195   2.693   1.431  11.706  0.9660  0.0209  0.1388
  210MPD1    H2 3196   2.927   1.641  11.964  1.6095  0.3140 -1.9655
  210MPD1    H3 3197   2.884   1.454  11.847  1.2858  0.6888  0.4176
  210MPD1     N 3198   2.524   1.633  11.616  0.2398 -0.7372 -0.1660
  210MPD1    H5 3199   2.506   1.541  11.577 -3.5581  0.8208 -2.0404
  210MPD1    N1 3200   2.801   1.883  11.940 -0.7433 -0.2125  0.2501
  210MPD1    H6 3201   2.837   1.862  12.033  2.7466 -1.6888 -1.4120
  210MPD1    H7 3202   2.735   1.960  11.938  0.5451  0.9147  0.7560
  211MPD1     C 3203   0.630   1.045  16.246  0.4347  0.4396 -1.0326
  211MPD1    C1 3204   0.506   1.006  16.296  0.0243 -0.5361  0.0808
  211MPD1    C2 3205   0.408   1.107  16.302  0.7383 -0.1022 -0.7210
  211MPD1    C3 3206   0.420   1.236  16.243  0.5080  0.0559 -0.0479
  211MPD1    C4 3207   0.539   1.263  16.175 -0.8179 -0.0553 -0.3510
  211MPD1    C5 3208   0.639   1.166  16.178 -0.1720  0.2906  0.2598
  211MPD1     H 3209   0.320   1.093  16.362 -0.1184  1.7564 -1.5400
  211MPD1    H1 3210   0.559   1.356  16.125 -0.7066 -1.0003 -2.0745
  211MPD1    H2 3211   0.716   0.980  16.238  0.0199 -0.1561 -0.6402
  211MPD1    H3 3212   0.727   1.208  16.131  0.0408 -1.0653 -0.5326
  211MPD1     N 3213   0.311   1.319  16.254  0.1644 -0.2446 -0.1790
  211MPD1    H5 3214   0.231   1.290  16.309 -0.2331  3.6079  1.2755
  211MPD1    N1 3215   0.491   0.887  16.370  0.0167  0.5677 -0.3215
  211MPD1    H6 3216   0.398   0.858  16.342 -1.6744  4.1559  1.6619
  211MPD1    H7 3217   0.560   0.816  16.345  0.2280 -0.3113  2.7381
  212MPD1     C 3218   4.183   0.482  16.477  0.9085  0.3971 -0.3611
  212MPD1    C1 3219   4.207   0.468  16.615  0.7630  0.2373 -0.2084
  212MPD1    C2 3220   4.248   0.345  16.663 -0.2941  0.6426 -0.1148
  212MPD1    C3 3221   4.281   0.243  16.576 -0.4110 -0.3099 -0.3531
  212MPD1    C4 3222   4.279   0.267  16.441 -0.5187  0.0640  0.7696
  212MPD1    C5 3223   4.231   0.387  16.393 -0.1535 -0.3382 -0.1230
  212MPD1     H 3224   4.248   0.323  16.769  0.9683  0.1447 -0.2250
  212MPD1    H1 3225   4.310   0.184  16.377 -0.8769  1.9152 -1.8215
  212MPD1    H2 3226   4.153   0.575  16.430 -0.0845 -0.2627 -1.0389
  212MPD1    H3 3227   4.235   0.412  16.287  2.9798 -2.3550 -0.5008
  212MPD1     N 3228   4.327   0.119  16.614  0.7263  0.0419 -0.9050
  212MPD1    H5 3229   4.360   0.052  16.544 -0.0056 -0.5794 -0.6579
  212MPD1    N1 3230   4.155   0.563  16.710  0.1740  1.1349 -0.5818
  212MPD1    H6 3231   4.150   0.655  16.667 -0.1181  0.0704 -2.8026
  212MPD1    H7 3232   4.216   0.575  16.791  2.2666 -0.9740 -1.8834
  213MPD1     C 3233   1.827   1.967  16.138 -0.0441  0.9509 -0.2428
  213MPD1    C1 3234   1.845   1.939  16.002  0.4294 -0.1638  0.6102
  213MPD1    C2 3235   1.816   1.804  15.970 -0.1074 -0.5754 -0.4949
  213MPD1    C3 3236   1.793   1.706  16.067 -0.1003 -0.4971  0.2639
  213MPD1    C4 3237   1.798   1.740  16.203  0.5782 -0.1075 -0.1378
  213MPD1    C5 3238   1.815   1.868  16.237 -0.3509 -0.4044  0.8188
  213MPD1     H 3239   1.802   1.785  15.864  0.0098  2.6085 -1.0861
  213MPD1    H1 3240   1.767   1.676  16.284  1.5481  1.0957  1.1936
  213MPD1    H2 3241   1.833   2.071  16.169 -0.7284  0.3880  1.7734
  213MPD1    H3 3242   1.809   1.897  16.342  3.3340 -1.5264  1.3077
  213MPD1     N 3243   1.763   1.575  16.031 -0.0343 -0.3612 -0.7796
  213MPD1    H5 3244   1.743   1.559  15.933  0.7994  1.7681 -1.2946
  213MPD1    N1 3245   1.823   2.042  15.906  0.2172  0.0160 -0.2315
  213MPD1    H6 3246   1.854   2.011  15.814 -0.5171  3.4011 -1.6069
  213MPD1    H7 3247   1.859   2.132  15.937  2.3207 -0.5652 -1.0007
  214MPD1     C 3248   0.955   1.037  16.005 -0.6418  0.3450  0.4348
  214MPD1    C1 3249   1.048   0.946  16.034  0.2079 -0.0275  1.1299
  214MPD1    C2 3250   1.181   0.981  16.033  0.1381 -0.5556  0.4003
  214MPD1    C3 3251   1.221   1.106  15.979 -0.1032 -0.2403  0.8614
  214MPD1    C4 3252   1.129   1.193  15.946 -0.7352 -0.5136 -0.2105
  214MPD1    C5 3253   0.995   1.162  15.963  0.2385 -0.3822 -0.6360
  214MPD1     H 3254   1.246   0.900  16.063  1.8983 -0.0052 -1.9538
  214MPD1    H1 3255   1.165   1.287  15.906  0.0591 -1.4521 -1.6709
  214MPD1    H2 3256   0.847   1.025  16.015 -0.8854  2.3745  0.3611
  214MPD1    H3 3257   0.921   1.237  15.937 -1.1084 -0.6198  2.5222
  214MPD1     N 3258   1.356   1.146  15.970  0.0586  0.7808 -0.0237
  214MPD1    H5 3259   1.359   1.242  15.935 -0.3962  1.7981  2.7512
  214MPD1    N1 3260   1.009   0.816  16.080 -0.7172  0.1356 -0.8402
  214MPD1    H6 3261   1.067   0.743  16.038 -1.0471  1.0645 -2.8971
  214MPD1    H7 3262   0.916   0.798  16.043 -0.3896  1.0904 -2.1376
  215MPD1     C 3263   1.660   1.593  10.639 -0.5084  0.5596  0.1995
  215MPD1    C1 3264   1.591   1.702  10.699 -0.5013 -0.5789  0.0227
  215MPD1    C2 3265   1.634   1.748  10.820  0.3318 -0.1302  0.1831
  215MPD1    C3 3266   1.751   1.705  10.871 -0.0324  0.5536 -0.4818
  215MPD1    C4 3267   1.824   1.601  10.812  0.3138 -0.8364 -0.5760
  215MPD1    C5 3268   1.778   1.546  10.693  0.3852  0.0411 -0.3233
  215MPD1     H 3269   1.584   1.832  10.865  0.3942  0.0167 -0.0205
  215MPD1    H1 3270   1.915   1.562  10.856  1.7646  0.9733 -1.9707
  215MPD1    H2 3271   1.623   1.541  10.552 -0.4536 -0.4342  0.7755
  215MPD1    H3 3272   1.821   1.462  10.641  0.5722 -0.3484  0.4653
  215MPD1     N 3273   1.800   1.773  10.982 -0.1334 -0.3065  0.1615
  215MPD1    H5 3274   1.765   1.865  11.006  0.9118  0.0832  0.1728
  215MPD1    N1 3275   1.484   1.764  10.634  0.3612 -0.1492  0.2966
  215MPD1    H6 3276   1.413   1.805  10.694  1.0009  1.0685  0.2408
  215MPD1    H7 3277   1.443   1.707  10.561 -1.4625  0.1454  1.0891
  216MPD1     C 3278   0.045   4.619  16.933 -0.6389  0.4411 -0.1546
  216MPD1    C1 3279   4.711   4.612  17.060  0.2594 -0.5863 -0.9433
  216MPD1    C2 3280   4.698   4.485  17.116  0.8404  0.2348  0.1824
  216MPD1    C3 3281   0.027   4.377  17.045 -0.1556 -0.4377 -0.2459
  216MPD1    C4 3282   0.081   4.392  16.921  0.0215 -0.6526  0.2482
  216MPD1    C5 3283   0.087   4.510  16.862  0.5814 -0.2298  0.6164
  216MPD1     H 3284   4.671   4.472  17.220  2.1275 -1.1032  0.3416
  216MPD1    H1 3285   0.122   4.308  16.865 -0.2945 -1.7509  1.6777
  216MPD1    H2 3286   0.042   4.715  16.882  0.2762 -0.1276 -1.2682
  216MPD1    H3 3287   0.122   4.518  16.760 -1.8201 -0.3017 -0.2126
  216MPD1     N 3288   0.023   4.244  17.100  0.3712 -0.0589  0.0493
  216MPD1    H5 3289   4.705   4.236  17.192  1.2286  1.3551  0.5566
  216MPD1    N1 3290   4.658   4.724  17.123 -0.4426  0.2504  0.1196
  216MPD1    H6 3291   4.703   0.080  17.082 -0.1012 -0.1182 -0.2363
  216MPD1    H7 3292   4.701   4.724  17.215  1.3024  1.1802 -0.7078
  217MPD1     C 3293   0.902   4.509   9.488  0.4993 -0.4355  0.6888
  217MPD1    C1 3294   0.959   4.610   9.560  0.2412 -0.2057  0.1822
  217MPD1    C2 3295   0.892   4.672   9.665  0.4777 -1.3632 -0.8111
  217MPD1    C3 3296   0.764   4.624   9.704 -0.1292 -0.2439  0.5225
  217MPD1    C4 3297   0.713   4.519   9.635  0.0193 -0.6188 -0.1774
  217MPD1    C5 3298   0.777   4.466   9.530 -0.1089  0.0531  0.3431
  217MPD1     H 3299   0.935   0.036   9.708  0.8735 -1.2428 -1.4658
  217MPD1    H1 3300   0.623   4.470   9.669 -0.6885  1.1712  0.5038
  217MPD1    H2 3301   0.951   4.448   9.413 -0.8826 -0.6682 -0.0224
  217MPD1    H3 3302   0.727   4.385   9.478  0.1430  0.3427 -0.3595
  217MPD1     N 3303   0.683   4.681   9.808 -0.0667 -1.0293  0.3589
  217MPD1    H5 3304   0.591   4.642   9.827 -0.7131  0.7517  0.9208
  217MPD1    N1 3305   1.082   4.658   9.512  0.2066  0.3358 -0.7916
  217MPD1    H6 3306   1.142   4.589   9.467 -0.5255 -1.1520  0.5422
  217MPD1    H7 3307   1.141   4.702   9.582 -2.2882 -0.1982  1.6157
  218MPD1     C 3308   1.464   2.738  13.187  0.3977 -0.1348 -0.0567
  218MPD1    C1 3309   1.478   2.752  13.048  0.1198 -0.0514 -0.8643
  218MPD1    C2 3310   1.580   2.682  12.975 -0.5112 -0.3913 -0.0747
  218MPD1    C3 3311   1.668   2.595  13.047 -0.3932 -0.4861 -0.1953
  218MPD1    C4 3312   1.660   2.590  13.185 -0.2560 -0.1619 -0.4656
  218MPD1    C5 3313   1.566   2.667  13.247  0.2426  0.3806 -0.6365
  218MPD1     H 3314   1.584   2.681  12.867  0.9618  0.3260 -0.0219
  218MPD1    H1 3315   1.726   2.534  13.250  1.1028  0.6548 -1.1454
  218MPD1    H2 3316   1.388   2.788  13.246  0.8028 -0.4908  0.7745
  218MPD1    H3 3317   1.560   2.671  13.355 -0.5283  1.7640 -0.7205
  218MPD1     N 3318   1.762   2.526  12.975  0.1668  0.1912 -0.6402
  218MPD1    H5 3319   1.753   2.531  12.874  2.1607  0.5479 -0.8096
  218MPD1    N1 3320   1.375   2.812  12.985 -0.3062 -0.1081  0.2217
  218MPD1    H6 3321   1.422   2.866  12.913 -1.6488  0.9345  0.1200
  218MPD1    H7 3322   1.317   2.867  13.048  0.2892 -0.8779  1.4535
  219MPD1     C 3323   1.393   1.962  12.312  0.5676  0.1866  1.8331
  219MPD1    C1 3324   1.466   2.074  12.305 -0.0221  0.3138  0.1289
  219MPD1    C2 3325   1.560   2.097  12.408  1.1336 -0.3475  0.2191
  219MPD1    C3 3326   1.573   2.009  12.512 -0.2270 -1.1803  0.6308
  219MPD1    C4 3327   1.508   1.890  12.504 -0.4582 -0.2773  0.8068
  219MPD1    C5 3328   1.421   1.869  12.405  0.1868 -0.6380  0.0915
  219MPD1     H 3329   1.621   2.186  12.400 -1.3811  1.1632 -2.4687
  219MPD1    H1 3330   1.508   1.815  12.583  1.2462  1.3533  2.3644
  219MPD1    H2 3331   1.307   1.934  12.252  0.5894  0.4606  1.6773
  219MPD1    H3 3332   1.374   1.771  12.403 -3.1678  0.9235  2.3483
  219MPD1     N 3333   1.653   2.039  12.631  0.0018 -0.2592  0.2412
  219MPD1    H5 3334   1.662   1.965  12.701 -0.8303 -1.5730 -1.0408
  219MPD1    N1 3335   1.440   2.179  12.214 -0.0468 -0.3459 -0.4701
  219MPD1    H6 3336   1.524   2.228  12.183 -0.8152  0.7319 -0.8523
  219MPD1    H7 3337   1.395   2.146  12.129 -0.7856  1.0744 -0.6274
  220MPD1     C 3338   1.886   3.486  10.292 -1.4433 -0.7679 -0.0759
  220MPD1    C1 3339   1.998   3.439  10.354 -0.2492  0.4100  0.0071
  220MPD1    C2 3340   1.988   3.301  10.382 -0.3570 -0.1426 -0.3638
  220MPD1    C3 3341   1.868   3.228  10.384  0.4023 -0.5233  0.1114
  220MPD1    C4 3342   1.752   3.298  10.356  0.9234  0.2517 -0.8541
  220MPD1    C5 3343   1.766   3.426  10.307 -0.1008  0.3798  0.2066
  220MPD1     H 3344   2.066   3.237  10.422 -0.1596  0.9047  0.9325
  220MPD1    H1 3345   1.653   3.257  10.368  2.2973 -2.8004  0.1571
  220MPD1    H2 3346   1.884   3.586  10.251  0.2347 -1.0933 -0.9254
  220MPD1    H3 3347   1.682   3.481  10.266 -0.4629  0.3236  0.8773
  220MPD1     N 3348   1.866   3.093  10.420 -0.5641 -0.3710  0.5796
  220MPD1    H5 3349   1.950   3.056  10.464  1.6241  2.3974 -1.2032
  220MPD1    N1 3350   2.121   3.511  10.352  0.4330 -0.1818 -0.0494
  220MPD1    H6 3351   2.092   3.608  10.359 -0.3364 -0.5658  2.3931
  220MPD1    H7 3352   2.185   3.473  10.421  0.8275  0.7213  0.0825
  221MPD1     C 3353   3.899   0.743  17.172  0.1255  0.2798 -0.3338
  221MPD1    C1 3354   3.916   0.868  17.232  0.1144 -0.7753 -0.2705
  221MPD1    C2 3355   4.020   0.946  17.196  0.1967 -0.3469 -0.1513
  221MPD1    C3 3356   4.089   0.910  17.079 -0.4055  0.3432  0.2719
  221MPD1    C4 3357   4.063   0.792  17.010 -0.3083  0.5123 -0.5650
  221MPD1    C5 3358   3.976   0.699  17.062 -0.3990 -0.1555  0.5255
  221MPD1     H 3359   4.039   1.036  17.254 -2.2947 -2.0822  3.3074
  221MPD1    H1 3360   4.107   0.769  16.914 -0.5183  0.5018 -0.6598
  221MPD1    H2 3361   3.824   0.675  17.212 -1.2189 -0.5889 -4.3484
  221MPD1    H3 3362   3.965   0.607  17.006  0.7521  0.3610 -0.5459
  221MPD1     N 3363   4.185   0.998  17.026  0.0124 -0.1323 -0.6126
  221MPD1    H5 3364   4.237   0.964  16.946  0.1777 -2.3543  0.4255
  221MPD1    N1 3365   3.858   0.893  17.359 -0.3366  0.1154 -0.0400
  221MPD1    H6 3366   3.847   0.992  17.382  1.2395 -0.2090  2.0519
  221MPD1    H7 3367   3.760   0.864  17.362 -0.1107 -0.4843  1.2206
  222MPD1     C 3368   0.291   4.546  17.231 -0.2724  1.4249 -0.4549
  222MPD1    C1 3369   0.270   4.678  17.247  0.0628 -0.3782 -0.1077
  222MPD1    C2 3370   0.203   4.716  17.364 -0.1498  0.1100 -0.0220
  222MPD1    C3 3371   0.145   4.626  17.450  0.0088  0.0701 -0.2313
  222MPD1    C4 3372   0.155   4.491  17.418 -0.2028  0.2195  0.8358
  222MPD1    C5 3373   0.234   4.456  17.310 -0.2597  0.2811 -1.1291
  222MPD1     H 3374   0.207   0.095  17.392 -0.5953  0.9713 -3.2819
  222MPD1    H1 3375   0.105   4.412  17.472 -0.5148  1.0087  1.7132
  222MPD1    H2 3376   0.335   4.518  17.137 -1.3787 -1.4164 -0.1128
  222MPD1    H3 3377   0.239   4.348  17.304 -1.1811  0.1779 -0.0405
  222MPD1     N 3378   0.056   4.666  17.553  0.3310  0.7408 -0.2096
  222MPD1    H5 3379   0.008   4.590  17.601 -0.3490  1.2393 -0.1160
  222MPD1    N1 3380   0.345   0.044  17.167 -0.9003 -0.0631 -0.1149
  222MPD1    H6 3381   0.356   0.002  17.075  1.1345 -0.4519  0.3004
  222MPD1    H7 3382   0.293   0.130  17.153 -0.2911  1.0527  4.5524
  223MPD1     C 3383   4.176   4.265   0.508  0.3756  0.1296  0.0788
  223MPD1    C1 3384   4.194   4.389   0.560 -0.7137  0.3676  0.5791
  223MPD1    C2 3385   4.239   4.493   0.480  0.3527 -0.8087 -0.3204
  223MPD1    C3 3386   4.299   4.462   0.364 -0.5632  0.8993 -0.0840
  223MPD1    C4 3387   4.297   4.334   0.317  0.0691 -0.4158 -0.8088
  223MPD1    C5 3388   4.229   4.238   0.383 -0.1988 -0.2199  0.0462
  223MPD1     H 3389   4.245   4.594   0.519  1.1027 -0.4786 -1.2880
  223MPD1    H1 3390   4.340   4.299   0.223 -0.5130 -0.6256 -0.9948
  223MPD1    H2 3391   4.120   4.181   0.547 -2.0469  0.5848 -2.3436
  223MPD1    H3 3392   4.225   4.139   0.338  1.6757 -0.7586  1.0627
  223MPD1     N 3393   4.365   4.569   0.298 -0.4501  0.3767  0.5267
  223MPD1    H5 3394   4.369   4.662   0.338  1.5397  0.4802  0.0640
  223MPD1    N1 3395   4.135   4.422   0.684  0.6453 -0.0891  0.1731
  223MPD1    H6 3396   4.182   4.495   0.738  1.0994  0.6796 -1.2577
  223MPD1    H7 3397   4.114   4.341   0.742  0.2309 -0.1017  0.0068
  224MPD1     C 3398   4.494   0.605   9.683  0.1402  0.0379  0.3935
  224MPD1    C1 3399   4.396   0.673   9.613 -0.1992  0.3562 -0.0003
  224MPD1    C2 3400   4.437   0.800   9.562 -0.6680 -0.4918  0.1044
  224MPD1    C3 3401   4.561   0.848   9.574  0.0114  0.3202  0.2640
  224MPD1    C4 3402   4.652   0.773   9.651 -0.4766 -0.8000  0.2493
  224MPD1    C5 3403   4.614   0.656   9.708 -0.3105  0.8154  0.0749
  224MPD1     H 3404   4.359   0.856   9.511 -2.6298 -2.0849  1.3331
  224MPD1    H1 3405   0.031   0.802   9.654 -0.7354  0.0975  0.4459
  224MPD1    H2 3406   4.475   0.504   9.715 -2.6466  0.5270  0.2703
  224MPD1    H3 3407   4.681   0.591   9.764 -0.1280  1.2438  0.3547
  224MPD1     N 3408   4.598   0.976   9.530  0.0462 -1.0959  0.3742
  224MPD1    H5 3409   4.694   1.001   9.554 -0.5339 -0.2474  1.7823
  224MPD1    N1 3410   4.274   0.604   9.578  0.4727 -0.1518 -0.2890
  224MPD1    H6 3411   4.196   0.668   9.597  1.2114  0.4277  0.8146
  224MPD1    H7 3412   4.250   0.528   9.642 -0.2453 -1.2676 -1.8828
  225MPD1     C 3413   1.955   3.330  12.883 -0.0215 -0.1879  0.4496
  225MPD1    C1 3414   1.947   3.198  12.848  0.2157  0.1660  0.1426
  225MPD1    C2 3415   1.822   3.146  12.815  0.0649  0.5290  0.2316
  225MPD1    C3 3416   1.705   3.226  12.802  0.6000  0.2239 -0.0116
  225MPD1    C4 3417   1.726   3.365  12.829  0.5934 -0.2164  0.1838
  225MPD1    C5 3418   1.850   3.422  12.869  0.1713 -0.2813 -0.7006
  225MPD1     H 3419   1.812   3.039  12.801 -0.3306  0.4678  1.0105
  225MPD1    H1 3420   1.642   3.431  12.809  1.5125  1.4705  1.9131
  225MPD1    H2 3421   2.050   3.380  12.899  1.7890 -3.7472  0.8632
  225MPD1    H3 3422   1.859   3.527  12.893  0.5694 -1.1411  3.0511
  225MPD1     N 3423   1.582   3.180  12.746  0.5700 -0.3454 -0.1874
  225MPD1    H5 3424   1.511   3.250  12.727  0.3206 -0.0315  1.9546
  225MPD1    N1 3425   2.059   3.123  12.866  0.1378  0.4767 -0.4396
  225MPD1    H6 3426   2.148   3.173  12.869  1.1721 -1.3237 -1.1856
  225MPD1    H7 3427   2.067   3.065  12.783  0.4605  0.3830 -0.3408
  226MPD1     C 3428   4.530   3.318   9.145  1.2048 -0.2968  0.3383
  226MPD1    C1 3429   4.450   3.219   9.203  0.2549 -0.5696  0.5384
  226MPD1    C2 3430   4.520   3.104   9.245 -0.1319  0.4273  0.2985
  226MPD1    C3 3431   4.654   3.088   9.232  0.4142  0.1934 -0.0671
  226MPD1    C4 3432   0.003   3.197   9.197  0.0169 -0.5083 -0.2203
  226MPD1    C5 3433   4.666   3.309   9.137  0.1088  0.3665 -0.2431
  226MPD1     H 3434   4.464   3.026   9.296  0.5637 -0.2560  0.0096
  226MPD1    H1 3435   0.112   3.192   9.191  0.0322 -0.0821 -0.2725
  226MPD1    H2 3436   4.480   3.405   9.103  2.7431  0.4110 -0.0192
  226MPD1    H3 3437   4.718   3.376   9.070  0.3572  2.7838  2.3871
  226MPD1     N 3438   4.708   2.960   9.247  0.1070 -0.2878  0.4551
  226MPD1    H5 3439   4.641   2.885   9.265 -0.1631 -0.2183 -0.2749
  226MPD1    N1 3440   4.319   3.246   9.242 -0.2352  0.6964 -0.1350
  226MPD1    H6 3441   4.272   3.314   9.183 -1.3421  1.4624  1.5993
  226MPD1    H7 3442   4.266   3.160   9.256  0.6809 -0.3479 -3.1232
  227MPD1     C 3443   4.497   2.033   8.985  1.0883 -0.3308 -0.4775
  227MPD1    C1 3444   4.576   2.017   9.100 -0.7438 -0.1905  0.0947
  227MPD1    C2 3445   4.636   2.127   9.161 -0.0031  0.4048  0.3202
  227MPD1    C3 3446   4.620   2.250   9.099 -0.2174 -0.5680  0.3492
  227MPD1    C4 3447   4.541   2.265   8.987 -0.2352 -0.3183 -0.8488
  227MPD1    C5 3448   4.480   2.157   8.933  0.3124 -0.3786 -0.9237
  227MPD1     H 3449   4.711   2.113   9.239  0.6548  1.5421 -0.1029
  227MPD1    H1 3450   4.509   2.358   8.943 -0.2176  0.1300  0.0829
  227MPD1    H2 3451   4.439   1.963   8.926 -2.9081  4.0058 -1.6760
  227MPD1    H3 3452   4.405   2.177   8.858 -1.8994  0.0453  1.3693
  227MPD1     N 3453   4.694   2.359   9.154  0.4164  0.7144  0.8220
  227MPD1    H5 3454   0.019   2.331   9.238 -0.0053 -2.3179  0.0572
  227MPD1    N1 3455   4.612   1.887   9.151 -0.6383 -0.3737 -0.4478
  227MPD1    H6 3456   4.630   1.882   9.251  0.2818  3.1090 -0.4610
  227MPD1    H7 3457   4.545   1.814   9.125 -0.9109 -0.4172  0.3852
  228MPD1     C 3458   3.314   0.944  13.007 -0.2869  0.9952  0.7402
  228MPD1    C1 3459   3.207   0.962  13.092 -0.3128  0.0470 -0.7315
  228MPD1    C2 3460   3.099   0.884  13.070 -0.1496  0.0901 -0.4181
  228MPD1    C3 3461   3.092   0.799  12.965 -0.1173  0.0290  0.9485
  228MPD1    C4 3462   3.195   0.791  12.876  0.0571  0.2257 -0.0209
  228MPD1    C5 3463   3.309   0.856  12.900  0.0717 -0.1037 -0.0414
  228MPD1     H 3464   3.012   0.898  13.134 -0.5126  2.6822 -1.4748
  228MPD1    H1 3465   3.195   0.732  12.785  0.2286 -1.0135  0.7804
  228MPD1    H2 3466   3.405   0.999  13.027  0.0332  0.5778  0.4429
  228MPD1    H3 3467   3.394   0.844  12.833  0.2197  2.2659 -0.2937
  228MPD1     N 3468   2.972   0.720  12.962  0.2513  0.3099 -0.7582
  228MPD1    H5 3469   2.903   0.747  13.031  2.0984  1.2430  0.7459
  228MPD1    N1 3470   3.223   1.031  13.212 -0.1491 -0.1521 -0.4866
  228MPD1    H6 3471   3.292   1.106  13.209  0.0900 -0.2477  2.6595
  228MPD1    H7 3472   3.145   1.076  13.260  1.5016  0.3792  1.7184
  229MPD1     C 3473   2.723   3.997  14.965 -0.1567  0.2331 -0.3391
  229MPD1    C1 3474   2.816   4.026  14.877  0.1874  0.1985 -0.0820
  229MPD1    C2 3475   2.911   3.922  14.847  0.9778  0.3004 -0.7298
  229MPD1    C3 3476   2.891   3.789  14.896  1.0320  0.4982 -0.0370
  229MPD1    C4 3477   2.787   3.768  14.984  0.0870  0.1232 -0.1619
  229MPD1    C5 3478   2.701   3.874  15.012 -0.7911  0.1612  0.3872
  229MPD1     H 3479   2.998   3.951  14.789  1.4241  1.7690  0.6765
  229MPD1    H1 3480   2.772   3.669  15.024 -0.5767 -0.2948 -1.4514
  229MPD1    H2 3481   2.649   4.072  14.988 -1.7912 -0.8510 -2.0709
  229MPD1    H3 3482   2.615   3.865  15.078 -1.0638  0.1869  0.0333
  229MPD1     N 3483   2.987   3.681  14.877  0.0969 -0.7797  0.3676
  229MPD1    H5 3484   2.959   3.594  14.921 -0.4278 -1.1740 -0.7491
  229MPD1    N1 3485   2.827   4.159  14.834 -0.2825 -0.6378  0.1010
  229MPD1    H6 3486   2.747   4.215  14.863  0.0865 -0.5394  0.9216
  229MPD1    H7 3487   2.851   4.165  14.735 -4.2878  1.9890 -0.7474
  230MPD1     C 3488   3.308   2.965  15.456  0.0950  1.1778  0.1584
  230MPD1    C1 3489   3.421   2.982  15.379 -0.2562 -0.0468 -1.1002
  230MPD1    C2 3490   3.418   3.070  15.278 -0.6963 -0.3136  0.7363
  230MPD1    C3 3491   3.305   3.143  15.250  0.5263 -0.1564 -0.8318
  230MPD1    C4 3492   3.189   3.121  15.319 -0.3368 -0.3783 -0.2506
  230MPD1    C5 3493   3.192   3.033  15.423  0.4071  0.8903  0.3352
  230MPD1     H 3494   3.514   3.078  15.227 -1.3526 -3.2754 -0.9509
  230MPD1    H1 3495   3.097   3.173  15.296  0.4577  0.9140 -0.5278
  230MPD1    H2 3496   3.310   2.894  15.538  0.1504  0.4280 -0.4885
  230MPD1    H3 3497   3.109   3.017  15.490 -0.2449  0.4012 -0.5879
  230MPD1     N 3498   3.319   3.242  15.147  0.1101  0.8747  0.6477
  230MPD1    H5 3499   3.404   3.248  15.091  1.3112  0.0176  2.3831
  230MPD1    N1 3500   3.521   2.894  15.397 -0.0069  0.1821 -0.1351
  230MPD1    H6 3501   3.605   2.924  15.349  0.2718  0.2303  0.3822
  230MPD1    H7 3502   3.542   2.888  15.497 -4.1143 -1.7430  0.6216
  231MPD1     C 3503   1.454   0.994  15.490 -0.2962 -0.3692  0.3903
  231MPD1    C1 3504   1.470   0.987  15.353  1.1161  0.2011 -0.2109
  231MPD1    C2 3505   1.527   1.095  15.293  0.5002 -0.1271  0.3581
  231MPD1    C3 3506   1.567   1.207  15.367 -0.7159 -0.1526 -0.1673
  231MPD1    C4 3507   1.540   1.214  15.502 -0.1428  1.0728 -0.9143
  231MPD1    C5 3508   1.495   1.100  15.561 -0.5837  0.0439  0.4861
  231MPD1     H 3509   1.539   1.100  15.186  0.0773  0.4201  0.3366
  231MPD1    H1 3510   1.562   1.300  15.565  1.4970 -1.2850  1.7490
  231MPD1    H2 3511   1.421   0.905  15.542  2.0897 -0.7926  1.1982
  231MPD1    H3 3512   1.466   1.092  15.665  1.1881 -1.5054  0.8730
  231MPD1     N 3513   1.628   1.312  15.295 -0.2777  0.1530  0.4130
  231MPD1    H5 3514   1.639   1.298  15.195 -0.2455 -1.7875  0.6833
  231MPD1    N1 3515   1.459   0.865  15.277  0.0829  0.2045  0.5182
  231MPD1    H6 3516   1.389   0.803  15.318 -2.1374  1.7796 -0.9118
  231MPD1    H7 3517   1.441   0.882  15.178  0.4202  0.9411  0.5859
  232MPD1     C 3518   3.309   4.129   0.226 -0.0854 -0.2522  0.0198
  232MPD1    C1 3519   3.327   4.041   0.329 -0.5506  0.2475  0.3866
  232MPD1    C2 3520   3.218   3.960   0.360  0.5721 -0.2455 -0.1232
  232MPD1    C3 3521   3.095   3.977   0.301 -0.5155 -0.5985  0.3229
  232MPD1    C4 3522   3.081   4.076   0.211  0.0807 -0.0705 -0.2123
  232MPD1    C5 3523   3.184   4.152   0.172  0.0535  0.0379 -0.0027
  232MPD1     H 3524   3.230   3.878   0.429  1.1602 -0.6619 -0.7189
  232MPD1    H1 3525   2.986   4.096   0.163 -0.1787  3.2547  1.7105
  232MPD1    H2 3526   3.399   4.176   0.186  0.8427 -0.6200  1.6404
  232MPD1    H3 3527   3.166   4.224   0.093 -1.2644  0.3413  0.5896
  232MPD1     N 3528   2.988   3.883   0.331 -0.2284 -0.2501 -0.2571
  232MPD1    H5 3529   2.999   3.817   0.408 -0.8297  1.0438  0.9416
  232MPD1    N1 3530   3.463   4.017   0.370  0.2506  0.4850 -0.8130
  232MPD1    H6 3531   3.473   3.975   0.462  0.0957 -0.4800 -1.2343
  232MPD1    H7 3532   3.525   4.098   0.363  0.4382  0.4578  0.5692
  233MPD1     C 3533   4.255   2.007   2.224  0.1382 -0.3222 -0.0395
  233MPD1    C1 3534   4.139   1.933   2.220  0.3423  0.0428  0.4934
  233MPD1    C2 3535   4.125   1.826   2.139 -0.2449 -0.0788 -0.3555
  233MPD1    C3 3536   4.230   1.784   2.061 -0.0881  0.4750 -0.8460
  233MPD1    C4 3537   4.350   1.863   2.068  0.2423  0.4345 -0.0270
  233MPD1    C5 3538   4.364   1.970   2.153 -0.8182 -0.4364  0.2147
  233MPD1     H 3539   4.025   1.788   2.126 -0.5075  0.6810 -0.5268
  233MPD1    H1 3540   4.431   1.823   2.006  0.4332  1.0628 -0.1828
  233MPD1    H2 3541   4.254   2.095   2.286 -2.2808  0.6463 -1.4695
  233MPD1    H3 3542   4.457   2.026   2.148 -0.8548 -0.4553 -0.6787
  233MPD1     N 3543   4.230   1.681   1.964  0.4108  0.8703  0.7695
  233MPD1    H5 3544   4.315   1.669   1.909  0.5352 -1.8435  1.5160
  233MPD1    N1 3545   4.034   1.975   2.301 -0.5032 -0.3219 -0.3233
  233MPD1    H6 3546   3.978   1.893   2.326  0.0590 -0.2882  1.0358
  233MPD1    H7 3547   4.055   2.032   2.383 -0.7385  1.0271 -1.1980
  234MPD1     C 3548   0.859   1.703  10.900 -0.0939 -0.2004 -0.1244
  234MPD1    C1 3549   0.727   1.715  10.869 -0.9123  0.6582  0.2470
  234MPD1    C2 3550   0.659   1.613  10.796  0.0621 -0.4889 -0.2188
  234MPD1    C3 3551   0.729   1.507  10.741  0.2814  1.4545  0.3496
  234MPD1    C4 3552   0.870   1.504  10.749 -0.0514  0.0025  0.3387
  234MPD1    C5 3553   0.926   1.605  10.830 -0.0368  0.5178  0.0047
  234MPD1     H 3554   0.552   1.611  10.779 -0.0261 -0.3980  0.3076
  234MPD1    H1 3555   0.932   1.421  10.717 -1.4295 -0.7717 -0.3434
  234MPD1    H2 3556   0.916   1.779  10.952  0.4845  0.8376 -2.2696
  234MPD1    H3 3557   1.031   1.583  10.839  0.1349  0.5676 -1.7384
  234MPD1     N 3558   0.657   1.406  10.667  0.9723  0.0872 -0.2560
  234MPD1    H5 3559   0.556   1.409  10.671  0.9120 -0.8083 -1.1269
  234MPD1    N1 3560   0.643   1.810  10.934  0.6339  0.2100  0.4140
  234MPD1    H6 3561   0.700   1.892  10.957  2.3980 -0.1970 -2.4487
  234MPD1    H7 3562   0.553   1.836  10.894 -0.1383 -0.5111  1.7083
  235MPD1     C 3563   2.244   1.394   9.852  0.9316  0.3713 -0.0915
  235MPD1    C1 3564   2.132   1.461   9.805 -0.3844 -0.3376 -0.0575
  235MPD1    C2 3565   2.142   1.591   9.767  0.3082  0.2644  0.8561
  235MPD1    C3 3566   2.264   1.653   9.771 -0.3119  0.1184 -0.2592
  235MPD1    C4 3567   2.375   1.580   9.807  0.0795 -0.1013  1.0157
  235MPD1    C5 3568   2.368   1.458   9.856  0.0012  0.3375 -0.4058
  235MPD1     H 3569   2.053   1.638   9.724  1.2906  0.5531 -0.8590
  235MPD1    H1 3570   2.469   1.634   9.801  0.0793 -0.4082 -1.8403
  235MPD1    H2 3571   2.247   1.289   9.878 -1.2856  0.7085  1.5206
  235MPD1    H3 3572   2.457   1.397   9.862 -1.7168 -2.1578 -0.1966
  235MPD1     N 3573   2.285   1.792   9.753 -0.0309 -0.9097  0.0559
  235MPD1    H5 3574   2.378   1.831   9.757  0.1040 -1.0435 -1.6970
  235MPD1    N1 3575   2.007   1.398   9.816  0.2679  0.6147  0.2461
  235MPD1    H6 3576   1.929   1.447   9.773  0.0716  0.9011  0.9253
  235MPD1    H7 3577   2.002   1.297   9.798  1.7678  1.0187 -2.3607
  236MPD1     C 3578   2.203   4.523  10.685 -0.0729  0.0563  0.0548
  236MPD1    C1 3579   2.333   4.518  10.631  0.5052  0.3825 -0.1036
  236MPD1    C2 3580   2.387   4.396  10.588  0.3032 -0.3943 -0.4718
  236MPD1    C3 3581   2.307   4.276  10.586  0.2631  0.4883 -0.6074
  236MPD1    C4 3582   2.172   4.296  10.621  0.3731 -0.2498 -0.2235
  236MPD1    C5 3583   2.124   4.414  10.670  0.1694  0.2646 -0.3281
  236MPD1     H 3584   2.492   4.399  10.559  0.4969 -0.3012  0.2207
  236MPD1    H1 3585   2.093   4.222  10.624 -1.5462  1.8496  1.1691
  236MPD1    H2 3586   2.154   4.611  10.726  1.0799 -0.9283  3.5829
  236MPD1    H3 3587   2.024   4.412  10.712 -0.4122  0.8943 -1.6544
  236MPD1     N 3588   2.351   4.155  10.528 -0.2763 -0.0718 -0.8152
  236MPD1    H5 3589   2.291   4.073  10.535 -0.4140 -0.0290 -1.5187
  236MPD1    N1 3590   2.427   4.626  10.644 -0.0873  0.5469 -0.2647
  236MPD1    H6 3591   2.481   4.634  10.558  1.3032  2.0068  0.7422
  236MPD1    H7 3592   2.394   4.721  10.658  0.9680  1.1353 -1.8076
  237MPD1     C 3593   1.354   3.282  15.715 -0.0120 -0.2509 -0.2037
  237MPD1    C1 3594   1.296   3.191  15.799 -0.1427 -0.0079 -0.1262
  237MPD1    C2 3595   1.293   3.059  15.763  0.9581  0.6200  0.2263
  237MPD1    C3 3596   1.344   3.012  15.641 -0.0844 -0.1643 -0.2134
  237MPD1    C4 3597   1.397   3.110  15.559 -0.0584 -0.4547  0.3670
  237MPD1    C5 3598   1.404   3.239  15.597 -0.9247  0.3944  0.0978
  237MPD1     H 3599   1.242   2.993  15.832 -0.6410  0.3251 -1.2559
  237MPD1    H1 3600   1.443   3.075  15.467  0.6252 -0.9574  0.8926
  237MPD1    H2 3601   1.373   3.383  15.752 -2.5056  0.1894 -0.1468
  237MPD1    H3 3602   1.447   3.318  15.536 -3.8366  0.6292 -1.7021
  237MPD1     N 3603   1.320   2.879  15.594 -0.0409  0.5177 -0.7873
  237MPD1    H5 3604   1.355   2.862  15.500 -2.7577  1.1447 -1.9109
  237MPD1    N1 3605   1.256   3.224  15.932 -0.2559  0.2369  0.0217
  237MPD1    H6 3606   1.193   3.159  15.980  0.0457 -0.3118 -0.3263
  237MPD1    H7 3607   1.212   3.315  15.941 -0.3780  0.0722  1.2093
  238MPD1     C 3608   3.602   0.127  15.155 -0.2001  0.6503 -1.0705
  238MPD1    C1 3609   3.653   0.240  15.092  0.2795 -0.0052 -0.2027
  238MPD1    C2 3610   3.571   0.352  15.073  0.4140 -0.6199  0.5972
  238MPD1    C3 3611   3.439   0.359  15.127  0.5622  0.0248  0.3727
  238MPD1    C4 3612   3.393   0.237  15.184 -0.4586  0.0262 -0.9308
  238MPD1    C5 3613   3.478   0.132  15.204 -0.6636  0.1302 -0.0627
  238MPD1     H 3614   3.607   0.413  14.991  0.5010 -0.7220  0.5601
  238MPD1    H1 3615   3.288   0.235  15.213  0.4547  1.1940  2.5268
  238MPD1    H2 3616   3.661   0.037  15.158 -0.2914  0.5768 -1.5682
  238MPD1    H3 3617   3.430   0.049  15.255  0.5817  0.0683  0.9914
  238MPD1     N 3618   3.354   0.469  15.113  0.0457  0.1641 -0.1064
  238MPD1    H5 3619   3.260   0.452  15.148  0.1429 -2.1299 -0.9290
  238MPD1    N1 3620   3.777   0.220  15.033  0.6373 -0.5235  0.5111
  238MPD1    H6 3621   3.823   0.309  15.013 -0.8836 -0.2730 -1.8753
  238MPD1    H7 3622   3.840   0.162  15.088  0.6412 -1.9570 -0.9871
  239MPD1     C 3623   3.533   2.241  15.342  0.5636 -0.3321  0.6295
  239MPD1    C1 3624   3.463   2.124  15.319 -0.1593 -0.0079  0.0919
  239MPD1    C2 3625   3.402   2.106  15.197  1.0465  0.2555 -0.1645
  239MPD1    C3 3626   3.422   2.198  15.090 -0.0865  0.5670  0.2096
  239MPD1    C4 3627   3.486   2.316  15.116  0.0954  0.1522  0.4454
  239MPD1    C5 3628   3.543   2.334  15.239  0.1331 -0.1158 -0.2044
  239MPD1     H 3629   3.350   2.012  15.182 -1.2076  1.2380  1.6036
  239MPD1    H1 3630   3.502   2.385  15.034 -0.5651 -1.5845 -1.1647
  239MPD1    H2 3631   3.582   2.261  15.437 -1.2709  1.6605  1.1364
  239MPD1    H3 3632   3.606   2.421  15.254  2.6562 -1.8912 -0.5765
  239MPD1     N 3633   3.377   2.171  14.959  0.1883 -0.4498 -0.2903
  239MPD1    H5 3634   3.374   2.249  14.894  1.4127 -1.3738 -1.4592
  239MPD1    N1 3635   3.428   2.044  15.424 -0.3120  0.5516  0.0013
  239MPD1    H6 3636   3.401   1.949  15.398  1.0614  0.5928 -1.5569
  239MPD1    H7 3637   3.500   2.049  15.495 -0.1362 -2.1894  0.0340
  240MPD1     C 3638   3.189   1.517  13.516  0.0169  0.1529 -0.6175
  240MPD1    C1 3639   3.078   1.583  13.561  0.5203  0.4161  0.3828
  240MPD1    C2 3640   3.046   1.575  13.697  0.0966 -0.4911  0.3051
  240MPD1    C3 3641   3.122   1.506  13.784 -0.0017 -0.0151 -0.3025
  240MPD1    C4 3642   3.237   1.439  13.734  0.0467  0.6010 -0.2995
  240MPD1    C5 3643   3.280   1.463  13.604  0.2020  0.0237  0.2981
  240MPD1     H 3644   2.956   1.623  13.734 -0.1073 -0.1935 -0.5913
  240MPD1    H1 3645   3.306   1.386  13.799 -2.0883  0.8349  2.1493
  240MPD1    H2 3646   3.215   1.513  13.411  1.3166 -3.0410 -0.1901
  240MPD1    H3 3647   3.365   1.405  13.568  0.1278 -1.4016  2.3897
  240MPD1     N 3648   3.086   1.490  13.920 -0.5035 -0.1260 -0.4266
  240MPD1    H5 3649   2.999   1.530  13.953 -1.5180 -2.5978 -0.0520
  240MPD1    N1 3650   3.001   1.661  13.471  0.2331 -0.0336  0.3085
  240MPD1    H6 3651   3.052   1.699  13.391 -1.0601 -0.6921 -0.8284
  240MPD1    H7 3652   2.940   1.732  13.511  0.5945  0.3807  0.1255
  241MPD1     C 3653   3.371   1.339  14.986  0.3601 -0.9077  0.2946
  241MPD1    C1 3654   3.455   1.353  14.872  0.1675 -0.1458 -0.4187
  241MPD1    C2 3655   3.385   1.347  14.760  0.0968  0.2500  0.0010
  241MPD1    C3 3656   3.241   1.337  14.743 -0.2946 -0.5745 -0.9038
  241MPD1    C4 3657   3.169   1.330  14.859  0.1887  0.3003 -0.2385
  241MPD1    C5 3658   3.233   1.333  14.978  0.6695 -0.1437 -0.0638
  241MPD1     H 3659   3.443   1.332  14.670  1.7276 -1.0169  1.2594
  241MPD1    H1 3660   3.062   1.313  14.856  0.5487 -2.0069 -0.5311
  241MPD1    H2 3661   3.414   1.333  15.085 -0.4603 -1.0424  0.6466
  241MPD1    H3 3662   3.178   1.335  15.072 -2.6293  4.9864 -2.0862
  241MPD1     N 3663   3.168   1.348  14.621 -0.2710  1.0933  0.4569
  241MPD1    H5 3664   3.067   1.336  14.626 -0.1123  0.4471  2.0595
  241MPD1    N1 3665   3.597   1.336  14.872  0.2733 -0.6499  0.7081
  241MPD1    H6 3666   3.626   1.371  14.963  3.1961  0.1490 -0.5666
  241MPD1    H7 3667   3.648   1.379  14.796  3.0805 -1.8416  1.9128
  242MPD1     C 3668   2.021   3.889  16.321 -0.2516 -0.0660 -0.2729
  242MPD1    C1 3669   1.975   3.870  16.194 -0.4689 -0.2511  0.4250
  242MPD1    C2 3670   2.064   3.868  16.087 -0.1122 -0.2389  0.1602
  242MPD1    C3 3671   2.200   3.898  16.110  0.5628  0.6222 -0.2794
  242MPD1    C4 3672   2.246   3.899  16.239 -0.2750 -0.0356  0.4152
  242MPD1    C5 3673   2.154   3.901  16.349  0.3780  0.4642  0.4563
  242MPD1     H 3674   2.028   3.840  15.989  1.2089 -1.2068 -0.0402
  242MPD1    H1 3675   2.351   3.883  16.262 -0.1286  2.7695  1.7042
  242MPD1    H2 3676   1.949   3.903  16.400 -0.6177  0.7112 -0.7392
  242MPD1    H3 3677   2.190   3.904  16.451  0.7068 -0.3214  0.3659
  242MPD1     N 3678   2.289   3.910  16.010  0.0489 -0.2501  0.0827
  242MPD1    H5 3679   2.386   3.929  16.034  0.3247 -0.5687 -0.7613
  242MPD1    N1 3680   1.841   3.818  16.183 -0.3018  0.0373  0.0574
  242MPD1    H6 3681   1.803   3.850  16.094  0.8197  1.6455  0.1644
  242MPD1    H7 3682   1.779   3.853  16.256  1.8269  1.1218  1.3360
  243MPD1     C 3683   3.998   3.823   0.785 -0.5388 -0.4430 -0.0681
  243MPD1    C1 3684   3.920   3.715   0.821  0.5542 -0.7665  0.0408
  243MPD1    C2 3685   3.881   3.632   0.716  0.4236 -0.3166 -0.1832
  243MPD1    C3 3686   3.935   3.648   0.591 -0.2823 -0.0416  0.2931
  243MPD1    C4 3687   4.013   3.755   0.553 -0.5493 -0.6053  0.1299
  243MPD1    C5 3688   4.045   3.838   0.659  0.3517 -0.0772  0.7005
  243MPD1     H 3689   3.814   3.550   0.737  2.6515 -2.5183 -1.6335
  243MPD1    H1 3690   4.046   3.776   0.452  1.3009 -0.1682  0.8067
  243MPD1    H2 3691   4.033   3.899   0.854 -1.9915 -1.0185  1.2880
  243MPD1    H3 3692   4.102   3.928   0.638 -0.8219  1.2774  3.2992
  243MPD1     N 3693   3.902   3.543   0.504  0.3531  0.0532  0.3211
  243MPD1    H5 3694   3.835   3.473   0.534  0.9148 -1.5396 -2.1300
  243MPD1    N1 3695   3.861   3.697   0.946 -0.3048 -0.4198  0.3031
  243MPD1    H6 3696   3.919   3.726   1.025 -0.5733  0.2745  0.2444
  243MPD1    H7 3697   3.839   3.600   0.969  0.9898 -0.3858  1.6965
  244MPD1     C 3698   3.085   3.320   0.481  0.3817  0.2051  0.4264
  244MPD1    C1 3699   3.184   3.390   0.560  0.9891  0.7998 -0.3868
  244MPD1    C2 3700   3.317   3.396   0.517  0.0757 -0.4642  0.4977
  244MPD1    C3 3701   3.351   3.326   0.401  0.1888 -0.3003 -0.1213
  244MPD1    C4 3702   3.258   3.259   0.330 -1.1603  0.5824  0.2606
  244MPD1    C5 3703   3.131   3.242   0.373  0.9156  0.1958  0.4276
  244MPD1     H 3704   3.393   3.453   0.569 -0.5028  0.1619  0.6551
  244MPD1    H1 3705   3.298   3.196   0.252 -1.2967 -0.7195  1.2383
  244MPD1    H2 3706   2.980   3.316   0.507  0.0861  0.9597 -0.6426
  244MPD1    H3 3707   3.060   3.174   0.327  0.1840  1.1356  0.1830
  244MPD1     N 3708   3.490   3.330   0.364  0.4702 -0.2312 -0.3278
  244MPD1    H5 3709   3.555   3.378   0.425  0.0055 -2.6460  2.0234
  244MPD1    N1 3710   3.138   3.464   0.669  0.2251 -0.6062 -0.1519
  244MPD1    H6 3711   3.223   3.486   0.721 -0.5384 -0.1775  0.9145
  244MPD1    H7 3712   3.060   3.424   0.720  0.1868 -0.4484 -0.0845
  245MPD1     C 3713   0.793   3.775  13.299 -0.3341  0.1972  0.9747
  245MPD1    C1 3714   0.919   3.738  13.323 -0.3047  0.1448 -0.4632
  245MPD1    C2 3715   1.012   3.835  13.366  0.3070 -0.3947  0.5531
  245MPD1    C3 3716   0.962   3.968  13.384  1.0512  0.5515 -0.0711
  245MPD1    C4 3717   0.831   4.005  13.349  0.4800  0.2574 -0.1512
  245MPD1    C5 3718   0.753   3.904  13.297 -0.0125  0.9883 -0.1503
  245MPD1     H 3719   1.115   3.805  13.383  0.7283  0.0687 -1.1903
  245MPD1    H1 3720   0.802   4.109  13.359 -1.1109 -0.2225  0.1378
  245MPD1    H2 3721   0.722   3.697  13.273  0.2906  0.2898 -1.0427
  245MPD1    H3 3722   0.655   3.937  13.264  0.0378  1.5750  0.3047
  245MPD1     N 3723   1.058   4.064  13.431  0.1059  0.1779  0.3103
  245MPD1    H5 3724   1.152   4.028  13.441  0.9797  2.9957  2.1545
  245MPD1    N1 3725   0.964   3.603  13.302  0.3130  0.7975 -0.5176
  245MPD1    H6 3726   0.927   3.574  13.211 -1.8776 -2.8689  1.5581
  245MPD1    H7 3727   1.065   3.594  13.296  0.3261  0.1940  0.6484
  246MPD1     C 3728   2.686   0.219   9.955 -0.0773 -0.1569  0.2881
  246MPD1    C1 3729   2.637   0.247   9.830  0.0557  0.2426 -0.0749
  246MPD1    C2 3730   2.592   0.143   9.757  0.3350  0.4947  0.0315
  246MPD1    C3 3731   2.621   0.017   9.798  1.1361 -0.2212  0.0205
  246MPD1    C4 3732   2.666   4.719   9.926  0.0370 -0.5618  0.4316
  246MPD1    C5 3733   2.689   0.094  10.008  0.4480 -0.4169  0.8092
  246MPD1     H 3734   2.554   0.154   9.655  0.3362 -0.2298 -0.0458
  246MPD1    H1 3735   2.666   4.621   9.971  1.2337 -0.2506  1.1125
  246MPD1    H2 3736   2.726   0.302  10.013  2.2110  0.1684 -1.7383
  246MPD1    H3 3737   2.732   0.087  10.107 -0.5835 -0.2308  1.2723
  246MPD1     N 3738   2.590   4.634   9.712  0.5433 -0.0350  0.3225
  246MPD1    H5 3739   2.529   4.658   9.634  1.0763  1.9896  0.5464
  246MPD1    N1 3740   2.647   0.378   9.785 -0.3348 -0.3865 -0.5689
  246MPD1    H6 3741   2.650   0.452   9.854 -2.4361  0.0794 -0.9497
  246MPD1    H7 3742   2.570   0.405   9.724  0.4664  1.1096 -0.9078
  247MPD1     C 3743   0.475   3.133  16.209  0.1824  0.1573  0.2426
  247MPD1    C1 3744   0.551   3.025  16.188  0.2017 -0.3618  0.1400
  247MPD1    C2 3745   0.643   3.023  16.081  0.4278  0.3964  0.0783
  247MPD1    C3 3746   0.660   3.133  16.002 -0.3067  0.5225 -0.4035
  247MPD1    C4 3747   0.573   3.240  16.021  0.0579  0.3975  0.4788
  247MPD1    C5 3748   0.474   3.236  16.117 -0.1387  0.3565  0.5266
  247MPD1     H 3749   0.715   2.943  16.069 -1.4228 -1.0058 -1.5583
  247MPD1    H1 3750   0.584   3.330  15.962  0.5740 -0.5496 -0.8668
  247MPD1    H2 3751   0.398   3.141  16.285  0.1811 -1.4868  0.4126
  247MPD1    H3 3752   0.418   3.324  16.147 -0.0476  0.4303  0.4820
  247MPD1     N 3753   0.745   3.144  15.890 -0.2548  0.4212 -0.6985
  247MPD1    H5 3754   0.739   3.226  15.830  0.4428  2.1733  1.6129
  247MPD1    N1 3755   0.541   2.922  16.283 -0.3735 -0.4629 -0.1510
  247MPD1    H6 3756   0.554   2.833  16.235 -1.7986 -1.8269  2.0291
  247MPD1    H7 3757   0.446   2.934  16.317  0.9553 -1.1928  3.8295
  248MPD1     C 3758   1.939   3.524  17.369  0.7120 -0.4949  0.0677
  248MPD1    C1 3759   1.976   3.458  17.483 -0.6248 -0.1062  0.3389
  248MPD1    C2 3760   1.897   3.464  17.597  0.0652  0.0844  0.7309
  248MPD1    C3 3761   1.779   3.536  17.600 -0.2592 -0.6152  0.6734
  248MPD1    C4 3762   1.746   3.608  17.488 -0.0062 -0.9866  0.2432
  248MPD1    C5 3763   1.825   3.609  17.374  0.2296 -0.4919  0.4962
  248MPD1     H 3764   1.917   3.408  17.687  2.5606  1.1014  0.8165
  248MPD1    H1 3765   1.649   3.657  17.495  0.6304  0.3635 -0.5344
  248MPD1    H2 3766   2.002   3.523  17.281  0.6739  1.6741  0.0060
  248MPD1    H3 3767   1.792   3.669  17.290 -1.7917 -2.0033  0.2250
  248MPD1     N 3768   1.702   3.530   0.016  0.3185  0.2521 -0.2201
  248MPD1    H5 3769   1.749   3.469   0.081 -0.4250  0.1431  0.2103
  248MPD1    N1 3770   2.091   3.375  17.477 -0.1590  0.4403  0.3354
  248MPD1    H6 3771   2.151   3.369  17.559  0.4098  1.1411 -0.0422
  248MPD1    H7 3772   2.154   3.402  17.402  1.2240 -2.0168  0.6396
  249MPD1     C 3773   2.306   2.303  10.055  0.7538  0.1043  0.7392
  249MPD1    C1 3774   2.429   2.336  10.103 -0.2579  1.0501 -0.1060
  249MPD1    C2 3775   2.538   2.256  10.060  0.1682  0.0587  0.3168
  249MPD1    C3 3776   2.524   2.139   9.987 -0.0364 -0.1848  0.2654
  249MPD1    C4 3777   2.395   2.096   9.971 -0.1138  0.0741 -0.5242
  249MPD1    C5 3778   2.288   2.178   9.996  0.1441 -0.4485 -0.2414
  249MPD1     H 3779   2.638   2.297  10.069  0.7635 -1.3765  0.2424
  249MPD1    H1 3780   2.374   1.998   9.930  1.1139  0.2663 -1.6144
  249MPD1    H2 3781   2.214   2.345  10.096  1.5500  3.3852 -0.8311
  249MPD1    H3 3782   2.187   2.140   9.985  0.1559 -0.4007 -0.4978
  249MPD1     N 3783   2.643   2.071   9.941 -1.1869 -0.5403 -0.4313
  249MPD1    H5 3784   2.726   2.114   9.981  0.0595 -3.7338  0.4695
  249MPD1    N1 3785   2.450   2.466  10.150  0.1789  0.5891  0.8531
  249MPD1    H6 3786   2.526   2.470  10.218 -0.6255  0.9164  1.7351
  249MPD1    H7 3787   2.372   2.499  10.206  0.3002  0.3816  1.1405
  250MPD2     C 3788   3.707   2.110  13.562 -0.2255 -0.0250 -0.4450
  250MPD2    C1 3789   3.821   2.124  13.486 -0.1160  0.1042  0.0704
  250MPD2    C2 3790   3.865   2.020  13.398  0.3892  0.0183 -0.0848
  250MPD2    C3 3791   3.779   1.907  13.387 -0.4341  0.0691  0.5156
  250MPD2    C4 3792   3.663   1.900  13.463  0.0224 -0.3861 -0.2818
  250MPD2    C5 3793   3.626   2.004  13.542  0.5442 -0.6017  0.1616
  250MPD2     H 3794   3.948   2.023  13.328  2.2264  1.3220  2.1430
  250MPD2    H1 3795   3.605   1.809  13.452 -2.1224  1.0492 -0.9211
  250MPD2    H2 3796   3.669   2.188  13.627  1.5199  0.9430 -0.5838
  250MPD2    H3 3797   3.528   1.993  13.586  1.5469 -2.2413  2.0304
  250MPD2     N 3798   3.810   1.796  13.300  0.7375 -0.0275 -0.4355
  250MPD2    H5 3799   3.732   1.735  13.276 -1.1415  2.4205 -0.6503
  250MPD2    N1 3800   3.887   2.250  13.492  0.4091  0.2127 -0.1248
  250MPD2    H7 3801   3.834   2.326  13.534 -1.1047 -0.7065 -0.3717
  251TMC3    C1 3802   4.022   2.413  13.393 -0.3615  0.2634  0.4550
  251TMC3    C2 3803   3.913   2.496  13.378 -0.0767 -0.2102  0.3178
  251TMC3    C3 3804   3.935   2.604  13.300  0.1188 -0.6250 -0.8030
  251TMC3    C4 3805   4.137   2.431  13.326  0.0357 -0.2097 -1.1787
  251TMC3    C5 3806   4.148   2.537  13.243 -0.1928  0.0854  0.5792
  251TMC3    C6 3807   4.050   2.633  13.229  0.5876  0.5158  0.0259
  251TMC3     C 3808   4.000   2.279  13.424  0.2950 -0.5506 -0.3744
  251TMC3     O 3809   4.083   2.198  13.371  0.4683 -0.1362  0.0076
  251TMC3     H 3810   3.815   2.475  13.419 -0.7931 -1.5484 -2.0439
  251TMC3    H1 3811   4.215   2.356  13.320  0.0009 -0.2455 -1.1834
  251TMC3    H2 3812   4.064   2.727  13.178 -2.3665  0.5863 -0.6495
  251TMC3    C7 3813   4.225   2.508  13.124  0.1954  0.5600 -0.4940
  251TMC3    C8 3814   3.835   2.703  13.299  0.9638  0.0081 -0.2372
  251TMC3    O1 3815   4.321   2.432  13.136 -0.1263  0.2326 -1.0083
  251TMC3    O2 3816   3.777   2.727  13.403 -0.1636 -0.2810 -0.5214
  252TMC3    C1 3817   4.338   3.606   9.356  0.6624  0.5275  0.1822
  252TMC3    C2 3818   4.431   3.666   9.273 -0.1502 -0.3106  0.3146
  252TMC3    C3 3819   4.561   3.629   9.306  0.3229 -0.2063 -0.1057
  252TMC3    C4 3820   4.367   3.502   9.444  0.5121 -1.3339 -0.7692
  252TMC3    C5 3821   4.497   3.466   9.464  0.4318  0.1331 -0.0978
  252TMC3    C6 3822   4.593   3.532   9.399  0.8513  0.0001  0.2363
  252TMC3     C 3823   4.196   3.618   9.326  0.1603  0.4717 -0.0541
  252TMC3     O 3824   4.122   3.531   9.368  0.4035 -0.8579 -0.0457
  252TMC3     H 3825   4.403   3.741   9.200  1.6030 -0.8800 -0.9301
  252TMC3    H1 3826   4.282   3.467   9.501  0.3073 -0.2735 -0.4188
  252TMC3    H2 3827   4.693   3.492   9.415  0.5576 -1.0050 -0.4054
  252TMC3    C7 3828   4.535   3.371   9.566 -0.5640  0.5276  1.5572
  252TMC3    C8 3829   4.670   3.705   9.248 -0.1778 -0.3678  0.1369
  252TMC3    O1 3830   4.650   3.375   9.602 -0.4008  0.1696 -0.2570
  252TMC3    O2 3831   4.658   3.740   9.136 -0.2339 -0.6865 -0.0510
  253MPD2     C 3832   0.631   3.256  15.471 -0.8696 -0.2610 -0.8347
  253MPD2    C1 3833   0.584   3.124  15.451  0.3444 -0.3969 -0.2974
  253MPD2    C2 3834   0.502   3.066  15.541 -0.0534  0.2061 -0.0285
  253MPD2    C3 3835   0.463   3.135  15.655  1.0238  0.0518 -0.0766
  253MPD2    C4 3836   0.499   3.270  15.670  0.0427 -0.5286  0.1733
  253MPD2    C5 3837   0.584   3.327  15.577 -0.6335 -0.0936 -0.7451
  253MPD2     H 3838   0.472   2.963  15.525 -2.8829  0.8094  1.4078
  253MPD2    H1 3839   0.474   3.329  15.758  0.8392 -1.0065  0.7149
  253MPD2    H2 3840   0.702   3.314  15.412 -0.0634  1.3464  1.7093
  253MPD2    H3 3841   0.608   3.429  15.605  2.8406 -0.3265 -2.8407
  253MPD2     N 3842   0.406   3.070  15.769 -0.2616  0.6003  0.1612
  253MPD2    H5 3843   0.385   3.126  15.851 -0.1185  1.7258 -0.5635
  253MPD2    N1 3844   0.628   3.051  15.338  0.3163 -1.1396  0.4321
  253MPD2    H7 3845   0.582   2.961  15.326  0.9515 -1.3135 -0.7737
  254TMC3    C1 3846   0.359   2.894  15.914 -0.1553 -0.0241 -0.3937
  254TMC3    C2 3847   0.291   2.982  15.988  0.6657 -0.0572 -0.5625
  254TMC3    C3 3848   0.211   2.927  16.083  0.0294  0.0292 -0.3962
  254TMC3    C4 3849   0.370   2.760  15.947 -0.0052  0.7243 -0.2012
  254TMC3    C5 3850   0.292   2.708  16.044 -0.1295  0.4671 -0.2337
  254TMC3    C6 3851   0.212   2.794  16.113  0.0609  0.0588 -0.0014
  254TMC3     C 3852   0.398   2.932  15.780 -0.0304 -0.0206  0.1858
  254TMC3     O 3853   0.422   2.834  15.708  1.3015 -0.4896  0.5199
  254TMC3     H 3854   0.288   3.088  15.968  2.4588  0.0787 -0.1258
  254TMC3    H1 3855   0.435   2.691  15.896 -1.1738 -1.2531  0.9559
  254TMC3    H2 3856   0.161   2.762  16.203 -1.1744 -0.1913 -0.7959
  254TMC3    C7 3857   0.332   2.596  16.128  0.4193  0.1003  0.4553
  254TMC3    C8 3858   0.137   3.012  16.177  0.0911  0.2233  0.0668
  254TMC3    O1 3859   0.278   2.583  16.239 -0.1782 -0.1660 -0.1306
  254TMC3    O2 3860   0.097   2.954  16.276  0.0981  0.5860 -0.2000
  255MPD2     C 3861   3.268   4.628  10.330  0.1875  0.0621  0.2922
  255MPD2    C1 3862   3.328   0.010  10.275  0.5739  0.3018 -0.4429
  255MPD2    C2 3863   3.438   0.074  10.339  0.1891 -0.0332 -0.4182
  255MPD2    C3 3864   3.484   0.028  10.454  0.2488  0.3698  0.5189
  255MPD2    C4 3865   3.431   4.631  10.500 -0.6825 -0.2721  0.4435
  255MPD2    C5 3866   3.326   4.574  10.441  0.3576 -0.1654 -0.7471
  255MPD2     H 3867   3.488   0.165  10.306  0.1630  0.4934  1.0014
  255MPD2    H1 3868   3.467   4.587  10.592  0.3638 -1.0309 -0.3238
  255MPD2    H2 3869   3.187   4.571  10.284  0.1996  0.9523 -0.8209
  255MPD2    H3 3870   3.292   4.488  10.498  0.8026 -0.1416 -0.4434
  255MPD2     N 3871   3.587   0.096  10.518 -0.3156 -0.8933 -0.0245
  255MPD2    H5 3872   3.619   0.182  10.474 -1.0577  0.0103  1.1792
  255MPD2    N1 3873   3.286   0.048  10.149  1.2220 -0.3544 -0.0473
  255MPD2    H7 3874   3.206   0.000  10.108  0.4048 -0.7186  1.9703
  256TMC3    C1 3875   3.273   0.172   9.945  0.0548  0.1070 -0.3861
  256TMC3    C2 3876   3.359   0.199   9.841  0.3930  0.3891  0.2671
  256TMC3    C3 3877   3.311   0.200   9.715 -0.3531  0.3247  0.7098
  256TMC3    C4 3878   3.138   0.147   9.925 -0.3267 -0.5813 -0.4483
  256TMC3    C5 3879   3.096   0.127   9.803  0.1760 -0.0009 -0.2302
  256TMC3    C6 3880   3.176   0.163   9.697  0.0591  0.2604  0.3786
  256TMC3     C 3881   3.342   0.143  10.073  0.2784  0.7776  0.1263
  256TMC3     O 3882   3.453   0.196  10.090 -0.0103  0.7187  0.0921
  256TMC3     H 3883   3.466   0.207   9.858  0.2663  1.8483  0.3848
  256TMC3    H1 3884   3.066   0.117  10.001 -1.6385  1.1388 -1.0032
  256TMC3    H2 3885   3.139   0.136   9.599 -0.4517  1.4882  0.2385
  256TMC3    C7 3886   3.047   4.714   9.788  0.4037 -0.2940 -0.2533
  256TMC3    C8 3887   3.390   0.195   9.597  0.1764  1.1454  0.4784
  256TMC3    O1 3888   3.069   4.644   9.884  0.2499 -1.0561  0.8124
  256TMC3    O2 3889   3.326   0.214   9.493 -1.3668 -0.0373 -0.2117
  257MPD2     C 3890   2.768   2.103  13.392 -0.1711  0.1108  0.0765
  257MPD2    C1 3891   2.904   2.112  13.363  0.2093  0.2404  0.3413
  257MPD2    C2 3892   2.987   2.061  13.458 -0.0076 -0.1921 -0.0351
  257MPD2    C3 3893   2.942   2.007  13.583 -0.0391  0.3812 -0.0650
  257MPD2    C4 3894   2.808   1.995  13.601 -0.5617 -0.0894  0.0829
  257MPD2    C5 3895   2.721   2.052  13.510  0.2409  0.2682  0.0143
  257MPD2     H 3896   3.093   2.045  13.445  0.1102  2.2061 -2.0429
  257MPD2    H1 3897   2.760   1.945  13.685 -1.0273 -2.0019 -1.3224
  257MPD2    H2 3898   2.705   2.118  13.306 -0.6380  0.0064  0.3982
  257MPD2    H3 3899   2.616   2.037  13.530  0.1422  0.7899 -0.1321
  257MPD2     N 3900   3.035   1.953  13.669  0.2164  0.5176 -0.0948
  257MPD2    H5 3901   3.132   1.964  13.644  0.5787  0.2050  1.1627
  257MPD2    N1 3902   2.941   2.153  13.233  0.2710 -0.8855 -0.3211
  257MPD2    H7 3903   2.863   2.183  13.174 -0.1395 -1.7385 -0.2182
  258TMC3    C1 3904   3.117   1.845  13.868  0.4330  0.7491  0.1860
  258TMC3    C2 3905   3.230   1.804  13.814 -0.0761  0.9622  0.3349
  258TMC3    C3 3906   3.333   1.758  13.893  0.2286  0.4305  0.4543
  258TMC3    C4 3907   3.101   1.838  14.005  0.0937  0.0711  0.2806
  258TMC3    C5 3908   3.204   1.795  14.080  0.1182  0.1548  0.3828
  258TMC3    C6 3909   3.320   1.750  14.026  0.0838 -1.0349 -0.3240
  258TMC3     C 3910   3.001   1.896  13.788  0.0630  0.6241 -0.2724
  258TMC3     O 3911   2.904   1.923  13.859 -0.2049 -0.3698  0.0457
  258TMC3     H 3912   3.238   1.795  13.706 -0.6592  4.3964  0.0025
  258TMC3    H1 3913   3.009   1.868  14.055  0.3131  1.7487 -0.3475
  258TMC3    H2 3914   3.386   1.687  14.084  0.4885  0.2461  0.6013
  258TMC3    C7 3915   3.181   1.763  14.217  0.1053  0.4784  0.3005
  258TMC3    C8 3916   3.468   1.743  13.832 -0.0093 -0.1215  0.3700
  258TMC3    O1 3917   3.067   1.745  14.258 -0.5380  0.3955 -0.3311
  258TMC3    O2 3918   3.468   1.736  13.708  0.0422 -0.4429  0.4120
  259MPD2     C 3919   1.352   3.688   1.515  0.0334 -0.4973  0.3903
  259MPD2    C1 3920   1.424   3.572   1.520  0.0305 -0.6491  0.2478
  259MPD2    C2 3921   1.511   3.541   1.419  0.0365 -0.0349 -0.1976
  259MPD2    C3 3922   1.511   3.625   1.300 -0.6167  0.3658 -0.1396
  259MPD2    C4 3923   1.423   3.739   1.300  0.8225 -0.2993 -0.2374
  259MPD2    C5 3924   1.352   3.777   1.410  0.5046  0.3017  0.3659
  259MPD2     H 3925   1.573   3.452   1.417 -0.2954 -0.3014  1.0310
  259MPD2    H1 3926   1.418   3.809   1.218 -1.1586  1.2962  1.2637
  259MPD2    H2 3927   1.293   3.715   1.602  1.3960  1.3915  0.7156
  259MPD2    H3 3928   1.288   3.863   1.395  0.9912  0.6897  0.5244
  259MPD2     N 3929   1.604   3.595   1.197 -0.1201 -0.0533  0.3092
  259MPD2    H5 3930   1.661   3.513   1.212 -0.6181 -0.7222 -1.4197
  259MPD2    N1 3931   1.395   3.484   1.624 -0.1686  0.2217  0.2085
  259MPD2    H7 3932   1.307   3.486   1.673 -1.3549 -0.9142 -1.8941
  260TMC3    C1 3933   1.729   3.621   1.008  0.0380  0.4906 -0.6075
  260TMC3    C2 3934   1.788   3.719   0.928  0.2336  0.1956  0.7669
  260TMC3    C3 3935   1.864   3.665   0.829 -0.7834 -0.6236  0.6641
  260TMC3    C4 3936   1.742   3.488   0.992  0.4407 -0.5326 -0.4019
  260TMC3    C5 3937   1.829   3.447   0.902  0.9317 -0.8790  0.0852
  260TMC3    C6 3938   1.889   3.532   0.809  0.0256 -0.6546  0.3518
  260TMC3     C 3939   1.631   3.677   1.095  0.3748  0.2845 -0.6503
  260TMC3     O 3940   1.587   3.785   1.062 -0.0948  0.6291  0.0702
  260TMC3     H 3941   1.783   3.827   0.940 -1.5913  0.2488 -0.5562
  260TMC3    H1 3942   1.687   3.421   1.057 -0.6928  0.3702 -0.4249
  260TMC3    H2 3943   1.943   3.502   0.720 -0.5530 -2.2195  0.5278
  260TMC3    C7 3944   1.855   3.299   0.897 -0.1663  0.3407 -0.8258
  260TMC3    C8 3945   1.920   3.753   0.727 -0.6516  0.0539  0.2380
  260TMC3    O1 3946   1.786   3.230   0.972  0.4503 -0.9245  0.0718
  260TMC3    O2 3947   1.873   3.864   0.735 -0.4158  0.1082  0.1891
  261MPD2     C 3948   3.521   1.556  12.601  0.2615 -0.2606 -0.1565
  261MPD2    C1 3949   3.633   1.636  12.633 -0.2782 -0.7858  0.0503
  261MPD2    C2 3950   3.672   1.733  12.542 -0.5370 -0.1599  0.0481
  261MPD2    C3 3951   3.595   1.755  12.430  0.8573 -0.0526 -0.6719
  261MPD2    C4 3952   3.482   1.676  12.407 -0.4859  0.1672 -0.7416
  261MPD2    C5 3953   3.455   1.570  12.484  0.5026  0.3809 -0.5217
  261MPD2     H 3954   3.755   1.797  12.571 -0.4667  0.2837 -1.1268
  261MPD2    H1 3955   3.414   1.698  12.325  0.7332  2.5920 -1.1245
  261MPD2    H2 3956   3.478   1.482  12.667 -0.4001  1.6873  1.6065
  261MPD2    H3 3957   3.381   1.498  12.450 -2.3781  2.1408  1.9901
  261MPD2     N 3958   3.633   1.868  12.355  0.1873 -0.3458  0.3881
  261MPD2    H5 3959   3.705   1.924  12.399  0.4118 -0.3989  0.0874
  261MPD2    N1 3960   3.699   1.629  12.762 -0.0156 -0.4325 -0.0653
  261MPD2    H7 3961   3.788   1.676  12.774 -0.2594 -0.7922  3.3486
  262TMC3    C1 3962   3.661   2.017  12.182 -0.3781 -0.1045  0.0148
  262TMC3    C2 3963   3.709   2.113  12.266  0.2480  0.4614 -0.3275
  262TMC3    C3 3964   3.772   2.228  12.221 -0.5782  0.1095  0.8129
  262TMC3    C4 3965   3.676   2.023  12.048 -0.5025 -0.1942  0.2207
  262TMC3    C5 3966   3.750   2.134  12.000 -0.4973  0.6994 -0.3828
  262TMC3    C6 3967   3.790   2.235  12.079  0.6606  0.1265  0.6626
  262TMC3     C 3968   3.596   1.894  12.230 -0.8234  0.4523 -0.2119
  262TMC3     O 3969   3.519   1.831  12.157  0.3756  0.1385  0.2338
  262TMC3     H 3970   3.705   2.110  12.374  1.6086 -0.4655 -0.3121
  262TMC3    H1 3971   3.658   1.932  11.992  0.5143  0.6396 -1.4260
  262TMC3    H2 3972   3.852   2.320  12.051 -0.0958  0.2450 -0.6419
  262TMC3    C7 3973   3.683   2.186  11.884 -0.3256  0.3276 -0.1592
  262TMC3    C8 3974   3.718   2.358  12.258  0.4135  0.0045  0.0412
  262TMC3    O1 3975   3.599   2.107  11.834 -0.0331  0.2271  0.4965
  262TMC3    O2 3976   3.773   2.456  12.204 -0.3828  0.0616 -0.9540
  263MPD2     C 3977   4.539   1.639  11.263  0.5931 -0.1287 -1.0521
  263MPD2    C1 3978   4.600   1.731  11.345  0.1406 -0.0964 -0.3667
  263MPD2    C2 3979   4.628   1.857  11.302 -0.2955 -0.0540  0.3672
  263MPD2    C3 3980   4.602   1.897  11.172 -0.6247  0.0678  0.2655
  263MPD2    C4 3981   4.545   1.810  11.091 -0.5632 -0.0088  0.3657
  263MPD2    C5 3982   4.510   1.683  11.138 -0.5374  0.0985 -0.8211
  263MPD2     H 3983   4.679   1.929  11.366  0.7828 -0.7944  0.3327
  263MPD2    H1 3984   4.533   1.833  10.986  0.3775 -0.0121  0.2597
  263MPD2    H2 3985   4.516   1.536  11.290  2.9481 -0.0294  1.3956
  263MPD2    H3 3986   4.471   1.609  11.070 -1.5499  0.9703 -1.1993
  263MPD2     N 3987   4.631   2.027  11.137 -0.6757  0.4764 -0.7528
  263MPD2    H5 3988   4.674   2.085  11.208  2.6220 -0.6975 -1.7946
  263MPD2    N1 3989   4.645   1.684  11.471  0.4639  0.2051  0.0378
  263MPD2    H7 3990   4.644   1.583  11.475  0.9373  0.1903 -0.1472
  264TMC3    C1 3991   4.663   2.224  11.012  0.1822  0.2423 -0.0405
  264TMC3    C2 3992   4.635   2.310  11.122 -0.2133  0.0359 -0.4776
  264TMC3    C3 3993   4.671   2.440  11.100 -0.0055  0.6823  0.0979
  264TMC3    C4 3994   4.719   2.260  10.892 -0.4695  0.7143  0.2491
  264TMC3    C5 3995   0.029   2.391  10.875  0.6823  0.0833 -0.5451
  264TMC3    C6 3996   0.002   2.478  10.979 -0.3019  0.0596 -0.7342
  264TMC3     C 3997   4.624   2.084  11.014 -0.5816  0.4263 -0.0812
  264TMC3     O 3998   4.591   2.037  10.905  0.0754  0.3636  0.1857
  264TMC3     H 3999   4.591   2.275  11.214 -0.1194 -1.3157 -0.9499
  264TMC3    H1 4000   0.021   2.183  10.821 -2.8650 -0.4087  0.5493
  264TMC3    H2 4001   0.046   2.577  10.970 -0.0344  0.0177  0.1258
  264TMC3    C7 4002   0.155   2.411  10.808 -0.0337  0.1136 -0.1941
  264TMC3    C8 4003   0.047   2.470  11.195  1.1074 -0.5164  0.2095
  264TMC3    O1 4004   0.181   2.347  10.705 -0.0237  0.0335  0.2988
  264TMC3    O2 4005   0.166   2.468  11.159  0.2366  0.0824 -0.1076
  265MPD2     C 4006   2.112   2.216  15.976 -0.3593 -0.7403 -0.3174
  265MPD2    C1 4007   2.044   2.256  15.865 -0.2756  0.2582 -0.1745
  265MPD2    C2 4008   2.073   2.196  15.737 -0.3280 -0.2524  0.1478
  265MPD2    C3 4009   2.157   2.088  15.736  0.0885  0.4419 -0.0282
  265MPD2    C4 4010   2.203   2.030  15.855 -0.2401  0.2433 -0.4278
  265MPD2    C5 4011   2.182   2.101  15.970  0.1522  0.8085  0.5441
  265MPD2     H 4012   2.031   2.224  15.641  0.6201  0.7315  0.0103
  265MPD2    H1 4013   2.260   1.938  15.858  1.9659  1.6224  0.4491
  265MPD2    H2 4014   2.108   2.267  16.072  0.2280 -1.3462  0.0326
  265MPD2    H3 4015   2.225   2.056  16.059  0.7236  2.2008  0.9819
  265MPD2     N 4016   2.202   2.015  15.623 -0.2901  0.2090 -0.0315
  265MPD2    H5 4017   2.230   1.917  15.631 -0.1922  0.2679  0.3779
  265MPD2    N1 4018   1.955   2.364  15.876  0.2087 -0.6546 -0.5324
  265MPD2    H7 4019   1.921   2.396  15.786 -0.6470 -1.2737 -0.4273
  266TMC3    C1 4020   1.800   2.517  15.974 -0.1750  0.3311  0.3402
  266TMC3    C2 4021   1.761   2.575  16.093 -0.4083 -0.1857  0.5424
  266TMC3    C3 4022   1.696   2.694  16.086 -0.3981 -0.1992  0.4291
  266TMC3    C4 4023   1.770   2.569  15.851 -0.4273  0.7017  0.1703
  266TMC3    C5 4024   1.723   2.695  15.852 -0.3882 -0.3538 -0.0665
  266TMC3    C6 4025   1.687   2.761  15.967 -0.7880 -0.1237 -0.3377
  266TMC3     C 4026   1.915   2.426  15.990 -0.3818  0.1520  0.0176
  266TMC3     O 4027   1.927   2.396  16.106  0.2559 -0.1986  0.2035
  266TMC3     H 4028   1.785   2.542  16.193  0.3373 -4.4403 -1.0200
  266TMC3    H1 4029   1.804   2.526  15.757 -1.9678 -0.1089 -0.0206
  266TMC3    H2 4030   1.648   2.861  15.953  1.1431  0.8184  0.9974
  266TMC3    C7 4031   1.700   2.755  15.721  0.5212  0.1644 -0.1365
  266TMC3    C8 4032   1.670   2.769  16.206  0.0919  0.1077 -0.8333
  266TMC3    O1 4033   1.668   2.689  15.626 -0.3135  0.7883  0.4742
  266TMC3    O2 4034   1.571   2.739  16.270  0.3943  0.1725 -0.2464
  267MPD2     C 4035   4.617   3.690   0.199  0.1930 -0.5635  0.8064
  267MPD2    C1 4036   4.622   3.821   0.165 -0.7088 -0.4522 -0.0693
  267MPD2    C2 4037   4.657   3.853   0.040  0.0757  0.3550 -0.5267
  267MPD2    C3 4038   4.660   3.762  17.642 -0.3298  0.0141  0.3169
  267MPD2    C4 4039   4.641   3.627  17.669 -0.6642 -0.3383 -0.1425
  267MPD2    C5 4040   4.624   3.596   0.096  0.2523  0.0383  0.5822
  267MPD2     H 4041   4.660   3.956   0.006 -0.9338  0.7999  0.7641
  267MPD2    H1 4042   4.650   3.551  17.592 -0.0835 -1.2819  0.8540
  267MPD2    H2 4043   4.611   3.657   0.302  0.6224  1.5654  1.4995
  267MPD2    H3 4044   4.621   3.494   0.132 -2.6248  0.4513  1.4787
  267MPD2     N 4045   4.691   3.792  17.511  0.0700 -0.3423  0.4629
  267MPD2    H5 4046   4.669   3.723  17.440  0.2830  0.1752 -0.1093
  267MPD2    N1 4047   4.605   3.914   0.271  0.0825  1.1351 -0.0684
  267MPD2    H7 4048   4.574   3.882   0.362  0.7213  1.6640  0.3378
  268TMC3    C1 4049   4.639   4.117   0.388 -0.1196  0.1084  0.0409
  268TMC3    C2 4050   4.610   4.256   0.392  0.8289 -0.5401 -0.1957
  268TMC3    C3 4051   4.583   4.310   0.514  0.1050  0.4526  0.6025
  268TMC3    C4 4052   4.654   4.043   0.502 -0.0237 -0.1777 -0.2246
  268TMC3    C5 4053   4.624   4.101   0.625  0.4325  0.1746 -0.3391
  268TMC3    C6 4054   4.590   4.234   0.631 -0.1173  0.4321  0.2997
  268TMC3     C 4055   4.633   4.050   0.259  0.2279 -0.2221 -0.4774
  268TMC3     O 4056   4.654   4.130   0.165 -0.8073  0.3342 -0.0256
  268TMC3     H 4057   4.588   4.306   0.299 -1.1225 -0.1289  0.4879
  268TMC3    H1 4058   4.699   3.945   0.508 -0.1614 -0.2154  0.1543
  268TMC3    H2 4059   4.561   4.286   0.722  0.5305 -0.7571  1.1860
  268TMC3    C7 4060   4.685   4.042   0.744 -0.1485 -0.1939  0.2245
  268TMC3    C8 4061   4.606   4.456   0.531 -0.0314  0.5499  0.3067
  268TMC3    O1 4062   4.695   3.919   0.749  0.1379 -0.2115  0.1815
  268TMC3    O2 4063   4.552   4.514   0.623 -0.3781 -0.0800  0.4690
  269MPD2     C 4064   0.023   2.499  15.891 -0.4873 -0.0668 -0.5302
  269MPD2    C1 4065   4.619   2.539  15.912 -0.7399  0.1643  0.2856
  269MPD2    C2 4066   4.589   2.675  15.875 -0.3459  0.1108  0.2085
  269MPD2    C3 4067   4.674   2.754  15.797 -0.0871 -0.1897  0.1036
  269MPD2    C4 4068   0.071   2.701  15.759 -0.6965  0.3736 -0.3110
  269MPD2    C5 4069   0.106   2.578  15.804 -0.3341  0.1141  0.1937
  269MPD2     H 4070   4.495   2.721  15.903  0.3244  1.2077  0.6588
  269MPD2    H1 4071   0.149   2.753  15.705 -1.4280 -0.3115 -2.0462
  269MPD2    H2 4072   0.054   2.400  15.923  0.8398  0.7193  0.6134
  269MPD2    H3 4073   0.202   2.535  15.780 -0.3742  0.1156  0.0345
  269MPD2     N 4074   4.634   2.890  15.772 -0.6228  0.3348 -0.3710
  269MPD2    H5 4075   4.551   2.919  15.824 -0.6898 -1.8111  0.7148
  269MPD2    N1 4076   4.534   2.447  15.976 -0.4668 -0.5680  0.0373
  269MPD2    H7 4077   4.570   2.352  15.978 -0.5644 -0.6196 -0.9535
  270TMC3    C1 4078   4.340   2.352  16.057  0.0877 -0.6498  0.1223
  270TMC3    C2 4079   4.240   2.323  15.970  0.3670  0.2336 -0.6630
  270TMC3    C3 4080   4.210   2.190  15.949  0.4989  0.6177  0.1138
  270TMC3    C4 4081   4.421   2.257  16.097  0.3864 -0.3001  1.0128
  270TMC3    C5 4082   4.401   2.125  16.066  0.0996 -0.6523 -0.3172
  270TMC3    C6 4083   4.284   2.089  16.005  0.4293  0.4876 -0.6724
  270TMC3     C 4084   4.405   2.466  16.015 -0.6369 -0.2774 -0.4783
  270TMC3     O 4085   4.340   2.569  16.016 -0.6206 -0.1701  0.1256
  270TMC3     H 4086   4.203   2.402  15.907 -0.2729 -0.6090 -1.3425
  270TMC3    H1 4087   4.506   2.276  16.163  1.0349  0.5273 -0.0622
  270TMC3    H2 4088   4.275   1.990  15.963  0.0016 -0.2751  1.2267
  270TMC3    C7 4089   4.520   2.046  16.038  0.4848 -0.0905 -0.0691
  270TMC3    C8 4090   4.203   2.166  15.812  0.1108 -0.6426  0.1331
  270TMC3    O1 4091   4.628   2.105  16.041  0.2789  0.1254  0.5809
  270TMC3    O2 4092   4.296   2.097  15.768  0.4516  0.2248 -0.1422
  271MPD2     C 4093   4.138   2.581  14.074  0.0779 -0.2397 -0.4006
  271MPD2    C1 4094   4.018   2.553  14.141  0.2067 -0.6897 -0.4235
  271MPD2    C2 4095   3.900   2.611  14.101 -0.4948  0.5886  0.6866
  271MPD2    C3 4096   3.889   2.699  13.995 -0.4365 -0.2033 -0.6714
  271MPD2    C4 4097   4.009   2.729  13.930  0.2739  0.1341 -0.5495
  271MPD2    C5 4098   4.124   2.677  13.974 -0.4344  0.6512 -0.3291
  271MPD2     H 4099   3.809   2.585  14.152 -1.1280 -1.8742 -1.6807
  271MPD2    H1 4100   4.016   2.792  13.842 -0.4631  0.9410 -0.0369
  271MPD2    H2 4101   4.239   2.556  14.104 -0.3559 -2.0762 -0.4849
  271MPD2    H3 4102   4.213   2.722  13.932  0.3380  0.1297  0.7380
  271MPD2     N 4103   3.770   2.767  13.960  0.0239 -0.1781  0.1401
  271MPD2    H5 4104   3.775   2.810  13.868 -0.3936  1.9641  1.1284
  271MPD2    N1 4105   4.018   2.466  14.250  0.1809 -0.1619 -0.3386
  271MPD2    H7 4106   3.932   2.451  14.302 -0.3708  0.8097 -0.9809
  272TMC3    C1 4107   4.081   2.295  14.401  1.6506 -0.3372 -0.2264
  272TMC3    C2 4108   4.156   2.181  14.418 -0.0304 -0.0346  0.6751
  272TMC3    C3 4109   4.200   2.154  14.545 -0.5806  0.0300  0.4717
  272TMC3    C4 4110   4.043   2.362  14.518  0.6548  0.4128  0.3591
  272TMC3    C5 4111   4.110   2.342  14.634 -0.0194 -0.2776  0.3119
  272TMC3    C6 4112   4.183   2.232  14.652  0.3118 -0.3930 -0.3892
  272TMC3     C 4113   4.114   2.374  14.290  0.0508 -0.4096  0.0928
  272TMC3     O 4114   4.232   2.360  14.252  0.6467  0.3777 -0.9467
  272TMC3     H 4115   4.187   2.130  14.328  0.1528  1.2812 -0.0145
  272TMC3    H1 4116   3.982   2.450  14.502  0.2760  0.1862  0.5500
  272TMC3    H2 4117   4.222   2.208  14.750 -0.2980  2.4218  0.5435
  272TMC3    C7 4118   4.052   2.412  14.746 -0.0671 -0.1389  0.3559
  272TMC3    C8 4119   4.314   2.066  14.547  0.1056  0.4687 -0.5424
  272TMC3    O1 4120   3.931   2.442  14.732 -0.6336 -0.1706  0.3770
  272TMC3    O2 4121   4.355   2.052  14.433  0.2656  0.0383 -0.2732
  273MPD2     C 4122   0.121   0.492  11.795 -0.2798  0.0849  1.0852
  273MPD2    C1 4123   0.187   0.607  11.772  0.1790 -0.0439 -0.1835
  273MPD2    C2 4124   0.185   0.658  11.644 -0.1678  0.2769 -0.6287
  273MPD2    C3 4125   0.107   0.605  11.542 -1.1842 -0.3975 -0.9805
  273MPD2    C4 4126   0.046   0.481  11.563  0.2746  0.0726  0.6952
  273MPD2    C5 4127   0.061   0.426  11.693  0.8510  0.6166  1.4074
  273MPD2     H 4128   0.241   0.749  11.626 -0.1831  0.6974  1.4354
  273MPD2    H1 4129   4.713   0.429  11.489  1.6802 -2.1280  1.0953
  273MPD2    H2 4130   0.122   0.439  11.889 -1.0500  1.3533  1.8078
  273MPD2    H3 4131   0.016   0.331  11.718  0.1839 -0.0779 -2.4748
  273MPD2     N 4132   0.103   0.679  11.422  0.3328  0.0956 -0.6425
  273MPD2    H5 4133   0.149   0.769  11.427  0.4622 -0.0143  0.1673
  273MPD2    N1 4134   0.272   0.654  11.867  0.9196 -0.1334 -0.1876
  273MPD2    H7 4135   0.261   0.625  11.964 -0.9512  1.2702  0.0150
  274TMC3    C1 4136   0.080   0.718  11.198 -0.1917  0.1619 -0.4005
  274TMC3    C2 4137   4.685   0.745  11.133  0.2979  0.1969 -0.5766
  274TMC3    C3 4138   4.686   0.854  11.047 -0.0671 -0.2668  0.6073
  274TMC3    C4 4139   0.191   0.799  11.184  0.2159 -0.1698 -0.4884
  274TMC3    C5 4140   0.191   0.902  11.092  0.2014  0.0777 -0.3095
  274TMC3    C6 4141   0.074   0.932  11.024 -0.1614  0.1058  0.0829
  274TMC3     C 4142   0.059   0.625  11.303  0.2285 -0.6413  0.0985
  274TMC3     O 4143   0.002   0.518  11.276  0.2507 -0.4307 -0.3519
  274TMC3     H 4144   4.591   0.704  11.168  0.4627 -0.9107 -1.4384
  274TMC3    H1 4145   0.284   0.770  11.231 -0.6232  0.0700  1.3429
  274TMC3    H2 4146   0.085   1.008  10.948  1.0735 -0.0728  0.0807
  274TMC3    C7 4147   0.259   1.026  11.140  0.3726  0.6619  0.0393
  274TMC3    C8 4148   4.577   0.874  10.959  0.0990 -0.0922 -0.1078
  274TMC3    O1 4149   0.191   1.124  11.146  0.3325 -0.2974  0.5488
  274TMC3    O2 4150   4.573   0.986  10.911  0.4325  0.2113  0.3133
  275MPD2     C 4151   0.365   3.653  14.523 -0.6226  0.1473  0.6065
  275MPD2    C1 4152   0.452   3.557  14.475 -0.1170 -0.2032  0.6972
  275MPD2    C2 4153   0.432   3.421  14.510 -0.2081  0.3413  0.0954
  275MPD2    C3 4154   0.334   3.381  14.603  0.4519 -0.5410  0.1773
  275MPD2    C4 4155   0.254   3.482  14.654  0.6633 -0.2441  0.0860
  275MPD2    C5 4156   0.271   3.614  14.612 -0.4386 -0.2142 -0.2720
  275MPD2     H 4157   0.498   3.351  14.460 -0.2451  0.6478 -0.3795
  275MPD2    H1 4158   0.178   3.462  14.728  0.9030  1.0258  0.6761
  275MPD2    H2 4159   0.371   3.759  14.501  0.7401 -0.0905 -0.1619
  275MPD2    H3 4160   0.209   3.691  14.656 -0.2020 -1.1477  1.7149
  275MPD2     N 4161   0.324   3.250  14.661  0.8571  0.2414  0.3593
  275MPD2    H5 4162   0.253   3.243  14.733  1.5771 -0.1541  1.0267
  275MPD2    N1 4163   0.562   3.578  14.391  0.0081 -0.3381 -0.1393
  275MPD2    H7 4164   0.630   3.506  14.374  1.1317  1.4911 -3.4737
  276TMC3    C1 4165   0.721   3.667  14.258 -0.3577  0.6588 -0.7828
  276TMC3    C2 4166   0.734   3.542  14.199 -0.3210  0.1897 -0.0686
  276TMC3    C3 4167   0.836   3.464  14.244 -0.0508  1.1862  0.4500
  276TMC3    C4 4168   0.821   3.730  14.332  0.4175 -0.1354  0.1311
  276TMC3    C5 4169   0.908   3.634  14.390 -0.4180  0.0851  0.0060
  276TMC3    C6 4170   0.916   3.507  14.343 -0.3383 -0.1038 -0.6049
  276TMC3     C 4171   0.599   3.691  14.333  0.2040  0.1199 -0.8914
  276TMC3     O 4172   0.570   3.808  14.358 -0.8778  0.1054 -0.0934
  276TMC3     H 4173   0.659   3.498  14.135  0.3757 -0.3530 -0.5070
  276TMC3    H1 4174   0.807   3.823  14.387 -2.7147  0.8389 -2.3136
  276TMC3    H2 4175   0.972   3.428  14.392  1.0865  0.7633 -0.8408
  276TMC3    C7 4176   1.017   3.682  14.472 -0.2971 -0.0049 -0.0984
  276TMC3    C8 4177   0.818   3.318  14.217 -0.4624  0.0882 -0.1204
  276TMC3    O1 4178   1.041   3.608  14.566 -0.5029 -0.1783 -0.0281
  276TMC3    O2 4179   0.764   3.283  14.112 -0.5472 -0.0778  0.2053
  277MPD2     C 4180   2.361   2.200  13.168 -0.7712  0.2179  0.0712
  277MPD2    C1 4181   2.270   2.272  13.234 -0.3075  0.2947 -0.3606
  277MPD2    C2 4182   2.231   2.218  13.359 -0.7161  0.2196  0.1396
  277MPD2    C3 4183   2.293   2.108  13.413 -0.2430 -0.4461  0.5739
  277MPD2    C4 4184   2.386   2.046  13.340  0.5352 -0.2075 -0.0565
  277MPD2    C5 4185   2.415   2.085  13.218  0.2471  0.2796 -0.1028
  277MPD2     H 4186   2.162   2.272  13.423 -2.1091  0.0140 -1.1981
  277MPD2    H1 4187   2.437   1.959  13.379  1.4167  1.2053  1.9114
  277MPD2    H2 4188   2.385   2.233  13.067 -0.0287 -1.9603 -0.4738
  277MPD2    H3 4189   2.490   2.025  13.168  0.4393 -0.0467  0.5771
  277MPD2     N 4190   2.257   2.064  13.546 -0.0623 -0.3549 -0.5555
  277MPD2    H5 4191   2.180   2.116  13.587  0.2310  1.0894 -1.8448
  277MPD2    N1 4192   2.228   2.397  13.181  0.2551  0.0517 -0.6561
  277MPD2    H7 4193   2.276   2.425  13.096  0.8390  0.6227 -0.1294
  278TMC3    C1 4194   2.268   1.943  13.743  0.0996  1.1537  0.2971
  278TMC3    C2 4195   2.275   1.815  13.788  0.5443  0.4021 -0.0680
  278TMC3    C3 4196   2.195   1.788  13.900 -0.1420 -0.3814 -0.8778
  278TMC3    C4 4197   2.195   2.049  13.807  0.0258  0.4895 -0.0561
  278TMC3    C5 4198   2.105   2.002  13.905  0.1039 -0.4109 -0.3462
  278TMC3    C6 4199   2.101   1.872  13.956  0.0994 -0.7297 -1.2962
  278TMC3     C 4200   2.329   1.974  13.615  0.2990 -0.1769 -0.2109
  278TMC3     O 4201   2.418   1.892  13.591  0.6370  0.6980 -0.6371
  278TMC3     H 4202   2.315   1.735  13.728  1.5214  2.1840 -1.7981
  278TMC3    H1 4203   2.202   2.151  13.772  0.3648  0.1493 -1.0040
  278TMC3    H2 4204   2.040   1.848  14.042 -0.1990  0.7163 -1.1015
  278TMC3    C7 4205   2.039   2.113  13.973  0.1487  0.3539  0.0210
  278TMC3    C8 4206   2.150   1.649  13.907 -0.1216  0.8878 -0.8642
  278TMC3    O1 4207   2.112   2.210  13.974 -0.6239  0.2297  0.1866
  278TMC3    O2 4208   2.247   1.575  13.899  0.3570 -0.1929  0.2621
  279MPD2     C 4209   1.547   2.383   0.351 -0.1945 -0.3006  0.1562
  279MPD2    C1 4210   1.437   2.349   0.281 -0.1795  0.0125  0.8454
  279MPD2    C2 4211   1.445   2.339   0.145  0.6192 -0.5421  0.9499
  279MPD2    C3 4212   1.562   2.376   0.076  0.1555 -0.4244 -0.2103
  279MPD2    C4 4213   1.669   2.423   0.150  0.0255 -0.2092 -0.6889
  279MPD2    C5 4214   1.663   2.421   0.287 -0.4120 -0.0429 -0.0198
  279MPD2     H 4215   1.363   2.302   0.086  0.1721  1.1957  0.4887
  279MPD2    H1 4216   1.760   2.454   0.099  1.2658  0.6793  2.0386
  279MPD2    H2 4217   1.540   2.396   0.459 -3.6055 -1.0317  0.0180
  279MPD2    H3 4218   1.752   2.443   0.345 -0.8518  2.6638 -0.3922
  279MPD2     N 4219   1.578   2.361  17.639 -0.1632  0.1671  0.7073
  279MPD2    H5 4220   1.652   2.411  17.591 -1.8069  1.3934 -0.5514
  279MPD2    N1 4221   1.330   2.309   0.364  0.8705  0.3328  0.3950
  279MPD2    H7 4222   1.326   2.340   0.461 -0.1798 -0.3226  0.5635
  280TMC3    C1 4223   1.109   2.220   0.406  0.4316 -0.2619  0.2458
  280TMC3    C2 4224   1.018   2.136   0.354 -0.1683 -0.1776  0.2302
  280TMC3    C3 4225   0.880   2.150   0.388 -0.0106 -0.1799 -0.2723
  280TMC3    C4 4226   1.076   2.314   0.498 -0.2531 -0.0892 -0.0615
  280TMC3    C5 4227   0.944   2.329   0.531  0.6288 -0.0415 -0.5169
  280TMC3    C6 4228   0.840   2.256   0.470  0.7544 -0.7589  0.0478
  280TMC3     C 4229   1.217   2.246   0.315  0.3126  0.3500 -0.0762
  280TMC3     O 4230   1.211   2.206   0.202 -0.4719  0.1048  0.0408
  280TMC3     H 4231   1.050   2.060   0.283 -0.8642  1.2156 -1.5722
  280TMC3    H1 4232   1.148   2.390   0.527 -0.1412  0.4809 -1.7868
  280TMC3    H2 4233   0.737   2.254   0.505 -0.3435 -2.0828 -3.3490
  280TMC3    C7 4234   0.914   2.453   0.598  0.5526  0.3006 -0.4144
  280TMC3    C8 4235   0.788   2.042   0.352 -0.2696  0.3117  0.2685
  280TMC3    O1 4236   1.007   2.490   0.669  0.1765  0.3293 -0.0958
  280TMC3    O2 4237   0.673   2.084   0.344 -0.4296  0.1028 -0.2324
  281TMC3    C1 4238   4.655   2.434  13.138 -0.2803  1.1953  0.1162
  281TMC3    C2 4239   4.605   2.430  13.012 -0.6722  0.3284  1.4662
  281TMC3    C3 4240   4.572   2.313  12.953 -0.4363 -0.3192 -1.0762
  281TMC3    C4 4241   4.662   2.318  13.216  0.0249 -0.0749  1.1983
  281TMC3    C5 4242   4.608   2.199  13.160  1.2236  0.6673  1.1486
  281TMC3    C6 4243   4.574   2.196  13.026  1.0712  0.5491  0.6611
  281TMC3     C 4244   4.647   2.559  13.217  0.0476 -0.0654  0.5237
  281TMC3     O 4245   4.717   2.569  13.317 -0.1806 -0.3152  0.4197
  281TMC3     H 4246   4.597   2.522  12.955 -1.8029 -0.1821  0.7988
  281TMC3    H1 4247   4.686   2.332  13.321  1.6085  0.5641  0.7413
  281TMC3    H2 4248   4.550   2.103  12.976  1.0687  1.0360 -0.2296
  281TMC3    C7 4249   4.501   2.134  13.240  0.0314 -0.0258 -0.4303
  281TMC3    C8 4250   4.578   2.294  12.814  0.9985  0.0711  0.5715
  281TMC3    O1 4251   4.410   2.086  13.175 -0.5257 -0.4813  0.4116
  281TMC3    O2 4252   4.626   2.186  12.781  0.3150  0.0648  0.8629
  282MPD2     C 4253   2.055   3.851  14.747  0.6519  0.7111 -0.2870
  282MPD2    C1 4254   1.987   3.963  14.785 -0.2161  0.1557 -0.3183
  282MPD2    C2 4255   1.908   4.029  14.694 -0.3989  0.1684  0.2630
  282MPD2    C3 4256   1.886   3.987  14.569  0.6622 -0.4021 -0.7944
  282MPD2    C4 4257   1.958   3.873  14.536  0.3324 -0.3186  0.2803
  282MPD2    C5 4258   2.043   3.813  14.622 -0.9188  0.0299 -0.3694
  282MPD2     H 4259   1.836   4.102  14.728  1.3584  0.9026  2.4231
  282MPD2    H1 4260   1.937   3.825  14.442  0.2851 -0.5911  0.4308
  282MPD2    H2 4261   2.125   3.795  14.809  0.9814  0.6058 -0.7511
  282MPD2    H3 4262   2.091   3.722  14.587  1.1861  0.7881  0.5639
  282MPD2     N 4263   1.788   4.050  14.488  0.3728 -0.0402  0.1211
  282MPD2    H5 4264   1.746   4.135  14.526  2.3208  1.2155 -0.5645
  282MPD2    N1 4265   1.988   4.015  14.921 -0.1560  0.0213 -0.1043
  282MPD2    H7 4266   1.933   4.099  14.937  0.1443  0.0154  0.9496
  283TMC3    C1 4267   2.027   4.008  15.151 -0.1769 -0.5193  0.5850
  283TMC3    C2 4268   2.009   4.142  15.162  0.2468 -0.2041  0.9378
  283TMC3    C3 4269   1.978   4.191  15.283 -0.1236 -0.3201 -0.8466
  283TMC3    C4 4270   2.007   3.919  15.251 -0.5968  0.2852  0.5870
  283TMC3    C5 4271   1.958   3.973  15.364  0.6915  0.2452  0.0755
  283TMC3    C6 4272   1.947   4.108  15.388 -0.5924  0.5403  0.4609
  283TMC3     C 4273   2.053   3.953  15.024  0.6209  0.3592 -0.5926
  283TMC3     O 4274   2.135   3.859  15.028 -0.5376 -0.3155 -0.3475
  283TMC3     H 4275   2.064   4.208  15.095  0.6320 -2.8387 -1.3733
  283TMC3    H1 4276   2.021   3.814  15.227  1.6045  0.7371 -0.1183
  283TMC3    H2 4277   1.900   4.148  15.477 -2.3748  0.4625 -0.4393
  283TMC3    C7 4278   1.859   3.901  15.438  0.3020  0.0778 -0.1053
  283TMC3    C8 4279   1.964   4.340  15.284  0.3119 -1.0250  0.4189
  283TMC3    O1 4280   1.804   3.962  15.528 -0.2174 -0.3601  0.3913
  283TMC3    O2 4281   1.945   4.404  15.180 -0.0673  0.5461  0.0910
  284MPD2     C 4282   4.694   3.484  11.865  0.3507 -0.1792 -0.2755
  284MPD2    C1 4283   0.075   3.511  11.953 -0.0623 -0.3808 -0.5648
  284MPD2    C2 4284   0.097   3.433  12.060 -0.3838  0.2199  0.5541
  284MPD2    C3 4285   0.016   3.324  12.083  0.1328  0.4467 -0.2152
  284MPD2    C4 4286   4.635   3.302  11.998 -0.9394  0.6465  0.3016
  284MPD2    C5 4287   4.610   3.380  11.887  0.6485 -0.6327 -0.6555
  284MPD2     H 4288   0.188   3.439  12.119  0.5146  0.5651 -0.8741
  284MPD2    H1 4289   4.563   3.227  12.029  0.2395 -0.4688  0.2981
  284MPD2    H2 4290   4.673   3.549  11.781  0.5180  1.6148  1.0727
  284MPD2    H3 4291   4.529   3.363  11.818  0.8056  1.2892 -1.2883
  284MPD2     N 4292   0.062   3.237  12.186 -0.1077 -0.4947  0.8086
  284MPD2    H5 4293   0.124   3.278  12.255 -1.7651  0.2927  1.8375
  284MPD2    N1 4294   0.181   3.605  11.927  0.3878  0.2000  0.3969
  284MPD2    H7 4295   0.262   3.607  11.988  0.0623  0.4697  0.8217
  285TMC3    C1 4296   0.320   3.747  11.800 -0.3080  0.5540 -0.0747
  285TMC3    C2 4297   0.420   3.649  11.789 -0.4888  0.3597 -0.5979
  285TMC3    C3 4298   0.544   3.684  11.738 -0.1471  0.2246  0.5983
  285TMC3    C4 4299   0.330   3.865  11.732 -0.0114 -0.3291  0.3057
  285TMC3    C5 4300   0.457   3.896  11.685  0.7403 -0.2604 -0.3545
  285TMC3    C6 4301   0.568   3.813  11.693  0.2024 -0.3123 -0.8297
  285TMC3     C 4302   0.193   3.688  11.814  0.1729 -0.4561  0.1954
  285TMC3     O 4303   0.109   3.724  11.733 -0.0791  0.1861 -0.7186
  285TMC3     H 4304   0.411   3.555  11.843 -2.3416  0.8330 -0.1003
  285TMC3    H1 4305   0.248   3.933  11.714 -0.4562 -0.7438  0.7443
  285TMC3    H2 4306   0.663   3.844  11.651  1.0653  1.0367  2.1585
  285TMC3    C7 4307   0.477   4.030  11.636  0.3601 -0.6674 -0.5555
  285TMC3    C8 4308   0.610   3.575  11.679 -0.5097 -0.6173  0.3336
  285TMC3    O1 4309   0.592   4.068  11.652 -0.5226 -0.3682 -0.6492
  285TMC3    O2 4310   0.544   3.469  11.662 -0.1324 -0.1127  0.5026
  286MPD2     C 4311   0.837   1.746   2.131 -0.1108  0.0353 -0.7935
  286MPD2    C1 4312   0.755   1.728   2.024 -0.1652  0.4492 -0.1181
  286MPD2    C2 4313   0.758   1.609   1.947 -0.8317  0.0148 -0.0060
  286MPD2    C3 4314   0.866   1.518   1.966 -0.3558 -0.3588  0.9249
  286MPD2    C4 4315   0.956   1.544   2.068  0.2291 -0.1164  0.4158
  286MPD2    C5 4316   0.938   1.654   2.148 -0.1769 -0.4642 -0.0439
  286MPD2     H 4317   0.698   1.613   1.857  1.8263  1.1129 -1.7437
  286MPD2    H1 4318   1.045   1.485   2.085 -1.0761 -2.0124  0.7158
  286MPD2    H2 4319   0.841   1.836   2.192  2.3239  0.7230 -1.9596
  286MPD2    H3 4320   1.014   1.676   2.222 -2.7560  0.2066  2.3956
  286MPD2     N 4321   0.889   1.407   1.884 -0.1281  0.2248 -0.0829
  286MPD2    H5 4322   0.977   1.357   1.896 -0.0122  0.3155 -0.5471
  286MPD2    N1 4323   0.650   1.812   1.988 -0.2297 -0.0592  0.5850
  286MPD2    H7 4324   0.582   1.776   1.922  0.5698 -0.5552  0.0193
  287TMC3    C1 4325   0.889   1.284   1.669  0.1169  0.7857  0.2992
  287TMC3    C2 4326   0.818   1.254   1.559 -0.7022 -0.2350  0.6686
  287TMC3    C3 4327   0.878   1.171   1.467 -0.0037 -0.7597  0.4131
  287TMC3    C4 4328   1.019   1.264   1.682 -0.1338  0.4210 -0.0588
  287TMC3    C5 4329   1.083   1.183   1.593 -0.9320 -0.5035 -0.6450
  287TMC3    C6 4330   1.012   1.125   1.485  0.1900  0.6478 -0.4684
  287TMC3     C 4331   0.820   1.375   1.762  0.1828  0.3132 -0.4340
  287TMC3     O 4332   0.706   1.407   1.733  0.1845 -0.6063 -0.8066
  287TMC3     H 4333   0.710   1.267   1.553 -0.7057  0.5309  2.4370
  287TMC3    H1 4334   1.072   1.285   1.774 -0.1985 -1.3360  0.3821
  287TMC3    H2 4335   1.048   1.060   1.407 -1.3641  1.8652 -2.2167
  287TMC3    C7 4336   1.223   1.145   1.616 -0.0763  0.3269  0.4619
  287TMC3    C8 4337   0.812   1.163   1.333 -0.0142  0.2648  0.0709
  287TMC3    O1 4338   1.282   1.212   1.707  0.6360 -0.3513  0.0024
  287TMC3    O2 4339   0.845   1.073   1.257  0.4976 -0.4705  0.2606
  288TMC3    C1 4340   2.492   2.186  14.460 -0.1994  0.1439  0.0078
  288TMC3    C2 4341   2.425   2.158  14.585  0.0025 -0.3845  0.1275
  288TMC3    C3 4342   2.420   2.265  14.674 -0.0376 -0.0474  1.0193
  288TMC3    C4 4343   2.568   2.306  14.448  0.2312 -0.5110  0.1629
  288TMC3    C5 4344   2.570   2.402  14.549 -0.1081  1.1346 -0.5422
  288TMC3    C6 4345   2.493   2.384  14.667  0.2665  0.5254  0.4092
  288TMC3     C 4346   2.477   2.085  14.362  0.0012 -0.3784  0.3224
  288TMC3     O 4347   2.446   1.973  14.405 -0.2296  0.4410  0.3409
  288TMC3     H 4348   2.361   2.071  14.594 -0.1180 -0.2972  0.1269
  288TMC3    H1 4349   2.639   2.325  14.369  0.1357 -0.4782  0.0861
  288TMC3    H2 4350   2.478   2.471  14.730 -0.8632 -0.0468  0.9257
  288TMC3    C7 4351   2.660   2.515  14.537  0.2893 -0.0750  0.3803
  288TMC3    C8 4352   2.312   2.275  14.771  0.0656 -0.5801  0.6511
  288TMC3    O1 4353   2.702   2.535  14.421  0.0761 -0.2241  0.0385
  288TMC3    O2 4354   2.290   2.390  14.802  0.2774 -0.2649 -0.2234
  289MPD2     C 4355   2.662   1.006  14.468 -0.1182 -0.2991  0.1516
  289MPD2    C1 4356   2.650   1.123  14.388 -0.0190 -0.9280  0.0909
  289MPD2    C2 4357   2.529   1.153  14.334  0.3605 -0.2384  0.2586
  289MPD2    C3 4358   2.422   1.078  14.365 -0.3898 -0.2961 -0.2663
  289MPD2    C4 4359   2.437   0.964  14.443 -0.3523  1.1740 -0.0601
  289MPD2    C5 4360   2.557   0.927  14.491 -0.1287  0.5470  0.2782
  289MPD2     H 4361   2.505   1.247  14.284  2.2887  1.4884  2.5642
  289MPD2    H1 4362   2.357   0.894  14.461  0.6001 -0.5886 -2.5495
  289MPD2    H2 4363   2.759   0.977  14.508  0.7130  0.1421 -1.5529
  289MPD2    H3 4364   2.577   0.835  14.543  2.7197  2.1478  2.0355
  289MPD2     N 4365   2.296   1.098  14.299 -0.3988 -0.0268 -0.1780
  289MPD2    H5 4366   2.214   1.047  14.328  0.4214  0.0495  2.3088
  289MPD2    N1 4367   2.763   1.210  14.380  0.0503  0.2276 -0.0676
  289MPD2    H7 4368   2.837   1.197  14.447 -1.3027 -0.7777  1.2303
  290TMC3    C1 4369   2.125   1.195  14.168 -0.2943 -0.0833 -0.1060
  290TMC3    C2 4370   2.064   1.316  14.159  0.1176  0.0805  0.4084
  290TMC3    C3 4371   1.935   1.321  14.107 -0.2027 -0.2717 -0.8491
  290TMC3    C4 4372   2.076   1.081  14.121 -0.2628  0.1333  0.1078
  290TMC3    C5 4373   1.947   1.087  14.081 -0.5356 -0.7740 -1.0386
  290TMC3    C6 4374   1.880   1.204  14.058 -0.3661  0.1711 -0.4040
  290TMC3     C 4375   2.266   1.195  14.200  0.8749 -0.3384 -0.2585
  290TMC3     O 4376   2.331   1.288  14.150 -0.2346 -0.0031 -0.7050
  290TMC3     H 4377   2.119   1.405  14.190 -0.1122  0.6939 -0.9386
  290TMC3    H1 4378   2.139   0.993  14.121 -0.5106 -0.0390 -0.0766
  290TMC3    H2 4379   1.773   1.194  14.040 -0.6586 -0.3240  1.6804
  290TMC3    C7 4380   1.900   0.978  13.992  0.1317  0.3765 -0.4827
  290TMC3    C8 4381   1.854   1.437  14.113  0.3809 -0.0723  1.0052
  290TMC3    O1 4382   1.821   1.004  13.902 -0.1882 -0.4201 -0.0297
  290TMC3    O2 4383   1.752   1.419  14.046  0.6750 -0.2963 -0.2665
  291MPD2     C 4384   1.106   0.904   0.595 -0.3955 -0.2315  0.1161
  291MPD2    C1 4385   1.199   0.808   0.624  0.4027 -0.5524  0.3691
  291MPD2    C2 4386   1.332   0.845   0.639  0.5589  0.0680  0.8295
  291MPD2    C3 4387   1.372   0.977   0.630 -0.1204 -0.1062 -0.1349
  291MPD2    C4 4388   1.276   1.066   0.596  0.8226 -0.1304  0.2466
  291MPD2    C5 4389   1.143   1.033   0.574  0.5760  0.6657  0.6283
  291MPD2     H 4390   1.397   0.760   0.654  1.2041  0.4135  0.0395
  291MPD2    H1 4391   1.299   1.171   0.585 -2.0634  0.6147  1.4181
  291MPD2    H2 4392   1.001   0.882   0.581 -0.2364 -0.0628 -1.2995
  291MPD2    H3 4393   1.066   1.101   0.542  0.2795  0.0083 -0.0452
  291MPD2     N 4394   1.503   1.019   0.650  0.2796  0.2661  0.3379
  291MPD2    H5 4395   1.522   1.116   0.628 -0.0208  0.3341  0.3784
  291MPD2    N1 4396   1.173   0.672   0.630 -0.1312 -0.4981  0.0411
  291MPD2    H7 4397   1.252   0.610   0.640  0.2817  0.0949  0.5018
  292TMC3    C1 4398   1.047   0.471   0.612 -0.2853 -0.3076  0.3720
  292TMC3    C2 4399   1.122   0.424   0.718  0.1711 -0.4333 -0.0122
  292TMC3    C3 4400   1.085   0.291   0.751 -0.6771  0.5540  0.1493
  292TMC3    C4 4401   0.940   0.407   0.551  0.5417 -0.6075  0.3575
  292TMC3    C5 4402   0.913   0.283   0.592  0.6926 -0.0270 -0.2177
  292TMC3    C6 4403   0.982   0.223   0.691 -0.3753  0.0769  0.3911
  292TMC3     C 4404   1.062   0.612   0.578  0.0685  0.4396 -0.8541
  292TMC3     O 4405   1.005   0.655   0.480 -0.2362  0.6966  0.7092
  292TMC3     H 4406   1.214   0.466   0.758  0.3998 -1.3866  0.4725
  292TMC3    H1 4407   0.878   0.457   0.477  1.3492 -0.8389 -0.4839
  292TMC3    H2 4408   0.954   0.120   0.707 -0.3640  0.0414  0.1844
  292TMC3    C7 4409   0.803   0.212   0.528 -0.2220  0.0315 -0.3433
  292TMC3    C8 4410   1.140   0.232   0.874 -1.3685  0.0701  0.0728
  292TMC3    O1 4411   0.694   0.265   0.513  0.0307  0.1534 -1.1616
  292TMC3    O2 4412   1.257   0.258   0.910 -0.0899 -0.4915  0.0530
  293MPD2     C 4413   3.570   1.919  12.925  0.2753 -0.4472 -0.3245
  293MPD2    C1 4414   3.437   1.913  12.960  0.0911 -0.7442 -0.4517
  293MPD2    C2 4415   3.395   1.989  13.072 -0.1484  0.8334 -0.2031
  293MPD2    C3 4416   3.487   2.069  13.145  0.1614 -0.6709 -0.2121
  293MPD2    C4 4417   3.622   2.062  13.112 -0.1229 -0.2215  0.1206
  293MPD2    C5 4418   3.657   1.994  13.002  1.2830  0.1182  0.4932
  293MPD2     H 4419   3.290   2.009  13.088 -0.2312  0.1922  0.0440
  293MPD2    H1 4420   3.701   2.111  13.167 -1.0870  2.4133 -0.7997
  293MPD2    H2 4421   3.610   1.867  12.839  0.8096  1.0194 -0.9646
  293MPD2    H3 4422   3.764   1.994  12.981  1.1133 -0.1627 -0.3901
  293MPD2     N 4423   3.435   2.157  13.244  0.1396 -0.5593  0.1058
  293MPD2    H5 4424   3.337   2.155  13.267  0.3288  1.1158  1.0284
  293MPD2    N1 4425   3.348   1.832  12.890 -0.5103 -0.0851  0.3396
  293MPD2    H7 4426   3.388   1.766  12.824 -0.9966 -0.0249 -0.0241
  294TMC3    C1 4427   3.150   1.787  12.787  0.4663 -0.1840 -0.5428
  294TMC3    C2 4428   3.011   1.793  12.791  0.1011 -0.6294  0.2101
  294TMC3    C3 4429   2.954   1.812  12.671 -0.0642  0.2046  0.0738
  294TMC3    C4 4430   3.223   1.812  12.669 -0.7310  0.2116 -0.4372
  294TMC3    C5 4431   3.158   1.832  12.552  0.3984  0.3017 -0.4001
  294TMC3    C6 4432   3.019   1.824  12.551 -0.2818 -0.8430  0.1226
  294TMC3     C 4433   3.215   1.824  12.909 -0.5726  0.5131  1.1174
  294TMC3     O 4434   3.145   1.869  12.997 -0.3100  0.0359 -0.2701
  294TMC3     H 4435   2.961   1.824  12.882  0.3062  0.8828 -0.1776
  294TMC3    H1 4436   3.331   1.803  12.674 -0.6213  0.5122 -2.0864
  294TMC3    H2 4437   2.966   1.869  12.467 -0.9467 -3.2262 -0.7187
  294TMC3    C7 4438   3.234   1.929  12.476  0.5017 -0.0393 -0.4450
  294TMC3    C8 4439   2.805   1.800  12.675  0.3751 -0.1804  0.0169
  294TMC3    O1 4440   3.293   2.015  12.541  0.0995  0.5314  0.1066
  294TMC3    O2 4441   2.758   1.817  12.785  0.3521  0.0976 -0.1598
  295MPD2     C 4442   4.268   0.844   1.139  0.8218 -0.1969 -0.4263
  295MPD2    C1 4443   4.258   0.770   1.029 -0.3231 -0.4915  0.9167
  295MPD2    C2 4444   4.212   0.639   1.035 -0.7864 -0.7624 -0.8176
  295MPD2    C3 4445   4.175   0.587   1.155 -0.5410 -0.4062 -0.6075
  295MPD2    C4 4446   4.188   0.661   1.268  0.2574  0.2845  0.3340
  295MPD2    C5 4447   4.224   0.792   1.258  0.4255  0.0844 -0.2087
  295MPD2     H 4448   4.198   0.589   0.939 -0.4692 -0.1857 -1.1650
  295MPD2    H1 4449   4.151   0.622   1.362  2.3789 -1.4766  0.4369
  295MPD2    H2 4450   4.305   0.946   1.143 -1.2815  0.5900 -0.9478
  295MPD2    H3 4451   4.232   0.849   1.350  1.0326 -1.0644  0.4410
  295MPD2     N 4452   4.122   0.458   1.169 -0.0313  0.1223 -0.2656
  295MPD2    H5 4453   4.097   0.424   1.262 -0.1767  2.3019  0.4982
  295MPD2    N1 4454   4.278   0.823   0.893 -0.3723  0.9813 -0.5153
  295MPD2    H7 4455   4.270   0.750   0.823  0.6840 -0.9386  1.3672
  296TMC3    C1 4456   4.035   0.248   1.124 -0.6658 -0.6820 -0.2624
  296TMC3    C2 4457   4.085   0.210   1.246 -0.2992 -0.1457 -0.4455
  296TMC3    C3 4458   4.041   0.083   1.281 -1.0553  0.3165  0.2687
  296TMC3    C4 4459   3.947   0.176   1.053 -0.0488  0.3009 -0.3161
  296TMC3    C5 4460   3.893   0.068   1.106  0.1872  0.0568  0.0564
  296TMC3    C6 4461   3.936   0.015   1.228 -0.1872 -0.7735 -0.1418
  296TMC3     C 4462   4.080   0.377   1.068 -0.4699 -0.3154 -0.2194
  296TMC3     O 4463   4.056   0.398   0.947 -0.8532  0.5635 -0.2893
  296TMC3     H 4464   4.166   0.252   1.305  0.5090  0.3445 -1.8910
  296TMC3    H1 4465   3.922   0.221   0.957 -2.1538  0.9352  0.5373
  296TMC3    H2 4466   3.913   4.638   1.253 -1.2882 -0.0182  1.9556
  296TMC3    C7 4467   3.767   0.013   1.051 -0.1085 -0.5078  0.0206
  296TMC3    C8 4468   4.096   0.018   1.395  0.2901  0.4542 -0.3117
  296TMC3    O1 4469   3.723   0.029   0.939 -0.6617  0.1334  0.5194
  296TMC3    O2 4470   4.095   4.619   1.399  0.0140  0.1495  0.2907
  297MPD2     C 4471   1.396   3.274  16.804  0.3907 -0.3156  0.7094
  297MPD2    C1 4472   1.296   3.209  16.727  0.0084 -0.1757  0.3227
  297MPD2    C2 4473   1.292   3.223  16.587 -0.4120  0.1433 -0.3048
  297MPD2    C3 4474   1.373   3.317  16.528  0.1259  0.1428 -0.7347
  297MPD2    C4 4475   1.459   3.391  16.607 -0.5877  0.1788  0.4652
  297MPD2    C5 4476   1.470   3.366  16.741  0.3303 -0.4918  0.2428
  297MPD2     H 4477   1.222   3.170  16.523 -1.9957  2.2667 -0.3164
  297MPD2    H1 4478   1.532   3.460  16.565 -0.3554  1.5088  3.0331
  297MPD2    H2 4479   1.413   3.255  16.910  0.7186 -1.0770  0.5139
  297MPD2    H3 4480   1.548   3.416  16.797  0.7745  0.1701 -0.9516
  297MPD2     N 4481   1.373   3.335  16.392 -0.0444  0.0500 -0.5987
  297MPD2    H5 4482   1.328   3.269  16.330  0.3647  1.1191 -2.0091
  297MPD2    N1 4483   1.199   3.122  16.782 -0.3188 -0.1494 -0.6615
  297MPD2    H7 4484   1.144   3.073  16.712 -1.3102 -1.8076  1.2744
  298TMC3    C1 4485   1.057   3.040  16.941  0.1194  0.3424 -0.1606
  298TMC3    C2 4486   1.028   2.932  16.871 -0.4139 -0.3116 -0.0013
  298TMC3    C3 4487   0.896   2.890  16.881  0.0424 -0.3549 -0.3667
  298TMC3    C4 4488   0.969   3.105  17.025 -0.6847 -0.4415  0.3411
  298TMC3    C5 4489   0.833   3.069  17.002 -0.0269 -0.0525  0.4763
  298TMC3    C6 4490   0.795   2.969  16.924  0.5496 -0.0169 -0.0488
  298TMC3     C 4491   1.173   3.113  16.914 -0.7331  0.3290 -0.3172
  298TMC3     O 4492   1.219   3.186  16.998  0.1793  0.4257 -0.1290
  298TMC3     H 4493   1.106   2.884  16.812 -1.1960 -2.3405  0.5994
  298TMC3    H1 4494   0.999   3.196  17.076  0.4260  0.4719 -1.9246
  298TMC3    H2 4495   0.696   2.925  16.938  0.3799 -0.4313 -2.4985
  298TMC3    C7 4496   0.731   3.164  17.026  0.1348  0.0378  0.4532
  298TMC3    C8 4497   0.848   2.792  16.784  0.0302  1.5627  0.0468
  298TMC3    O1 4498   0.760   3.249  17.105 -0.5592 -0.5160 -0.1966
  298TMC3    O2 4499   0.730   2.806  16.750  0.2393  0.2569 -0.2039
  299MPD2     C 4500   1.542   2.502  10.960 -0.1730 -0.0909 -0.1587
  299MPD2    C1 4501   1.575   2.631  10.920  0.0184  0.3896  0.5022
  299MPD2    C2 4502   1.522   2.673  10.799  0.4238  0.0207 -0.2185
  299MPD2    C3 4503   1.442   2.588  10.725 -0.0782 -0.0904 -0.4442
  299MPD2    C4 4504   1.417   2.453  10.762  0.2477  0.2688 -0.1278
  299MPD2    C5 4505   1.466   2.416  10.888 -0.0159 -0.2503  0.3996
  299MPD2     H 4506   1.544   2.771  10.759 -2.3925  0.9657  0.5207
  299MPD2    H1 4507   1.367   2.383  10.696 -0.5386  0.1117  0.6380
  299MPD2    H2 4508   1.580   2.456  11.051  1.1159 -1.0733 -1.1917
  299MPD2    H3 4509   1.446   2.317  10.929  0.7233  0.1986  1.8432
  299MPD2     N 4510   1.381   2.620  10.600 -0.4885 -0.0343  0.2481
  299MPD2    H5 4511   1.304   2.562  10.568 -1.2982  1.0534  0.2448
  299MPD2    N1 4512   1.643   2.712  11.016 -0.8488  0.6181 -0.6360
  299MPD2    H7 4513   1.684   2.664  11.095  0.1317 -0.6849 -1.9455
  300TMC3    C1 4514   1.321   2.747  10.408 -0.2113  0.3379  0.1214
  300TMC3    C2 4515   1.353   2.834  10.299 -0.3235 -0.7091  0.2738
  300TMC3    C3 4516   1.265   2.861  10.195 -0.6096  0.0028  0.6441
  300TMC3    C4 4517   1.196   2.700  10.410 -0.4081  0.2268 -0.2336
  300TMC3    C5 4518   1.106   2.742  10.311 -0.0933  0.0998 -0.6811
  300TMC3    C6 4519   1.137   2.830  10.210 -0.4998  0.1081 -0.6570
  300TMC3     C 4520   1.408   2.732  10.526  0.5852  0.7049 -0.7242
  300TMC3     O 4521   1.506   2.806  10.528  0.1381  0.0632 -0.2719
  300TMC3     H 4522   1.455   2.869  10.295  0.0027 -1.7789 -0.6601
  300TMC3    H1 4523   1.156   2.637  10.489 -0.6801  0.6431 -0.0380
  300TMC3    H2 4524   1.050   2.875  10.164  0.1618 -1.0927 -3.0788
  300TMC3    C7 4525   0.971   2.745  10.357 -0.3363  0.5293 -0.2402
  300TMC3    C8 4526   1.284   2.990  10.140 -0.4201 -0.7056  0.3142
  300TMC3    O1 4527   0.890   2.717  10.267  0.0420  0.2207 -0.3101
  300TMC3    O2 4528   1.267   3.020  10.023 -0.2469  0.2095  0.1678
  301MPD2     C 4529   3.496   3.278   2.055 -0.2386  0.3820 -0.0269
  301MPD2    C1 4530   3.468   3.346   1.933  0.3474  0.1792 -1.1606
  301MPD2    C2 4531   3.519   3.291   1.814 -0.0260 -0.5202  0.3155
  301MPD2    C3 4532   3.587   3.171   1.815  0.2173  0.4034  0.3499
  301MPD2    C4 4533   3.620   3.119   1.934 -0.5177 -0.8714 -0.6477
  301MPD2    C5 4534   3.580   3.172   2.050  0.3775 -0.0597  0.1623
  301MPD2     H 4535   3.493   3.342   1.722 -0.9543 -0.2598  0.7260
  301MPD2    H1 4536   3.673   3.025   1.943  2.7940  0.9447 -0.9358
  301MPD2    H2 4537   3.451   3.301   2.151 -1.5840 -0.6473 -0.4032
  301MPD2    H3 4538   3.583   3.113   2.141  0.7296  2.1130  1.5594
  301MPD2     N 4539   3.626   3.104   1.692  0.7104 -0.1132 -0.3843
  301MPD2    H5 4540   3.672   3.014   1.699 -2.4112 -1.6956 -0.5827
  301MPD2    N1 4541   3.378   3.450   1.920 -0.5207 -0.2690 -0.5410
  301MPD2    H7 4542   3.374   3.494   1.829 -1.1070 -1.5105 -1.1189
  302TMC3    C1 4543   3.662   3.068   1.456  0.5417  0.1415  0.0540
  302TMC3    C2 4544   3.751   2.970   1.484  0.1538  0.2188 -0.0217
  302TMC3    C3 4545   3.810   2.910   1.372  0.1490  0.1466 -0.1711
  302TMC3    C4 4546   3.631   3.108   1.327 -0.1139  0.7194 -0.4293
  302TMC3    C5 4547   3.679   3.036   1.222  0.6678  0.4819 -0.0738
  302TMC3    C6 4548   3.778   2.943   1.242  0.3409  0.2264  0.1399
  302TMC3     C 4549   3.619   3.155   1.562  0.3382 -0.4235 -0.4368
  302TMC3     O 4550   3.564   3.256   1.523 -0.2193  0.1874  0.0331
  302TMC3     H 4551   3.768   2.940   1.586 -0.6348 -0.2611 -0.0311
  302TMC3    H1 4552   3.557   3.186   1.311 -0.8938  0.3800  1.5000
  302TMC3    H2 4553   3.840   2.904   1.162 -1.6811  0.4266 -1.5084
  302TMC3    C7 4554   3.607   3.035   1.096  0.2008 -0.1300  0.5412
  302TMC3    C8 4555   3.924   2.818   1.395 -0.5389  0.1132 -0.1467
  302TMC3    O1 4556   3.662   2.993   0.995  0.0433 -0.0023 -1.3510
  302TMC3    O2 4557   4.000   2.809   1.297 -0.0918 -0.4694  0.4027
  303MPD2     C 4558   3.470   2.029  11.067 -0.3758  0.0751 -0.3815
  303MPD2    C1 4559   3.370   1.970  10.996  0.2204  0.4115  0.4721
  303MPD2    C2 4560   3.378   1.941  10.857 -0.1143 -0.1707  0.2060
  303MPD2    C3 4561   3.493   1.972  10.791  0.2617  0.0674  0.0143
  303MPD2    C4 4562   3.592   2.024  10.868  0.2211 -0.3727 -0.6657
  303MPD2    C5 4563   3.586   2.053  10.999 -0.1042 -0.0975 -0.0573
  303MPD2     H 4564   3.283   1.910  10.815 -0.5310  0.5193  0.6544
  303MPD2    H1 4565   3.686   2.045  10.818 -0.0138 -3.3773 -2.3762
  303MPD2    H2 4566   3.477   2.043  11.174 -0.1265  0.9264 -0.5078
  303MPD2    H3 4567   3.674   2.094  11.047 -0.5442 -1.3273  1.7703
  303MPD2     N 4568   3.509   1.955  10.649 -0.4800  0.0887  0.5420
  303MPD2    H5 4569   3.581   2.012  10.604 -0.4553  0.7943  1.4844
  303MPD2    N1 4570   3.252   1.958  11.068 -0.4635 -0.0398  0.1903
  303MPD2    H7 4571   3.236   2.004  11.157  1.3417 -0.4561  0.7333
  304TMC3    C1 4572   3.033   1.879  11.113 -0.4754 -0.2377  0.6574
  304TMC3    C2 4573   2.983   2.006  11.121  0.0752 -0.4190  0.0680
  304TMC3    C3 4574   2.853   2.024  11.156 -0.1017 -0.3329 -0.2544
  304TMC3    C4 4575   2.946   1.769  11.127  0.3350  0.6351 -0.7137
  304TMC3    C5 4576   2.811   1.789  11.153  0.5461 -0.2828 -1.2989
  304TMC3    C6 4577   2.770   1.915  11.172 -0.6063 -0.4490 -0.7208
  304TMC3     C 4578   3.152   1.871  11.026 -0.1354 -0.2256  0.1899
  304TMC3     O 4579   3.147   1.777  10.948  0.1030  0.3025 -0.3190
  304TMC3     H 4580   3.043   2.095  11.105  0.5846 -0.7208  0.2990
  304TMC3    H1 4581   2.977   1.666  11.110 -1.2768 -0.0188  0.2670
  304TMC3    H2 4582   2.668   1.928  11.207  0.3369 -0.1863  1.9835
  304TMC3    C7 4583   2.715   1.708  11.086  0.0512  0.2384  0.0687
  304TMC3    C8 4584   2.797   2.132  11.077  0.1950 -0.3488  0.2075
  304TMC3    O1 4585   2.607   1.760  11.072  0.1558 -0.7765  0.7151
  304TMC3    O2 4586   2.861   2.234  11.066  0.5658 -0.1776 -0.1504
  305MPD2     C 4587   2.286   4.264  14.204  0.1044 -0.2279 -0.0075
  305MPD2    C1 4588   2.251   4.131  14.207  0.9819  0.0272  0.4860
  305MPD2    C2 4589   2.189   4.077  14.093 -0.1345 -0.3803  0.0745
  305MPD2    C3 4590   2.164   4.151  13.981  0.1137  0.8335 -0.1732
  305MPD2    C4 4591   2.209   4.283  13.982 -0.0862 -0.2142  0.2590
  305MPD2    C5 4592   2.267   4.336  14.093 -0.1768 -0.4420 -0.4653
  305MPD2     H 4593   2.144   3.979  14.101 -0.2105 -0.3263  0.2991
  305MPD2    H1 4594   2.187   4.348  13.898  1.7377 -1.0155 -0.8391
  305MPD2    H2 4595   2.335   4.311  14.289  0.8832 -0.0102 -0.5796
  305MPD2    H3 4596   2.285   4.443  14.106 -0.0774 -0.3463 -1.4070
  305MPD2     N 4597   2.083   4.116  13.867  0.0554  0.0562  0.0403
  305MPD2    H5 4598   2.101   4.184  13.794 -2.3349 -0.1776 -0.7451
  305MPD2    N1 4599   2.266   4.069  14.330  0.4653 -0.1665 -0.0741
  305MPD2    H7 4600   2.299   4.140  14.395  1.7105  1.6250 -2.6459
  306TMC3    C1 4601   2.293   3.912  14.501  0.3195  0.8108  0.8595
  306TMC3    C2 4602   2.362   3.791  14.526  0.2266 -0.5229 -0.0367
  306TMC3    C3 4603   2.422   3.777  14.649  0.0324  0.2428 -0.8908
  306TMC3    C4 4604   2.303   4.013  14.589 -0.7129 -0.3092  0.2316
  306TMC3    C5 4605   2.354   3.982  14.718 -0.4375  0.4119  0.3748
  306TMC3    C6 4606   2.423   3.870  14.748  0.7723  0.2534  0.1947
  306TMC3     C 4607   2.255   3.938  14.362  0.5003  0.5151 -0.1995
  306TMC3     O 4608   2.236   3.841  14.294  0.2794 -0.2628 -0.0274
  306TMC3     H 4609   2.367   3.712  14.452 -0.9289  0.3373 -1.0138
  306TMC3    H1 4610   2.253   4.108  14.571 -1.6721 -0.6367  1.1927
  306TMC3    H2 4611   2.482   3.852  14.837  0.1745 -0.0666  0.5314
  306TMC3    C7 4612   2.352   4.094  14.817  0.3242  0.3128 -0.0367
  306TMC3    C8 4613   2.499   3.651  14.660  0.1361  0.1582  0.0487
  306TMC3    O1 4614   2.338   4.206  14.771  0.2016  0.1048 -0.7812
  306TMC3    O2 4615   2.526   3.586  14.560 -0.7786  0.6258  0.4720
  307MPD2     C 4616   4.493   1.699   0.981  0.5909  0.1403 -0.1086
  307MPD2    C1 4617   4.453   1.797   0.892 -0.5058 -0.7223 -0.0664
  307MPD2    C2 4618   4.413   1.922   0.932  0.1975  0.4267  0.2316
  307MPD2    C3 4619   4.395   1.951   1.061 -0.3221  0.1540  0.8217
  307MPD2    C4 4620   4.425   1.846   1.151  0.0941  0.1411 -0.1704
  307MPD2    C5 4621   4.482   1.727   1.115  0.4448 -0.7142 -0.5494
  307MPD2     H 4622   4.374   2.001   0.870 -0.9725  0.4481  0.9957
  307MPD2    H1 4623   4.399   1.866   1.254  2.5055 -0.9282  0.6310
  307MPD2    H2 4624   4.530   1.603   0.948  0.0318 -0.4768  1.0877
  307MPD2    H3 4625   4.523   1.653   1.182  0.8522 -0.9327 -1.0399
  307MPD2     N 4626   4.336   2.075   1.095  0.1924  0.5174 -0.2354
  307MPD2    H5 4627   4.322   2.146   1.024  1.8686  0.7399 -0.3538
  307MPD2    N1 4628   4.452   1.773   0.755  0.2493 -0.0984  0.1974
  307MPD2    H7 4629   4.420   1.847   0.694 -2.6370  0.0762  1.9090
  308TMC3    C1 4630   4.039   2.378   1.267  0.0444  0.3798 -0.7887
  308TMC3    C2 4631   4.102   2.490   1.208 -0.0940 -0.2520  0.7842
  308TMC3    C3 4632   4.232   2.463   1.162  0.6720 -0.4329  0.4138
  308TMC3    C4 4633   4.092   2.251   1.271  0.3294 -0.3145  1.0573
  308TMC3    C5 4634   4.214   2.233   1.216 -0.3941 -0.2165 -0.6343
  308TMC3    C6 4635   4.291   2.338   1.165 -0.0299 -0.0960 -0.2723
  308TMC3     C 4636   3.901   2.393   1.311 -0.5216 -0.4691  0.1212
  308TMC3     O 4637   3.862   2.318   1.398 -0.2547  0.2614 -0.4202
  308TMC3     H 4638   4.065   2.591   1.214 -1.6095 -0.7089 -0.7229
  308TMC3    H1 4639   4.044   2.163   1.314  0.0353 -1.6902 -2.1218
  308TMC3    H2 4640   4.388   2.314   1.122 -0.4020 -0.7323 -0.7608
  308TMC3    C7 4641   4.259   2.094   1.206  0.8350 -0.0909  0.4895
  308TMC3    C8 4642   4.288   2.570   1.088  0.0297 -0.2954  0.4299
  308TMC3    O1 4643   4.219   2.013   1.287  0.8039 -0.6738  0.0113
  308TMC3    O2 4644   4.411   2.589   1.103 -0.1400  0.5145 -0.4645
  309MPD2     C 4645   4.079   2.505  17.075  0.5291  0.1998  0.8437
  309MPD2    C1 4646   3.955   2.529  17.023 -0.8486 -0.9020  0.4510
  309MPD2    C2 4647   3.860   2.584  17.111  0.3785 -0.6291 -0.3469
  309MPD2    C3 4648   3.891   2.605  17.246 -0.5335 -0.4192 -0.2241
  309MPD2    C4 4649   4.018   2.582  17.290 -0.6870  0.0073  0.0009
  309MPD2    C5 4650   4.117   2.532  17.205  0.0550  0.6694 -0.1250
  309MPD2     H 4651   3.768   2.612  17.061  0.6018  0.1691 -0.3187
  309MPD2    H1 4652   4.045   2.589  17.395 -1.3270  1.7282  0.0475
  309MPD2    H2 4653   4.158   2.452  17.022 -0.7808 -1.1987  0.2766
  309MPD2    H3 4654   4.214   2.493  17.235 -0.6223 -3.3382 -3.1706
  309MPD2     N 4655   3.796   2.655  17.337  0.2495  0.7404  0.4529
  309MPD2    H5 4656   3.830   2.691  17.426 -0.1792  1.4065  0.3496
  309MPD2    N1 4657   3.921   2.484  16.891 -0.0800  0.2146 -0.1649
  309MPD2    H7 4658   3.821   2.481  16.871 -0.1800  1.2145  0.1989
  310TMC3    C1 4659   3.973   2.345  16.700  0.2933  0.8332 -0.1322
  310TMC3    C2 4660   3.858   2.357  16.631 -0.0481  0.6537 -0.8297
  310TMC3    C3 4661   3.840   2.264  16.529  0.5738 -0.1566 -0.9975
  310TMC3    C4 4662   4.077   2.270  16.653 -0.7129 -0.5133  0.1133
  310TMC3    C5 4663   4.051   2.180  16.556  0.3890 -0.3784  1.0447
  310TMC3    C6 4664   3.927   2.160  16.500 -0.4152 -0.1292  0.6630
  310TMC3     C 4665   4.018   2.452  16.796  0.5034 -0.1902  0.5467
  310TMC3     O 4666   4.138   2.476  16.795 -0.0466 -0.3715  0.0822
  310TMC3     H 4667   3.797   2.444  16.654  1.8600  1.3799  1.4819
  310TMC3    H1 4668   4.169   2.269  16.711  0.4323 -2.2746 -1.7460
  310TMC3    H2 4669   3.919   2.086  16.422  0.9740  2.3019 -1.7844
  310TMC3    C7 4670   4.162   2.102  16.506  0.2281  0.1191  0.2821
  310TMC3    C8 4671   3.741   2.291  16.427 -0.2412  0.7072  0.8846
  310TMC3    O1 4672   4.146   1.985  16.473  0.2024  0.3198  0.4564
  310TMC3    O2 4673   3.759   2.236  16.318  0.0419  0.2737  0.3999
  311MPD2     C 4674   0.883   3.653  12.877  0.4506  0.0332 -0.6156
  311MPD2    C1 4675   0.878   3.784  12.910  0.0817  0.2283  0.2544
  311MPD2    C2 4676   0.754   3.850  12.900  0.2596  0.5814 -1.7044
  311MPD2    C3 4677   0.636   3.783  12.851 -1.0967 -0.1073 -0.2293
  311MPD2    C4 4678   0.652   3.652  12.816  0.0499 -0.5737  0.1551
  311MPD2    C5 4679   0.776   3.592  12.820 -0.6078  0.6777  0.2989
  311MPD2     H 4680   0.741   3.953  12.931 -1.6855  0.6694 -2.7992
  311MPD2    H1 4681   0.565   3.596  12.782 -0.1136 -0.5857  0.5881
  311MPD2    H2 4682   0.974   3.597  12.893  1.8938  2.0158 -1.8429
  311MPD2    H3 4683   0.784   3.485  12.806 -0.8983  0.5427  1.1316
  311MPD2     N 4684   0.511   3.846  12.849 -0.0699  0.1588 -0.3818
  311MPD2    H5 4685   0.512   3.941  12.885 -1.3951  0.5263 -1.3278
  311MPD2    N1 4686   0.995   3.854  12.951 -0.9761  0.4257  0.2622
  311MPD2    H7 4687   0.986   3.955  12.965 -1.6225  0.5816 -1.2997
  312TMC3    C1 4688   0.290   3.894  12.784  0.6983 -0.7246  0.1574
  312TMC3    C2 4689   0.177   3.865  12.722 -0.0375 -0.8278 -0.2633
  312TMC3    C3 4690   0.089   3.960  12.677  0.4113  0.7310  0.3173
  312TMC3    C4 4691   0.312   4.027  12.805 -0.1584  0.3916  0.3878
  312TMC3    C5 4692   0.225   4.127  12.768 -0.0699 -0.0705 -0.5642
  312TMC3    C6 4693   0.113   4.096  12.689  0.2597 -0.5727 -0.1406
  312TMC3     C 4694   0.404   3.803  12.779  0.1675  0.0187  0.2754
  312TMC3     O 4695   0.376   3.685  12.746 -0.7020  0.4726  0.2119
  312TMC3     H 4696   0.147   3.761  12.716  0.5200 -0.9816 -0.4173
  312TMC3    H1 4697   0.403   4.070  12.845  0.3944  0.1406 -0.5919
  312TMC3    H2 4698   0.035   4.167  12.665  2.1459  1.3837 -0.4219
  312TMC3    C7 4699   0.220   4.258  12.837 -0.7115  0.7824  0.0545
  312TMC3    C8 4700   4.686   3.922  12.628  0.2627 -0.3717  0.3461
  312TMC3    O1 4701   0.140   4.341  12.801 -0.5266 -0.9002 -0.1454
  312TMC3    O2 4702   4.638   3.823  12.681  0.3281  0.8557  0.1487
  313MPD2     C 4703   0.906   3.117  10.244  0.1304 -0.1506 -0.1627
  313MPD2    C1 4704   0.790   3.076  10.302  0.4442  0.5226 -0.3275
  313MPD2    C2 4705   0.703   2.999  10.234  0.9819  0.3220 -0.2587
  313MPD2    C3 4706   0.727   2.960  10.104  0.2723  0.3597  0.2222
  313MPD2    C4 4707   0.834   3.014  10.034  0.4781  0.3578  0.1961
  313MPD2    C5 4708   0.929   3.082  10.111  0.2790  0.2062 -0.2596
  313MPD2     H 4709   0.619   2.962  10.291  1.7871  0.1572  0.8131
  313MPD2    H1 4710   0.857   2.986   9.931  3.1063 -1.0840  1.1832
  313MPD2    H2 4711   0.985   3.172  10.294  1.2643 -2.7912  0.9667
  313MPD2    H3 4712   1.025   3.111  10.069  0.1440  2.8152  1.2321
  313MPD2     N 4713   0.626   2.878  10.041  0.2880  0.2046 -0.4412
  313MPD2    H5 4714   0.542   2.848  10.088 -0.0548  0.5186 -0.8560
  313MPD2    N1 4715   0.748   3.120  10.435  0.6513 -0.0507 -0.1958
  313MPD2    H7 4716   0.657   3.086  10.464  1.7938 -2.4904  0.5213
  314TMC3    C1 4717   0.730   3.265  10.612 -0.1604  0.7663 -0.5166
  314TMC3    C2 4718   0.770   3.276  10.741 -0.7824 -0.4451 -0.2739
  314TMC3    C3 4719   0.681   3.336  10.827  0.2534 -0.5459  0.5724
  314TMC3    C4 4720   0.606   3.296  10.569 -0.8655 -0.5218 -0.0790
  314TMC3    C5 4721   0.528   3.362  10.665 -0.0842 -0.0056 -0.6511
  314TMC3    C6 4722   0.559   3.386  10.793  0.3735 -0.1360  0.3557
  314TMC3     C 4723   0.817   3.194  10.520  0.0366  0.1572 -0.0305
  314TMC3     O 4724   0.936   3.204  10.524 -0.2599 -0.1897 -0.6432
  314TMC3     H 4725   0.864   3.229  10.769 -0.9276 -0.3407  0.3946
  314TMC3    H1 4726   0.569   3.276  10.469 -1.9750  0.6709  0.0833
  314TMC3    H2 4727   0.497   3.439  10.864  1.5790 -1.2689  2.2623
  314TMC3    C7 4728   0.417   3.436  10.615 -0.4861  0.6108  0.2308
  314TMC3    C8 4729   0.722   3.407  10.952 -0.3659 -0.1794 -0.1134
  314TMC3    O1 4730   0.306   3.430  10.665  0.3126  0.2860 -0.2373
  314TMC3    O2 4731   0.638   3.417  11.044  0.4398 -0.3149 -0.1715
  315MPD2     C 4732   4.601   2.560   0.095 -0.2778 -0.3381 -0.8058
  315MPD2    C1 4733   4.723   2.530   0.161 -0.3550 -0.1101 -0.3438
  315MPD2    C2 4734   0.068   2.631   0.226  0.1031  0.5675 -0.4915
  315MPD2    C3 4735   0.022   2.758   0.215 -0.7660 -0.2690 -0.1452
  315MPD2    C4 4736   4.619   2.784   0.151 -0.1794  0.5206  0.5297
  315MPD2    C5 4737   4.545   2.678   0.103  0.0835  0.4042  0.1153
  315MPD2     H 4738   0.158   2.611   0.282 -0.4180 -1.9990 -0.5872
  315MPD2    H1 4739   4.570   2.880   0.139 -2.6275 -1.2724 -3.5543
  315MPD2    H2 4740   4.551   2.481   0.041 -1.1342 -0.8293  0.7268
  315MPD2    H3 4741   4.443   2.685   0.068  0.7362 -0.0671 -1.8627
  315MPD2     N 4742   0.107   2.867   0.260  0.5336 -0.1918 -0.0642
  315MPD2    H5 4743   0.198   2.838   0.296  1.3555  2.2321 -0.1634
  315MPD2    N1 4744   0.049   2.399   0.174  0.2307 -0.3100 -0.1518
  315MPD2    H7 4745   0.137   2.391   0.225  1.1814 -1.3226 -1.9376
  316TMC3    C1 4746   0.185   3.075   0.328 -1.0278 -0.2145 -0.2857
  316TMC3    C2 4747   0.281   3.004   0.401  0.0898  0.0978  0.6932
  316TMC3    C3 4748   0.367   3.075   0.467  0.1265 -0.5716  0.4108
  316TMC3    C4 4749   0.195   3.204   0.308  0.5695 -0.9466 -0.4308
  316TMC3    C5 4750   0.300   3.272   0.369  0.2683  0.0784  0.7877
  316TMC3    C6 4751   0.382   3.213   0.457 -0.1823 -0.5848 -0.2840
  316TMC3     C 4752   0.076   2.995   0.267  0.0475  0.0622  0.0445
  316TMC3     O 4753   4.694   3.048   0.238  0.2235 -0.0730  0.6036
  316TMC3     H 4754   0.272   2.898   0.423  1.0184  0.3146  2.1508
  316TMC3    H1 4755   0.110   3.253   0.261  1.7259  1.1473 -0.3551
  316TMC3    H2 4756   0.459   3.272   0.504 -0.1474 -0.3279 -0.6674
  316TMC3    C7 4757   0.308   3.418   0.360 -0.0752  0.1396  0.2697
  316TMC3    C8 4758   0.460   3.017   0.562  0.2342  0.3270  0.3259
  316TMC3    O1 4759   0.371   3.479   0.443 -0.8768 -0.2325  0.1202
  316TMC3    O2 4760   0.514   3.099   0.636  0.5113  0.3984 -0.1076
  317MPD2     C 4761   1.936   1.131  12.633  0.2910  0.7641 -1.3090
  317MPD2    C1 4762   1.968   1.002  12.617  0.5735 -0.1996  0.4503
  317MPD2    C2 4763   2.028   0.929  12.724 -0.0174  0.1624 -0.2805
  317MPD2    C3 4764   2.059   1.000  12.840  0.0772  0.4874 -0.2824
  317MPD2    C4 4765   2.036   1.135  12.847  0.0978 -0.1205 -0.0737
  317MPD2    C5 4766   1.970   1.195  12.750  0.0961 -0.1514  0.4888
  317MPD2     H 4767   2.057   0.827  12.702  1.5536  0.9775 -2.0100
  317MPD2    H1 4768   2.052   1.191  12.938  0.8778 -2.5823  1.2838
  317MPD2    H2 4769   1.895   1.189  12.551 -0.9162  1.0778 -0.4881
  317MPD2    H3 4770   1.945   1.300  12.760 -1.2520 -0.5331  1.1531
  317MPD2     N 4771   2.119   0.917  12.940 -0.1536  0.3454  0.0726
  317MPD2    H5 4772   2.128   0.818  12.920  0.8046  0.2684  0.8828
  317MPD2    N1 4773   1.947   0.929  12.498  0.1464 -0.3561 -0.3129
  317MPD2    H7 4774   1.985   0.836  12.508 -0.9757 -0.9305 -1.4154
  318TMC3    C1 4775   2.234   0.857  13.130 -0.4996  0.3966 -0.3532
  318TMC3    C2 4776   2.179   0.738  13.144  0.4300 -0.0116 -0.4509
  318TMC3    C3 4777   2.239   0.652  13.228 -0.0190 -0.4918  0.1284
  318TMC3    C4 4778   2.352   0.891  13.195 -1.0361 -0.3438  0.3022
  318TMC3    C5 4779   2.423   0.797  13.265 -0.1070 -0.6721 -0.5952
  318TMC3    C6 4780   2.363   0.676  13.291 -0.3188 -0.3812 -0.1497
  318TMC3     C 4781   2.172   0.967  13.058 -0.7507  0.1396  0.5325
  318TMC3     O 4782   2.175   1.081  13.102  0.0553  0.7298 -0.4702
  318TMC3     H 4783   2.096   0.703  13.083 -0.5150 -1.1491  1.5137
  318TMC3    H1 4784   2.402   0.982  13.164 -0.8359 -0.7318 -0.5277
  318TMC3    H2 4785   2.405   0.599  13.354 -2.6819 -0.9233  0.7425
  318TMC3    C7 4786   2.553   0.835  13.315  0.2462  0.0632  0.5049
  318TMC3    C8 4787   2.163   0.545  13.286  0.0758  0.7614  0.2639
  318TMC3    O1 4788   2.571   0.956  13.307 -0.3343  0.3308  0.6717
  318TMC3    O2 4789   2.221   0.471  13.362  0.0161  0.6867 -0.0204
  319MPD2     C 4790   3.321   2.394  16.766 -0.5843  0.8176 -0.6190
  319MPD2    C1 4791   3.323   2.300  16.861 -0.1062 -0.6665  0.0010
  319MPD2    C2 4792   3.212   2.232  16.896  0.2830 -0.3310  0.2136
  319MPD2    C3 4793   3.096   2.259  16.822 -0.7933  0.8780  0.2952
  319MPD2    C4 4794   3.086   2.373  16.747  0.1709 -0.0628  0.1635
  319MPD2    C5 4795   3.202   2.436  16.719 -0.6783 -0.1730  0.3660
  319MPD2     H 4796   3.214   2.163  16.980 -1.8028  1.0454  1.3911
  319MPD2    H1 4797   2.992   2.413  16.711  0.2671  1.5261  1.6828
  319MPD2    H2 4798   3.401   2.465  16.748  0.6469 -0.4488 -0.1350
  319MPD2    H3 4799   3.176   2.525  16.663 -2.3209  0.0179  1.4129
  319MPD2     N 4800   2.976   2.185  16.847 -0.3911 -0.7181 -0.1337
  319MPD2    H5 4801   2.892   2.205  16.792  0.2985 -0.3705 -1.0576
  319MPD2    N1 4802   3.444   2.280  16.931  0.1878  0.4967  0.2490
  319MPD2    H7 4803   3.438   2.219  17.012  2.2062 -1.5143 -1.0987
  320TMC3    C1 4804   2.830   2.031  16.923  0.2714 -0.1691  0.7226
  320TMC3    C2 4805   2.748   2.065  16.826 -0.1579 -0.2255  0.2591
  320TMC3    C3 4806   2.622   2.026  16.849  0.5485  0.4049  0.5393
  320TMC3    C4 4807   2.790   1.968  17.038 -0.2985  0.8972 -0.2266
  320TMC3    C5 4808   2.667   1.914  17.047  0.0993 -0.2462  0.0495
  320TMC3    C6 4809   2.581   1.938  16.947 -0.1829  0.0019 -0.2358
  320TMC3     C 4810   2.971   2.063  16.912 -0.5704 -1.4402  0.0005
  320TMC3     O 4811   3.057   1.994  16.971 -0.1589  0.0950  0.4138
  320TMC3     H 4812   2.779   2.126  16.743  0.1731 -1.7655 -0.7597
  320TMC3    H1 4813   2.867   1.936  17.107  0.3106 -1.4981 -2.0328
  320TMC3    H2 4814   2.482   1.896  16.959  0.6285 -1.7193  0.5096
  320TMC3    C7 4815   2.672   1.776  17.069  0.3391 -0.6235  0.2704
  320TMC3    C8 4816   2.529   2.055  16.744  0.4942  0.6612  0.2319
  320TMC3    O1 4817   2.642   1.700  16.977 -0.1394  0.6960 -0.2813
  320TMC3    O2 4818   2.563   2.057  16.629  0.2631 -0.1581  0.5929
  321TMC3    C1 4819   3.665   2.283  17.002  0.2768 -0.3993 -0.1450
  321TMC3    C2 4820   3.771   2.202  16.971 -0.2893 -0.8663 -0.2855
  321TMC3    C3 4821   3.857   2.179  17.075  0.7337  0.3125 -0.2730
  321TMC3    C4 4822   3.625   2.321  17.127  0.7976  0.4892  0.5740
  321TMC3    C5 4823   3.712   2.291  17.223  0.2296  0.0344 -0.0202
  321TMC3    C6 4824   3.832   2.238  17.195 -0.3477 -0.4002 -0.2863
  321TMC3     C 4825   3.573   2.314  16.894  0.1963 -0.2732  0.2202
  321TMC3     O 4826   3.617   2.367  16.792  0.1757  0.1845 -0.1405
  321TMC3     H 4827   3.768   2.151  16.875  0.6922 -0.0625 -0.7411
  321TMC3    H1 4828   3.532   2.370  17.153  0.1112 -1.0670  1.0834
  321TMC3    H2 4829   3.905   2.219  17.272  0.4164  1.0931 -0.6536
  321TMC3    C7 4830   3.660   2.239  17.348 -0.5464  0.6775  0.1356
  321TMC3    C8 4831   3.904   2.040  17.080 -0.1874 -0.0230  1.0817
  321TMC3    O1 4832   3.720   2.149  17.394 -0.1047 -0.3632  0.9854
  321TMC3    O2 4833   3.941   1.978  16.977  0.3829 -0.1744  0.3372
  322MPD2     C 4834   2.322   3.166  13.462 -0.3629 -0.5427  0.5006
  322MPD2    C1 4835   2.243   3.107  13.569 -0.2895  0.6922 -0.1253
  322MPD2    C2 4836   2.225   2.972  13.576  0.1388  0.4898  0.1308
  322MPD2    C3 4837   2.299   2.896  13.487 -1.1443 -0.1702 -0.7905
  322MPD2    C4 4838   2.378   2.953  13.387  0.1068 -0.3274 -0.7465
  322MPD2    C5 4839   2.375   3.087  13.369 -0.0538 -0.4658 -0.6646
  322MPD2     H 4840   2.170   2.919  13.654 -1.5182  1.3097 -0.4784
  322MPD2    H1 4841   2.453   2.896  13.333  0.5755  0.1718 -0.6178
  322MPD2    H2 4842   2.323   3.274  13.458  1.4380 -0.6960 -2.9636
  322MPD2    H3 4843   2.438   3.136  13.296  0.8582  1.1897  1.2141
  322MPD2     N 4844   2.291   2.755  13.516 -0.2426  0.0552  0.5546
  322MPD2    H5 4845   2.243   2.731  13.602  1.0405  2.1079  1.8524
  322MPD2    N1 4846   2.197   3.199  13.666  0.5448  0.3080  0.1505
  322MPD2    H7 4847   2.218   3.297  13.653  0.2875  0.4732  0.9812
  323TMC3    C1 4848   2.094   3.288  13.851  0.8951 -0.6685  0.2621
  323TMC3    C2 4849   2.106   3.413  13.796  0.1926 -1.3425 -0.3273
  323TMC3    C3 4850   2.096   3.521  13.887 -0.5168  0.3306 -1.0445
  323TMC3    C4 4851   2.056   3.272  13.984 -0.5293  0.5588 -0.1084
  323TMC3    C5 4852   2.052   3.381  14.066 -0.1061 -0.0744  0.9657
  323TMC3    C6 4853   2.077   3.506  14.025  0.0272  0.6320  0.3193
  323TMC3     C 4854   2.114   3.172  13.770 -0.1328  0.3138 -0.3028
  323TMC3     O 4855   2.079   3.067  13.819  0.1139  0.8675 -0.3152
  323TMC3     H 4856   2.141   3.438  13.697  0.6523  0.3878  0.2676
  323TMC3    H1 4857   2.059   3.172  14.026 -0.4626 -0.1257 -1.7234
  323TMC3    H2 4858   2.086   3.586  14.097  0.2071  0.8198  0.0882
  323TMC3    C7 4859   2.066   3.343  14.206  0.9525 -0.0920 -0.3995
  323TMC3    C8 4860   2.174   3.628  13.843 -0.0456  0.0169  0.7410
  323TMC3    O1 4861   2.162   3.273  14.228 -0.0329  0.7924  0.6393
  323TMC3    O2 4862   2.261   3.676  13.917 -0.3586  0.1487  0.7418
  324MPD2     C 4863   3.973   4.674  14.013  0.6583 -0.2276 -0.7406
  324MPD2    C1 4864   4.058   4.614  14.109  1.0963  0.4024 -0.5616
  324MPD2    C2 4865   4.006   4.613  14.238  0.7928  0.1254  0.6355
  324MPD2    C3 4866   3.884   4.672  14.273  0.2230  0.0568  0.0820
  324MPD2    C4 4867   3.798   4.716  14.177  0.2629 -0.2977  0.4229
  324MPD2    C5 4868   3.845   4.707  14.050  0.0692  0.6178 -0.1648
  324MPD2     H 4869   4.068   4.575  14.318 -1.0467  1.5010  2.7207
  324MPD2    H1 4870   3.705   0.040  14.202  1.0561  0.8193  1.1510
  324MPD2    H2 4871   4.005   4.686  13.910  1.2119 -1.1144 -0.6803
  324MPD2    H3 4872   3.782   0.023  13.973  2.4560  0.7530 -2.0334
  324MPD2     N 4873   3.839   4.680  14.408 -0.2053 -0.1020 -0.0860
  324MPD2    H5 4874   3.752   0.001  14.431  0.1729  0.1642  0.8107
  324MPD2    N1 4875   4.190   4.580  14.101  0.4534  0.6578 -0.2194
  324MPD2    H7 4876   4.233   4.559  14.191 -0.1971 -0.4533 -0.1679
  325TMC3    C1 4877   3.824   4.657  14.633 -0.1968  0.5878 -0.8394
  325TMC3    C2 4878   3.735   4.570  14.695 -1.0409 -1.0215 -0.4702
  325TMC3    C3 4879   3.648   4.612  14.792 -0.5637  1.0564 -0.2571
  325TMC3    C4 4880   3.817   0.063  14.643 -0.0589 -0.1753  0.1252
  325TMC3    C5 4881   3.721   0.107  14.729  0.1160 -0.1365  0.0048
  325TMC3    C6 4882   3.645   0.022  14.810 -0.0206 -0.4616  0.1915
  325TMC3     C 4883   3.889   4.608  14.516 -0.0503 -0.0936 -0.3288
  325TMC3     O 4884   3.990   4.542  14.522  0.0779  0.6651  0.5937
  325TMC3     H 4885   3.761   4.466  14.683 -1.3562 -1.4672  2.7501
  325TMC3    H1 4886   3.876   0.133  14.584  1.8983 -2.0342 -0.1189
  325TMC3    H2 4887   3.586   0.064  14.891 -2.1703  0.1621 -1.6946
  325TMC3    C7 4888   3.665   0.234  14.697 -0.1139  0.2629 -0.6295
  325TMC3    C8 4889   3.522   4.564  14.800  0.1837 -0.4223  0.4792
  325TMC3    O1 4890   3.725   0.315  14.628  0.4968 -0.4217 -0.0658
  325TMC3    O2 4891   3.433   4.647  14.811 -0.7501  0.1473  0.1856
  326MPD2     C 4892   4.105   1.679  10.842  0.2506  0.7954 -0.1810
  326MPD2    C1 4893   4.168   1.650  10.722 -1.2307 -0.3160 -0.0350
  326MPD2    C2 4894   4.282   1.717  10.681 -0.0611 -0.4344  0.0113
  326MPD2    C3 4895   4.338   1.823  10.753  0.3711 -1.1521 -0.1482
  326MPD2    C4 4896   4.278   1.848  10.875 -0.5893 -0.6610  0.3275
  326MPD2    C5 4897   4.162   1.782  10.915 -0.4575  0.5589 -0.6735
  326MPD2     H 4898   4.335   1.677  10.595 -1.3679  0.9446 -1.4464
  326MPD2    H1 4899   4.315   1.930  10.936 -2.0325  0.8097 -0.7551
  326MPD2    H2 4900   4.012   1.642  10.883  0.6862 -2.4396 -2.1220
  326MPD2    H3 4901   4.108   1.819  11.001  0.6674 -0.9525  0.6845
  326MPD2     N 4902   4.459   1.881  10.711 -0.0878 -0.2067 -0.5379
  326MPD2    H5 4903   4.502   1.945  10.778  0.3029  0.7714 -1.7195
  326MPD2    N1 4904   4.120   1.558  10.630  0.6689  0.3791 -0.0957
  326MPD2    H7 4905   4.161   1.539  10.540 -0.9310  0.5929 -0.8746
  327TMC3    C1 4906   4.023   1.350  10.567  0.0055 -0.0617 -0.5136
  327TMC3    C2 4907   4.024   1.384  10.439  0.1112 -0.3830  0.4368
  327TMC3    C3 4908   4.018   1.283  10.346 -0.1835 -0.4422 -0.2311
  327TMC3    C4 4909   4.020   1.216  10.601  0.4572 -0.1856 -0.3399
  327TMC3    C5 4910   4.025   1.115  10.505  0.3467 -0.1939  0.9718
  327TMC3    C6 4911   4.018   1.150  10.374  0.8394  0.3099  0.3454
  327TMC3     C 4912   4.036   1.454  10.671  0.0057 -0.0535  0.5863
  327TMC3     O 4913   3.988   1.424  10.781  0.6930  0.0637 -0.3181
  327TMC3     H 4914   4.042   1.484  10.401 -1.6658 -0.2655 -0.1147
  327TMC3    H1 4915   4.002   1.191  10.705 -0.1039  0.1562 -0.3542
  327TMC3    H2 4916   4.027   1.075  10.296 -0.7791  0.4500  0.0418
  327TMC3    C7 4917   4.079   0.980  10.542 -0.0646  0.0063  0.5154
  327TMC3    C8 4918   4.010   1.338  10.210 -0.2101 -0.4467 -0.6838
  327TMC3    O1 4919   4.062   0.889  10.469  0.5936  0.7246  0.5042
  327TMC3    O2 4920   4.072   1.444  10.196  0.3720  0.6860 -0.5793
  328MPD2     C 4921   2.754   1.076  17.459 -0.8102 -0.4626 -0.0795
  328MPD2    C1 4922   2.684   0.985  17.533 -0.9837  0.1450  0.6420
  328MPD2    C2 4923   2.558   0.938  17.483  0.4841 -0.0810  0.2942
  328MPD2    C3 4924   2.493   1.002  17.374  0.2653  0.2735  0.0755
  328MPD2    C4 4925   2.576   1.084  17.302  0.2321  0.2455  0.0388
  328MPD2    C5 4926   2.701   1.119  17.343  0.5134 -0.6466  0.7154
  328MPD2     H 4927   2.494   0.870  17.538 -0.3826 -0.0095 -0.6336
  328MPD2    H1 4928   2.526   1.143  17.226 -1.8758 -0.2543  1.0566
  328MPD2    H2 4929   2.843   1.126  17.495 -1.3022 -0.6650  1.4248
  328MPD2    H3 4930   2.756   1.192  17.286  1.2526 -1.4527  0.3864
  328MPD2     N 4931   2.368   0.969  17.315 -0.0362  0.3326  0.2492
  328MPD2    H5 4932   2.351   1.032  17.237 -3.0184 -1.2267 -0.3935
  328MPD2    N1 4933   2.748   0.946  17.660 -0.6739 -0.4740  0.1551
  328MPD2    H7 4934   2.831   0.998  17.685 -0.5562  0.2558 -1.7757
  329TMC3    C1 4935   2.775   0.846   0.164  0.1906 -0.0888  0.2537
  329TMC3    C2 4936   2.711   0.798   0.273  0.1060 -0.3145  0.4120
  329TMC3    C3 4937   2.786   0.777   0.384  0.0577 -0.4551  0.6864
  329TMC3    C4 4938   2.907   0.857   0.157  0.1800 -0.1205 -0.7517
  329TMC3    C5 4939   2.987   0.840   0.270 -0.1280 -0.3245  0.0900
  329TMC3    C6 4940   2.921   0.792   0.386 -0.0778  0.1733  0.5373
  329TMC3     C 4941   2.700   0.859   0.046 -0.2915 -0.1770  0.1074
  329TMC3     O 4942   2.595   0.793   0.039 -0.5419  0.2240 -0.3312
  329TMC3     H 4943   2.603   0.790   0.266  0.3011 -0.7573 -2.1496
  329TMC3    H1 4944   2.951   0.867   0.058  1.1923  1.1293 -0.1798
  329TMC3    H2 4945   2.980   0.764   0.473 -0.6440  0.0542  0.8791
  329TMC3    C7 4946   3.125   0.807   0.237  0.3191  0.5470 -0.0699
  329TMC3    C8 4947   2.725   0.738   0.514 -0.6378 -0.5208 -0.1037
  329TMC3    O1 4948   3.165   0.697   0.265  0.8011  0.0981 -0.1657
  329TMC3    O2 4949   2.807   0.729   0.609  0.6126 -0.2680 -1.2957
  330TMC3    C1 4950   0.623   4.407  10.311 -0.0189 -0.1809 -0.3615
  330TMC3    C2 4951   0.641   4.354  10.189 -0.0824 -0.5786  0.6122
  330TMC3    C3 4952   0.735   4.255  10.177 -0.0482 -0.3673 -0.4860
  330TMC3    C4 4953   0.689   4.362  10.420  0.0770 -0.1699  0.1440
  330TMC3    C5 4954   0.770   4.254  10.409 -0.5306 -0.0564  0.5887
  330TMC3    C6 4955   0.800   4.203  10.290 -0.0339 -0.3899 -0.2520
  330TMC3     C 4956   0.513   4.502  10.342  0.9578  0.2875 -0.6941
  330TMC3     O 4957   0.500   4.554  10.455  0.1374 -0.2667 -0.0822
  330TMC3     H 4958   0.597   4.404  10.103  1.2427 -2.0882 -0.9224
  330TMC3    H1 4959   0.677   4.411  10.516 -2.0401 -1.3025  0.4489
  330TMC3    H2 4960   0.869   4.120  10.276  1.8149  0.7310  2.1214
  330TMC3    C7 4961   0.809   4.182  10.534  0.0893 -0.0962  0.0373
  330TMC3    C8 4962   0.758   4.205  10.052  0.3493  0.3515  0.8630
  330TMC3    O1 4963   0.749   4.230  10.631  0.2301  0.8238 -0.2902
  330TMC3    O2 4964   0.878   4.176  10.035  0.0097 -0.0383 -0.1802
  331MPD2     C 4965   2.598   3.808  12.752 -1.0009  0.9985 -0.6521
  331MPD2    C1 4966   2.697   3.849  12.665 -0.6003 -0.6064 -0.3613
  331MPD2    C2 4967   2.751   3.756  12.581  0.0456 -0.1101 -0.4664
  331MPD2    C3 4968   2.709   3.624  12.585  0.6232  0.0600  0.7728
  331MPD2    C4 4969   2.618   3.585  12.679 -0.0083  0.3733 -0.2458
  331MPD2    C5 4970   2.562   3.678  12.757  0.6146 -0.2547 -0.3513
  331MPD2     H 4971   2.835   3.766  12.512  0.0663 -0.1963 -0.4538
  331MPD2    H1 4972   2.584   3.483  12.693  1.4853 -0.0393  0.4035
  331MPD2    H2 4973   2.556   3.884  12.817  0.7586 -0.6600  2.4634
  331MPD2    H3 4974   2.505   3.639  12.841 -1.4671  2.0868 -0.6868
  331MPD2     N 4975   2.763   3.533  12.489  0.5425  0.2391  0.4008
  331MPD2    H5 4976   2.809   3.571  12.406  0.1410  0.9603  0.5101
  331MPD2    N1 4977   2.745   3.976  12.645 -0.3354 -0.2498  0.2426
  331MPD2    H7 4978   2.827   3.973  12.585 -0.9491 -0.3444 -0.5853
  332TMC3    C1 4979   2.839   3.344  12.393 -0.0435 -0.5144  0.0887
  332TMC3    C2 4980   2.861   3.412  12.277 -0.3324 -0.0381 -0.1295
  332TMC3    C3 4981   2.974   3.377  12.208 -0.1344 -0.7669  0.0858
  332TMC3    C4 4982   2.939   3.265  12.456  0.1340  0.4386  0.8669
  332TMC3    C5 4983   3.057   3.246  12.394 -0.2846  0.2214 -0.3901
  332TMC3    C6 4984   3.079   3.305  12.272 -0.1529  0.1130  0.1846
  332TMC3     C 4985   2.767   3.396  12.502 -0.0685  0.1208  0.2080
  332TMC3     O 4986   2.727   3.324  12.591  0.2181 -0.5933  0.0610
  332TMC3     H 4987   2.787   3.480  12.236 -1.2114 -1.1482 -0.3531
  332TMC3    H1 4988   2.915   3.206  12.544 -1.1139 -2.4656 -1.4584
  332TMC3    H2 4989   3.168   3.282  12.215  0.0239  0.7203  0.2063
  332TMC3    C7 4990   3.164   3.165  12.448 -0.3908  0.4246 -0.0185
  332TMC3    C8 4991   3.012   3.473  12.101  0.3871  0.7962 -0.3818
  332TMC3    O1 4992   3.143   3.077  12.528  0.3352 -0.1762 -0.9922
  332TMC3    O2 4993   3.128   3.479  12.076 -0.0950 -0.4620 -0.0572
  333MPD2     C 4994   2.780   4.002  11.052 -0.4319  0.3401  0.9839
  333MPD2    C1 4995   2.860   3.903  11.011  0.4709  0.4851 -0.2627
  333MPD2    C2 4996   2.831   3.764  11.035  1.1415 -0.3979  0.8880
  333MPD2    C3 4997   2.712   3.729  11.101  0.4443  0.4331 -0.1648
  333MPD2    C4 4998   2.621   3.832  11.127  0.3776 -0.8986 -0.2582
  333MPD2    C5 4999   2.658   3.958  11.102 -0.2898  0.5887 -0.6702
  333MPD2     H 5000   2.899   3.687  11.001 -0.5103 -1.1994 -0.5230
  333MPD2    H1 5001   2.526   3.820  11.179  0.3547  1.4253  0.2282
  333MPD2    H2 5002   2.806   4.107  11.045 -1.1930  0.2570 -3.0981
  333MPD2    H3 5003   2.591   4.036  11.135 -2.4748 -1.2192 -0.8213
  333MPD2     N 5004   2.694   3.596  11.139 -0.4072 -0.1320 -0.0083
  333MPD2    H5 5005   2.758   3.523  11.110 -2.0858 -1.2718 -0.8888
  333MPD2    N1 5006   2.983   3.946  10.952  0.8188  0.5857 -0.8977
  333MPD2    H7 5007   2.996   4.046  10.949 -0.5483  0.8695  2.7196
  334TMC3    C1 5008   3.183   3.943  10.824 -0.0835 -0.1952  0.3006
  334TMC3    C2 5009   3.282   3.870  10.763  0.6254  0.1770  0.7448
  334TMC3    C3 5010   3.400   3.934  10.723  0.0559  0.2193 -0.1141
  334TMC3    C4 5011   3.200   4.080  10.842 -0.0407 -0.4374  0.2598
  334TMC3    C5 5012   3.312   4.137  10.792  0.5789 -0.0183 -0.0165
  334TMC3    C6 5013   3.410   4.069  10.731 -0.4403 -0.2293  0.4023
  334TMC3     C 5014   3.077   3.867  10.893  0.0564  0.9852 -0.2373
  334TMC3     O 5015   3.101   3.746  10.901 -0.1375 -0.7247 -0.1439
  334TMC3     H 5016   3.263   3.764  10.752  0.5047  0.1692  1.0128
  334TMC3    H1 5017   3.133   4.135  10.908 -1.1522 -1.3926 -0.0741
  334TMC3    H2 5018   3.497   4.125  10.698 -0.1360 -1.0602 -0.1831
  334TMC3    C7 5019   3.340   4.277  10.795  0.1152 -0.3026  0.6195
  334TMC3    C8 5020   3.524   3.857  10.712  0.6088 -0.0181 -0.1760
  334TMC3    O1 5021   3.457   4.314  10.785  0.1372  0.7557  0.3806
  334TMC3    O2 5022   3.511   3.740  10.672  0.1821  0.0641  0.1057
  335TMC3    C1 5023   3.948   0.737   0.489  0.3857 -0.9756  0.1176
  335TMC3    C2 5024   3.985   0.610   0.465  0.3618 -0.1684  0.1768
  335TMC3    C3 5025   3.950   0.564   0.344  0.3698 -0.0881  0.4683
  335TMC3    C4 5026   3.890   0.818   0.393 -0.6524  0.0483  0.1076
  335TMC3    C5 5027   3.863   0.768   0.267 -0.9303  0.1968  0.5326
  335TMC3    C6 5028   3.878   0.635   0.241  0.4156  0.0493 -0.7475
  335TMC3     C 5029   3.936   0.786   0.628  0.6743 -0.3287  0.2183
  335TMC3     O 5030   3.996   0.720   0.706 -0.6519 -0.1948  0.0620
  335TMC3     H 5031   4.033   0.549   0.540 -0.0531  1.3614  1.6796
  335TMC3    H1 5032   3.886   0.923   0.420  1.1273  0.1744 -0.1195
  335TMC3    H2 5033   3.865   0.606   0.137  0.3396 -2.1538 -0.1346
  335TMC3    C7 5034   3.893   0.839   0.141 -0.0692 -0.7921  0.0595
  335TMC3    C8 5035   3.975   0.425   0.304  0.2466 -0.2924 -0.2470
  335TMC3    O1 5036   3.902   0.778   0.036 -0.2323 -0.3005  0.1732
  335TMC3    O2 5037   4.076   0.370   0.344 -0.8354  0.2280 -0.3821
  336MPD2     C 5038   3.308   3.142  16.216 -0.3718 -0.6841 -0.4392
  336MPD2    C1 5039   3.217   3.102  16.119  0.5816 -0.0056 -0.6055
  336MPD2    C2 5040   3.144   2.987  16.142 -0.0256  0.7295  0.1477
  336MPD2    C3 5041   3.156   2.918  16.261  0.7548  0.7978 -0.4412
  336MPD2    C4 5042   3.240   2.964  16.355  0.2371  0.4174  0.2642
  336MPD2    C5 5043   3.316   3.076  16.334 -0.0273  0.6714 -0.0100
  336MPD2     H 5044   3.080   2.946  16.066  0.4764  1.5035 -0.7023
  336MPD2    H1 5045   3.247   2.922  16.455  1.3545 -0.0513 -0.0132
  336MPD2    H2 5046   3.379   3.221  16.197 -0.1971 -0.4309  1.2836
  336MPD2    H3 5047   3.380   3.108  16.415  0.0213  0.8274 -0.1113
  336MPD2     N 5048   3.078   2.798  16.287 -0.3706  0.2780 -1.0980
  336MPD2    H5 5049   3.096   2.753  16.377  0.5154 -1.0106 -1.9247
  336MPD2    N1 5050   3.196   3.163  15.994 -0.1018  0.1781  0.2377
  336MPD2    H7 5051   3.123   3.120  15.938 -0.0380  0.9907 -0.4707
  337TMC3    C1 5052   3.249   3.306  15.809  0.5026 -0.6044 -0.4688
  337TMC3    C2 5053   3.118   3.309  15.770  0.0363  0.0978  0.5832
  337TMC3    C3 5054   3.092   3.361  15.645 -0.5801 -0.0907 -0.3680
  337TMC3    C4 5055   3.348   3.355  15.727  0.0300 -0.6233  0.0858
  337TMC3    C5 5056   3.320   3.391  15.597  0.5120  0.0245  0.0953
  337TMC3    C6 5057   3.189   3.397  15.556 -0.6098 -0.2549 -0.3746
  337TMC3     C 5058   3.284   3.259  15.942  0.0406  0.0061  0.2465
  337TMC3     O 5059   3.386   3.300  15.998  0.3683  0.1217  0.4229
  337TMC3     H 5060   3.043   3.299  15.848  0.0732  4.1693  1.1198
  337TMC3    H1 5061   3.450   3.351  15.762 -0.1304  0.4203  0.6782
  337TMC3    H2 5062   3.176   3.404  15.448 -0.7802 -1.1418 -0.4168
  337TMC3    C7 5063   3.421   3.399  15.499 -0.2691 -0.8376  1.0454
  337TMC3    C8 5064   2.956   3.377  15.600  0.4701  0.7485 -0.1335
  337TMC3    O1 5065   3.388   3.460  15.398  0.1634  0.2616 -0.5145
  337TMC3    O2 5066   2.877   3.326  15.678 -0.1925  0.6027 -0.1515
  338MPD2     C 5067   2.575   2.803   0.935  0.2349  1.2767  0.6027
  338MPD2    C1 5068   2.644   2.807   0.815 -0.2457 -0.7760  0.0953
  338MPD2    C2 5069   2.565   2.799   0.698  0.8856  0.2070 -0.4716
  338MPD2    C3 5070   2.429   2.781   0.695  0.8491 -0.0691 -0.4068
  338MPD2    C4 5071   2.364   2.779   0.817  0.2543 -0.7639  0.6158
  338MPD2    C5 5072   2.436   2.798   0.936  0.4191 -0.5909 -0.3689
  338MPD2     H 5073   2.620   2.806   0.605  0.6044  1.3022 -0.5556
  338MPD2    H1 5074   2.256   2.765   0.821  0.3791 -1.5405  1.2574
  338MPD2    H2 5075   2.627   2.819   1.029 -1.7606 -0.4404  2.0002
  338MPD2    H3 5076   2.389   2.801   1.034 -0.2860  1.8334 -0.7747
  338MPD2     N 5077   2.368   2.760   0.571 -0.2257 -0.9345 -0.0737
  338MPD2    H5 5078   2.424   2.792   0.493  0.5738 -0.9736  0.4792
  338MPD2    N1 5079   2.783   2.805   0.801  0.8174 -0.7234 -0.4552
  338MPD2    H7 5080   2.823   2.788   0.710  0.4438 -0.5880 -0.6453
  339TMC3    C1 5081   2.252   2.657   0.418  0.3715 -0.1596  0.3214
  339TMC3    C2 5082   2.280   2.524   0.403 -0.2804 -0.5318  0.5709
  339TMC3    C3 5083   2.389   2.510   0.324 -0.6138 -0.4912 -0.4117
  339TMC3    C4 5084   2.312   2.759   0.352  0.2480 -0.4599  0.0504
  339TMC3    C5 5085   2.422   2.733   0.268  0.3977  0.0562  0.1562
  339TMC3    C6 5086   2.467   2.605   0.257 -0.3616  0.5101 -0.1214
  339TMC3     C 5087   2.249   2.702   0.551 -0.0632  0.0182  0.0722
  339TMC3     O 5088   2.188   2.620   0.623 -0.5673  0.5498  0.4592
  339TMC3     H 5089   2.221   2.445   0.448 -0.2990 -1.1026 -0.4440
  339TMC3    H1 5090   2.273   2.860   0.350 -0.2107 -0.6608 -1.9074
  339TMC3    H2 5091   2.557   2.587   0.200 -0.1417  0.6901  0.1700
  339TMC3    C7 5092   2.515   2.845   0.264 -0.3492  0.6332  0.2146
  339TMC3    C8 5093   2.454   2.376   0.332  0.1441  0.6181  0.7874
  339TMC3    O1 5094   2.493   2.928   0.357  0.2375 -0.3318 -0.2293
  339TMC3    O2 5095   2.561   2.376   0.277 -0.2255  0.3696 -0.1804
  340MPD2     C 5096   2.965   4.303   9.505 -0.5486 -0.1172  0.2910
  340MPD2    C1 5097   3.033   4.322   9.621  0.4789 -0.4055  0.1200
  340MPD2    C2 5098   3.037   4.449   9.675  0.6275 -0.6090 -0.0354
  340MPD2    C3 5099   2.970   4.558   9.615  0.3271 -0.6944  0.0700
  340MPD2    C4 5100   2.899   4.533   9.499  0.0192  0.0420  0.1093
  340MPD2    C5 5101   2.898   4.409   9.446 -0.3759  0.1559 -0.5935
  340MPD2     H 5102   3.087   4.457   9.771  1.3853 -1.0548 -0.3936
  340MPD2    H1 5103   2.855   4.617   9.447  0.0009 -0.2737 -0.3855
  340MPD2    H2 5104   2.974   4.206   9.456 -0.9051 -0.1409  0.2712
  340MPD2    H3 5105   2.861   4.410   9.345  1.5533  0.7388 -1.2916
  340MPD2     N 5106   2.981   4.686   9.667  0.1473  0.4091 -0.3473
  340MPD2    H5 5107   2.941   0.042   9.621  1.1925  0.5438 -1.0314
  340MPD2    N1 5108   3.098   4.212   9.679 -0.5079  0.1532  0.1375
  340MPD2    H7 5109   3.091   4.118   9.640 -0.4399  0.0736  0.3135
  341TMC3    C1 5110   3.262   4.086   9.785  0.0360  0.3102 -0.0483
  341TMC3    C2 5111   3.202   3.973   9.734 -0.8083  0.3180  0.6391
  341TMC3    C3 5112   3.276   3.855   9.741 -0.9780 -1.1386  0.2298
  341TMC3    C4 5113   3.393   4.088   9.822  0.0627 -0.3471 -0.1434
  341TMC3    C5 5114   3.462   3.969   9.826  0.0787  0.1152  0.3242
  341TMC3    C6 5115   3.410   3.849   9.783 -0.0187  0.2040 -0.1307
  341TMC3     C 5116   3.197   4.216   9.781  0.3228  0.0698  0.2932
  341TMC3     O 5117   3.248   4.317   9.830  0.0850 -0.5893 -0.4856
  341TMC3     H 5118   3.098   3.956   9.710 -1.2944  1.7995  1.6734
  341TMC3    H1 5119   3.450   4.173   9.859 -0.0994 -0.2809 -0.0440
  341TMC3    H2 5120   3.472   3.760   9.792  1.4467  1.2471 -0.0025
  341TMC3    C7 5121   3.599   3.978   9.870  0.6738  0.5218 -0.7369
  341TMC3    C8 5122   3.207   3.729   9.729 -0.3439 -0.2246  0.2899
  341TMC3    O1 5123   3.666   4.080   9.857 -0.0162  0.2531  0.7524
  341TMC3    O2 5124   3.084   3.731   9.736  0.1777  0.3874  0.3457
  342MPD2     C 5125   1.091   3.529   0.101  0.2113 -0.0195  0.4935
  342MPD2    C1 5126   1.174   3.582   0.004 -0.4311  0.1588 -0.3481
  342MPD2    C2 5127   1.153   3.707  17.659 -0.4295 -0.5212 -0.0403
  342MPD2    C3 5128   1.071   3.801   0.020 -0.1502  0.6015  0.3832
  342MPD2    C4 5129   0.991   3.749   0.117 -0.8086 -0.2383  0.0782
  342MPD2    C5 5130   1.004   3.616   0.160 -0.4207  0.0906  0.3243
  342MPD2     H 5131   1.201   3.738  17.567  2.1734  2.3783  2.2760
  342MPD2    H1 5132   0.915   3.809   0.165 -1.2002 -0.2812 -0.4875
  342MPD2    H2 5133   1.089   3.432   0.148 -0.0436  0.9244  2.4376
  342MPD2    H3 5134   0.949   3.589   0.250 -0.3314 -1.9904 -0.2667
  342MPD2     N 5135   1.064   3.940  17.690 -0.7833  0.0679 -0.3193
  342MPD2    H5 5136   1.007   3.998   0.048 -1.7693  0.4451 -1.6114
  342MPD2    N1 5137   1.277   3.502  17.650  0.5710  1.2283  0.3576
  342MPD2    H7 5138   1.331   3.541  17.573  2.6091 -0.7365  0.7910
  343TMC3    C1 5139   1.379   3.320  17.573 -0.3929 -0.0289 -0.1939
  343TMC3    C2 5140   1.421   3.390  17.464 -0.2304  0.3384  0.4123
  343TMC3    C3 5141   1.487   3.326  17.366  0.2844  0.2771  0.2295
  343TMC3    C4 5142   1.393   3.183  17.573  0.0923  0.2640  0.4833
  343TMC3    C5 5143   1.459   3.121  17.474 -0.1793 -0.1552  0.0027
  343TMC3    C6 5144   1.510   3.194  17.369  0.2247 -0.0916  0.8797
  343TMC3     C 5145   1.309   3.379  17.685  0.6164 -0.5749 -0.2254
  343TMC3     O 5146   1.255   3.300   0.061 -0.2306  0.5349  0.1429
  343TMC3     H 5147   1.401   3.496  17.448 -2.2012 -0.1077 -0.1846
  343TMC3    H1 5148   1.350   3.125  17.654 -1.9673 -0.4072 -1.0836
  343TMC3    H2 5149   1.555   3.139  17.287  0.8690  2.0800 -0.2245
  343TMC3    C7 5150   1.436   2.974  17.458 -1.0957 -1.1134 -0.3448
  343TMC3    C8 5151   1.547   3.409  17.258 -0.8012  0.0807  0.5215
  343TMC3    O1 5152   1.430   2.941  17.340  0.2150 -0.2894  0.1709
  343TMC3    O2 5153   1.530   3.531  17.253  0.1193 -0.2397  0.3841
  344MPD2     C 5154   2.376   3.021  10.952 -0.2867  0.3246  0.4820
  344MPD2    C1 5155   2.246   3.006  10.891 -0.2390 -0.0586  0.1702
  344MPD2    C2 5156   2.244   3.003  10.753  0.4286 -0.6033 -0.3212
  344MPD2    C3 5157   2.355   3.026  10.678  0.2631  0.0487  0.0672
  344MPD2    C4 5158   2.472   3.069  10.737  0.2722  0.1339 -0.5257
  344MPD2    C5 5159   2.485   3.052  10.875  0.7386  1.7087 -0.5368
  344MPD2     H 5160   2.144   2.996  10.712  0.2101  0.6743 -0.0216
  344MPD2    H1 5161   2.562   3.087  10.681  1.6278  0.9384  1.8923
  344MPD2    H2 5162   2.385   3.016  11.060  1.0259  0.3074  0.3746
  344MPD2    H3 5163   2.586   3.062  10.914  1.0845  1.1697 -1.3038
  344MPD2     N 5164   2.356   3.021  10.539 -0.1364 -0.7904 -0.2273
  344MPD2    H5 5165   2.443   3.047  10.493 -0.9269 -0.9157 -1.8024
  344MPD2    N1 5166   2.130   2.991  10.963 -0.1435 -0.4445 -0.1169
  344MPD2    H7 5167   2.053   2.950  10.911  1.0655 -2.3373 -0.4590
  345TMC3    C1 5168   2.282   2.983  10.319 -0.8261  0.6584 -0.0612
  345TMC3    C2 5169   2.411   2.960  10.279 -0.7353  0.4226  0.2847
  345TMC3    C3 5170   2.443   3.013  10.155 -0.8427  0.3787 -0.2321
  345TMC3    C4 5171   2.191   3.044  10.239 -0.9020  0.5281 -0.0382
  345TMC3    C5 5172   2.229   3.095  10.113 -0.0482 -0.6346 -0.6810
  345TMC3    C6 5173   2.364   3.081  10.077  0.1400  0.2276 -0.0224
  345TMC3     C 5174   2.248   2.986  10.464 -0.1609  0.5475  0.2414
  345TMC3     O 5175   2.129   2.981  10.490 -0.3656 -0.3737  0.2194
  345TMC3     H 5176   2.478   2.913  10.351 -0.0990  1.9251  0.6852
  345TMC3    H1 5177   2.086   3.050  10.263 -0.9270 -1.8179  0.4684
  345TMC3    H2 5178   2.396   3.115   9.979  0.4823  0.0296  0.0213
  345TMC3    C7 5179   2.144   3.157  10.021  1.3163  0.4202  0.4423
  345TMC3    C8 5180   2.584   3.025  10.125  0.5127  0.6766 -0.0507
  345TMC3    O1 5181   2.194   3.205   9.921  0.2813 -0.2193  0.2063
  345TMC3    O2 5182   2.622   3.123  10.064 -0.9641  0.2842  0.5575
  346MPD2     C 5183   2.475   4.668  14.207  0.2282  0.0935  0.7448
  346MPD2    C1 5184   2.460   0.078  14.200 -0.3039  0.5348 -0.2584
  346MPD2    C2 5185   2.497   0.162  14.308  0.2799 -0.1243 -0.5794
  346MPD2    C3 5186   2.537   0.103  14.425 -0.4980  0.0249  0.2535
  346MPD2    C4 5187   2.545   4.688  14.432  0.2511 -0.4876 -0.5111
  346MPD2    C5 5188   2.522   4.610  14.320  0.4441  0.6403  0.0187
  346MPD2     H 5189   2.489   0.270  14.307 -0.5914 -0.1734  0.8117
  346MPD2    H1 5190   2.562   4.639  14.527  0.0788 -0.7195 -0.5995
  346MPD2    H2 5191   2.455   4.601  14.124  1.9334  4.0434 -2.8711
  346MPD2    H3 5192   2.521   4.502  14.326  1.5309  0.4944 -2.7174
  346MPD2     N 5193   2.556   0.187  14.533  0.0020  0.1112 -0.0670
  346MPD2    H5 5194   2.556   0.285  14.508  2.9033 -0.1333 -1.0202
  346MPD2    N1 5195   2.392   0.133  14.088  0.2712 -0.0357  0.1888
  346MPD2    H7 5196   2.402   0.234  14.096  1.6237 -0.1242 -0.4228
  347TMC3    C1 5197   2.676   0.260  14.718 -0.6441  0.0148 -0.5804
  347TMC3    C2 5198   2.802   0.240  14.762  0.0313 -0.1813 -0.5708
  347TMC3    C3 5199   2.874   0.349  14.810 -0.4590  0.2614  0.1370
  347TMC3    C4 5200   2.618   0.386  14.717 -0.1615 -0.4745  0.4076
  347TMC3    C5 5201   2.695   0.494  14.752 -0.6540 -0.6955  0.0319
  347TMC3    C6 5202   2.827   0.479  14.801  0.5575  0.1921 -0.2192
  347TMC3     C 5203   2.617   0.149  14.651 -0.2650  0.6985 -0.2566
  347TMC3     O 5204   2.640   0.037  14.691  0.3190 -0.0415  0.1534
  347TMC3     H 5205   2.842   0.140  14.749  0.9274  0.1351 -0.2809
  347TMC3    H1 5206   2.517   0.399  14.682 -0.2578  0.2028  0.9203
  347TMC3    H2 5207   2.867   0.564  14.854  0.2214  1.2657 -1.6646
  347TMC3    C7 5208   2.626   0.608  14.803  0.4697 -0.4093  0.2118
  347TMC3    C8 5209   3.015   0.338  14.798 -0.5550 -0.6473 -0.5762
  347TMC3    O1 5210   2.518   0.577  14.847 -0.4278  0.1730  0.6693
  347TMC3    O2 5211   3.061   0.224  14.803 -0.7990  0.5571 -0.1180
  348MPD2     C 5212   0.926   4.721  12.398 -0.1356  0.1253  0.2958
  348MPD2    C1 5213   0.841   4.648  12.320 -0.6911 -0.2984 -0.4282
  348MPD2    C2 5214   0.782   4.719  12.218 -1.0595 -0.0027 -0.1557
  348MPD2    C3 5215   0.802   0.124  12.185  0.3038 -0.3076 -0.6052
  348MPD2    C4 5216   0.886   0.192  12.272 -0.1468  0.5394 -1.0951
  348MPD2    C5 5217   0.945   0.127  12.375  0.6545 -0.0472 -0.3435
  348MPD2     H 5218   0.727   4.660  12.145  0.3221  2.6230 -3.3388
  348MPD2    H1 5219   0.915   0.293  12.247  3.9288 -0.1890  0.6500
  348MPD2    H2 5220   0.992   4.680  12.474  0.8598  0.2255 -0.5066
  348MPD2    H3 5221   1.028   0.174  12.427  0.8524 -1.1110  0.3108
  348MPD2     N 5222   0.731   0.193  12.078 -0.3125 -0.1071  0.7859
  348MPD2    H5 5223   0.651   0.146  12.037 -0.6473  0.9001  0.2932
  348MPD2    N1 5224   0.815   4.511  12.324  0.0151 -0.4966  0.9877
  348MPD2    H7 5225   0.753   4.470  12.255 -2.0147  1.4950  1.6205
  349TMC3    C1 5226   0.845   4.279  12.390  0.5220  0.2559 -0.1070
  349TMC3    C2 5227   0.922   4.190  12.463 -0.1519 -0.3883  0.1735
  349TMC3    C3 5228   0.966   4.067  12.406 -0.0190 -0.2711 -0.0645
  349TMC3    C4 5229   0.802   4.243  12.261 -0.7419 -0.1467  0.0111
  349TMC3    C5 5230   0.866   4.135  12.207 -0.9195 -0.8960  0.1160
  349TMC3    C6 5231   0.939   4.043  12.277 -0.2501 -0.1880 -0.1996
  349TMC3     C 5232   0.871   4.425  12.416  0.1435  0.5892 -0.0456
  349TMC3     O 5233   0.949   4.446  12.507  0.5728  0.7040  0.5493
  349TMC3     H 5234   0.932   4.205  12.569 -1.2978 -0.1253  0.2475
  349TMC3    H1 5235   0.757   4.311  12.189 -1.1387  0.6975  1.0476
  349TMC3    H2 5236   0.974   3.954  12.227  2.0329 -0.0921  1.2662
  349TMC3    C7 5237   0.921   4.176  12.078 -0.1995 -0.0859 -0.2144
  349TMC3    C8 5238   1.038   3.973  12.492 -0.1551  0.3491 -0.0546
  349TMC3    O1 5239   0.845   4.181  11.985 -0.5182 -0.1274 -0.2888
  349TMC3    O2 5240   1.013   3.973  12.615 -0.4242 -0.4842 -0.4936
  350MPD2     C 5241   4.496   2.701   9.461 -0.4770 -0.4569  0.0410
  350MPD2    C1 5242   4.557   2.576   9.463  0.4823  0.0179 -0.4907
  350MPD2    C2 5243   4.684   2.565   9.512 -0.9379 -0.0633  0.3676
  350MPD2    C3 5244   0.028   2.678   9.564 -0.2443  0.3228  0.7114
  350MPD2    C4 5245   4.692   2.800   9.552  0.1795  0.4352 -0.2608
  350MPD2    C5 5246   4.561   2.807   9.506  0.5233  0.4854  0.3230
  350MPD2     H 5247   0.004   2.467   9.518 -0.1624  0.1720 -1.5423
  350MPD2    H1 5248   0.009   2.884   9.607 -2.8548 -0.8000  3.9430
  350MPD2    H2 5249   4.396   2.728   9.430 -0.4292  0.1307  0.4048
  350MPD2    H3 5250   4.512   2.903   9.499 -0.8943 -0.3606 -1.3173
  350MPD2     N 5251   0.156   2.657   9.616 -0.4099 -0.6132  0.5481
  350MPD2    H5 5252   0.186   2.561   9.628 -0.2924 -0.7137 -0.5067
  350MPD2    N1 5253   4.499   2.465   9.391  0.2554 -0.3028 -0.3018
  350MPD2    H7 5254   4.541   2.372   9.397  0.0257 -0.4864 -1.6728
  351TMC3    C1 5255   4.342   2.362   9.250 -1.0921  0.5457  0.7270
  351TMC3    C2 5256   4.334   2.246   9.324 -0.4078  0.7387 -0.1721
  351TMC3    C3 5257   4.263   2.142   9.264  0.6966  0.2697 -0.6045
  351TMC3    C4 5258   4.256   2.380   9.144  0.0898  0.4885 -0.2693
  351TMC3    C5 5259   4.172   2.279   9.096 -0.5730  0.0671 -0.1529
  351TMC3    C6 5260   4.186   2.153   9.152  0.4320  1.1717  0.3278
  351TMC3     C 5261   4.389   2.488   9.307 -0.2837 -0.0205 -0.5335
  351TMC3     O 5262   4.335   2.590   9.264  0.0925  0.2245 -0.2620
  351TMC3     H 5263   4.403   2.238   9.407 -0.4139 -1.4432 -0.3786
  351TMC3    H1 5264   4.273   2.462   9.076 -0.0227  1.7508  1.2190
  351TMC3    H2 5265   4.158   2.061   9.103  0.7972  1.5396 -0.5666
  351TMC3    C7 5266   4.098   2.279   8.969 -0.0768 -0.2671  0.4245
  351TMC3    C8 5267   4.265   2.013   9.332 -1.0852  0.0562 -0.3555
  351TMC3    O1 5268   4.045   2.173   8.938  0.4656 -0.7132 -0.1773
  351TMC3    O2 5269   4.366   1.990   9.392 -0.6752  0.2099 -0.3733
  352MPD2     C 5270   3.531   4.206   1.554  0.1119 -0.1356  0.8880
  352MPD2    C1 5271   3.437   4.138   1.480  0.5894 -0.8402  0.0428
  352MPD2    C2 5272   3.371   4.036   1.542 -1.1386  0.0097  0.5625
  352MPD2    C3 5273   3.396   3.992   1.670 -0.3167  0.2599 -0.0909
  352MPD2    C4 5274   3.504   4.052   1.739  0.7717 -0.2471 -0.4677
  352MPD2    C5 5275   3.563   4.163   1.676 -0.0500 -0.3363 -0.1046
  352MPD2     H 5276   3.299   3.981   1.483 -1.6278  2.0331 -0.7251
  352MPD2    H1 5277   3.525   4.030   1.843 -1.8592 -1.6175 -0.2359
  352MPD2    H2 5278   3.570   4.301   1.519 -0.0285 -0.7902 -1.0741
  352MPD2    H3 5279   3.652   4.200   1.725  1.9016 -2.2134 -2.2467
  352MPD2     N 5280   3.327   3.887   1.742  0.2890  0.1096 -0.7405
  352MPD2    H5 5281   3.349   3.877   1.840 -0.8988 -2.0523 -0.6906
  352MPD2    N1 5282   3.416   4.182   1.348  0.1361 -0.0935 -0.2094
  352MPD2    H7 5283   3.481   4.239   1.296 -1.1772 -0.5183 -2.2802
  353TMC3    C1 5284   3.149   3.742   1.795 -0.3654 -0.1033  0.1683
  353TMC3    C2 5285   3.232   3.675   1.875 -0.3287  0.1324  0.4192
  353TMC3    C3 5286   3.181   3.573   1.953  1.1681  0.8175 -0.4631
  353TMC3    C4 5287   3.019   3.707   1.784  0.2161  0.6108 -0.5877
  353TMC3    C5 5288   2.975   3.594   1.848 -0.0125 -0.0308 -0.3069
  353TMC3    C6 5289   3.059   3.522   1.933  0.5620 -0.3351 -0.1193
  353TMC3     C 5290   3.203   3.841   1.705  0.5244 -0.1704  0.0162
  353TMC3     O 5291   3.133   3.864   1.608  0.7973 -0.7539 -0.5112
  353TMC3     H 5292   3.340   3.688   1.877 -0.4246  1.0468 -0.5875
  353TMC3    H1 5293   2.942   3.756   1.724  0.4009 -1.5238 -2.5634
  353TMC3    H2 5294   3.020   3.439   1.990 -0.0372 -0.6859 -1.0336
  353TMC3    C7 5295   2.897   3.506   1.767  0.1519 -0.4507 -0.2695
  353TMC3    C8 5296   3.278   3.478   2.009 -0.5434  0.4560 -0.8604
  353TMC3    O1 5297   2.854   3.548   1.661 -0.0064  0.0052  0.0394
  353TMC3    O2 5298   3.248   3.415   2.109  0.2933  0.5630  0.3070
  354TMC3    C1 5299   0.120   1.041  13.627  0.0162 -0.2853 -0.8359
  354TMC3    C2 5300   0.071   1.169  13.603  0.2577 -0.1643  0.1038
  354TMC3    C3 5301   0.065   1.220  13.476 -0.2630  0.0140  0.0470
  354TMC3    C4 5302   0.146   0.958  13.526  0.4768  0.1968 -0.1556
  354TMC3    C5 5303   0.164   1.022  13.403 -0.5402 -0.4766 -0.5942
  354TMC3    C6 5304   0.117   1.144  13.376 -0.1322 -0.0356  0.0346
  354TMC3     C 5305   0.114   0.984  13.760 -0.0713  0.2986 -0.6017
  354TMC3     O 5306   0.082   0.867  13.775 -0.2543 -0.0499 -0.2250
  354TMC3     H 5307   0.039   1.229  13.687  1.5775  0.5919  0.0774
  354TMC3    H1 5308   0.184   0.858  13.543  0.3857  0.0352 -0.9266
  354TMC3    H2 5309   0.102   1.164  13.271  1.6071 -1.1069 -0.4253
  354TMC3    C7 5310   0.236   0.941  13.307  0.5059 -0.3541 -0.2413
  354TMC3    C8 5311   0.030   1.355  13.467 -0.1049 -0.5904 -0.2058
  354TMC3    O1 5312   0.255   0.822  13.321  0.2021 -0.2553 -0.6893
  354TMC3    O2 5313   4.698   1.408  13.565 -0.1927  0.4301 -0.0236
  355MPD2     C 5314   0.047   2.110  11.788 -0.4094 -0.6184  0.1134
  355MPD2    C1 5315   0.130   2.134  11.679  0.3789 -0.2624 -1.0493
  355MPD2    C2 5316   0.261   2.124  11.702 -0.1520 -0.2359  0.0393
  355MPD2    C3 5317   0.322   2.098  11.818  0.3743  0.9150 -0.2682
  355MPD2    C4 5318   0.239   2.063  11.921  0.2685 -0.1630 -0.0802
  355MPD2    C5 5319   0.104   2.067  11.906 -0.9172 -0.8099 -0.3045
  355MPD2     H 5320   0.323   2.147  11.616  1.1161  0.0589  1.0222
  355MPD2    H1 5321   0.271   2.051  12.024 -0.7734 -0.4534  0.2016
  355MPD2    H2 5322   4.664   2.103  11.786 -0.3096 -1.6347 -1.7299
  355MPD2    H3 5323   0.041   2.056  11.994  1.3159 -0.1605  1.4002
  355MPD2     N 5324   0.459   2.129  11.850  0.1131  0.3665 -0.1771
  355MPD2    H5 5325   0.485   2.123  11.948  0.3855  1.4707 -0.1824
  355MPD2    N1 5326   0.060   2.164  11.559 -0.2924  0.1361  0.5882
  355MPD2    H7 5327   4.686   2.153  11.574 -0.6485  0.5104 -1.4611
  356TMC3    C1 5328   0.662   2.241  11.806 -0.7788 -0.0092 -0.0529
  356TMC3    C2 5329   0.744   2.296  11.712  0.5131  0.2679  0.1279
  356TMC3    C3 5330   0.844   2.380  11.749 -0.1240  0.3434  0.2752
  356TMC3    C4 5331   0.668   2.270  11.944 -0.2195 -0.1722  0.3078
  356TMC3    C5 5332   0.766   2.359  11.976  0.2533  0.6483  0.5180
  356TMC3    C6 5333   0.850   2.423  11.887  0.8841 -0.1453 -0.1752
  356TMC3     C 5334   0.550   2.165  11.758 -0.5520  0.2621  0.2814
  356TMC3     O 5335   0.548   2.146  11.639  0.0617 -0.0518  0.3926
  356TMC3     H 5336   0.724   2.273  11.608 -0.2355  0.6000  0.1930
  356TMC3    H1 5337   0.607   2.219  12.018 -1.3204  0.8020  0.0653
  356TMC3    H2 5338   0.940   2.477  11.913  1.2339 -1.0218  0.4068
  356TMC3    C7 5339   0.804   2.359  12.120 -0.0181 -0.0429 -0.2027
  356TMC3    C8 5340   0.941   2.418  11.644 -0.5024  0.1967  0.8055
  356TMC3    O1 5341   0.759   2.270  12.188 -0.7505 -0.4551  0.1510
  356TMC3    O2 5342   0.915   2.374  11.531  0.2062 -0.1812  0.4560
  357MPD2     C 5343   0.040   1.504   1.361 -0.0526  0.2324 -0.0360
  357MPD2    C1 5344   4.696   1.391   1.388  0.3004 -0.0587 -0.5358
  357MPD2    C2 5345   4.577   1.390   1.458 -0.7929  0.6485  0.2323
  357MPD2    C3 5346   4.522   1.513   1.481  0.0864  0.0753 -0.3684
  357MPD2    C4 5347   4.599   1.633   1.466  0.6432  0.1084  0.3372
  357MPD2    C5 5348   4.718   1.623   1.397  0.3268  0.6766 -0.5763
  357MPD2     H 5349   4.535   1.293   1.480  0.0124  0.3887  0.6178
  357MPD2    H1 5350   4.559   1.731   1.491  1.4375  0.0975  1.6665
  357MPD2    H2 5351   0.124   1.500   1.292  1.9623  0.7295  2.4156
  357MPD2    H3 5352   0.057   1.709   1.381 -0.1236  1.1620  0.2289
  357MPD2     N 5353   4.392   1.527   1.529 -0.1022  0.0723 -0.4999
  357MPD2    H5 5354   4.362   1.614   1.572  0.7497 -0.2938  0.8467
  357MPD2    N1 5355   0.016   1.260   1.354  0.3296  0.5427  0.2275
  357MPD2    H7 5356   4.691   1.181   1.394 -0.6946 -0.0694 -2.2872
  358TMC3    C1 5357   0.126   1.100   1.230 -0.1089 -0.4740  0.6655
  358TMC3    C2 5358   0.108   1.060   1.102  0.1493  0.8024  0.5637
  358TMC3    C3 5359   0.084   0.927   1.076  0.4243 -0.3270 -0.1657
  358TMC3    C4 5360   0.111   1.008   1.335  0.8827  0.9188  0.6189
  358TMC3    C5 5361   0.087   0.880   1.306  0.1710  0.1190 -0.5554
  358TMC3    C6 5362   0.068   0.837   1.173 -0.2939  0.3409  0.4700
  358TMC3     C 5363   0.103   1.239   1.257 -0.6975 -0.6597  0.7551
  358TMC3     O 5364   0.153   1.315   1.181 -0.0286  0.2454 -0.0699
  358TMC3     H 5365   0.107   1.135   1.024  0.0258 -0.4410 -0.6243
  358TMC3    H1 5366   0.136   1.041   1.435 -3.3024  0.4873  1.8143
  358TMC3    H2 5367   0.088   0.734   1.146 -1.4666  0.5696 -1.2946
  358TMC3    C7 5368   0.097   0.787   1.417 -1.0721  0.0041 -0.0086
  358TMC3    C8 5369   0.046   0.898   0.940 -0.1934  0.1348 -0.0081
  358TMC3    O1 5370   0.083   0.832   1.530 -0.2663  0.1363  0.1043
  358TMC3    O2 5371   0.081   0.979   0.855  0.1666  0.0734  0.4849
  359MPD2     C 5372   0.585   0.331  12.393 -0.3075  0.0388  0.2870
  359MPD2    C1 5373   0.482   0.401  12.344  0.0256 -0.1491  0.3046
  359MPD2    C2 5374   0.352   0.365  12.384  0.2895  0.1838  0.3186
  359MPD2    C3 5375   0.336   0.241  12.450 -0.7889 -0.1225  0.2266
  359MPD2    C4 5376   0.442   0.154  12.476  0.6916 -0.4327  0.5892
  359MPD2    C5 5377   0.569   0.206  12.448  0.1512  0.2356  0.2621
  359MPD2     H 5378   0.272   0.430  12.349  0.7979  0.6045 -0.0633
  359MPD2    H1 5379   0.448   0.057  12.523 -0.2347  0.2494  2.1011
  359MPD2    H2 5380   0.689   0.359  12.380 -0.6642  0.8494 -0.8469
  359MPD2    H3 5381   0.651   0.147  12.487  0.4493  0.5373  0.0931
  359MPD2     N 5382   0.211   0.176  12.471  0.4732 -0.2169  0.1010
  359MPD2    H5 5383   0.215   0.084  12.512  1.2237 -0.6526 -0.9638
  359MPD2    N1 5384   0.496   0.513  12.264  0.2448  0.5110 -0.3778
  359MPD2    H7 5385   0.403   0.543  12.236  0.4816  0.9907 -0.6475
  360TMC3    C1 5386   0.574   0.698  12.138  0.5293  0.2129 -0.1065
  360TMC3    C2 5387   0.657   0.816  12.127 -0.0317 -0.0702  0.3707
  360TMC3    C3 5388   0.614   0.916  12.040 -0.3497 -0.0369  0.6165
  360TMC3    C4 5389   0.475   0.676  12.046 -0.2116 -0.2649 -0.0161
  360TMC3    C5 5390   0.456   0.775  11.954 -0.0358 -0.5738  0.0707
  360TMC3    C6 5391   0.506   0.903  11.961 -0.2126  0.3233 -0.4069
  360TMC3     C 5392   0.605   0.598  12.241 -0.1718  0.0839 -0.1491
  360TMC3     O 5393   0.726   0.590  12.261 -0.4600  0.3586 -0.3684
  360TMC3     H 5394   0.724   0.840  12.209  0.8715 -0.3963 -0.2823
  360TMC3    H1 5395   0.419   0.583  12.046 -0.6290 -0.0042  1.0236
  360TMC3    H2 5396   0.499   0.973  11.879  2.9486  0.4847 -0.5461
  360TMC3    C7 5397   0.379   0.738  11.845  0.1361 -0.0545  0.0860
  360TMC3    C8 5398   0.709   1.024  12.016 -0.5183 -0.6494 -0.1916
  360TMC3    O1 5399   0.412   0.807  11.749 -0.6491  0.0180  0.3857
  360TMC3    O2 5400   0.663   1.135  11.989 -0.9138 -0.2838 -0.7965
  361MPD2     C 5401   2.491   3.784  17.064  0.6982  0.3869  0.1331
  361MPD2    C1 5402   2.463   3.867  17.169 -0.6738  0.6200 -0.3504
  361MPD2    C2 5403   2.501   3.824  17.300  0.3710  0.0655 -0.0353
  361MPD2    C3 5404   2.560   3.702  17.320 -0.4253  0.1402 -0.3815
  361MPD2    C4 5405   2.571   3.619  17.212 -1.0394  0.2479 -0.0889
  361MPD2    C5 5406   2.548   3.659  17.081 -0.7226  0.1285 -0.0455
  361MPD2     H 5407   2.472   3.898  17.375 -0.7509 -0.0157 -0.3813
  361MPD2    H1 5408   2.622   3.524  17.216  1.6281  1.6598 -0.8454
  361MPD2    H2 5409   2.462   3.806  16.962  1.3653 -0.3143 -0.2014
  361MPD2    H3 5410   2.558   3.589  16.999  0.1078 -0.8181  0.8565
  361MPD2     N 5411   2.614   3.656  17.443 -0.4447  0.6568 -0.7341
  361MPD2    H5 5412   2.669   3.571  17.438 -2.4771 -0.8042  1.9321
  361MPD2    N1 5413   2.395   3.988  17.158  0.2607  0.2969  0.6632
  361MPD2    H7 5414   2.369   4.032  17.246 -0.3362  0.2089  0.5273
  362TMC3    C1 5415   2.296   4.169  17.039 -0.5340 -0.1985 -0.2354
  362TMC3    C2 5416   2.288   4.227  17.169  0.1166 -0.6222 -0.1394
  362TMC3    C3 5417   2.186   4.318  17.185  0.2613  0.9183 -0.4586
  362TMC3    C4 5418   2.210   4.193  16.935 -0.3658  0.2705 -0.4739
  362TMC3    C5 5419   2.108   4.281  16.957  0.7490 -0.5169  0.5018
  362TMC3    C6 5420   2.101   4.355  17.078  0.1517  0.2424  0.5271
  362TMC3     C 5421   2.359   4.042  17.043 -0.3431 -0.6438  0.3895
  362TMC3     O 5422   2.369   3.993  16.930 -0.1020  0.1171 -0.1445
  362TMC3     H 5423   2.365   4.225  17.246 -0.1767 -1.2674  0.1395
  362TMC3    H1 5424   2.226   4.137  16.844 -0.9227 -0.2028 -0.2814
  362TMC3    H2 5425   2.016   4.416  17.107 -0.1266 -1.2994  2.9973
  362TMC3    C7 5426   2.022   4.345  16.851 -0.2944 -0.4026 -0.1982
  362TMC3    C8 5427   2.175   4.373  17.318  0.2013  0.1602 -0.1129
  362TMC3    O1 5428   1.967   4.449  16.873  0.0113 -0.5849  0.2833
  362TMC3    O2 5429   2.262   4.350  17.401  0.0349  0.4107 -0.5637
  363TMC3    C1 5430   0.529   1.608   9.496 -0.4623  0.5470 -0.1726
  363TMC3    C2 5431   0.606   1.561   9.596 -0.4050  0.0822 -0.1875
  363TMC3    C3 5432   0.637   1.649   9.699  0.0666  0.3937 -0.2326
  363TMC3    C4 5433   0.484   1.736   9.498  0.7088 -0.2103 -0.6596
  363TMC3    C5 5434   0.530   1.825   9.596  0.5941  0.3703 -0.3081
  363TMC3    C6 5435   0.606   1.782   9.702  0.3427  0.4097  0.5034
  363TMC3     C 5436   0.439   1.514   9.428 -0.0020 -0.6370 -0.3744
  363TMC3     O 5437   0.331   1.560   9.394 -0.6952 -0.0796 -0.4583
  363TMC3     H 5438   0.643   1.460   9.589  0.3171  0.1676  2.3742
  363TMC3    H1 5439   0.418   1.777   9.421 -0.6433 -1.0336  0.0531
  363TMC3    H2 5440   0.629   1.848   9.785 -1.1785  1.8093 -0.1921
  363TMC3    C7 5441   0.478   1.955   9.592  0.8724 -0.1725 -0.0036
  363TMC3    C8 5442   0.691   1.599   9.821 -0.0532 -0.6355 -0.1831
  363TMC3    O1 5443   0.371   1.967   9.531 -0.2791 -0.1747 -0.6602
  363TMC3    O2 5444   0.726   1.683   9.905 -0.0294 -0.1690 -0.2040
  364MPD2     C 5445   3.903   1.365   9.712  0.3257 -0.2976  0.2201
  364MPD2    C1 5446   3.945   1.462   9.798  0.6957  0.4714  0.0139
  364MPD2    C2 5447   3.963   1.417   9.931 -0.0791  0.3614 -0.4609
  364MPD2    C3 5448   3.942   1.288   9.979  0.0691 -0.0984  0.6739
  364MPD2    C4 5449   3.909   1.199   9.881  0.1236  0.3665 -0.1193
  364MPD2    C5 5450   3.895   1.233   9.753  0.2482  0.3786  0.2408
  364MPD2     H 5451   3.977   1.499  10.000 -0.6787 -1.9308  2.3555
  364MPD2    H1 5452   3.883   1.096   9.903 -0.4536  0.6385  0.4418
  364MPD2    H2 5453   3.890   1.393   9.608  0.5182 -1.9373 -0.2504
  364MPD2    H3 5454   3.851   1.162   9.684  0.6035  0.2655  0.1258
  364MPD2     N 5455   3.943   1.260  10.113 -0.6399  0.0309 -0.7954
  364MPD2    H5 5456   3.911   1.167  10.140 -1.1327  0.0252 -1.4019
  364MPD2    N1 5457   3.947   1.598   9.750 -0.0923  0.5162  0.4531
  364MPD2    H7 5458   3.922   1.628   9.656  1.2952 -0.8933 -0.3731
  365TMC3    C1 5459   3.993   1.820   9.759  0.4892  0.4899 -0.1122
  365TMC3    C2 5460   4.098   1.793   9.674 -0.1919  0.2741 -0.2405
  365TMC3    C3 5461   4.211   1.868   9.683  0.1971 -0.0684 -0.6252
  365TMC3    C4 5462   4.000   1.928   9.844 -0.7067  0.4826 -0.7281
  365TMC3    C5 5463   4.107   2.009   9.841 -0.3898  0.4716 -0.8094
  365TMC3    C6 5464   4.217   1.979   9.760  0.7721  0.7101 -0.3983
  365TMC3     C 5465   3.941   1.707   9.830 -0.6566 -0.3555  0.1035
  365TMC3     O 5466   3.915   1.721   9.952  0.0454  0.2502  0.3109
  365TMC3     H 5467   4.093   1.711   9.603  0.4608 -1.1937  1.3962
  365TMC3    H1 5468   3.911   1.946   9.904  0.3339 -0.0302  0.9637
  365TMC3    H2 5469   4.314   2.020   9.784  0.0350  1.4023  1.4518
  365TMC3    C7 5470   4.145   2.042   9.976  0.1955 -0.0677 -0.3983
  365TMC3    C8 5471   4.336   1.794   9.669 -0.3554  0.0581  0.5718
  365TMC3    O1 5472   4.252   2.096   9.991 -0.0390  0.4192 -0.2137
  365TMC3    O2 5473   4.440   1.854   9.677 -0.2974 -0.5338  0.3712
  366MPD2     C 5474   2.553   1.914  15.672  0.6964 -0.5702  0.2130
  366MPD2    C1 5475   2.550   2.038  15.620 -0.7741 -0.4022  0.2033
  366MPD2    C2 5476   2.610   2.059  15.496 -0.0031  0.8145  0.4696
  366MPD2    C3 5477   2.705   1.976  15.442 -0.1742  0.1804 -0.1755
  366MPD2    C4 5478   2.704   1.851  15.501 -0.2201 -0.1484  0.5123
  366MPD2    C5 5479   2.615   1.818  15.605  0.1238 -0.4167 -0.5010
  366MPD2     H 5480   2.600   2.161  15.462 -2.2657  0.1733 -0.7960
  366MPD2    H1 5481   2.770   1.780  15.452  0.2524  1.8113 -1.6822
  366MPD2    H2 5482   2.510   1.894  15.769  0.8249 -0.7727  0.2277
  366MPD2    H3 5483   2.616   1.722  15.655  1.9137 -0.2541 -0.2299
  366MPD2     N 5484   2.802   2.015  15.352  0.3633 -0.2929  1.0236
  366MPD2    H5 5485   2.868   1.946  15.317 -1.8723 -2.3396  0.8562
  366MPD2    N1 5486   2.507   2.141  15.696  0.7731  0.0861  0.5753
  366MPD2    H7 5487   2.482   2.225  15.645  0.2752 -1.0248 -1.0366
  367TMC3    C1 5488   2.494   2.283  15.882 -0.0822 -0.4769 -0.0459
  367TMC3    C2 5489   2.604   2.344  15.935 -0.1206 -0.4910  0.1389
  367TMC3    C3 5490   2.622   2.477  15.928  0.3506  0.1567  0.1035
  367TMC3    C4 5491   2.396   2.357  15.828  0.2317  0.0610  0.0880
  367TMC3    C5 5492   2.408   2.495  15.837  0.0981 -0.4003 -0.3398
  367TMC3    C6 5493   2.524   2.556  15.882 -0.3497  0.5437 -0.2732
  367TMC3     C 5494   2.510   2.144  15.834 -0.6601 -0.6173  0.8378
  367TMC3     O 5495   2.553   2.069  15.921  0.6832  0.1816 -0.2294
  367TMC3     H 5496   2.682   2.283  15.979  1.4509  2.7783  1.8328
  367TMC3    H1 5497   2.303   2.316  15.790  0.2264 -0.5400  0.7565
  367TMC3    H2 5498   2.541   2.662  15.874 -0.6223  0.7128  1.4843
  367TMC3    C7 5499   2.318   2.592  15.764  0.1253 -0.2219  0.9599
  367TMC3    C8 5500   2.754   2.513  15.868  0.1764  0.5622  0.0231
  367TMC3    O1 5501   2.346   2.710  15.781  0.4456 -0.4169  0.7012
  367TMC3    O2 5502   2.850   2.440  15.892 -0.8022  0.3193 -0.2437
  368MPD2     C 5503   3.257   4.184  13.201  0.2562  0.9214 -0.2300
  368MPD2    C1 5504   3.249   4.317  13.155 -0.1241  0.4333 -0.1377
  368MPD2    C2 5505   3.357   4.370  13.082  0.2501 -0.4835  0.3434
  368MPD2    C3 5506   3.469   4.292  13.051  0.4619 -0.7563  0.4082
  368MPD2    C4 5507   3.475   4.167  13.102 -0.7519 -0.7366 -0.3472
  368MPD2    C5 5508   3.374   4.112  13.175  0.1981 -0.6431  0.3125
  368MPD2     H 5509   3.369   4.474  13.054  1.1943 -0.0067  2.5336
  368MPD2    H1 5510   3.565   4.106  13.094 -2.0664 -2.6738 -0.4399
  368MPD2    H2 5511   3.194   4.143  13.279 -0.3406  2.8230  0.2861
  368MPD2    H3 5512   3.391   4.021  13.230 -1.2081  0.1342  2.0690
  368MPD2     N 5513   3.579   4.342  12.974 -0.3617 -0.2542  0.0310
  368MPD2    H5 5514   3.665   4.288  12.966 -0.8129 -1.1269  1.0400
  368MPD2    N1 5515   3.136   4.392  13.185  1.0906 -0.5739  0.4255
  368MPD2    H7 5516   3.062   4.349  13.238 -1.6018  0.1412 -2.7967
  369TMC3    C1 5517   2.974   4.570  13.163 -0.2016 -0.0416 -0.3360
  369TMC3    C2 5518   2.916   4.641  13.067  0.4419 -0.0649 -0.2282
  369TMC3    C3 5519   2.802   4.708  13.089 -1.0178 -0.4240 -0.7493
  369TMC3    C4 5520   2.912   4.558  13.285  0.0269  0.7687  0.4037
  369TMC3    C5 5521   2.795   4.634  13.305  0.1837  0.2904 -0.0146
  369TMC3    C6 5522   2.737   4.706  13.209  0.2713 -0.4185 -0.9677
  369TMC3     C 5523   3.110   4.515  13.130  0.1108 -0.0138  0.5952
  369TMC3     O 5524   3.171   4.579  13.046  0.2845  0.0342 -0.2506
  369TMC3     H 5525   2.961   4.655  12.969  2.0515  0.5229  0.5951
  369TMC3    H1 5526   2.960   4.501  13.363 -0.8439 -0.6525 -0.1048
  369TMC3    H2 5527   2.645   0.032  13.233  0.5119 -1.8526  2.9677
  369TMC3    C7 5528   2.700   4.594  13.411 -0.4581  0.2569 -0.5888
  369TMC3    C8 5529   2.808   0.103  13.017  0.3898  0.2970  0.2577
  369TMC3    O1 5530   2.581   4.609  13.385  0.0019 -0.0498 -0.9589
  369TMC3    O2 5531   2.776   0.092  12.901  0.4335 -0.7017 -0.5863
  370TMC3    C1 5532   3.583   0.363  16.493 -0.1554 -0.1328  0.4499
  370TMC3    C2 5533   3.603   0.254  16.584  0.4735 -0.0734 -0.3774
  370TMC3    C3 5534   3.595   0.124  16.542 -0.3385 -0.0689 -0.1812
  370TMC3    C4 5535   3.570   0.329  16.363  0.8212 -0.3235  0.0403
  370TMC3    C5 5536   3.551   0.196  16.325 -0.1920  0.2728  0.6208
  370TMC3    C6 5537   3.562   0.094  16.414  0.1416  0.0234 -0.5143
  370TMC3     C 5538   3.673   0.467  16.524 -0.0060  0.0047  0.0541
  370TMC3     O 5539   3.766   0.437  16.598 -0.6686  0.4872  0.0084
  370TMC3     H 5540   3.607   0.278  16.689 -1.6644 -1.0880 -0.0718
  370TMC3    H1 5541   3.583   0.400  16.283 -2.2121 -0.9512 -1.0297
  370TMC3    H2 5542   3.542   4.715  16.395 -0.0313  0.4230 -2.4513
  370TMC3    C7 5543   3.553   0.165  16.186 -0.3363 -0.0315 -0.1797
  370TMC3    C8 5544   3.644   0.019  16.628 -0.4042 -0.7702  0.3722
  370TMC3    O1 5545   3.559   0.261  16.105  0.1814 -0.4022 -0.1387
  370TMC3    O2 5546   3.597   4.634  16.607 -0.5917 -0.0108  0.3681
  371TMC3    C1 5547   4.649   3.106  15.677  0.8278 -0.9418  0.6567
  371TMC3    C2 5548   4.512   3.107  15.666  0.1898  1.0315 -0.4458
  371TMC3    C3 5549   4.459   3.234  15.638 -0.0392 -0.1057  0.7185
  371TMC3    C4 5550   4.719   3.215  15.647 -0.0533  1.0434 -0.0226
  371TMC3    C5 5551   4.664   3.329  15.597  0.6306 -0.1077 -0.0060
  371TMC3    C6 5552   4.531   3.347  15.611  0.0577  0.0708  0.5574
  371TMC3     C 5553   4.722   2.984  15.711 -0.6798 -0.1080 -0.4589
  371TMC3     O 5554   0.105   2.974  15.661  0.0692 -0.1641 -0.3070
  371TMC3     H 5555   4.445   3.022  15.678  2.1121 -0.6793 -1.6809
  371TMC3    H1 5556   0.100   3.195  15.648 -0.1948  0.3734  1.5593
  371TMC3    H2 5557   4.487   3.439  15.574  1.1563  0.8335  1.1732
  371TMC3    C7 5558   0.022   3.431  15.538  0.0449  1.1215  0.5774
  371TMC3    C8 5559   4.315   3.244  15.652  0.0382 -0.3813  0.0556
  371TMC3    O1 5560   4.700   3.544  15.529 -0.2691 -0.4283  0.3339
  371TMC3    O2 5561   4.236   3.150  15.636 -0.3912  0.0361  0.2548
  372MPD2     C 5562   3.926   4.590  13.135  0.3691  0.5369  0.2672
  372MPD2    C1 5563   3.985   4.471  13.158 -0.4755 -0.0852  0.1316
  372MPD2    C2 5564   3.915   4.368  13.210 -0.2584  0.0247  0.1256
  372MPD2    C3 5565   3.786   4.393  13.271 -0.4821 -0.8454  0.0988
  372MPD2    C4 5566   3.731   4.521  13.266 -0.0397  0.2035  0.4872
  372MPD2    C5 5567   3.804   4.615  13.192  0.2930 -1.1281 -0.7768
  372MPD2     H 5568   3.965   4.272  13.215  0.8247  0.5420 -0.8070
  372MPD2    H1 5569   3.642   4.547  13.321  0.2638 -0.4253  1.2983
  372MPD2    H2 5570   3.967   4.681  13.092 -1.7455  1.2648 -0.1913
  372MPD2    H3 5571   3.752   4.709  13.177  0.2099 -0.7953  1.5739
  372MPD2     N 5572   3.727   4.288  13.342  0.3427 -0.3612 -0.9193
  372MPD2    H5 5573   3.770   4.196  13.339  0.1297 -0.5685  1.9683
  372MPD2    N1 5574   4.128   4.453  13.126  0.0003 -0.2689 -0.8644
  372MPD2    H7 5575   4.171   4.363  13.145  0.3779 -0.2032 -1.3936
  373TMC3    C1 5576   3.566   4.173  13.476  0.7088 -1.4455 -0.0234
  373TMC3    C2 5577   3.521   4.182  13.605 -0.7110  0.4806 -0.0388
  373TMC3    C3 5578   3.496   4.067  13.673  0.4458  0.0731  0.4645
  373TMC3    C4 5579   3.595   4.052  13.419  0.4341 -0.2376  0.1823
  373TMC3    C5 5580   3.561   3.939  13.484 -0.2123  0.1212 -0.7097
  373TMC3    C6 5581   3.514   3.946  13.613 -0.0417 -0.2772 -0.7624
  373TMC3     C 5582   3.606   4.293  13.409 -0.1063 -0.7645  0.3301
  373TMC3     O 5583   3.546   4.394  13.440  0.0740 -0.7574 -0.0413
  373TMC3     H 5584   3.504   4.280  13.648  0.1920  0.0859  1.2133
  373TMC3    H1 5585   3.624   4.038  13.315 -1.6047  0.8071 -0.5194
  373TMC3    H2 5586   3.482   3.859  13.670 -0.4947  0.3291 -0.0929
  373TMC3    C7 5587   3.631   3.821  13.440 -0.6367  0.2888 -0.2236
  373TMC3    C8 5588   3.575   4.067  13.792  1.0592 -0.4451  0.2864
  373TMC3    O1 5589   3.617   3.788  13.326 -0.3981  0.1622  0.3046
  373TMC3    O2 5590   3.668   3.986  13.793  0.2376  0.3264 -0.5054
  374TMC3    C1 5591   4.125   3.996  10.361 -0.5213  0.3179  0.0290
  374TMC3    C2 5592   4.243   4.068  10.377  0.6697  0.0110  0.7742
  374TMC3    C3 5593   4.361   4.006  10.402 -0.7437  0.4913 -0.3869
  374TMC3    C4 5594   4.126   3.857  10.364 -0.5329  0.2728 -0.1166
  374TMC3    C5 5595   4.244   3.792  10.381 -0.5979  0.5266  0.0019
  374TMC3    C6 5596   4.356   3.870  10.402 -0.3525 -0.5464  0.1398
  374TMC3     C 5597   4.001   4.062  10.379  0.3002  0.2946 -1.0968
  374TMC3     O 5598   4.008   4.186  10.390 -0.0490 -0.2969 -0.7408
  374TMC3     H 5599   4.235   4.176  10.380 -0.8494 -0.0619 -0.8123
  374TMC3    H1 5600   4.036   3.796  10.353  0.8369 -1.8287  0.3883
  374TMC3    H2 5601   4.448   3.814  10.410  1.3604  2.4725  1.3842
  374TMC3    C7 5602   4.234   3.662  10.441  0.2428  0.7588  0.0949
  374TMC3    C8 5603   4.490   4.064  10.378  0.4266  0.1605 -0.3412
  374TMC3    O1 5604   4.137   3.602  10.398 -0.6582  0.6400  0.1223
  374TMC3    O2 5605   4.581   3.990  10.347 -0.0493  0.1778 -0.4246
  375MPD2     C 5606   0.282   1.121  17.212 -0.4179  0.8601  0.3104
  375MPD2    C1 5607   0.190   1.038  17.147  0.9283  0.4544  0.6123
  375MPD2    C2 5608   0.226   0.960  17.043 -0.6802 -0.3233 -1.3817
  375MPD2    C3 5609   0.351   0.976  16.981  0.4574 -0.6481 -0.1154
  375MPD2    C4 5610   0.434   1.074  17.030  0.3472 -0.2347  0.0508
  375MPD2    C5 5611   0.407   1.134  17.155  0.1228 -0.8301  0.1253
  375MPD2     H 5612   0.144   0.900  17.005 -1.8943 -1.2741  2.8008
  375MPD2    H1 5613   0.527   1.094  16.978  0.2742 -0.9244 -0.3428
  375MPD2    H2 5614   0.250   1.179  17.298 -0.8338 -1.1723  1.5118
  375MPD2    H3 5615   0.483   1.198  17.199 -0.7460 -0.2445  0.7504
  375MPD2     N 5616   0.392   0.901  16.867  0.2991  0.7131 -0.4235
  375MPD2    H5 5617   0.491   0.909  16.846  0.3252 -0.0048 -0.5681
  375MPD2    N1 5618   0.055   1.029  17.186  0.5121 -1.1666  0.1171
  375MPD2    H7 5619   4.725   0.967  17.128 -0.4873 -1.0033  0.8988
  376TMC3    C1 5620   0.379   0.742  16.683  0.1608  0.8162  0.0587
  376TMC3    C2 5621   0.507   0.704  16.701 -0.1740  1.0508 -0.5293
  376TMC3    C3 5622   0.542   0.589  16.632  0.1651 -0.3515 -0.0278
  376TMC3    C4 5623   0.300   0.706  16.578  0.3732  0.3330 -0.2885
  376TMC3    C5 5624   0.331   0.595  16.506 -0.7546 -0.3607 -0.0653
  376TMC3    C6 5625   0.453   0.538  16.533  0.3054 -0.2574  0.1660
  376TMC3     C 5626   0.310   0.823  16.786  1.0855 -0.2837 -1.3767
  376TMC3     O 5627   0.188   0.815  16.792  0.6489  0.0789  0.2595
  376TMC3     H 5628   0.559   0.733  16.792 -0.2219 -1.7297  0.3828
  376TMC3    H1 5629   0.199   0.745  16.578  0.1316 -0.2551 -2.9399
  376TMC3    H2 5630   0.485   0.454  16.472 -0.1521 -0.3523  0.0560
  376TMC3    C7 5631   0.264   0.558  16.372  0.1548 -0.3257  0.2231
  376TMC3    C8 5632   0.683   0.561  16.626  0.2752 -0.5492 -0.0971
  376TMC3    O1 5633   0.180   0.630  16.320  0.3907 -0.2247 -0.1384
  376TMC3    O2 5634   0.765   0.644  16.666  0.3270 -0.6149 -0.5224
  377MPD2     C 5635   2.208   0.262  12.400 -0.5805  0.4606 -0.2826
  377MPD2    C1 5636   2.277   0.243  12.514 -0.0639  0.3783  1.0825
  377MPD2    C2 5637   2.221   0.273  12.640  0.0648  0.0392  0.0613
  377MPD2    C3 5638   2.083   0.306  12.641  1.0785 -0.1750  0.4556
  377MPD2    C4 5639   2.016   0.326  12.520  0.6067  0.1078 -1.0675
  377MPD2    C5 5640   2.079   0.314  12.398 -0.3345  0.0611 -0.6150
  377MPD2     H 5641   2.270   0.247  12.733 -1.6034 -1.4998  0.5024
  377MPD2    H1 5642   1.918   0.373  12.521  0.5507 -0.0135 -0.8872
  377MPD2    H2 5643   2.242   0.242  12.299  0.6077 -2.8759  0.8030
  377MPD2    H3 5644   2.021   0.339  12.310  0.5853 -0.8233 -1.4739
  377MPD2     N 5645   2.013   0.341  12.761 -0.6356 -0.0936 -0.2525
  377MPD2    H5 5646   1.913   0.353  12.754 -0.4808  1.1865 -0.3486
  377MPD2    N1 5647   2.412   0.200  12.506  0.0162 -0.5268 -0.2348
  377MPD2    H7 5648   2.457   0.185  12.416 -1.6407 -0.1454 -1.1178
  378TMC3    C1 5649   2.733   0.125  12.337  0.2459  0.0644  0.0513
  378TMC3    C2 5650   2.653   0.191  12.428 -0.1973  0.6360 -0.3473
  378TMC3    C3 5651   2.629   0.139  12.557  0.4598 -0.2979  0.4682
  378TMC3    C4 5652   2.796   0.008  12.372 -0.2548  0.1143  0.5836
  378TMC3    C5 5653   2.766   4.685  12.495 -0.0973 -0.3894  0.9854
  378TMC3    C6 5654   2.691   0.025  12.594  0.7023  0.1986 -0.2535
  378TMC3     C 5655   2.648   0.122  12.225 -0.3574  0.0792  0.2534
  378TMC3     O 5656   2.528   0.125  12.260 -0.2242 -0.1296  0.1960
  378TMC3     H 5657   2.615   0.288  12.396 -2.6960 -0.0794  0.4449
  378TMC3    H1 5658   2.828   4.662  12.297  1.4903  0.0828  1.3600
  378TMC3    H2 5659   2.691   4.713  12.696  0.8542  0.9909  0.0352
  378TMC3    C7 5660   2.873   4.610  12.553  0.1418  0.2111 -0.3342
  378TMC3    C8 5661   2.501   0.173  12.607 -0.6410  0.2614 -0.2205
  378TMC3    O1 5662   2.845   4.554  12.657 -0.0423  0.3609  0.2792
  378TMC3    O2 5663   2.481   0.154  12.725  0.1804  0.4833  0.0753
  379MPD2     C 5664   3.335   2.534  16.234  0.2010 -0.4955 -0.4147
  379MPD2    C1 5665   3.439   2.466  16.172 -0.5850 -0.2426 -0.8640
  379MPD2    C2 5666   3.531   2.399  16.251 -0.5163 -0.1687 -0.1372
  379MPD2    C3 5667   3.531   2.416  16.384 -0.5112 -0.0548  0.4319
  379MPD2    C4 5668   3.437   2.493  16.444 -0.5593  0.7738  0.6840
  379MPD2    C5 5669   3.335   2.545  16.370 -0.0983  0.9186  0.8831
  379MPD2     H 5670   3.603   2.332  16.204 -1.8114 -0.6640 -1.4011
  379MPD2    H1 5671   3.440   2.519  16.549 -3.8004 -1.8524  1.4309
  379MPD2    H2 5672   3.251   2.567  16.175  1.2712  1.6281 -0.7358
  379MPD2    H3 5673   3.245   2.579  16.419 -1.2727 -2.2237  0.9071
  379MPD2     N 5674   3.635   2.368  16.464  0.2606 -0.0385  0.2253
  379MPD2    H5 5675   3.637   2.404  16.559 -0.4870 -0.8695  0.5521
  379MPD2    N1 5676   3.442   2.472  16.037 -0.2133 -0.4806 -0.0213
  379MPD2    H7 5677   3.368   2.507  15.977 -0.2107  0.9908  0.8453
  380TMC3    C1 5678   3.541   2.483  15.826  0.3290 -0.7521 -0.0286
  380TMC3    C2 5679   3.658   2.503  15.765  0.1651  0.1438  0.1597
  380TMC3    C3 5680   3.655   2.561  15.643  0.5682 -0.7565  0.1643
  380TMC3    C4 5681   3.422   2.497  15.757  0.0063 -0.1002  0.2135
  380TMC3    C5 5682   3.426   2.548  15.632 -0.4027  0.1652 -0.9930
  380TMC3    C6 5683   3.540   2.578  15.567 -0.3623  0.0282  0.1412
  380TMC3     C 5684   3.556   2.442  15.962  0.9560 -0.0208  0.3010
  380TMC3     O 5685   3.660   2.394  15.997 -0.4122 -0.1657  0.0747
  380TMC3     H 5686   3.745   2.465  15.816  0.4736  2.9122  1.6605
  380TMC3    H1 5687   3.330   2.465  15.805 -0.8684  2.4179  0.1784
  380TMC3    H2 5688   3.537   2.632  15.473  1.1612 -1.3211 -0.6864
  380TMC3    C7 5689   3.305   2.588  15.554 -0.2049 -0.5860 -0.6371
  380TMC3    C8 5690   3.780   2.615  15.592 -0.1883  0.8539 -0.0263
  380TMC3    O1 5691   3.313   2.620  15.439 -0.3258 -0.5663  0.6160
  380TMC3    O2 5692   3.773   2.654  15.478  0.0943  0.1687  0.0458
  381TMC3    C1 5693   3.721   4.071  16.392  0.0006 -0.3296 -0.0660
  381TMC3    C2 5694   3.788   4.181  16.344  0.4248 -0.9217  0.4130
  381TMC3    C3 5695   3.768   4.301  16.405  0.1974 -1.1931 -0.4123
  381TMC3    C4 5696   3.635   4.077  16.497  0.0719 -0.0903 -0.9859
  381TMC3    C5 5697   3.598   4.203  16.532  0.3489  0.0424 -0.1811
  381TMC3    C6 5698   3.667   4.315  16.501  0.0718 -0.3024 -0.4748
  381TMC3     C 5699   3.745   3.946  16.322 -0.2168 -0.5105  0.1924
  381TMC3     O 5700   3.777   3.956  16.205 -0.2831  0.1467  0.6332
  381TMC3     H 5701   3.839   4.175  16.248  0.7738  0.1685  0.5347
  381TMC3    H1 5702   3.574   3.994  16.530 -1.2817  1.0594 -0.6328
  381TMC3    H2 5703   3.641   4.416  16.532  0.6350 -0.7068  1.2890
  381TMC3    C7 5704   3.482   4.203  16.630 -0.6685  0.3516 -0.2732
  381TMC3    C8 5705   3.832   4.408  16.334 -0.4777  0.0301  0.2039
  381TMC3    O1 5706   3.397   4.113  16.620 -0.2545 -0.1085  0.3471
  381TMC3    O2 5707   3.836   4.396  16.214 -0.1420 -0.2137 -0.3877
  382MPD2     C 5708   2.258   1.909  17.094 -0.3663  0.1518  0.1004
  382MPD2    C1 5709   2.348   1.907  17.200  0.3289  0.2676  0.2938
  382MPD2    C2 5710   2.372   1.786  17.269  0.3254 -0.2096 -0.1893
  382MPD2    C3 5711   2.307   1.669  17.235 -0.4390 -0.5077 -0.3639
  382MPD2    C4 5712   2.237   1.664  17.121 -0.2470 -0.4285 -0.1298
  382MPD2    C5 5713   2.212   1.780  17.058 -0.1582 -0.0172  0.0070
  382MPD2     H 5714   2.443   1.795  17.351  0.4519 -0.8645 -0.2213
  382MPD2    H1 5715   2.182   1.581  17.079  0.2019 -1.3617  1.1173
  382MPD2    H2 5716   2.238   1.997  17.035 -1.6774 -0.3232 -0.1587
  382MPD2    H3 5717   2.153   1.767  16.968 -1.2968  1.7783  0.4948
  382MPD2     N 5718   2.323   1.556  17.304 -0.4975  0.0038  0.0855
  382MPD2    H5 5719   2.265   1.474  17.287 -1.9927  0.5042  2.7561
  382MPD2    N1 5720   2.415   2.020  17.246  0.0176  0.1297  0.1057
  382MPD2    H7 5721   2.470   2.004  17.329  1.5058 -1.6337 -1.2211
  383TMC3    C1 5722   2.398   1.403  17.463 -0.3541  0.3541  0.2761
  383TMC3    C2 5723   2.272   1.340  17.456  0.9285  0.2265  0.5342
  383TMC3    C3 5724   2.256   1.231  17.538  0.2018  0.2853 -0.6220
  383TMC3    C4 5725   2.488   1.360  17.552  0.4955 -0.5765 -0.1955
  383TMC3    C5 5726   2.461   1.256  17.639  0.0537  0.5328  0.1292
  383TMC3    C6 5727   2.350   1.181  17.622 -0.3940  0.0973 -0.6507
  383TMC3     C 5728   2.411   1.533  17.408 -0.8416 -0.6094  0.2967
  383TMC3     O 5729   2.514   1.597  17.434 -0.3162 -0.6623  0.0595
  383TMC3     H 5730   2.191   1.385  17.399  1.0840 -0.9898 -0.6673
  383TMC3    H1 5731   2.572   1.425  17.574 -0.3677 -0.1182  1.7180
  383TMC3    H2 5732   2.336   1.090  17.679  0.8520  0.1382 -0.2723
  383TMC3    C7 5733   2.560   1.234   0.034 -0.0380  0.5270 -0.4649
  383TMC3    C8 5734   2.125   1.169  17.513 -0.3924  0.0487 -0.1017
  383TMC3    O1 5735   2.676   1.271   0.015  0.0087 -0.1015 -0.2853
  383TMC3    O2 5736   2.070   1.198  17.410  0.1016  0.3806  0.1014
  384MPD2     C 5737   4.081   2.569  11.965  0.1845 -0.2942  0.0925
  384MPD2    C1 5738   4.111   2.451  12.032  0.2353  0.0893  0.1766
  384MPD2    C2 5739   4.106   2.326  11.972 -0.7574  0.1710 -0.5246
  384MPD2    C3 5740   4.074   2.309  11.840 -0.3280 -0.1155 -0.5275
  384MPD2    C4 5741   4.036   2.421  11.770  0.0369  0.1070 -0.6872
  384MPD2    C5 5742   4.046   2.546  11.832  0.2889  0.1195  0.1185
  384MPD2     H 5743   4.112   2.238  12.035  1.6845  1.2498  0.7125
  384MPD2    H1 5744   3.995   2.424  11.670  0.8071 -1.4242 -1.0505
  384MPD2    H2 5745   4.095   2.666  12.013  0.0030  1.3052 -3.1247
  384MPD2    H3 5746   4.018   2.634  11.774  0.3393  0.2202  0.2472
  384MPD2     N 5747   4.064   2.175  11.795  0.0165 -0.6804  0.0079
  384MPD2    H5 5748   4.078   2.098  11.859  0.0072 -1.9656 -1.5164
  384MPD2    N1 5749   4.135   2.436  12.171 -0.2401  0.1889 -0.0487
  384MPD2    H7 5750   4.162   2.343  12.200  0.6627  0.7462  0.9387
  385TMC3    C1 5751   3.999   1.992  11.658 -0.6571 -0.7480 -0.4548
  385TMC3    C2 5752   3.875   1.967  11.601  0.6190 -0.2157 -1.0002
  385TMC3    C3 5753   3.791   1.887  11.681 -0.1337  0.2083  0.0006
  385TMC3    C4 5754   4.047   1.933  11.765 -0.0272 -0.2178  0.0439
  385TMC3    C5 5755   3.969   1.854  11.842  0.0028  0.0777 -0.5855
  385TMC3    C6 5756   3.838   1.829  11.800 -0.3912 -0.0981  0.3290
  385TMC3     C 5757   4.016   2.138  11.668  1.2909 -0.0698 -0.4519
  385TMC3     O 5758   3.978   2.205  11.572 -0.6305  0.1789  0.3320
  385TMC3     H 5759   3.827   2.033  11.530  1.4126  0.9049 -0.4915
  385TMC3    H1 5760   4.154   1.947  11.781 -0.2191 -0.4212  1.5212
  385TMC3    H2 5761   3.774   1.765  11.860  0.6514 -0.8372  0.6643
  385TMC3    C7 5762   3.984   1.895  11.981 -0.0140  1.0560 -0.1777
  385TMC3    C8 5763   3.673   1.839  11.611 -0.3238 -0.0313 -0.2907
  385TMC3    O1 5764   4.055   1.992  11.994 -0.2022 -0.5013 -0.5120
  385TMC3    O2 5765   3.584   1.786  11.675 -0.0059  0.5030 -0.5641
  386TMC3    C1 5766   4.214   0.052  11.961 -0.3478 -0.6069 -0.1129
  386TMC3    C2 5767   4.236   0.071  11.827  0.5161  0.4831 -0.1917
  386TMC3    C3 5768   4.222   0.198  11.777  0.5032 -0.1771 -0.3895
  386TMC3    C4 5769   4.180   0.150  12.047 -0.2261 -0.0155  0.2261
  386TMC3    C5 5770   4.170   0.277  11.998 -0.5618 -0.2855  0.8841
  386TMC3    C6 5771   4.190   0.302  11.858 -0.2413  0.3631 -0.6138
  386TMC3     C 5772   4.234   4.641  12.003 -0.4504  0.2529 -0.7824
  386TMC3     O 5773   4.129   4.583  12.015  0.1802 -0.1617 -0.2191
  386TMC3     H 5774   4.270   4.711  11.769  0.4688  0.9430 -0.9000
  386TMC3    H1 5775   4.166   0.130  12.152 -0.8928 -0.8124 -0.0181
  386TMC3    H2 5776   4.176   0.405  11.827  1.6560  0.5231 -0.9519
  386TMC3    C7 5777   4.088   0.376  12.063  0.6463 -0.5662 -0.5757
  386TMC3    C8 5778   4.205   0.212  11.632 -0.0382 -0.0939 -0.1144
  386TMC3    O1 5779   4.117   0.494  12.056 -0.5760 -0.4169  0.0470
  386TMC3    O2 5780   4.186   0.323  11.584  0.3346 -0.1671 -0.3187
  387MPD2     C 5781   1.631   4.609   9.778 -0.4292 -0.3570  0.3306
  387MPD2    C1 5782   1.737   4.575   9.851  0.1569  0.7746 -0.3501
  387MPD2    C2 5783   1.792   4.454   9.832  0.0323  0.2368  0.4475
  387MPD2    C3 5784   1.742   4.357   9.742 -0.0100  0.0278 -0.5857
  387MPD2    C4 5785   1.635   4.393   9.668 -0.3316 -0.1856  0.7316
  387MPD2    C5 5786   1.589   4.514   9.682 -0.0112 -0.6496 -0.2728
  387MPD2     H 5787   1.862   4.420   9.907  1.9289  0.0054 -1.4377
  387MPD2    H1 5788   1.587   4.327   9.596 -0.6150 -1.0714  1.7272
  387MPD2    H2 5789   1.590   4.709   9.774 -2.4520 -1.1879  0.2401
  387MPD2    H3 5790   1.514   4.560   9.617  0.2382 -0.3483 -0.3478
  387MPD2     N 5791   1.795   4.225   9.752 -0.2853 -0.0112  0.4318
  387MPD2    H5 5792   1.875   4.217   9.814  0.8664  1.3607 -0.8860
  387MPD2    N1 5793   1.797   4.655   9.946  0.2932  0.5146 -0.2172
  387MPD2    H7 5794   1.882   4.617   9.985 -0.5097 -1.5385 -0.4871
  388TMC3    C1 5795   1.859   0.078  10.107 -0.1020  0.0708  0.4396
  388TMC3    C2 5796   1.894   0.211  10.127  0.3058  0.4141 -0.3532
  388TMC3    C3 5797   1.989   0.241  10.215  0.4849 -0.0752  0.0763
  388TMC3    C4 5798   1.909   4.704  10.184  0.0329 -0.7552 -0.1036
  388TMC3    C5 5799   2.008   0.008  10.274  0.2195 -0.5009 -0.2949
  388TMC3    C6 5800   2.054   0.142  10.281 -0.8030 -0.1401  0.1080
  388TMC3     C 5801   1.760   0.046  10.003 -0.1968  0.2361 -0.1860
  388TMC3     O 5802   1.687   0.131   9.957  0.4132  0.4073  0.0808
  388TMC3     H 5803   1.860   0.291  10.063 -0.6078 -0.9355 -1.5646
  388TMC3    H1 5804   1.858   4.609  10.174 -1.9681  0.3651 -0.7570
  388TMC3    H2 5805   2.129   0.156  10.358  0.0239 -1.6060 -0.4330
  388TMC3    C7 5806   2.119   4.631  10.285 -0.7085 -0.4585  0.0280
  388TMC3    C8 5807   1.974   0.382  10.267 -0.1424  0.1303  0.6559
  388TMC3    O1 5808   2.237   4.668  10.308  0.5017  0.6303  0.6084
  388TMC3    O2 5809   1.936   0.466  10.189 -0.0856  0.6925  0.0897
  389MPD2     C 5810   1.571   3.604  11.304  0.0122  0.2977 -0.2215
  389MPD2    C1 5811   1.499   3.512  11.239  0.5233 -0.1249 -0.6069
  389MPD2    C2 5812   1.427   3.414  11.301  0.5927  0.2128 -0.5985
  389MPD2    C3 5813   1.435   3.418  11.442  0.8865  0.1168  0.4000
  389MPD2    C4 5814   1.519   3.504  11.513  0.3075  0.7192 -0.0664
  389MPD2    C5 5815   1.582   3.604  11.437  0.4141 -0.4354  0.7440
  389MPD2     H 5816   1.372   3.336  11.249 -0.0472  0.5421 -0.4124
  389MPD2    H1 5817   1.525   3.511  11.621 -0.3178  3.5157 -0.2110
  389MPD2    H2 5818   1.625   3.674  11.242 -1.7427  2.0695  0.2224
  389MPD2    H3 5819   1.649   3.678  11.480 -2.3244  1.2014  2.2082
  389MPD2     N 5820   1.364   3.330  11.526  0.3006 -0.7407 -0.2868
  389MPD2    H5 5821   1.380   3.345  11.625 -0.5261 -1.4411 -0.0389
  389MPD2    N1 5822   1.520   3.519  11.102  0.2231  0.5868 -0.2494
  389MPD2    H7 5823   1.572   3.601  11.072 -0.7511  2.2137  2.5185
  390TMC3    C1 5824   1.203   3.182  11.611 -0.2450  0.8063  0.0952
  390TMC3    C2 5825   1.127   3.067  11.589 -0.0769 -0.1773  0.1064
  390TMC3    C3 5826   1.001   3.058  11.648 -0.0348  0.1344  0.0118
  390TMC3    C4 5827   1.157   3.287  11.690  0.1967 -0.3705  0.5464
  390TMC3    C5 5828   1.045   3.257  11.768  0.1495 -0.2142  0.0462
  390TMC3    C6 5829   0.966   3.149  11.747 -0.0116 -0.8575 -0.1632
  390TMC3     C 5830   1.278   3.228  11.496  0.3345  0.1061  0.3679
  390TMC3     O 5831   1.256   3.167  11.391 -0.2636 -0.1972  0.4511
  390TMC3     H 5832   1.159   2.999  11.510  2.5474  3.0137 -1.5685
  390TMC3    H1 5833   1.212   3.380  11.694  0.1885 -0.3268 -0.3874
  390TMC3    H2 5834   0.873   3.135  11.801  0.2436  1.7721  0.9155
  390TMC3    C7 5835   0.992   3.366  11.833  0.5087 -0.0442  0.0302
  390TMC3    C8 5836   0.942   2.931  11.640  0.3798  0.1828 -0.4782
  390TMC3    O1 5837   1.043   3.474  11.820  0.6820 -0.6067  0.7738
  390TMC3    O2 5838   0.939   2.879  11.530  0.0459 -0.7601  0.0748
  391MPD2     C 5839   0.168   0.013  11.714 -0.1994  0.1453  0.5428
  391MPD2    C1 5840   0.237   0.100  11.637 -0.3000 -0.9452  0.5676
  391MPD2    C2 5841   0.211   0.103  11.502  0.5430  0.0654 -0.3686
  391MPD2    C3 5842   0.123   0.018  11.442  0.5075  0.0368  0.1989
  391MPD2    C4 5843   0.056   4.655  11.520  0.3463  0.6613 -0.0829
  391MPD2    C5 5844   0.070   4.655  11.653 -0.1915  0.0593 -0.4938
  391MPD2     H 5845   0.271   0.166  11.438 -0.8584 -1.7275 -3.4376
  391MPD2    H1 5846   4.715   4.581  11.476  2.6202 -1.6476  0.3800
  391MPD2    H2 5847   0.187   4.725  11.820  1.0076 -0.5949  0.2320
  391MPD2    H3 5848   0.027   4.579  11.717  1.5008  0.0066  0.5939
  391MPD2     N 5849   0.109   0.029  11.306 -0.1241  0.1748 -0.0737
  391MPD2    H5 5850   0.178   0.094  11.269 -0.8116  0.7405 -0.3792
  391MPD2    N1 5851   0.326   0.205  11.682 -0.6610 -0.4283 -0.0043
  391MPD2    H7 5852   0.361   0.265  11.609  0.8319 -0.5545  0.6029
  392TMC3    C1 5853   0.087   4.682  11.087 -0.2711  0.9336  0.2600
  392TMC3    C2 5854   0.025   4.596  10.997 -0.4563  0.1757 -0.4514
  392TMC3    C3 5855   0.058   4.609  10.866  0.2102 -0.1648 -0.4408
  392TMC3    C4 5856   0.184   0.045  11.046 -0.5393 -0.0341  0.0035
  392TMC3    C5 5857   0.219   0.051  10.915  0.2467 -0.4750 -0.1514
  392TMC3    C6 5858   0.141   4.708  10.822  1.1588 -0.2156  0.1314
  392TMC3     C 5859   0.049   4.669  11.221  0.3442 -0.0869 -0.2767
  392TMC3     O 5860   4.706   4.572  11.247 -0.0201 -0.4017  0.8677
  392TMC3     H 5861   4.677   4.519  11.019 -0.2778  0.7342  2.1904
  392TMC3    H1 5862   0.232   0.117  11.111 -1.0097 -0.3985  0.7589
  392TMC3    H2 5863   0.151   0.007  10.717 -1.1595  1.1524  0.2502
  392TMC3    C7 5864   0.310   0.155  10.875 -0.3865 -0.5101  0.3094
  392TMC3    C8 5865   0.001   4.524  10.765 -0.9395 -0.0250 -0.5621
  392TMC3    O1 5866   0.333   0.246  10.960  0.2364  0.2749  0.2150
  392TMC3    O2 5867   4.615   4.482  10.791 -0.3468  0.4714 -0.2000
  393TMC3    C1 5868   4.607   2.854  10.630 -0.3029 -0.2344  0.1656
  393TMC3    C2 5869   4.570   2.851  10.763 -0.0049  0.0113 -0.6379
  393TMC3    C3 5870   4.544   2.727  10.817  0.3147  0.1251  0.2204
  393TMC3    C4 5871   4.631   2.740  10.564  0.2789  0.5331  0.0625
  393TMC3    C5 5872   4.601   2.624  10.625 -0.2034  0.3105 -0.5871
  393TMC3    C6 5873   4.554   2.613  10.745  0.7434 -0.5250  0.6910
  393TMC3     C 5874   4.566   2.971  10.544  0.0648 -0.4948 -0.0605
  393TMC3     O 5875   4.517   2.943  10.440  0.0116  0.1252 -0.4439
  393TMC3     H 5876   4.559   2.943  10.820  0.1475 -0.4899  0.1916
  393TMC3    H1 5877   4.658   2.741  10.459 -1.0319 -2.4773 -0.2783
  393TMC3    H2 5878   4.522   2.518  10.786 -2.8604  0.8950  1.2030
  393TMC3    C7 5879   4.611   2.503  10.551  0.1760 -0.2494 -0.0567
  393TMC3    C8 5880   4.472   2.712  10.943 -0.3096  0.4100  0.9682
  393TMC3    O1 5881   4.544   2.410  10.585 -0.1769 -0.7209 -0.6279
  393TMC3    O2 5882   4.408   2.613  10.970 -0.6204 -0.0645 -0.4718
  394TMC3    C1 5883   1.511   3.506  10.867  0.4139 -0.3079 -0.7550
  394TMC3    C2 5884   1.428   3.518  10.760  0.0274  0.0191 -1.3076
  394TMC3    C3 5885   1.463   3.603  10.661  0.0462  0.7677  0.9016
  394TMC3    C4 5886   1.641   3.547  10.861  0.3119 -0.6763 -0.6160
  394TMC3    C5 5887   1.673   3.623  10.761 -0.3936  0.1437  0.7566
  394TMC3    C6 5888   1.591   3.652  10.652  0.6353  0.1716  0.4435
  394TMC3     C 5889   1.467   3.448  10.995 -0.4780  0.7395  0.1982
  394TMC3     O 5890   1.368   3.375  10.993  0.5686  0.8088  0.4919
  394TMC3     H 5891   1.326   3.483  10.766 -0.4478  1.1789 -2.4649
  394TMC3    H1 5892   1.704   3.552  10.949 -1.9523 -0.5145  1.0091
  394TMC3    H2 5893   1.619   3.691  10.555  1.7514 -0.2459  0.6063
  394TMC3    C7 5894   1.818   3.638  10.736 -0.0620 -0.1582 -0.4781
  394TMC3    C8 5895   1.417   3.589  10.525  0.1785  0.2131  0.2239
  394TMC3    O1 5896   1.844   3.722  10.648  0.2689 -0.0013 -0.3672
  394TMC3    O2 5897   1.417   3.688  10.452  0.9823  0.0293  0.4537
  395TMC3    C1 5898   1.276   0.772  14.486 -0.3143  0.2749 -0.4137
  395TMC3    C2 5899   1.139   0.808  14.496  0.5543  0.1478 -0.3977
  395TMC3    C3 5900   1.107   0.926  14.555  0.1126 -0.3111  0.2936
  395TMC3    C4 5901   1.373   0.861  14.515 -0.1760 -0.1763 -0.2237
  395TMC3    C5 5902   1.335   0.977  14.565  0.4975 -0.7135 -0.3775
  395TMC3    C6 5903   1.207   1.011  14.581 -0.0404 -0.2888  0.2789
  395TMC3     C 5904   1.319   0.639  14.507  0.9363 -0.4209  0.6399
  395TMC3     O 5905   1.420   0.621  14.575 -0.0645  0.2123  0.5705
  395TMC3     H 5906   1.064   0.732  14.475  0.0088  0.4999  0.2640
  395TMC3    H1 5907   1.478   0.838  14.508 -0.3200 -0.9222  0.1097
  395TMC3    H2 5908   1.183   1.106  14.629 -0.8826 -0.3451 -0.0356
  395TMC3    C7 5909   1.427   1.065  14.626 -0.2434 -0.0249  0.1408
  395TMC3    C8 5910   1.005   0.924  14.651  0.1016 -0.2869  0.2969
  395TMC3    O1 5911   1.391   1.109  14.735 -0.8990 -0.2339  0.0777
  395TMC3    O2 5912   1.036   0.968  14.761  0.5402 -0.6343 -0.4424
  396MPD2     C 5913   0.297   1.880  17.434  0.6336 -0.2192  0.7264
  396MPD2    C1 5914   0.420   1.841  17.391  0.8730 -0.6045 -0.3324
  396MPD2    C2 5915   0.478   1.898  17.278 -0.4441  0.1345 -0.5704
  396MPD2    C3 5916   0.419   2.005  17.221  0.1819  0.9438  0.2837
  396MPD2    C4 5917   0.307   2.059  17.278 -0.1723 -0.2888  0.5698
  396MPD2    C5 5918   0.245   1.994  17.375  0.3964  0.9207  0.4222
  396MPD2     H 5919   0.560   1.857  17.220 -0.2735 -2.3909  1.4148
  396MPD2    H1 5920   0.258   2.147  17.237  1.3424  0.9984  1.5194
  396MPD2    H2 5921   0.249   1.831  17.517 -1.9048 -2.2066 -1.9376
  396MPD2    H3 5922   0.150   2.033  17.410  0.1597  2.5133 -2.0224
  396MPD2     N 5923   0.474   2.054  17.098 -0.0982 -0.3831  0.9804
  396MPD2    H5 5924   0.563   2.017  17.067 -0.1151 -0.2024  0.7102
  396MPD2    N1 5925   0.490   1.749  17.473 -0.6706 -0.0380  0.2363
  396MPD2    H7 5926   0.446   1.719  17.560 -0.7277  0.1621  0.2750
  397TMC3    C1 5927   0.679   1.621  17.546 -0.0923 -0.2881 -0.5929
  397TMC3    C2 5928   0.809   1.582  17.534 -0.4058 -0.4885 -0.3245
  397TMC3    C3 5929   0.851   1.459  17.571  0.6028  0.0632  0.1928
  397TMC3    C4 5930   0.584   1.534  17.591  0.2289  0.5097 -0.8980
  397TMC3    C5 5931   0.625   1.412  17.633 -0.8768  0.6425  0.2619
  397TMC3    C6 5932   0.762   1.372  17.637 -0.0421 -0.1109  1.1767
  397TMC3     C 5933   0.625   1.718  17.460 -0.9282  0.8141 -0.0052
  397TMC3     O 5934   0.698   1.742  17.364 -0.2700  0.2151  0.7813
  397TMC3     H 5935   0.864   1.653  17.474 -0.2593 -0.5975 -0.3170
  397TMC3    H1 5936   0.477   1.543  17.575 -0.0200  0.3267  0.6775
  397TMC3    H2 5937   0.782   1.266  17.637 -0.0198 -0.0899 -1.5261
  397TMC3    C7 5938   0.523   1.304  17.632  0.4848 -0.3016  0.0628
  397TMC3    C8 5939   0.957   1.393  17.499  0.4154  0.0398 -0.3856
  397TMC3    O1 5940   0.446   1.290  17.537  0.1799  0.5171  0.3189
  397TMC3    O2 5941   0.946   1.274  17.481 -0.2496 -0.3488 -0.2912
  398MPD2     C 5942   3.304   2.062   0.453  0.9149  0.4678  0.5803
  398MPD2    C1 5943   3.431   2.020   0.472  0.6147  1.6577 -0.1688
  398MPD2    C2 5944   3.531   2.104   0.450  0.2503 -0.6513  0.3830
  398MPD2    C3 5945   3.501   2.239   0.417  0.1251 -0.9422 -0.1573
  398MPD2    C4 5946   3.374   2.280   0.387 -0.3695 -0.2308  0.3364
  398MPD2    C5 5947   3.273   2.190   0.404  0.1535 -0.9873 -0.5177
  398MPD2     H 5948   3.633   2.078   0.477 -0.1445 -2.1425  0.4190
  398MPD2    H1 5949   3.357   2.376   0.339  0.2627 -0.2499  0.0720
  398MPD2    H2 5950   3.222   1.993   0.470 -0.6567  1.8869 -1.3143
  398MPD2    H3 5951   3.174   2.227   0.379 -0.1297 -1.1155  0.3958
  398MPD2     N 5952   3.612   2.332   0.413 -0.3843  0.2959  0.2695
  398MPD2    H5 5953   3.704   2.299   0.439  0.2088  1.1355 -0.7862
  398MPD2    N1 5954   3.469   1.892   0.528  0.3300  0.5958 -0.3422
  398MPD2    H7 5955   3.568   1.873   0.538 -0.0641 -1.3688 -0.1184
  399TMC3    C1 5956   3.459   1.685   0.612  0.0567 -0.2051  0.7605
  399TMC3    C2 5957   3.567   1.712   0.688  0.3218 -0.4208  0.1207
  399TMC3    C3 5958   3.649   1.609   0.721 -0.4698  0.8018 -0.1217
  399TMC3    C4 5959   3.409   1.564   0.588 -0.3734  0.4448  0.9796
  399TMC3    C5 5960   3.498   1.466   0.623 -0.4503  0.1727 -0.5774
  399TMC3    C6 5961   3.613   1.484   0.682  0.1495  0.2937 -0.1975
  399TMC3     C 5962   3.389   1.790   0.548  0.3008 -0.2988 -0.5029
  399TMC3     O 5963   3.265   1.778   0.543 -0.0114 -0.5134 -0.1272
  399TMC3     H 5964   3.594   1.810   0.727 -0.6753 -0.3998  0.7491
  399TMC3    H1 5965   3.319   1.554   0.528  0.8072 -0.2043 -0.6819
  399TMC3    H2 5966   3.668   1.396   0.714  0.5320  1.3238  1.9056
  399TMC3    C7 5967   3.480   1.323   0.579  0.0115 -0.3728 -0.1679
  399TMC3    C8 5968   3.764   1.640   0.809  0.1184  0.4687 -0.1004
  399TMC3    O1 5969   3.576   1.251   0.543  0.3358 -0.2235  0.1632
  399TMC3    O2 5970   3.786   1.760   0.828  0.2918  0.3140 -0.4262
  400TMC3    C1 5971   2.160   0.878  17.277 -0.3984  0.0641  0.3746
  400TMC3    C2 5972   2.079   0.770  17.270 -0.4118  0.6095 -0.1159
  400TMC3    C3 5973   1.989   0.763  17.170 -0.5437  0.0569 -0.2876
  400TMC3    C4 5974   2.131   0.991  17.204  0.4210 -0.2416  0.6229
  400TMC3    C5 5975   2.023   0.985  17.121  0.0044  0.0461  1.4733
  400TMC3    C6 5976   1.948   0.877  17.103  0.0837  0.3138 -0.6614
  400TMC3     C 5977   2.277   0.876  17.357  0.1153  0.9111  0.3710
  400TMC3     O 5978   2.293   0.792  17.443  0.3259  0.2984  0.3683
  400TMC3     H 5979   2.103   0.689  17.339  1.0202 -0.7071 -2.1294
  400TMC3    H1 5980   2.193   1.080  17.205 -4.0246  2.8483  3.0847
  400TMC3    H2 5981   1.863   0.887  17.035 -0.2590 -0.1907 -0.3043
  400TMC3    C7 5982   1.980   1.111  17.061  0.3469  0.6243  0.8841
  400TMC3    C8 5983   1.901   0.647  17.168  0.0737  0.6466  0.1872
  400TMC3    O1 5984   1.907   1.107  16.960  0.0557  1.1514  0.1422
  400TMC3    O2 5985   1.917   0.558  17.256  0.2738 -0.4413 -0.0809
  401MPD2     C 5986   0.171   4.549   0.945  0.3864  0.0241 -0.5893
  401MPD2    C1 5987   0.257   4.465   1.020 -0.1231  0.5633  0.4587
  401MPD2    C2 5988   0.302   4.349   0.948  0.1093  0.2218 -0.4881
  401MPD2    C3 5989   0.264   4.316   0.819 -0.6630  0.3033 -0.8397
  401MPD2    C4 5990   0.181   4.406   0.752 -0.1861 -0.0608  0.0262
  401MPD2    C5 5991   0.134   4.518   0.815 -0.1171  0.2552 -0.2787
  401MPD2     H 5992   0.357   4.272   1.001 -0.5118  0.0017 -0.1626
  401MPD2    H1 5993   0.160   4.380   0.649 -0.6571  1.0684 -0.1622
  401MPD2    H2 5994   0.121   4.636   0.986  0.5484  0.0348 -0.4105
  401MPD2    H3 5995   0.055   4.575   0.768  0.2709 -0.7043 -2.0894
  401MPD2     N 5996   0.310   4.191   0.769  0.2861 -0.2662 -0.4091
  401MPD2    H5 5997   0.373   4.139   0.829 -0.8227 -1.7504 -0.5330
  401MPD2    N1 5998   0.297   4.487   1.151  0.1629 -0.1427  0.0403
  401MPD2    H7 5999   0.368   4.426   1.190  0.5304 -0.1276 -0.6041
  402TMC3    C1 6000   0.400   4.051   0.608 -0.1459  0.1978  0.3099
  402TMC3    C2 6001   0.391   3.938   0.684 -0.3658  0.1922 -0.1763
  402TMC3    C3 6002   0.502   3.858   0.681  0.2602 -0.7288 -0.6462
  402TMC3    C4 6003   0.504   4.087   0.529 -0.3673  0.0670 -0.0688
  402TMC3    C5 6004   0.607   3.998   0.530  0.1979  0.2761  0.8507
  402TMC3    C6 6005   0.607   3.886   0.602  0.0894 -0.2778 -0.2398
  402TMC3     C 6006   0.303   4.154   0.636  0.0795 -0.3135  0.4387
  402TMC3     O 6007   0.246   4.208   0.540 -0.2094  0.1770 -0.8145
  402TMC3     H 6008   0.301   3.910   0.739 -1.2890 -0.0073 -1.8003
  402TMC3    H1 6009   0.505   4.174   0.465  1.5280  0.7423  0.8829
  402TMC3    H2 6010   0.683   3.808   0.602  0.1450 -0.2199 -0.8946
  402TMC3    C7 6011   0.727   4.040   0.461 -0.6432 -0.3960  0.7721
  402TMC3    C8 6012   0.528   3.749   0.779 -0.4589  0.1882 -0.4691
  402TMC3    O1 6013   0.729   4.151   0.406 -0.1226  0.0782 -0.1266
  402TMC3    O2 6014   0.580   3.643   0.742 -0.2641  0.2463 -0.0390
  403MPD2     C 6015   3.681   2.343  14.024 -0.2567  0.5885  0.3234
  403MPD2    C1 6016   3.712   2.386  13.894 -0.4629 -0.4489 -0.3380
  403MPD2    C2 6017   3.832   2.340  13.843  0.1319  0.0689 -0.0992
  403MPD2    C3 6018   3.924   2.274  13.930 -0.6984 -0.6520  0.3627
  403MPD2    C4 6019   3.881   2.228  14.055 -0.4760 -0.4119  0.2927
  403MPD2    C5 6020   3.758   2.262  14.098 -0.5960  0.0701  0.0204
  403MPD2     H 6021   3.867   2.352  13.741  3.2301 -1.5193  0.7842
  403MPD2    H1 6022   3.948   2.163  14.110 -0.7257 -0.8924  0.0273
  403MPD2    H2 6023   3.591   2.371  14.079  1.5745  0.2178  3.5418
  403MPD2    H3 6024   3.724   2.228  14.195  1.1088 -0.3910  0.4474
  403MPD2     N 6025   4.060   2.252  13.881  0.3804  0.6968  0.5823
  403MPD2    H5 6026   4.085   2.292  13.792  1.9257  0.1089  0.7597
  403MPD2    N1 6027   3.603   2.439  13.822  0.2959 -0.0611 -0.5159
  403MPD2    H7 6028   3.522   2.462  13.877 -0.1837  0.3772 -1.4066
  404TMC3    C1 6029   3.484   2.447  13.621  0.4309  1.0695 -0.6904
  404TMC3    C2 6030   3.386   2.373  13.682 -0.1281 -0.2642  0.2815
  404TMC3    C3 6031   3.318   2.275  13.622  0.0842  0.1203 -0.0945
  404TMC3    C4 6032   3.504   2.416  13.485 -0.3021 -0.9499 -0.1343
  404TMC3    C5 6033   3.444   2.307  13.430  0.1198 -0.0823  0.3516
  404TMC3    C6 6034   3.346   2.235  13.496  0.4287 -0.1581 -0.5914
  404TMC3     C 6035   3.612   2.448  13.686 -0.5289  0.3888  0.2758
  404TMC3     O 6036   3.714   2.466  13.620 -0.3006  0.3005 -0.5245
  404TMC3     H 6037   3.351   2.412  13.778 -2.4713 -0.1000 -0.6362
  404TMC3    H1 6038   3.571   2.477  13.426  0.9806 -1.3011  0.9532
  404TMC3    H2 6039   3.296   2.146  13.458 -0.2902 -0.0125  0.0242
  404TMC3    C7 6040   3.504   2.258  13.304 -0.0318 -0.5140 -0.3445
  404TMC3    C8 6041   3.281   2.167  13.713  0.3022  0.1213  0.6100
  404TMC3    O1 6042   3.603   2.313  13.262 -0.6081  0.1607 -0.2672
  404TMC3    O2 6043   3.328   2.060  13.673  0.2157 -0.0290  0.0046
  405MPD2     C 6044   4.458   3.508  14.605  0.3692 -0.0054  0.4810
  405MPD2    C1 6045   4.437   3.484  14.472  0.1403  0.9284 -0.0761
  405MPD2    C2 6046   4.348   3.558  14.393 -0.5691 -0.1369  0.8914
  405MPD2    C3 6047   4.286   3.665  14.460 -0.3248 -0.1405 -0.1184
  405MPD2    C4 6048   4.306   3.688  14.597  0.1013  0.3033 -0.5121
  405MPD2    C5 6049   4.395   3.614  14.670 -0.0424 -0.2359 -0.1038
  405MPD2     H 6050   4.326   3.542  14.289  0.0254  2.2308  0.4092
  405MPD2    H1 6051   4.256   3.772  14.643 -0.4727 -1.1347  1.4815
  405MPD2    H2 6052   4.537   3.456  14.658 -0.8380 -2.5408 -0.1982
  405MPD2    H3 6053   4.406   3.646  14.773 -1.9016  0.3731 -0.0816
  405MPD2     N 6054   4.192   3.733  14.380  0.3733 -0.0594 -0.3541
  405MPD2    H5 6055   4.195   3.714  14.280 -1.1369 -1.9734 -0.0435
  405MPD2    N1 6056   4.503   3.368  14.422 -0.2342 -0.3412 -0.8298
  405MPD2    H7 6057   4.563   3.315  14.484 -0.3665  0.7958  0.2577
  406TMC3    C1 6058   3.790   3.907  14.237 -0.5899 -0.4852 -0.5399
  406TMC3    C2 6059   3.788   3.820  14.132 -0.7447 -0.1759  0.5823
  406TMC3    C3 6060   3.893   3.727  14.133 -0.2541  0.4765 -1.0830
  406TMC3    C4 6061   3.887   3.911  14.331 -0.5261  0.2385  0.3153
  406TMC3    C5 6062   3.976   3.808  14.328 -0.9238 -0.1396 -0.1463
  406TMC3    C6 6063   3.976   3.706  14.240 -0.0608  0.3231  0.4268
  406TMC3     C 6064   3.662   3.960  14.279 -0.1510 -0.5554  1.0258
  406TMC3     O 6065   3.657   4.064  14.344  0.0425  0.0035  0.3459
  406TMC3     H 6066   3.707   3.812  14.060  0.0361  0.1594 -0.3369
  406TMC3    H1 6067   3.881   3.996  14.398 -1.0095 -0.3618  1.0309
  406TMC3    H2 6068   4.043   3.621  14.241 -2.5794 -1.6531 -0.2415
  406TMC3    C7 6069   4.093   3.814  14.421  0.1998 -0.4255  0.7279
  406TMC3    C8 6070   3.882   3.617  14.039  0.9382 -0.6820 -0.5592
  406TMC3    O1 6071   4.078   3.865  14.531 -0.5760  0.2575 -0.3018
  406TMC3    O2 6072   3.785   3.591  13.971  0.1164 -0.0151  0.1694
  407MPD2     C 6073   1.155   4.223   9.629  0.5827 -0.5640 -0.0238
  407MPD2    C1 6074   1.295   4.196   9.646 -0.0443  0.1090  0.1677
  407MPD2    C2 6075   1.363   4.248   9.756 -0.4931  0.5366 -0.6080
  407MPD2    C3 6076   1.296   4.319   9.849 -0.0447 -0.0180 -0.5771
  407MPD2    C4 6077   1.164   4.347   9.831  0.0748 -0.0214 -0.1417
  407MPD2    C5 6078   1.094   4.305   9.720  0.0958 -0.3294  0.1623
  407MPD2     H 6079   1.468   4.224   9.768 -0.8139 -1.1371 -1.0247
  407MPD2    H1 6080   1.109   4.406   9.903 -1.3415 -0.0651 -1.2078
  407MPD2    H2 6081   1.111   4.200   9.532  0.5129  0.3429 -0.2085
  407MPD2    H3 6082   0.991   4.339   9.716  0.6106  1.4742  2.2631
  407MPD2     N 6083   1.357   4.391   9.948  0.3896  0.0809 -0.2616
  407MPD2    H5 6084   1.312   4.470   9.992  0.3698 -0.6880  1.1086
  407MPD2    N1 6085   1.375   4.130   9.553  0.2105 -0.2111 -0.0947
  407MPD2    H7 6086   1.474   4.124   9.576  0.2842 -2.3659 -0.9979
  408TMC3    C1 6087   1.457   4.044   9.360  0.2692 -0.2948 -0.2284
  408TMC3    C2 6088   1.488   3.921   9.314  0.3641  0.0667 -0.1819
  408TMC3    C3 6089   1.603   3.905   9.239 -0.0384 -0.4939  0.3805
  408TMC3    C4 6090   1.535   4.155   9.342 -0.0204  0.4035 -0.5732
  408TMC3    C5 6091   1.646   4.136   9.264  0.3767 -0.2044 -0.2269
  408TMC3    C6 6092   1.676   4.019   9.208 -0.7762  0.3068 -0.3220
  408TMC3     C 6093   1.333   4.069   9.437 -0.0799  0.2267 -0.0277
  408TMC3     O 6094   1.223   4.029   9.408 -0.3010  0.1475  0.3446
  408TMC3     H 6095   1.443   3.830   9.351  1.9073 -0.7869 -0.4035
  408TMC3    H1 6096   1.509   4.255   9.377 -0.1140  0.3727 -0.5557
  408TMC3    H2 6097   1.760   4.012   9.140 -1.6613 -2.0620 -1.1711
  408TMC3    C7 6098   1.769   4.209   9.305 -0.2038 -0.2059 -0.7082
  408TMC3    C8 6099   1.689   3.807   9.295  0.6401  1.1631 -0.2082
  408TMC3    O1 6100   1.870   4.143   9.295 -0.2531 -0.9967  0.0671
  408TMC3    O2 6101   1.642   3.697   9.315  0.5716 -0.1323  0.2228
  409MPD2     C 6102   1.157   0.131  17.033  0.1888 -0.0707  0.1882
  409MPD2    C1 6103   1.230   0.176  17.140 -0.2029 -0.2279  0.1078
  409MPD2    C2 6104   1.280   0.304  17.139 -0.3421  0.1697 -0.3943
  409MPD2    C3 6105   1.270   0.393  17.028  0.1063  0.3089 -0.0140
  409MPD2    C4 6106   1.209   0.348  16.917 -1.2575  0.2284  0.1057
  409MPD2    C5 6107   1.149   0.222  16.925  0.1028 -0.1869 -0.5986
  409MPD2     H 6108   1.341   0.333  17.224 -1.0642  1.0231 -0.1591
  409MPD2    H1 6109   1.189   0.404  16.827  0.1200 -1.2201 -1.1004
  409MPD2    H2 6110   1.094   0.044  17.039  0.1322  0.1333  2.5079
  409MPD2    H3 6111   1.072   0.194  16.854 -1.9375  1.8303  0.8255
  409MPD2     N 6112   1.328   0.525  17.033  0.0501 -0.2806 -0.1451
  409MPD2    H5 6113   1.332   0.579  16.947 -1.7373 -0.6485 -0.4550
  409MPD2    N1 6114   1.246   0.101  17.258  0.3353  0.4859 -0.1588
  409MPD2    H7 6115   1.309   0.136  17.330 -1.2196 -0.2262  1.5541
  410TMC3    C1 6116   1.453   0.703  17.109  0.5244  0.5347  0.2811
  410TMC3    C2 6117   1.506   0.781  17.213 -0.6138 -0.3834 -0.6777
  410TMC3    C3 6118   1.585   0.879  17.183 -0.5280  0.3990 -0.0185
  410TMC3    C4 6119   1.483   0.731  16.976  0.2140 -0.1120 -0.0008
  410TMC3    C5 6120   1.552   0.849  16.949  0.0783 -0.8897 -0.0938
  410TMC3    C6 6121   1.609   0.921  17.055  0.7544 -0.0052  0.3940
  410TMC3     C 6122   1.395   0.577  17.140  0.4220 -0.4258 -0.8574
  410TMC3     O 6123   1.386   0.545  17.259  0.1253 -0.2655 -0.1003
  410TMC3     H 6124   1.471   0.762  17.314  0.5913 -2.4638 -0.6631
  410TMC3    H1 6125   1.455   0.667  16.893 -1.3097  0.0367  0.3897
  410TMC3    H2 6126   1.676   1.005  17.044  0.3971  0.1312 -0.8291
  410TMC3    C7 6127   1.587   0.874  16.807 -0.1492 -0.1770 -0.1560
  410TMC3    C8 6128   1.671   0.939  17.284  0.2027  0.1562 -0.8619
  410TMC3    O1 6129   1.579   0.778  16.729  0.0334 -0.1379  0.0392
  410TMC3    O2 6130   1.724   1.043  17.252  0.0131  0.1806  0.0964
  411MPD2     C 6131   1.861   1.898  14.777 -0.2500  0.3824 -0.6956
  411MPD2    C1 6132   1.737   1.890  14.840 -0.3711  0.1015  0.2162
  411MPD2    C2 6133   1.649   1.784  14.819 -0.9855  0.1675 -0.0448
  411MPD2    C3 6134   1.675   1.697  14.720  0.1134 -0.0605 -0.4223
  411MPD2    C4 6135   1.793   1.711  14.652 -0.7806 -0.2162  0.5845
  411MPD2    C5 6136   1.887   1.800  14.688  0.5748 -0.5458  0.2568
  411MPD2     H 6137   1.556   1.780  14.875 -1.2894  0.1963 -0.5468
  411MPD2    H1 6138   1.818   1.633  14.581  0.2612  1.5687 -1.0086
  411MPD2    H2 6139   1.934   1.978  14.790 -1.6798  1.8744 -1.7283
  411MPD2    H3 6140   1.977   1.804  14.628  0.1405 -1.2392 -0.4336
  411MPD2     N 6141   1.589   1.599  14.673 -0.4768 -0.3354  0.1459
  411MPD2    H5 6142   1.615   1.546  14.590 -1.4339 -0.5510 -0.0283
  411MPD2    N1 6143   1.696   1.996  14.920 -0.4818 -0.2611  0.1076
  411MPD2    H7 6144   1.728   2.086  14.886 -2.9639  0.8174  0.6098
  412TMC3    C1 6145   1.384   1.475  14.639 -0.3020  0.6380  0.2212
  412TMC3    C2 6146   1.261   1.438  14.683 -0.0359 -0.1407 -0.1914
  412TMC3    C3 6147   1.174   1.369  14.590 -0.7307  0.6322 -0.2583
  412TMC3    C4 6148   1.425   1.454  14.506 -0.1368  0.0456 -0.1760
  412TMC3    C5 6149   1.334   1.400  14.429 -0.8617 -0.6737  0.4714
  412TMC3    C6 6150   1.216   1.338  14.466 -0.9010 -0.2110 -0.1894
  412TMC3     C 6151   1.468   1.555  14.730  0.3338  0.6087  0.5168
  412TMC3     O 6152   1.416   1.599  14.834  0.3967 -0.9435 -0.5624
  412TMC3     H 6153   1.231   1.444  14.787 -1.7070 -0.3307 -0.6567
  412TMC3    H1 6154   1.511   1.506  14.464  0.4516  0.8347  1.9839
  412TMC3    H2 6155   1.149   1.294  14.392 -0.0600  0.6380 -1.4557
  412TMC3    C7 6156   1.332   1.432  14.288 -0.5586 -0.6412 -0.1268
  412TMC3    C8 6157   1.035   1.427  14.578 -0.2227  0.1470  0.0402
  412TMC3    O1 6158   1.436   1.475  14.241 -0.4230  0.5950  0.2076
  412TMC3    O2 6159   1.010   1.496  14.478  0.0138 -0.5318  0.0451
  413MPD2     C 6160   2.993   3.684  15.831  0.1789  0.0412  0.1442
  413MPD2    C1 6161   2.961   3.760  15.726  0.2432  0.0932 -0.1088
  413MPD2    C2 6162   3.058   3.789  15.628  0.5028 -0.2584 -0.3007
  413MPD2    C3 6163   3.192   3.739  15.642  0.0706 -0.9661  0.5395
  413MPD2    C4 6164   3.220   3.661  15.752 -0.2492  0.3674  0.2625
  413MPD2    C5 6165   3.124   3.640  15.843 -0.2006  0.2007  0.7641
  413MPD2     H 6166   3.030   3.847  15.541  1.1153 -2.0876 -1.7115
  413MPD2    H1 6167   3.317   3.614  15.760 -0.8363 -0.4659  2.4936
  413MPD2    H2 6168   2.927   3.653  15.912  1.9191 -0.7793  1.2390
  413MPD2    H3 6169   3.135   3.573  15.927  1.2388 -0.4534  0.0395
  413MPD2     N 6170   3.280   3.774  15.538 -0.3617 -0.4430 -0.6829
  413MPD2    H5 6171   3.240   3.809  15.452 -1.5142  0.0115  0.0336
  413MPD2    N1 6172   2.830   3.808  15.705 -0.0728  0.2836  0.2133
  413MPD2    H7 6173   2.811   3.862  15.621  0.4721  0.1685  0.0180
  414TMC3    C1 6174   3.477   3.777  15.403  0.9327 -0.5588 -0.6373
  414TMC3    C2 6175   3.608   3.737  15.386  1.3183 -0.6942 -0.4204
  414TMC3    C3 6176   3.644   3.694  15.262 -0.9589 -0.2420 -0.6718
  414TMC3    C4 6177   3.399   3.807  15.296 -0.8724 -0.0362 -0.5540
  414TMC3    C5 6178   3.446   3.773  15.170  0.3092  0.0569  0.5099
  414TMC3    C6 6179   3.556   3.697  15.151 -0.1693 -0.2517 -0.5392
  414TMC3     C 6180   3.415   3.741  15.533 -0.0976 -0.4363 -1.2955
  414TMC3     O 6181   3.488   3.707  15.623 -0.2499  0.1586  0.0464
  414TMC3     H 6182   3.672   3.719  15.472  0.3187  0.1071  0.5021
  414TMC3    H1 6183   3.312   3.872  15.305  0.1816  0.9359  2.5033
  414TMC3    H2 6184   3.586   3.670  15.050 -0.1859  1.1027 -0.9027
  414TMC3    C7 6185   3.359   3.801  15.059 -0.2872 -0.1421  0.3430
  414TMC3    C8 6186   3.782   3.673  15.224 -0.1327 -0.3724 -0.5273
  414TMC3    O1 6187   3.243   3.811  15.093 -0.2747 -0.1530  0.1951
  414TMC3    O2 6188   3.803   3.619  15.114  0.6459 -0.2669  0.1656
  415TMC3    C1 6189   3.446   1.886  10.424 -0.1838  0.5829 -0.9385
  415TMC3    C2 6190   3.555   1.945  10.369 -0.0751  0.4947 -0.3601
  415TMC3    C3 6191   3.568   1.948  10.233 -0.5253 -0.0954  0.2610
  415TMC3    C4 6192   3.336   1.850  10.351 -0.5171  0.4555 -0.1505
  415TMC3    C5 6193   3.357   1.842  10.215  0.1504 -0.0836  0.0148
  415TMC3    C6 6194   3.471   1.895  10.154  0.3253 -0.3315  0.0831
  415TMC3     C 6195   3.414   1.890  10.569  0.4333 -0.2914 -0.5214
  415TMC3     O 6196   3.325   1.814  10.611 -0.1709  0.6259 -0.4618
  415TMC3     H 6197   3.640   1.938  10.436 -0.7957 -1.5536  0.3431
  415TMC3    H1 6198   3.250   1.810  10.403 -0.4143 -1.5274 -1.4908
  415TMC3    H2 6199   3.483   1.904  10.047 -1.4194  1.1138  0.0134
  415TMC3    C7 6200   3.261   1.783  10.126  0.0056  0.1507 -0.5620
  415TMC3    C8 6201   3.672   2.027  10.174  0.1474 -0.2768  0.2541
  415TMC3    O1 6202   3.293   1.737  10.016  0.3898 -0.2252 -0.6566
  415TMC3    O2 6203   3.691   2.014  10.056  0.1722 -0.1675 -0.4271
  416MPD2     C 6204   0.624   1.245  11.415  0.2713  0.2200  0.2818
  416MPD2    C1 6205   0.491   1.272  11.416 -0.5363 -0.3457  0.5313
  416MPD2    C2 6206   0.403   1.197  11.328 -0.0194  0.1981 -0.2890
  416MPD2    C3 6207   0.461   1.103  11.248  0.6694  0.2277 -0.5784
  416MPD2    C4 6208   0.598   1.081  11.254  0.1376 -0.7235  0.3584
  416MPD2    C5 6209   0.676   1.155  11.334  0.4258 -0.2707 -0.6946
  416MPD2     H 6210   0.295   1.206  11.326 -0.0887 -0.6914 -0.3555
  416MPD2    H1 6211   0.650   1.030  11.175 -1.5017 -0.1124 -1.1131
  416MPD2    H2 6212   0.684   1.298  11.488  0.7678  0.2838 -0.1640
  416MPD2    H3 6213   0.783   1.136  11.343  0.1670 -1.5649 -0.4225
  416MPD2     N 6214   0.387   1.009  11.173  0.1497 -0.2084  0.6241
  416MPD2    H5 6215   0.442   0.929  11.144 -1.2679 -2.1324  3.2426
  416MPD2    N1 6216   0.446   1.380  11.506  0.8194 -0.3066  0.4345
  416MPD2    H7 6217   0.513   1.429  11.564  0.0045 -0.7042  1.6880
  417TMC3    C1 6218   0.276   1.535  11.582 -0.7019  0.5171  0.1774
  417TMC3    C2 6219   0.321   1.559  11.704  0.1272  0.0485  0.8603
  417TMC3    C3 6220   0.266   1.665  11.779  0.5465 -0.1467 -0.6251
  417TMC3    C4 6221   0.153   1.589  11.547  0.2973 -0.5642  0.2086
  417TMC3    C5 6222   0.096   1.684  11.628 -0.7208  0.8484 -0.8974
  417TMC3    C6 6223   0.156   1.736  11.742 -0.4908 -0.3814 -0.7539
  417TMC3     C 6224   0.316   1.419  11.504  0.3020  0.8216 -0.1466
  417TMC3     O 6225   0.226   1.380  11.429 -0.2659 -0.3832 -0.2387
  417TMC3     H 6226   0.416   1.514  11.732  0.2398  0.0619  0.4968
  417TMC3    H1 6227   0.123   1.576  11.444 -0.1330  0.5980  0.1807
  417TMC3    H2 6228   0.094   1.801  11.802  1.1590 -1.0625  1.6729
  417TMC3    C7 6229   4.709   1.757  11.571 -0.4661  0.0811 -0.1984
  417TMC3    C8 6230   0.304   1.682  11.920 -0.2352 -0.4692 -0.5767
  417TMC3    O1 6231   4.685   1.871  11.602  0.2819  0.6479 -0.1218
  417TMC3    O2 6232   0.221   1.673  12.010 -0.5119 -0.0149  0.2726
  418TMC3    C1 6233   3.954   2.548   0.364  0.0814  0.6139  0.6265
  418TMC3    C2 6234   3.842   2.477   0.351 -0.9989 -0.3356  0.5662
  418TMC3    C3 6235   3.740   2.528   0.424  0.0664  0.1541 -0.2083
  418TMC3    C4 6236   3.959   2.668   0.428  0.1372  0.2980  0.1114
  418TMC3    C5 6237   3.855   2.702   0.511 -0.7332 -0.4734 -0.3044
  418TMC3    C6 6238   3.742   2.632   0.505  0.5316  0.2933  0.2608
  418TMC3     C 6239   4.077   2.506   0.312  0.6107  0.5094  0.5233
  418TMC3     O 6240   4.160   2.590   0.273  0.1178  0.1759 -0.2310
  418TMC3     H 6241   3.831   2.379   0.305  1.0658  0.7483 -2.2424
  418TMC3    H1 6242   4.054   2.719   0.419  0.3468 -0.0322  0.4946
  418TMC3    H2 6243   3.657   2.663   0.566 -1.6936 -1.0735 -2.1516
  418TMC3    C7 6244   3.892   2.764   0.636  0.3953 -0.3990  0.0204
  418TMC3    C8 6245   3.605   2.472   0.393 -0.3480  0.5080 -0.2708
  418TMC3    O1 6246   3.816   2.739   0.729 -0.2407 -0.1442  0.5706
  418TMC3    O2 6247   3.516   2.557   0.393 -0.1946 -0.3862  0.0560
  419MPD2     C 6248   2.311   0.990  12.520  0.0833 -0.7384  0.1544
  419MPD2    C1 6249   2.291   1.122  12.518  0.1590 -0.0006  0.2498
  419MPD2    C2 6250   2.328   1.195  12.628  0.5055 -0.0058  0.1317
  419MPD2    C3 6251   2.390   1.131  12.736 -0.2504  0.1663 -0.1399
  419MPD2    C4 6252   2.398   0.993  12.744 -0.0896  0.0349  0.0332
  419MPD2    C5 6253   2.358   0.923  12.630 -0.7240 -0.3020 -0.6106
  419MPD2     H 6254   2.302   1.299  12.639 -0.8915 -0.1756 -1.5000
  419MPD2    H1 6255   2.421   0.934  12.832 -0.4458 -1.4042 -0.8327
  419MPD2    H2 6256   2.282   0.929  12.435  1.1226  0.4664 -1.0811
  419MPD2    H3 6257   2.376   0.816  12.626  1.1885  0.0430 -1.4557
  419MPD2     N 6258   2.399   1.205  12.853  0.1755 -0.0381 -0.0392
  419MPD2    H5 6259   2.367   1.301  12.860  0.4473  0.2210 -2.1406
  419MPD2    N1 6260   2.237   1.194  12.406 -0.7355  0.1162  0.0990
  419MPD2    H7 6261   2.226   1.294  12.420 -1.7256 -0.2988  2.2790
  420TMC3    C1 6262   2.452   1.260  13.077  1.0742 -0.0643  0.7302
  420TMC3    C2 6263   2.341   1.337  13.085  0.2960  0.5979  0.0121
  420TMC3    C3 6264   2.343   1.428  13.188 -0.6394  0.1826 -0.4258
  420TMC3    C4 6265   2.554   1.258  13.169  0.2991  0.6203  0.9171
  420TMC3    C5 6266   2.549   1.345  13.278  0.1785 -0.1633 -0.4012
  420TMC3    C6 6267   2.442   1.428  13.289  0.7983 -0.3485  0.0971
  420TMC3     C 6268   2.473   1.172  12.964 -0.4570 -0.1400  0.2459
  420TMC3     O 6269   2.553   1.083  12.977  0.5140  0.3039 -0.4206
  420TMC3     H 6270   2.261   1.333  13.012 -0.7343  0.9331  1.1251
  420TMC3    H1 6271   2.639   1.192  13.163  0.8893  1.6762 -2.0791
  420TMC3    H2 6272   2.431   1.494  13.374 -1.9576 -1.1354  0.3338
  420TMC3    C7 6273   2.637   1.320  13.394  0.8412  0.4257 -0.4235
  420TMC3    C8 6274   2.249   1.545  13.170 -1.0309 -0.3961  0.2001
  420TMC3    O1 6275   2.603   1.356  13.507  0.2822 -0.5632 -0.2472
  420TMC3    O2 6276   2.213   1.571  13.060 -0.2278 -0.1121  0.0918
  421TMC3    C1 6277   4.284   2.211  13.875 -0.2126 -0.2041 -0.4001
  421TMC3    C2 6278   4.275   2.274  13.757 -0.5928 -0.2913  0.7524
  421TMC3    C3 6279   4.336   2.396  13.736 -1.1998  0.2359 -0.3055
  421TMC3    C4 6280   4.371   2.259  13.969 -0.0936 -0.0050  0.0169
  421TMC3    C5 6281   4.453   2.363  13.930 -0.4009 -0.6103  0.2129
  421TMC3    C6 6282   4.438   2.437  13.812 -0.0656  0.1769 -0.2419
  421TMC3     C 6283   4.161   2.188  13.940 -0.2348  0.1552 -1.0381
  421TMC3     O 6284   4.169   2.116  14.042 -0.0410 -0.0173  0.4184
  421TMC3     H 6285   4.203   2.239  13.682  0.2633  0.6963 -0.5210
  421TMC3    H1 6286   4.394   2.198  14.056  0.9948 -1.8447 -1.5621
  421TMC3    H2 6287   4.501   2.524  13.801  0.0625  0.1242  0.0655
  421TMC3    C7 6288   4.566   2.396  14.013 -0.0354 -0.0450  0.5475
  421TMC3    C8 6289   4.240   2.494  13.682  0.5496  0.0003  0.2442
  421TMC3    O1 6290   4.671   2.436  13.965 -0.1337  0.2745 -0.0373
  421TMC3    O2 6291   4.128   2.451  13.661 -0.2329 -0.0442 -0.1196
  422TMC3    C1 6292   1.434   3.988  12.899  0.1773  0.4164  0.1687
  422TMC3    C2 6293   1.412   4.107  12.952 -0.5669 -0.4159  0.1048
  422TMC3    C3 6294   1.287   4.130  13.017  0.7151  0.6168  0.4307
  422TMC3    C4 6295   1.344   3.890  12.918  0.1251 -0.2133  0.1160
  422TMC3    C5 6296   1.224   3.914  12.983  0.4182 -0.1401  0.0788
  422TMC3    C6 6297   1.192   4.038  13.036  0.4256  0.2728 -0.1159
  422TMC3     C 6298   1.534   3.989  12.794 -1.0533  0.4786 -0.5049
  422TMC3     O 6299   1.559   4.099  12.749  0.1978 -0.3026 -0.1460
  422TMC3     H 6300   1.485   4.186  12.947 -1.1567  0.2697  2.1134
  422TMC3    H1 6301   1.358   3.797  12.863  0.0334 -1.1503  1.6955
  422TMC3    H2 6302   1.103   4.044  13.097 -1.3922 -1.7093 -2.5776
  422TMC3    C7 6303   1.122   3.811  12.960 -0.4559  0.5809  0.7115
  422TMC3    C8 6304   1.259   4.269  13.045 -0.6880 -0.8922  0.2261
  422TMC3    O1 6305   1.168   3.697  12.964 -0.3091  0.5373 -0.2110
  422TMC3    O2 6306   1.354   4.343  13.048 -0.1143  0.6542 -0.0324
  423MPD2     C 6307   3.731   4.487   0.747  0.3319 -0.2504  0.0012
  423MPD2    C1 6308   3.678   4.374   0.697  0.1794  0.1602  0.2966
  423MPD2    C2 6309   3.696   4.346   0.565  0.3450 -0.3449 -0.0402
  423MPD2    C3 6310   3.775   4.426   0.486  0.0888  0.5004 -0.2232
  423MPD2    C4 6311   3.836   4.530   0.543 -0.3857 -0.0421  0.3700
  423MPD2    C5 6312   3.813   4.559   0.669 -1.1694 -0.5533 -0.0190
  423MPD2     H 6313   3.643   4.261   0.523 -1.2483  1.0258 -0.8062
  423MPD2    H1 6314   3.919   4.581   0.496 -0.5922 -1.1965 -1.2421
  423MPD2    H2 6315   3.727   4.501   0.855  0.8012  0.1459 -0.0298
  423MPD2    H3 6316   3.881   4.633   0.710 -0.5321 -2.0279  1.5859
  423MPD2     N 6317   3.793   4.416   0.346 -1.2159 -0.6512 -0.0382
  423MPD2    H5 6318   3.848   4.489   0.301  0.0203 -2.3389 -1.2837
  423MPD2    N1 6319   3.582   4.308   0.775  0.9227  0.1894  0.5764
  423MPD2    H7 6320   3.523   4.238   0.731 -0.6988  2.0377 -0.1818
  424TMC3    C1 6321   3.445   4.272   0.964 -0.2154  0.2677 -0.3338
  424TMC3    C2 6322   3.438   4.230   1.092 -0.7480  0.1050  0.0564
  424TMC3    C3 6323   3.314   4.219   1.145  0.8024 -0.1885  0.0085
  424TMC3    C4 6324   3.334   4.292   0.886 -1.0244  0.6192 -0.4423
  424TMC3    C5 6325   3.212   4.275   0.947  0.5346  0.6366 -0.0899
  424TMC3    C6 6326   3.202   4.253   1.081  0.1129 -0.2848 -0.0181
  424TMC3     C 6327   3.572   4.314   0.916 -0.0864 -0.6148 -0.0713
  424TMC3     O 6328   3.666   4.325   0.996  0.0714 -0.0534 -0.4363
  424TMC3     H 6329   3.525   4.179   1.132  0.2442  0.4335 -1.6814
  424TMC3    H1 6330   3.342   4.319   0.781  1.0086  1.4155 -0.0720
  424TMC3    H2 6331   3.106   4.221   1.120 -0.1011  0.3795 -0.0058
  424TMC3    C7 6332   3.091   4.311   0.871 -0.6696  0.7536 -0.3110
  424TMC3    C8 6333   3.303   4.157   1.278 -0.1924  0.4961 -0.1827
  424TMC3    O1 6334   3.111   4.351   0.756  0.1410  0.1942  0.0205
  424TMC3    O2 6335   3.195   4.113   1.314  0.1649  0.7561 -0.0219
  425MPD2     C 6336   1.932   4.284   0.143  0.4345 -0.1389 -0.3587
  425MPD2    C1 6337   1.892   4.220   0.028 -0.5912  0.6913  0.0952
  425MPD2    C2 6338   1.753   4.218   0.005 -0.5159  0.3733  0.0527
  425MPD2    C3 6339   1.672   4.287   0.083 -0.4038 -1.0803 -0.1000
  425MPD2    C4 6340   1.709   4.348   0.196  0.0495  0.5842 -0.7399
  425MPD2    C5 6341   1.841   4.339   0.230 -0.2900  0.3981  0.0412
  425MPD2     H 6342   1.721   4.160  17.622 -0.1806 -0.6180  0.5880
  425MPD2    H1 6343   1.646   4.402   0.265  1.5366  3.3195 -1.4929
  425MPD2    H2 6344   2.034   4.303   0.176  0.1865  0.0981  0.2552
  425MPD2    H3 6345   1.878   4.390   0.318  1.7053  1.5462 -1.4769
  425MPD2     N 6346   1.530   4.277   0.053 -0.7313 -0.5818 -0.2649
  425MPD2    H5 6347   1.511   4.211  17.680  0.3003  0.7546 -1.6708
  425MPD2    N1 6348   1.992   4.162  17.649  1.1157 -0.1751 -0.2547
  425MPD2    H7 6349   2.083   4.168  17.693  1.4133  0.1351 -0.9176
  426TMC3    C1 6350   2.086   4.027  17.467 -0.0036 -0.2318 -0.2808
  426TMC3    C2 6351   2.060   3.993  17.342  0.6163 -0.1691 -0.7563
  426TMC3    C3 6352   2.110   3.877  17.288 -0.3414 -0.2138 -0.1228
  426TMC3    C4 6353   2.166   3.957  17.553  0.2137 -0.2158  0.0384
  426TMC3    C5 6354   2.211   3.837  17.504 -0.1101  0.0613  0.0646
  426TMC3    C6 6355   2.187   3.798  17.378  0.4103  0.3324  0.2502
  426TMC3     C 6356   1.968   4.101  17.529  0.0816 -0.3025 -0.5707
  426TMC3     O 6357   1.867   4.101  17.462  0.1876  0.0545  0.4011
  426TMC3     H 6358   2.003   4.062  17.281 -0.5414 -0.3458  0.1241
  426TMC3    H1 6359   2.179   3.989  17.656 -0.2325 -0.7458  0.2585
  426TMC3    H2 6360   2.232   3.705  17.344  0.0799 -0.0783  0.9476
  426TMC3    C7 6361   2.231   3.729  17.604 -0.2749 -0.6991 -0.3519
  426TMC3    C8 6362   2.081   3.833  17.149 -0.8298  0.3744  0.3226
  426TMC3    O1 6363   2.272   3.627  17.560  0.1269  0.1123  0.0665
  426TMC3    O2 6364   2.153   3.739  17.116  0.1992  0.2807 -0.0750
  427MPD2     C 6365   0.787   1.546  14.874  0.5520  0.4268 -0.0118
  427MPD2    C1 6366   0.776   1.520  15.008  0.0554  0.7141  0.3025
  427MPD2    C2 6367   0.647   1.519  15.056  0.9709 -0.3483  0.1115
  427MPD2    C3 6368   0.531   1.542  14.978 -0.4203  0.1690 -0.2155
  427MPD2    C4 6369   0.548   1.547  14.844 -0.0701 -0.9026  0.0612
  427MPD2    C5 6370   0.677   1.562  14.800 -0.9147 -0.1533  0.6121
  427MPD2     H 6371   0.632   1.510  15.163 -2.6630 -1.6581 -0.4682
  427MPD2    H1 6372   0.460   1.567  14.784  1.2264  1.8069 -0.9520
  427MPD2    H2 6373   0.883   1.540  14.824 -0.4741 -2.3008 -1.6530
  427MPD2    H3 6374   0.694   1.567  14.693 -2.3702 -0.1446  0.3763
  427MPD2     N 6375   0.399   1.552  15.023 -0.0933 -0.4879 -0.3725
  427MPD2    H5 6376   0.329   1.563  14.950  0.5573  3.6039 -0.3719
  427MPD2    N1 6377   0.881   1.472  15.087  0.3500  0.3309 -0.7561
  427MPD2    H7 6378   0.865   1.440  15.182 -1.4204  3.2236 -0.0651
  428TMC3    C1 6379   1.098   1.412  15.147  0.6308 -0.6475  0.2852
  428TMC3    C2 6380   1.052   1.287  15.174  0.3925  0.3031 -0.0452
  428TMC3    C3 6381   1.117   1.228  15.278 -0.4834 -0.4034 -0.3190
  428TMC3    C4 6382   1.189   1.480  15.215  0.1548 -0.6394 -0.3386
  428TMC3    C5 6383   1.263   1.404  15.303  0.5627 -0.1229 -0.3772
  428TMC3    C6 6384   1.228   1.284  15.342  0.4319 -0.0688 -0.2995
  428TMC3     C 6385   1.014   1.484  15.061 -0.3485 -0.1739  0.1902
  428TMC3     O 6386   1.061   1.564  14.979  0.3564  0.4515 -0.1024
  428TMC3     H 6387   0.963   1.248  15.125  1.1334 -1.7930  0.2872
  428TMC3    H1 6388   1.206   1.586  15.200  0.7006 -0.8941 -1.4884
  428TMC3    H2 6389   1.278   1.228  15.420  0.7868 -1.1100 -1.2802
  428TMC3    C7 6390   1.325   1.481  15.412  0.2056  0.0497 -0.2674
  428TMC3    C8 6391   1.080   1.094  15.319  0.8171  0.4839  0.7949
  428TMC3    O1 6392   1.306   1.436  15.527 -0.0641 -0.9192 -0.6949
  428TMC3    O2 6393   1.012   1.019  15.245  0.1100 -0.9663 -0.7248
  429MPD2     C 6394   1.139   1.283   0.190 -0.0099  0.4847 -0.2189
  429MPD2    C1 6395   1.270   1.243   0.161  0.1758  0.0911  0.9618
  429MPD2    C2 6396   1.362   1.328   0.105  0.2792 -1.0162 -0.9052
  429MPD2    C3 6397   1.322   1.453   0.065 -0.4066  0.5582  0.3296
  429MPD2    C4 6398   1.191   1.497   0.090 -0.0768 -0.7553  0.1421
  429MPD2    C5 6399   1.102   1.413   0.153 -0.0608  0.1319  0.0716
  429MPD2     H 6400   1.457   1.285   0.077  1.0265 -0.5065  0.8449
  429MPD2    H1 6401   1.150   1.591   0.054 -0.3383 -0.4374  1.2639
  429MPD2    H2 6402   1.062   1.219   0.231  0.8961 -0.1499  0.5079
  429MPD2    H3 6403   0.996   1.437   0.153  0.5296  2.7480 -0.3895
  429MPD2     N 6404   1.406   1.527  17.688 -0.3341  0.0321  0.0290
  429MPD2    H5 6405   1.500   1.487  17.682 -0.5989 -0.6116  0.1523
  429MPD2    N1 6406   1.315   1.116   0.190 -0.3400  0.3946  0.1935
  429MPD2    H7 6407   1.413   1.098   0.171 -0.7173  0.5050 -1.9215
  430TMC3    C1 6408   1.509   1.711  17.586  0.1865  0.2360 -0.0645
  430TMC3    C2 6409   1.482   1.813  17.500 -0.1696 -0.0631  0.3591
  430TMC3    C3 6410   1.586   1.861  17.428  0.3846 -0.4161  0.0267
  430TMC3    C4 6411   1.634   1.658  17.602  0.0120  0.0260 -0.1176
  430TMC3    C5 6412   1.734   1.713  17.529  0.6956  0.3145 -0.1046
  430TMC3    C6 6413   1.711   1.823  17.452  0.1122  0.1240  0.0956
  430TMC3     C 6414   1.394   1.656  17.658 -0.0011 -0.3969 -0.1051
  430TMC3     O 6415   1.294   1.724  17.646 -0.9398  0.2327 -0.0955
  430TMC3     H 6416   1.377   1.835  17.481  0.4024 -0.0747 -2.8152
  430TMC3    H1 6417   1.653   1.574  17.667 -2.8636 -0.3556  0.2532
  430TMC3    H2 6418   1.793   1.867  17.398 -0.1844  1.4755  0.7298
  430TMC3    C7 6419   1.817   1.611  17.460 -0.2734  0.0333 -0.0644
  430TMC3    C8 6420   1.555   1.905  17.295 -1.0436 -0.1811  0.1368
  430TMC3    O1 6421   1.856   1.515  17.530  0.1960  0.4397  0.1484
  430TMC3    O2 6422   1.476   1.829  17.234  0.4670 -0.0148  0.9584
  431MPD2     C 6423   2.535   1.875  12.579  0.3965  0.2521  0.2922
  431MPD2    C1 6424   2.621   1.786  12.513  0.7769 -0.0453 -0.4040
  431MPD2    C2 6425   2.576   1.708  12.412 -0.0897 -0.4059  0.7627
  431MPD2    C3 6426   2.441   1.701  12.384 -0.2004  0.4437 -0.6510
  431MPD2    C4 6427   2.356   1.788  12.451  0.3468  0.0936  0.2435
  431MPD2    C5 6428   2.401   1.877  12.547  0.5095  0.6728 -0.7435
  431MPD2     H 6429   2.652   1.654  12.357 -0.5440  0.9152 -1.1521
  431MPD2    H1 6430   2.251   1.771  12.431  0.2454 -0.7772  1.4521
  431MPD2    H2 6431   2.572   1.943  12.655  1.9437 -0.2661  0.0019
  431MPD2    H3 6432   2.334   1.935  12.610 -0.8714 -1.2329 -0.4706
  431MPD2     N 6433   2.385   1.607  12.289 -0.1254 -0.5098 -0.6787
  431MPD2    H5 6434   2.285   1.612  12.273 -0.5960 -2.8287  1.3405
  431MPD2    N1 6435   2.752   1.768  12.555 -0.4952  0.2139 -0.1324
  431MPD2    H7 6436   2.819   1.732  12.487  0.8400  1.9586  0.2380
  432TMC3    C1 6437   2.380   1.433  12.139 -0.9705 -0.2678  0.9655
  432TMC3    C2 6438   2.434   1.381  12.023  0.0516  0.5752  0.2873
  432TMC3    C3 6439   2.371   1.274  11.976  0.4179  0.0007 -0.4591
  432TMC3    C4 6440   2.283   1.374  12.217 -0.6358  0.6677  1.1041
  432TMC3    C5 6441   2.231   1.254  12.176 -0.2271  0.6182 -0.1713
  432TMC3    C6 6442   2.276   1.205  12.059 -0.1224 -0.9838  0.5375
  432TMC3     C 6443   2.461   1.530  12.206  0.1824 -0.1948 -0.1229
  432TMC3     O 6444   2.580   1.535  12.174  0.4260  0.2774  0.7311
  432TMC3     H 6445   2.508   1.436  11.966  2.4491 -1.4240  1.5105
  432TMC3    H1 6446   2.250   1.406  12.315 -0.2299 -0.2876  1.5602
  432TMC3    H2 6447   2.235   1.119  12.008 -1.4205 -0.1967  0.2725
  432TMC3    C7 6448   2.224   1.147  12.276  0.4452 -0.0695  0.5153
  432TMC3    C8 6449   2.441   1.186  11.882  0.1961 -0.4645 -0.0170
  432TMC3    O1 6450   2.233   1.031  12.232 -0.1467  0.5641  0.6871
  432TMC3    O2 6451   2.377   1.150  11.784 -1.1459 -0.2110 -0.1764
  433MPD2     C 6452   1.208   0.538  10.907 -0.0134 -0.6740  0.1064
  433MPD2    C1 6453   1.135   0.465  10.997  1.5080  0.1528  0.4764
  433MPD2    C2 6454   1.135   0.487  11.126  0.0448  0.6020  0.3091
  433MPD2    C3 6455   1.223   0.580  11.170  0.0177 -0.3379 -0.3805
  433MPD2    C4 6456   1.299   0.659  11.082 -0.9094  0.2698 -0.3105
  433MPD2    C5 6457   1.290   0.634  10.950  0.1359  0.3350 -0.0998
  433MPD2     H 6458   1.071   0.427  11.189 -0.5020  0.6901 -0.1616
  433MPD2    H1 6459   1.355   0.740  11.127 -2.5774  0.6405  1.0883
  433MPD2    H2 6460   1.193   0.518  10.802  0.2006 -1.0068  0.1377
  433MPD2    H3 6461   1.354   0.688  10.882 -0.0960 -1.4939 -1.7802
  433MPD2     N 6462   1.241   0.594  11.303  0.0732 -0.5254 -0.1748
  433MPD2    H5 6463   1.206   0.521  11.364 -0.3635  0.0133  0.2145
  433MPD2    N1 6464   1.052   0.366  10.935 -0.0375 -0.0544  0.6012
  433MPD2    H7 6465   1.068   0.350  10.836 -1.0502  0.2831  0.3900
  434TMC3    C1 6466   0.916   0.167  10.929 -0.0794  0.5128 -0.0742
  434TMC3    C2 6467   0.913   0.065  11.020  0.4739  0.0199 -0.4452
  434TMC3    C3 6468   0.930   4.666  10.969  0.1565 -0.3583 -0.5712
  434TMC3    C4 6469   0.939   0.146  10.794  0.6031  0.0270  0.0613
  434TMC3    C5 6470   0.955   0.017  10.756  0.9951  0.6120  0.3280
  434TMC3    C6 6471   0.950   4.639  10.844 -0.1513  0.3245 -0.2635
  434TMC3     C 6472   0.957   0.292  10.995  0.2237  0.4386 -0.2300
  434TMC3     O 6473   0.899   0.302  11.101  0.2495 -0.0316  0.1648
  434TMC3     H 6474   0.890   0.071  11.125 -1.9799 -0.0133 -0.9614
  434TMC3    H1 6475   0.933   0.229  10.725  0.9425  0.9452  1.1458
  434TMC3    H2 6476   0.960   4.537  10.810  0.5677  0.7962 -1.4540
  434TMC3    C7 6477   0.984   4.720  10.616 -0.4428  0.2480 -0.4168
  434TMC3    C8 6478   1.018   4.580  11.058 -0.1072  0.3264  0.3151
  434TMC3    O1 6479   0.963   0.089  10.537 -0.0557  0.8519  0.4166
  434TMC3    O2 6480   1.086   4.638  11.139 -0.0486 -0.0857 -0.5997
  435MPD2     C 6481   3.657   0.845  15.589  0.0552 -0.2162 -0.3209
  435MPD2    C1 6482   3.588   0.759  15.673  0.2937  0.2282  0.0802
  435MPD2    C2 6483   3.650   0.645  15.723 -0.4562  0.2349  0.0725
  435MPD2    C3 6484   3.784   0.615  15.702 -0.7906  0.4452 -0.4596
  435MPD2    C4 6485   3.847   0.687  15.607 -0.0485  0.3289  0.7961
  435MPD2    C5 6486   3.783   0.797  15.557 -0.5662 -0.2162 -0.3621
  435MPD2     H 6487   3.582   0.584  15.781  0.2163 -1.0256 -0.4569
  435MPD2    H1 6488   3.943   0.664  15.563 -0.5426 -1.0168  0.4157
  435MPD2    H2 6489   3.624   0.938  15.545  2.2185 -0.1444 -1.7979
  435MPD2    H3 6490   3.838   0.859  15.487 -2.4590  0.9370 -0.8317
  435MPD2     N 6491   3.845   0.502  15.761  0.4777  0.3953  0.0589
  435MPD2    H5 6492   3.790   0.428  15.803  0.6726 -0.0862 -0.5248
  435MPD2    N1 6493   3.456   0.783  15.714  0.0792  0.1859  0.4773
  435MPD2    H7 6494   3.424   0.721  15.788 -2.0049 -0.5092 -0.9791
  436TMC3    C1 6495   3.126   0.846  15.930 -0.9330 -0.3861 -0.0875
  436TMC3    C2 6496   3.213   0.800  15.837 -0.0653 -0.4482 -0.4209
  436TMC3    C3 6497   3.257   0.898  15.753  0.1238 -0.0755  0.1363
  436TMC3    C4 6498   3.073   0.972  15.935 -0.0339 -0.0765  0.1594
  436TMC3    C5 6499   3.118   1.062  15.842 -0.1363 -0.2245 -0.0369
  436TMC3    C6 6500   3.212   1.027  15.751  0.3436  0.0473 -0.1436
  436TMC3     C 6501   3.059   0.743  16.011  0.3398  0.6160 -0.7109
  436TMC3     O 6502   3.045   0.633  15.955  0.6062  0.1997 -0.5084
  436TMC3     H 6503   3.254   0.700  15.835  0.9056 -0.0741  1.1800
  436TMC3    H1 6504   2.992   1.003  16.000  0.1981 -0.5120  0.6529
  436TMC3    H2 6505   3.248   1.103  15.683  0.4952  1.4355  1.4923
  436TMC3    C7 6506   3.044   1.185  15.816 -0.0019  0.1040 -0.4619
  436TMC3    C8 6507   3.385   0.893  15.685  0.6780 -0.1337  0.1486
  436TMC3    O1 6508   3.096   1.261  15.738 -0.0713 -0.1931  0.2574
  436TMC3    O2 6509   3.417   0.986  15.615 -0.6383  0.3264  0.5438
  437TMC3    C1 6510   2.173   2.247  12.416  0.2152 -0.2776 -0.5959
  437TMC3    C2 6511   2.089   2.150  12.383  0.2000  0.3195  0.9883
  437TMC3    C3 6512   2.121   2.065  12.280 -0.3341  0.4312 -0.4120
  437TMC3    C4 6513   2.307   2.233  12.386 -0.6073  0.4539  0.2489
  437TMC3    C5 6514   2.344   2.139  12.295 -0.1381 -0.7619  0.1287
  437TMC3    C6 6515   2.247   2.070  12.228  0.3319  0.6050 -0.5070
  437TMC3     C 6516   2.148   2.347  12.516 -0.6427  0.8930  0.8375
  437TMC3     O 6517   2.244   2.375  12.583  0.5010 -0.8849 -0.2838
  437TMC3     H 6518   1.987   2.156  12.418 -0.7171 -0.4984 -1.5620
  437TMC3    H1 6519   2.370   2.320  12.391 -1.1389  0.7769  1.4277
  437TMC3    H2 6520   2.268   2.013  12.138  0.4826  1.3085 -0.9124
  437TMC3    C7 6521   2.487   2.110  12.263  0.8417 -0.2054 -0.3229
  437TMC3    C8 6522   2.020   2.029  12.187 -0.4623  0.4911 -0.6784
  437TMC3    O1 6523   2.513   2.088  12.144  0.0581  0.0932 -0.0146
  437TMC3    O2 6524   2.051   2.055  12.072  0.2129 -0.6026 -0.2211
  438MPD2     C 6525   4.494   3.450  17.318  0.6738 -0.0265 -0.4238
  438MPD2    C1 6526   4.532   3.318  17.317  0.4967 -0.3683 -0.4351
  438MPD2    C2 6527   4.487   3.238  17.411 -0.6015  0.9966  0.0032
  438MPD2    C3 6528   4.398   3.277  17.512 -0.0211 -0.1519  0.5263
  438MPD2    C4 6529   4.352   3.408  17.509 -0.3308 -0.2325 -0.5585
  438MPD2    C5 6530   4.407   3.495  17.416 -0.6551 -0.0426  0.3062
  438MPD2     H 6531   4.520   3.135  17.406  1.6439  1.5981  2.1311
  438MPD2    H1 6532   4.282   3.446  17.583 -2.0302 -0.7239 -1.9135
  438MPD2    H2 6533   4.543   3.514  17.246 -0.4255  0.4196 -0.7796
  438MPD2    H3 6534   4.388   3.602  17.421 -0.2163 -0.0396  1.7618
  438MPD2     N 6535   4.345   3.190  17.615  0.8795  0.2308 -0.8929
  438MPD2    H5 6536   4.287   3.231  17.688 -0.6194 -0.8238 -1.4738
  438MPD2    N1 6537   4.609   3.258  17.215 -0.5062 -0.0423  0.4530
  438MPD2    H7 6538   4.640   3.162  17.225  0.9677  0.2838 -0.9601
  439TMC3    C1 6539   0.011   3.247  17.015  0.1029 -0.0501 -0.8301
  439TMC3    C2 6540   4.721   3.252  16.877  0.9216  0.3538  0.2034
  439TMC3    C3 6541   0.092   3.185  16.811 -0.0290 -0.0618  0.1752
  439TMC3    C4 6542   0.111   3.169  17.073  0.1563 -0.4345  0.0542
  439TMC3    C5 6543   0.197   3.103  16.996  0.0073 -0.6187 -0.1406
  439TMC3    C6 6544   0.183   3.104  16.863 -0.1297 -0.3234 -0.4745
  439TMC3     C 6545   4.639   3.314  17.096  0.3486 -0.2780 -0.2506
  439TMC3     O 6546   4.589   3.417  17.041  0.0248 -0.0885 -0.4434
  439TMC3     H 6547   4.660   3.331  16.833  1.3804  1.8666  2.3124
  439TMC3    H1 6548   0.122   3.159  17.180  1.9216 -0.1097 -0.0912
  439TMC3    H2 6549   0.266   3.059  16.810 -1.4816 -1.0942 -1.9382
  439TMC3    C7 6550   0.319   3.037  17.040 -0.2184 -0.2713 -0.0857
  439TMC3    C8 6551   0.104   3.185  16.669  0.9200 -0.2462 -0.7556
  439TMC3    O1 6552   0.362   2.942  16.975  0.2425 -0.0398  0.4080
  439TMC3    O2 6553   0.162   3.088  16.620  0.5874  0.3574 -0.1020
  440MPD2     C 6554   3.828   3.513  14.700  0.8964 -0.3956  0.0610
  440MPD2    C1 6555   3.768   3.407  14.767 -0.1048 -0.1187  1.3607
  440MPD2    C2 6556   3.847   3.310  14.816  0.2115  0.0386 -0.7468
  440MPD2    C3 6557   3.986   3.314  14.800 -0.0863  0.0852 -0.2362
  440MPD2    C4 6558   4.042   3.413  14.723  1.0520  0.2246  0.2827
  440MPD2    C5 6559   3.964   3.514  14.675 -0.3468 -0.5864 -0.3520
  440MPD2     H 6560   3.785   3.238  14.868 -0.3985  0.2254 -1.2108
  440MPD2    H1 6561   4.150   3.420  14.713  1.0877  0.4799  0.8516
  440MPD2    H2 6562   3.781   3.606  14.669  0.4498 -1.0197 -1.1136
  440MPD2    H3 6563   4.008   3.600  14.627 -1.0069 -0.7927 -1.3250
  440MPD2     N 6564   4.077   3.229  14.862 -0.3917 -0.0196  0.0465
  440MPD2    H5 6565   4.174   3.239  14.832  0.0250 -2.4828  0.5773
  440MPD2    N1 6566   3.636   3.407  14.806 -0.5615 -0.1233  0.7019
  440MPD2    H7 6567   3.608   3.336  14.873  1.1811  0.0127  1.5776
  441TMC3    C1 6568   4.178   3.100  15.023 -0.3991  0.0063  0.3337
  441TMC3    C2 6569   4.246   3.211  15.071  0.4592  0.1396  0.0989
  441TMC3    C3 6570   4.319   3.192  15.187  0.2698 -0.3207  0.0594
  441TMC3    C4 6571   4.167   2.987  15.099 -0.5049 -0.4302  0.0488
  441TMC3    C5 6572   4.236   2.976  15.218 -0.5585 -0.2831 -0.0553
  441TMC3    C6 6573   4.311   3.079  15.266  0.0902 -0.1178  0.0467
  441TMC3     C 6574   4.054   3.133  14.950 -0.3013  0.0123 -0.4705
  441TMC3     O 6575   3.944   3.100  14.995  0.7606 -0.3155  0.2376
  441TMC3     H 6576   4.262   3.293  15.002 -0.9724 -1.1259 -1.7690
  441TMC3    H1 6577   4.106   2.903  15.068 -1.0532 -1.3241  3.4784
  441TMC3    H2 6578   4.349   3.074  15.368  2.4217  0.2820 -0.7869
  441TMC3    C7 6579   4.162   2.906  15.316  0.0234  0.6028  0.4647
  441TMC3    C8 6580   4.325   3.309  15.268 -0.0211 -0.0435 -0.3931
  441TMC3    O1 6581   4.048   2.882  15.285  0.4098  0.4499  0.0481
  441TMC3    O2 6582   4.403   3.312  15.364 -0.3765 -0.2798  0.2780
  442MPD2     C 6583   1.815   4.110  15.941 -0.9669 -0.4120 -0.3775
  442MPD2    C1 6584   1.704   4.081  16.021 -0.1113  0.2802 -0.3506
  442MPD2    C2 6585   1.644   3.956  16.006  0.2266 -0.1997 -0.3339
  442MPD2    C3 6586   1.696   3.858  15.923  0.0958  0.3342  0.7298
  442MPD2    C4 6587   1.793   3.895  15.834 -0.5025  0.5716  0.3845
  442MPD2    C5 6588   1.844   4.020  15.845 -0.4548  0.2111 -0.5402
  442MPD2     H 6589   1.558   3.941  16.069  0.0813  1.9304 -0.0213
  442MPD2    H1 6590   1.841   3.822  15.770  1.0813  3.5269 -1.7975
  442MPD2    H2 6591   1.870   4.203  15.950  0.0586 -1.0962  0.4797
  442MPD2    H3 6592   1.935   4.040  15.789 -0.9627  0.2088 -1.3600
  442MPD2     N 6593   1.645   3.731  15.916  0.0172  0.3795 -0.4821
  442MPD2    H5 6594   1.691   3.664  15.855  1.3286  1.2569 -0.4419
  442MPD2    N1 6595   1.660   4.171  16.124 -0.1486  0.0300 -0.5732
  442MPD2    H7 6596   1.590   4.137  16.189  0.5259 -1.8352 -0.8005
  443TMC3    C1 6597   1.636   4.360  16.255 -0.5068  0.4054  0.4523
  443TMC3    C2 6598   1.562   4.475  16.239  0.5678 -0.0772  0.4672
  443TMC3    C3 6599   1.471   4.509  16.342 -0.3538  0.4445 -0.0218
  443TMC3    C4 6600   1.625   4.286  16.364 -0.3003 -0.0907 -0.1694
  443TMC3    C5 6601   1.563   4.339  16.477 -0.0375  0.3147 -0.5919
  443TMC3    C6 6602   1.482   4.453  16.465 -0.1728  0.5180 -0.8576
  443TMC3     C 6603   1.703   4.304  16.145 -0.1932 -0.2130  0.0677
  443TMC3     O 6604   1.761   4.385  16.075  0.2560 -0.4094 -0.6152
  443TMC3     H 6605   1.558   4.522  16.141  3.7470  0.8358  0.7877
  443TMC3    H1 6606   1.677   4.192  16.373 -0.0905 -0.0598 -1.1045
  443TMC3    H2 6607   1.428   4.489  16.552  1.0311 -1.5811  0.7586
  443TMC3    C7 6608   1.541   4.240  16.576 -0.2242  0.3546 -0.4099
  443TMC3    C8 6609   1.341   4.480  16.290 -0.2221 -0.2207 -0.1736
  443TMC3    O1 6610   1.536   4.122  16.533  0.2263 -0.1633  0.3470
  443TMC3    O2 6611   1.334   4.490  16.169  0.2149 -0.1660  0.2478
  444MPD2     C 6612   1.722   3.505  17.030 -0.8149 -0.1677 -0.1676
  444MPD2    C1 6613   1.686   3.376  17.058  0.0299 -0.4275 -0.2037
  444MPD2    C2 6614   1.741   3.277  16.981  0.0025  0.1889  0.6531
  444MPD2    C3 6615   1.835   3.299  16.880 -0.8253 -0.5395  0.6089
  444MPD2    C4 6616   1.872   3.433  16.858 -0.9840  0.3673 -0.1533
  444MPD2    C5 6617   1.817   3.530  16.930 -0.0753 -0.1886 -0.3984
  444MPD2     H 6618   1.705   3.176  16.992 -1.3733  0.6427  0.3638
  444MPD2    H1 6619   1.946   3.461  16.783 -1.9141  0.3138 -1.0880
  444MPD2    H2 6620   1.670   3.587  17.078 -1.5717  0.4562 -2.0451
  444MPD2    H3 6621   1.840   3.634  16.909 -0.1713 -0.2056 -0.5924
  444MPD2     N 6622   1.884   3.188  16.815 -0.5132 -0.0827 -0.5674
  444MPD2    H5 6623   1.820   3.109  16.824  0.0762 -0.2664  2.2034
  444MPD2    N1 6624   1.601   3.329  17.161  0.3592 -0.1354  1.2084
  444MPD2    H7 6625   1.586   3.229  17.163 -0.9638  0.0421  0.4793
  445TMC3    C1 6626   2.008   3.058  16.657 -0.3650 -0.0826 -0.3057
  445TMC3    C2 6627   1.900   2.973  16.640 -0.2023  0.0914 -0.2738
  445TMC3    C3 6628   1.916   2.842  16.619  0.1107 -1.0235  0.7949
  445TMC3    C4 6629   2.138   3.004  16.645 -0.5482  0.1151 -0.5559
  445TMC3    C5 6630   2.142   2.873  16.627  0.1104 -0.0040  0.2612
  445TMC3    C6 6631   2.037   2.792  16.617 -0.3783 -0.0733  0.3916
  445TMC3     C 6632   1.986   3.193  16.717  0.5051  1.1925  0.0766
  445TMC3     O 6633   2.074   3.274  16.705 -0.3021 -0.3166  0.7580
  445TMC3     H 6634   1.799   3.010  16.653 -1.0548 -3.0585  2.2581
  445TMC3    H1 6635   2.227   3.064  16.658  2.2686 -3.5195 -2.9556
  445TMC3    H2 6636   2.050   2.685  16.601  0.1236  0.4546 -2.6181
  445TMC3    C7 6637   2.274   2.812  16.624  0.2482 -0.3632 -0.6380
  445TMC3    C8 6638   1.799   2.753  16.634  0.4459 -1.1225  0.8811
  445TMC3    O1 6639   2.364   2.879  16.573 -0.3705  0.2384  0.5905
  445TMC3    O2 6640   1.714   2.799  16.702  0.2163  0.1813  0.0970
  446MPD2     C 6641   1.054   4.445  11.621  0.2425 -0.1860 -0.5830
  446MPD2    C1 6642   0.979   4.474  11.507 -0.1667  0.3232  0.5490
  446MPD2    C2 6643   1.018   4.576  11.428  0.3269  0.4372 -0.4195
  446MPD2    C3 6644   1.114   4.671  11.464  0.2911  0.4083 -0.4549
  446MPD2    C4 6645   1.193   4.636  11.579  0.6209  0.4342  0.1472
  446MPD2    C5 6646   1.165   4.526  11.650  0.7218  0.0700 -0.2270
  446MPD2     H 6647   0.959   4.604  11.341  0.4147  2.5110  0.1856
  446MPD2    H1 6648   1.281   4.694  11.606  1.7138 -0.1144 -2.2767
  446MPD2    H2 6649   1.047   4.357  11.684 -0.8262  0.6863  0.5005
  446MPD2    H3 6650   1.226   4.490  11.732  1.4407  0.6385 -0.5172
  446MPD2     N 6651   1.139   0.046  11.377 -0.6708 -0.0001  0.4830
  446MPD2    H5 6652   1.120   0.022  11.281 -2.2463  0.2426  0.7391
  446MPD2    N1 6653   0.885   4.389  11.454 -0.8738  0.0770  0.5802
  446MPD2    H7 6654   0.835   4.425  11.373 -0.2201 -2.1564 -0.8194
  447TMC3    C1 6655   1.304   0.184  11.297 -0.2060  0.9197 -0.2608
  447TMC3    C2 6656   1.271   0.161  11.161  0.2402  0.5383 -0.4834
  447TMC3    C3 6657   1.362   0.205  11.072 -0.8653  0.0507 -0.3355
  447TMC3    C4 6658   1.428   0.234  11.336  0.6505 -0.1918 -0.0282
  447TMC3    C5 6659   1.516   0.265  11.241 -0.1059  0.3976  0.0390
  447TMC3    C6 6660   1.484   0.252  11.110  0.1304  0.0271 -0.6111
  447TMC3     C 6661   1.212   0.156  11.407  0.4224 -0.6317 -0.1470
  447TMC3     O 6662   1.228   0.199  11.523 -0.1687 -0.1620 -0.0871
  447TMC3     H 6663   1.176   0.117  11.133 -0.1626  0.3132  1.1912
  447TMC3    H1 6664   1.440   0.234  11.444 -0.2628 -0.2952  0.0740
  447TMC3    H2 6665   1.557   0.282  11.036  0.4888  0.3248 -0.1405
  447TMC3    C7 6666   1.659   0.231  11.268  0.2056  0.7125  0.5448
  447TMC3    C8 6667   1.354   0.135  10.948  0.0408 -0.1562 -0.6305
  447TMC3    O1 6668   1.733   0.217  11.173 -0.2620  0.4646  0.0772
  447TMC3    O2 6669   1.390   0.192  10.846 -0.1904 -0.0198  0.4229
  448TMC3    C1 6670   0.581   0.246  17.620  0.1051 -0.0923 -0.1437
  448TMC3    C2 6671   0.603   0.124  17.572 -0.0087 -0.4748  0.1665
  448TMC3    C3 6672   0.510   0.023  17.597  0.6299 -0.6114  0.4544
  448TMC3    C4 6673   0.472   0.271  17.702 -0.3153 -0.0740 -0.2797
  448TMC3    C5 6674   0.392   0.164   0.032  1.1168 -0.6738  0.2053
  448TMC3    C6 6675   0.409   0.036  17.686  0.8988  0.7564  0.3335
  448TMC3     C 6676   0.652   0.355  17.555  0.0352 -0.8663 -0.0489
  448TMC3     O 6677   0.768   0.342  17.517 -0.3944 -0.6377  0.2172
  448TMC3     H 6678   0.689   0.116  17.506 -0.6673  1.8468 -0.9872
  448TMC3    H1 6679   0.456   0.364   0.051  0.6625  1.5020 -2.7720
  448TMC3    H2 6680   0.343   4.677  17.702  1.3022  0.6663  1.4849
  448TMC3    C7 6681   0.292   0.180   0.136 -0.7041  0.7794 -0.2646
  448TMC3    C8 6682   0.538   4.609  17.536  0.0714 -0.7965  0.0534
  448TMC3    O1 6683   0.289   0.291   0.190 -0.6538 -0.5157 -0.4700
  448TMC3    O2 6684   0.484   4.522  17.603  0.1373 -0.6895 -0.6812
  449MPD2     C 6685   1.626   3.294  14.389 -0.0404 -0.1312 -0.6342
  449MPD2    C1 6686   1.565   3.254  14.270 -0.2607 -0.2364  0.0031
  449MPD2    C2 6687   1.476   3.150  14.282 -0.1204 -0.3071  0.7495
  449MPD2    C3 6688   1.440   3.085  14.397  0.1252 -0.0873 -0.0347
  449MPD2    C4 6689   1.504   3.125  14.516 -0.0929  0.3035  0.3710
  449MPD2    C5 6690   1.600   3.228  14.513 -0.4503 -0.1868  0.1314
  449MPD2     H 6691   1.416   3.129  14.195 -2.5756  2.1822  1.8621
  449MPD2    H1 6692   1.482   3.074  14.609  2.8702 -1.6147  0.0221
  449MPD2    H2 6693   1.689   3.382  14.385  2.1168 -1.8174 -3.5815
  449MPD2    H3 6694   1.650   3.257  14.605  1.0244 -1.6789 -0.2021
  449MPD2     N 6695   1.330   2.992  14.384 -0.3365 -0.2332  0.1300
  449MPD2    H5 6696   1.301   2.982  14.288  1.5818 -1.8233 -0.2853
  449MPD2    N1 6697   1.582   3.321  14.145  0.0566 -0.0665 -0.5596
  449MPD2    H7 6698   1.510   3.295  14.079 -3.5365  0.2826  3.2255
  450TMC3    C1 6699   1.618   3.466  13.975  0.2803 -0.0996 -0.7304
  450TMC3    C2 6700   1.728   3.477  13.890  0.6924 -0.7403 -0.2620
  450TMC3    C3 6701   1.708   3.406  13.776 -0.0436  0.0984 -0.2285
  450TMC3    C4 6702   1.502   3.409  13.938  0.2899  0.0547  0.8169
  450TMC3    C5 6703   1.492   3.342  13.818  0.4408 -0.7941  0.0456
  450TMC3    C6 6704   1.597   3.338  13.736 -0.6825  0.4523 -0.5921
  450TMC3     C 6705   1.660   3.427  14.108 -0.2637  0.0271  0.1536
  450TMC3     O 6706   1.746   3.490  14.167 -0.9001  0.3199 -0.7073
  450TMC3     H 6707   1.819   3.521  13.929 -0.1341  1.5958 -0.9704
  450TMC3    H1 6708   1.418   3.420  14.006 -0.5983  0.6529 -0.3595
  450TMC3    H2 6709   1.590   3.272  13.650 -1.0816  0.3238 -0.4617
  450TMC3    C7 6710   1.423   3.223  13.839  0.3338  0.6178 -0.4763
  450TMC3    C8 6711   1.806   3.421  13.672 -0.3089  0.1652 -0.7508
  450TMC3    O1 6712   1.405   3.199  13.958 -0.1042 -0.5542  0.1830
  450TMC3    O2 6713   1.876   3.523  13.683 -0.4474 -0.4065  0.7472
  451MPD2     C 6714   2.355   0.851   1.612  0.0075 -0.7746 -0.0112
  451MPD2    C1 6715   2.355   0.829   1.471  0.3227  0.3777 -0.0160
  451MPD2    C2 6716   2.430   0.729   1.416  0.4865  0.1776 -0.3254
  451MPD2    C3 6717   2.507   0.641   1.493  0.0470 -0.5493 -0.1640
  451MPD2    C4 6718   2.502   0.659   1.627 -0.3330 -0.0613  0.0744
  451MPD2    C5 6719   2.427   0.765   1.685 -0.6370 -1.2565  0.2980
  451MPD2     H 6720   2.415   0.700   1.313  1.0748  1.1641 -0.6896
  451MPD2    H1 6721   2.546   0.594   1.701  0.8541 -1.1425 -1.5754
  451MPD2    H2 6722   2.297   0.927   1.663 -1.1180 -1.6121 -0.0398
  451MPD2    H3 6723   2.426   0.786   1.792  1.1118  0.9819 -0.1502
  451MPD2     N 6724   2.581   0.534   1.445  0.0628  0.4405 -0.1994
  451MPD2    H5 6725   2.610   0.466   1.513 -1.8160  0.2355  0.3874
  451MPD2    N1 6726   2.271   0.906   1.402  0.3030 -0.9023  0.0034
  451MPD2    H7 6727   2.238   0.986   1.455 -0.0692 -0.1327 -1.3829
  452TMC3    C1 6728   2.702   0.394   1.296  0.3501  0.2159  0.3793
  452TMC3    C2 6729   2.715   0.299   1.396 -0.3983  0.1435  0.4527
  452TMC3    C3 6730   2.809   0.205   1.386  0.3837  0.9416  0.7615
  452TMC3    C4 6731   2.785   0.388   1.190 -0.7221 -0.4930 -0.5944
  452TMC3    C5 6732   2.871   0.286   1.171 -0.0224 -0.5289  0.6111
  452TMC3    C6 6733   2.887   0.189   1.270 -1.2811  0.2341  0.2694
  452TMC3     C 6734   2.609   0.505   1.310  0.0012  0.2901 -0.4284
  452TMC3     O 6735   2.599   0.580   1.217 -0.3642 -0.1829 -0.1341
  452TMC3     H 6736   2.649   0.301   1.482 -1.1877 -0.0074 -0.1500
  452TMC3    H1 6737   2.791   0.469   1.118  2.1506 -0.8349 -0.7355
  452TMC3    H2 6738   2.949   0.103   1.247  0.2334  1.5419 -0.5413
  452TMC3    C7 6739   2.961   0.283   1.061 -0.6919  0.0408  0.1050
  452TMC3    C8 6740   2.810   0.091   1.470  0.2166  1.1072 -0.4519
  452TMC3    O1 6741   2.984   0.393   1.006 -0.5001 -0.1367  0.7593
  452TMC3    O2 6742   2.706   0.037   1.502  0.3285  0.2581 -0.1476
  453TMC3    C1 6743   3.480   3.100  12.026 -0.9734 -0.0444  0.5703
  453TMC3    C2 6744   3.461   2.994  12.115  0.2337 -0.0916  0.6361
  453TMC3    C3 6745   3.331   2.957  12.128 -0.0692  0.2582 -0.0961
  453TMC3    C4 6746   3.379   3.162  11.945 -0.7863 -0.4086 -0.2846
  453TMC3    C5 6747   3.256   3.115  11.961  0.3295 -0.5719  0.0710
  453TMC3    C6 6748   3.227   3.019  12.054  0.2979  0.0296  0.2009
  453TMC3     C 6749   3.610   3.159  12.026  0.2839  0.4229 -0.4892
  453TMC3     O 6750   3.610   3.273  11.993  0.4424  0.0454  0.5858
  453TMC3     H 6751   3.534   2.968  12.191  1.7732  0.6515 -0.5870
  453TMC3    H1 6752   3.407   3.249  11.886 -1.2773  1.2003  1.8422
  453TMC3    H2 6753   3.124   2.988  12.054 -0.2673  1.9142 -0.2747
  453TMC3    C7 6754   3.153   3.167  11.879 -0.2720 -0.2043 -0.2853
  453TMC3    C8 6755   3.296   2.845  12.208  0.4395  0.0839 -0.1582
  453TMC3    O1 6756   3.036   3.161  11.909 -0.2450  0.1716 -0.5192
  453TMC3    O2 6757   3.181   2.839  12.241 -0.2837  0.0973  0.0939
  454MPD2     C 6758   2.667   2.966  16.318 -0.3923  0.1657 -0.0201
  454MPD2    C1 6759   2.530   2.959  16.291 -0.3170  0.9042  0.4491
  454MPD2    C2 6760   2.464   3.081  16.282  0.6240 -0.4270 -0.2748
  454MPD2    C3 6761   2.521   3.199  16.325 -0.2105 -0.0683 -0.0353
  454MPD2    C4 6762   2.657   3.202  16.361  0.2803  0.0215 -0.6870
  454MPD2    C5 6763   2.731   3.081  16.349  0.0698  0.0380  0.5345
  454MPD2     H 6764   2.358   3.088  16.258  0.8290 -1.5053 -1.5160
  454MPD2    H1 6765   2.712   3.294  16.383  3.8607 -1.8701 -1.6916
  454MPD2    H2 6766   2.723   2.875  16.297  0.9670  1.9820 -4.1967
  454MPD2    H3 6767   2.834   3.085  16.382  0.3657 -2.8172 -0.0817
  454MPD2     N 6768   2.437   3.304  16.337 -0.2066  0.4277 -0.0744
  454MPD2    H5 6769   2.340   3.279  16.317  0.1031 -1.0140  0.2003
  454MPD2    N1 6770   2.456   2.849  16.242  0.2810  0.1953  0.6989
  454MPD2    H7 6771   2.369   2.875  16.198  0.8878  0.7494 -0.1744
  455TMC3    C1 6772   2.334   3.498  16.364  0.4403  0.7775 -0.8337
  455TMC3    C2 6773   2.321   3.588  16.469  0.3253 -0.0263 -0.4291
  455TMC3    C3 6774   2.197   3.590  16.522  0.3225  0.2558 -0.1265
  455TMC3    C4 6775   2.231   3.429  16.309 -0.3625  0.1015  0.1156
  455TMC3    C5 6776   2.108   3.432  16.368 -0.3447 -0.7585  0.6007
  455TMC3    C6 6777   2.090   3.512  16.477 -0.8736 -0.0848 -0.4013
  455TMC3     C 6778   2.455   3.430  16.371 -0.5658  0.7212 -0.1613
  455TMC3     O 6779   2.550   3.486  16.421 -0.0415  0.0763  0.0005
  455TMC3     H 6780   2.408   3.643  16.505 -0.2394 -0.3762  1.4561
  455TMC3    H1 6781   2.245   3.371  16.218 -1.3979 -1.6057  1.0613
  455TMC3    H2 6782   2.000   3.496  16.534 -0.8729  2.5414  0.3721
  455TMC3    C7 6783   2.039   3.305  16.347 -0.2140  1.0128 -0.2755
  455TMC3    C8 6784   2.172   3.659  16.646 -0.1431 -0.0440 -0.1371
  455TMC3    O1 6785   2.098   3.214  16.290 -0.3120 -0.3125  0.3648
  455TMC3    O2 6786   2.259   3.669  16.726 -0.2797 -0.1225 -0.6399
  456MPD2     C 6787   0.499   3.280  16.773 -0.3553  0.1200 -0.1242
  456MPD2    C1 6788   0.560   3.280  16.896  0.2462  0.9686  0.0877
  456MPD2    C2 6789   0.534   3.382  16.986  0.3112  0.0995 -0.3390
  456MPD2    C3 6790   0.452   3.484  16.953  0.5613  0.7285  0.3070
  456MPD2    C4 6791   0.385   3.483  16.833 -0.4692 -0.5024 -0.2414
  456MPD2    C5 6792   0.418   3.383  16.744 -0.2411 -0.3113  0.9743
  456MPD2     H 6793   0.578   3.372  17.084  0.7852  0.9741 -0.4607
  456MPD2    H1 6794   0.321   3.566  16.807 -1.1120 -1.0197 -0.3187
  456MPD2    H2 6795   0.524   3.210  16.694 -0.5396  1.3515 -1.2796
  456MPD2    H3 6796   0.370   3.380  16.647  2.7899  1.4985 -0.5803
  456MPD2     N 6797   0.441   3.587  17.047 -0.3950 -0.6996 -0.0430
  456MPD2    H5 6798   0.471   3.563  17.141 -0.7484 -0.1412  0.2167
  456MPD2    N1 6799   0.648   3.171  16.922 -0.1964  0.3944 -0.5536
  456MPD2    H7 6800   0.650   3.100  16.849 -0.3897 -0.6238  0.4161
  457TMC3    C1 6801   0.372   3.789  17.137 -0.1432  0.2552  0.4449
  457TMC3    C2 6802   0.411   3.914  17.145 -0.4919 -0.3197  0.7902
  457TMC3    C3 6803   0.415   3.977  17.265 -0.1487 -0.0292 -0.1348
  457TMC3    C4 6804   0.334   3.717  17.245  0.4984  0.3533  0.2101
  457TMC3    C5 6805   0.335   3.776  17.374 -0.4555 -0.3109 -0.3849
  457TMC3    C6 6806   0.381   3.910  17.377  0.2444  0.1552  0.7319
  457TMC3     C 6807   0.402   3.718  17.016 -0.3927  0.5257  0.4378
  457TMC3     O 6808   0.391   3.774  16.907 -0.3545 -0.2903 -0.3211
  457TMC3     H 6809   0.458   3.971  17.065 -1.8227  0.7537  0.7681
  457TMC3    H1 6810   0.286   3.621  17.229  1.5097  0.0455 -0.9674
  457TMC3    H2 6811   0.371   3.967  17.469  0.1679 -0.2474  0.9720
  457TMC3    C7 6812   0.295   3.706  17.493 -0.5250 -0.1437  0.2801
  457TMC3    C8 6813   0.471   4.105  17.306  0.1040 -0.3457  0.2623
  457TMC3    O1 6814   0.261   3.589  17.481  0.5283 -0.9691 -0.0858
  457TMC3    O2 6815   0.412   4.164  17.398 -0.1512 -0.4320  0.8951
  458MPD2     C 6816   2.972   2.194  12.368 -0.2751  0.2295 -0.1189
  458MPD2    C1 6817   2.904   2.181  12.490  0.1751 -0.8965 -0.4799
  458MPD2    C2 6818   2.770   2.156  12.496 -0.1373  0.0733  1.2141
  458MPD2    C3 6819   2.702   2.137  12.375  0.2383 -0.2209  0.4585
  458MPD2    C4 6820   2.775   2.155  12.255 -0.1131 -0.7072  0.1850
  458MPD2    C5 6821   2.912   2.177  12.251  0.5501  0.2644 -0.1773
  458MPD2     H 6822   2.713   2.141  12.586 -1.3268  2.3020  0.8322
  458MPD2    H1 6823   2.728   2.161  12.158 -0.1427 -1.9879  0.1117
  458MPD2    H2 6824   3.077   2.219  12.375 -0.5545  1.8598 -1.8922
  458MPD2    H3 6825   2.966   2.195  12.159 -1.5430 -2.0686 -1.8741
  458MPD2     N 6826   2.560   2.127  12.370 -0.1489 -0.2223 -0.0743
  458MPD2    H5 6827   2.504   2.148  12.452  1.2210  0.5594  0.6682
  458MPD2    N1 6828   2.989   2.181  12.606  0.6091 -0.0635  0.1146
  458MPD2    H7 6829   3.086   2.209  12.592  1.0584 -0.5757  2.2305
  459TMC3    C1 6830   3.056   2.152  12.837 -0.4518 -1.0852 -0.2057
  459TMC3    C2 6831   3.177   2.195  12.800  0.0696  0.2918  0.4826
  459TMC3    C3 6832   3.249   2.256  12.899  0.2472 -0.4092  0.1771
  459TMC3    C4 6833   3.010   2.161  12.962 -0.6213  0.2728 -0.6287
  459TMC3    C5 6834   3.084   2.231  13.059 -0.6249 -0.3841  0.2102
  459TMC3    C6 6835   3.210   2.273  13.030 -0.7144 -0.2801  0.0795
  459TMC3     C 6836   2.945   2.154  12.735  0.1890 -0.0025 -0.2555
  459TMC3     O 6837   2.830   2.154  12.777 -0.5665  0.4001 -0.2451
  459TMC3     H 6838   3.210   2.195  12.697  0.1542 -2.4076  0.5280
  459TMC3    H1 6839   2.911   2.126  12.989  0.0721 -1.6108 -0.4837
  459TMC3    H2 6840   3.281   2.310  13.103 -0.4951  0.4542 -0.5085
  459TMC3    C7 6841   3.072   2.193  13.200 -0.7757  0.0233 -0.8236
  459TMC3    C8 6842   3.375   2.306  12.858  0.2329 -0.3464  0.3830
  459TMC3    O1 6843   3.170   2.216  13.267 -0.1853  0.4968 -0.1807
  459TMC3    O2 6844   3.425   2.243  12.759 -0.0266 -0.3430 -0.6074
  460MPD2     C 6845   1.350   4.491  10.965  0.0457 -0.0742 -0.2896
  460MPD2    C1 6846   1.343   4.615  10.905  0.2940 -0.4647  0.2884
  460MPD2    C2 6847   1.374   4.623  10.774 -0.0128  0.0319 -0.7460
  460MPD2    C3 6848   1.401   4.513  10.704 -0.7237  0.7969 -0.2692
  460MPD2    C4 6849   1.422   4.392  10.769 -0.1316  0.2078 -0.4061
  460MPD2    C5 6850   1.391   4.383  10.904 -0.1960  0.3479  0.3542
  460MPD2     H 6851   1.375   4.719  10.723 -1.9135  0.6805  0.4266
  460MPD2    H1 6852   1.444   4.299  10.718 -1.2246 -0.1537 -0.2112
  460MPD2    H2 6853   1.336   4.478  11.072  2.7737  0.5316  0.1535
  460MPD2    H3 6854   1.404   4.283  10.943  2.4072  0.3768 -0.4426
  460MPD2     N 6855   1.427   4.535  10.569 -0.3202  0.4028 -0.4695
  460MPD2    H5 6856   1.405   4.629  10.536  0.9254 -0.1040 -2.7554
  460MPD2    N1 6857   1.333   0.004  10.991 -0.2379 -0.5179  0.3259
  460MPD2    H7 6858   1.308   4.708  11.087 -0.3640  1.4199  0.7264
  461TMC3    C1 6859   1.501   4.502  10.349 -0.3904 -0.9452 -0.1637
  461TMC3    C2 6860   1.500   4.409  10.246 -0.2596 -0.5177 -0.7700
  461TMC3    C3 6861   1.498   4.452  10.114  0.2443 -0.1565 -0.2926
  461TMC3    C4 6862   1.508   4.635  10.318 -0.1007  0.5811  0.5461
  461TMC3    C5 6863   1.496   4.676  10.185  0.9345 -0.3422  0.3486
  461TMC3    C6 6864   1.494   4.588  10.078  0.1987 -0.7515  0.5479
  461TMC3     C 6865   1.500   4.454  10.483 -0.3584 -0.2821  0.1478
  461TMC3     O 6866   1.535   4.340  10.494  0.3381  0.4138  0.5883
  461TMC3     H 6867   1.505   4.301  10.256 -0.6005 -0.4297  0.3112
  461TMC3    H1 6868   1.514   4.709  10.397 -0.3121  2.5290 -1.2434
  461TMC3    H2 6869   1.478   4.617   9.975  1.2739  0.0653  0.6095
  461TMC3    C7 6870   1.447   0.086  10.157 -0.0448  0.0122 -0.1307
  461TMC3    C8 6871   1.470   4.349  10.013  0.2189  0.5103 -0.7126
  461TMC3    O1 6872   1.396   0.096  10.047 -0.5948 -0.2304 -0.0667
  461TMC3    O2 6873   1.525   4.238  10.017 -0.4061  0.5293  0.0429
  462TMC3    C1 6874   1.893   1.094   0.523  0.6243  0.5346  0.5177
  462TMC3    C2 6875   1.993   1.036   0.588 -0.1960 -0.4076 -0.4036
  462TMC3    C3 6876   1.965   0.971   0.698  1.1753 -0.4340  0.7958
  462TMC3    C4 6877   1.758   1.077   0.559  0.1311  0.0723  0.4160
  462TMC3    C5 6878   1.736   0.997   0.670 -0.4121  0.3560  0.0196
  462TMC3    C6 6879   1.835   0.953   0.744 -0.2356 -0.4239  0.2594
  462TMC3     C 6880   1.923   1.189   0.418 -0.1629 -0.3608 -0.7269
  462TMC3     O 6881   2.009   1.147   0.338  0.1578 -0.3892  0.3407
  462TMC3     H 6882   2.093   1.057   0.553 -0.0030  0.6247  0.7957
  462TMC3    H1 6883   1.686   1.128   0.498  2.4469  1.4429 -1.1754
  462TMC3    H2 6884   1.815   0.883   0.825  4.6066 -2.8488 -0.6113
  462TMC3    C7 6885   1.608   0.940   0.688  0.7886  0.1195 -0.8416
  462TMC3    C8 6886   2.064   0.889   0.755  0.0771 -0.2681  0.2211
  462TMC3    O1 6887   1.614   0.825   0.726 -0.5183  0.4551  0.4804
  462TMC3    O2 6888   2.058   0.867   0.874  0.0044 -0.1931 -0.0292
  463MPD2     C 6889   2.655   3.816   1.882  0.0630 -0.5434 -0.0465
  463MPD2    C1 6890   2.679   3.851   1.745  1.1436  0.2182  0.1724
  463MPD2    C2 6891   2.773   3.939   1.701  0.1017 -0.0444  0.5046
  463MPD2    C3 6892   2.838   4.013   1.797  0.1396 -0.0635  0.0410
  463MPD2    C4 6893   2.813   3.983   1.933  0.1576 -0.6454 -0.0987
  463MPD2    C5 6894   2.732   3.881   1.976  0.2669  0.2301 -0.2274
  463MPD2     H 6895   2.788   3.968   1.598 -1.5811  2.2482  0.8943
  463MPD2    H1 6896   2.860   4.048   2.006  0.8744  0.9793 -2.0150
  463MPD2    H2 6897   2.587   3.737   1.909  0.0092 -1.0558 -1.7227
  463MPD2    H3 6898   2.714   3.864   2.082  0.3108 -2.1240 -0.5979
  463MPD2     N 6899   2.928   4.123   1.773  0.0263 -0.3636 -0.7169
  463MPD2    H5 6900   2.998   4.134   1.846 -1.7120  0.4197  0.8363
  463MPD2    N1 6901   2.606   3.790   1.636  0.1396  0.0851 -0.2040
  463MPD2    H7 6902   2.614   3.829   1.542  1.6537  0.1978 -0.0258
  464TMC3    C1 6903   2.447   3.627   1.536 -0.0213 -0.5349  0.2689
  464TMC3    C2 6904   2.373   3.720   1.465  0.1314 -0.1471 -0.8488
  464TMC3    C3 6905   2.271   3.668   1.392  0.3224 -0.4093 -0.3724
  464TMC3    C4 6906   2.419   3.494   1.539  0.1216 -0.1607 -0.9713
  464TMC3    C5 6907   2.328   3.445   1.447 -0.6880  0.1579  0.3373
  464TMC3    C6 6908   2.247   3.536   1.386  0.4714  0.5793  0.8477
  464TMC3     C 6909   2.517   3.679   1.651 -0.3014 -0.6053 -0.3492
  464TMC3     O 6910   2.514   3.608   1.752  0.5446  0.6011 -0.0062
  464TMC3     H 6911   2.385   3.827   1.458  0.6002 -0.1850 -0.6172
  464TMC3    H1 6912   2.484   3.419   1.582 -1.2051  0.5630  2.3357
  464TMC3    H2 6913   2.169   3.509   1.316 -0.0527  1.7141  0.9907
  464TMC3    C7 6914   2.291   3.309   1.459  0.0465  0.7585  0.4648
  464TMC3    C8 6915   2.197   3.755   1.310  0.0385  0.5706  0.5784
  464TMC3    O1 6916   2.375   3.219   1.469 -0.1783 -0.3140 -0.4350
  464TMC3    O2 6917   2.259   3.837   1.246 -0.4567  0.1933 -0.2785
  465MPD2     C 6918   4.010   3.070  17.458  0.1096 -0.2456 -0.6478
  465MPD2    C1 6919   3.885   3.107  17.494 -0.7744 -0.7023  0.0560
  465MPD2    C2 6920   3.776   3.078  17.410 -0.3957  0.3488 -0.6501
  465MPD2    C3 6921   3.789   2.998  17.304 -0.3754  0.0384  0.1470
  465MPD2    C4 6922   3.904   2.930  17.289 -0.2434  0.1503  0.2678
  465MPD2    C5 6923   4.013   2.985  17.354 -0.4559  0.2541  0.2702
  465MPD2     H 6924   3.686   3.125  17.447  0.9737  1.1991  1.6521
  465MPD2    H1 6925   3.915   2.858  17.209 -0.9016 -0.9643  1.1756
  465MPD2    H2 6926   4.096   3.111  17.510 -0.1691 -1.3467  0.6984
  465MPD2    H3 6927   4.113   2.964  17.318 -0.7684 -0.2976 -0.2872
  465MPD2     N 6928   3.678   2.970  17.227 -0.1764 -0.3918 -0.0863
  465MPD2    H5 6929   3.600   3.030  17.249 -0.3121 -0.4778 -0.3292
  465MPD2    N1 6930   3.857   3.175  17.613 -0.2934 -0.2654 -0.6553
  465MPD2    H7 6931   3.760   3.202  17.624  0.0385  1.1371 -1.2686
  466TMC3    C1 6932   3.403   3.133  17.091 -0.1688  0.7389 -0.7724
  466TMC3    C2 6933   3.441   3.204  16.981  0.4782  0.4358 -0.0416
  466TMC3    C3 6934   3.526   3.143  16.892  0.7496  0.1026  0.2990
  466TMC3    C4 6935   3.468   3.014  17.110  0.0960 -0.6897  0.8502
  466TMC3    C5 6936   3.558   2.964  17.020 -0.6915  0.1386 -0.0659
  466TMC3    C6 6937   3.574   3.020  16.902 -0.5405 -0.3283 -0.2300
  466TMC3     C 6938   3.401   3.220  17.203  0.5189  0.3611  0.3673
  466TMC3     O 6939   3.480   3.180  17.286  0.3235 -0.1707 -0.3288
  466TMC3     H 6940   3.403   3.304  16.965 -0.0110  0.2708  0.0729
  466TMC3    H1 6941   3.444   2.946  17.191 -2.0238 -1.2477 -0.2588
  466TMC3    H2 6942   3.658   3.000  16.836 -0.9826 -0.5270 -0.7385
  466TMC3    C7 6943   3.684   2.929  17.092 -0.2489 -0.6686 -0.1062
  466TMC3    C8 6944   3.601   3.226  16.797 -0.2463  0.2319 -0.5609
  466TMC3    O1 6945   3.779   2.893  17.025 -0.0559 -0.0627  0.5151
  466TMC3    O2 6946   3.641   3.171  16.691  0.1162  0.3987  0.0914
  467TMC3    C1 6947   0.131   2.070  14.148  0.0148 -0.9382  0.2103
  467TMC3    C2 6948   0.063   2.097  14.033 -0.8781 -0.1331 -0.3112
  467TMC3    C3 6949   4.686   2.015  14.008 -0.2104  0.3555  0.6811
  467TMC3    C4 6950   0.087   1.975  14.241  0.4683 -0.0703  0.5994
  467TMC3    C5 6951   4.696   1.910  14.216  0.2230 -0.0186 -0.5791
  467TMC3    C6 6952   4.639   1.923  14.090 -0.3738 -0.0659 -0.4162
  467TMC3     C 6953   0.275   2.090  14.147 -0.0159  0.2814  0.1482
  467TMC3     O 6954   0.338   2.064  14.248  0.0538  0.2293 -0.0818
  467TMC3     H 6955   0.084   2.183  13.970 -1.2328 -0.8222 -1.3700
  467TMC3    H1 6956   0.139   1.958  14.334  1.1195  0.1532  0.2820
  467TMC3    H2 6957   4.556   1.857  14.067 -0.3061 -0.3365  0.1201
  467TMC3    C7 6958   4.678   1.795  14.296 -0.0950  0.2631 -0.0833
  467TMC3    C8 6959   4.623   2.034  13.880  0.9165  0.7339 -0.1764
  467TMC3    O1 6960   0.054   1.752  14.348  0.0944  0.3444  0.2520
  467TMC3    O2 6961   4.665   2.132  13.822  0.1559 -0.0435 -0.3321
  468MPD2     C 6962   3.140   0.035  10.832 -0.3242 -0.5341  0.5196
  468MPD2    C1 6963   3.266   4.709  10.849  0.3073 -0.3259 -0.3125
  468MPD2    C2 6964   3.301   4.579  10.830  0.6958  0.5128  0.3420
  468MPD2    C3 6965   3.200   4.488  10.812  0.3665 -0.2518  0.2913
  468MPD2    C4 6966   3.068   4.539  10.798  0.6152  0.3345  0.6671
  468MPD2    C5 6967   3.038   4.670  10.799 -0.7440 -0.5712  0.2144
  468MPD2     H 6968   3.408   4.563  10.845  0.6418 -0.0191  0.1637
  468MPD2    H1 6969   2.979   4.480  10.780  1.0131 -0.3275  0.8779
  468MPD2    H2 6970   3.109   0.138  10.852 -0.2929 -0.7648  1.7826
  468MPD2    H3 6971   2.935   4.703  10.791  0.4395  3.0851  0.0724
  468MPD2     N 6972   3.217   4.347  10.804 -0.1788 -0.1524 -0.5479
  468MPD2    H5 6973   3.129   4.297  10.809 -0.9347  1.0953 -1.2713
  468MPD2    N1 6974   3.381   0.065  10.869  0.7011  0.3887 -0.5086
  468MPD2    H7 6975   3.465   0.014  10.898  2.7417  3.5327 -0.8646
  469TMC3    C1 6976   3.525   0.243  10.925 -0.2855  0.1252 -0.2498
  469TMC3    C2 6977   3.613   0.151  10.969  0.1984  0.0438 -0.4593
  469TMC3    C3 6978   3.724   0.197  11.033  0.0472 -0.0889 -0.0203
  469TMC3    C4 6979   3.543   0.373  10.946 -0.3232  0.1262  0.6406
  469TMC3    C5 6980   3.656   0.414  11.010 -0.3279 -0.0429  1.0462
  469TMC3    C6 6981   3.747   0.331  11.053 -0.3274 -0.2537  0.2031
  469TMC3     C 6982   3.389   0.201  10.894  0.3361 -0.1524 -0.0697
  469TMC3     O 6983   3.294   0.279  10.907 -0.0627 -0.2747 -0.5033
  469TMC3     H 6984   3.601   0.046  10.946  1.6037 -0.3482  0.6103
  469TMC3    H1 6985   3.463   0.441  10.917  1.0416  0.6302 -1.8915
  469TMC3    H2 6986   3.838   0.366  11.101 -0.9153  0.6195  0.6802
  469TMC3    C7 6987   3.666   0.557  11.040 -0.2306 -0.3239  0.2458
  469TMC3    C8 6988   3.806   0.100  11.097 -0.2794 -0.0020 -0.4527
  469TMC3    O1 6989   3.565   0.623  11.014 -0.8679  0.1357 -0.5633
  469TMC3    O2 6990   3.797   4.711  11.058 -1.1127  0.2737 -0.1426
  470TMC3    C1 6991   0.649   0.295   0.894 -0.0650 -0.2963 -0.2232
  470TMC3    C2 6992   0.655   0.405   0.806 -0.4086 -0.5033  0.4741
  470TMC3    C3 6993   0.713   0.519   0.855 -0.0441 -0.7227 -0.5296
  470TMC3    C4 6994   0.718   0.297   1.014  0.5859  0.0321 -0.5509
  470TMC3    C5 6995   0.781   0.412   1.052 -0.3148  0.3613 -0.0501
  470TMC3    C6 6996   0.774   0.526   0.975  0.0154  0.0540  0.0846
  470TMC3     C 6997   0.662   0.163   0.837 -0.8141  0.5948  0.0786
  470TMC3     O 6998   0.770   0.108   0.856 -0.6820 -0.3151 -0.1328
  470TMC3     H 6999   0.590   0.406   0.719 -0.5506 -1.9607  0.5682
  470TMC3    H1 7000   0.720   0.212   1.080  0.4601  0.5733  0.1496
  470TMC3    H2 7001   0.824   0.614   1.015  2.1199 -0.8817 -0.4723
  470TMC3    C7 7002   0.864   0.415   1.173  0.3108 -0.3460  0.1799
  470TMC3    C8 7003   0.724   0.631   0.752 -0.9368 -1.0903  0.4096
  470TMC3    O1 7004   0.967   0.476   1.167  0.2005 -0.1913  0.8154
  470TMC3    O2 7005   0.696   0.602   0.637 -0.3551  0.3899  0.3658
  471MPD2     C 7006   1.713   2.139  16.881 -0.0996  0.9621 -0.0967
  471MPD2    C1 7007   1.672   2.008  16.898  0.6283 -0.3380  0.1213
  471MPD2    C2 7008   1.638   1.964  17.022 -0.1726 -0.1682 -0.1988
  471MPD2    C3 7009   1.644   2.047  17.126  0.3257  0.3909  0.1701
  471MPD2    C4 7010   1.692   2.177  17.106 -0.0871  0.1405 -0.4062
  471MPD2    C5 7011   1.725   2.220  16.981 -0.0299  0.0082  0.6159
  471MPD2     H 7012   1.616   1.859  17.038  0.8319 -0.5438 -1.2625
  471MPD2    H1 7013   1.704   2.245  17.190 -1.4494 -0.0525 -0.0534
  471MPD2    H2 7014   1.742   2.181  16.785 -0.1825  2.0762  0.3656
  471MPD2    H3 7015   1.754   2.322  16.960 -1.0153  0.6068  2.1285
  471MPD2     N 7016   1.628   2.009  17.258 -0.1994 -0.3458 -0.0901
  471MPD2    H5 7017   1.675   2.065  17.328  1.4019  0.2290 -1.6147
  471MPD2    N1 7018   1.666   1.919  16.791  0.2738 -0.6415  0.1061
  471MPD2    H7 7019   1.625   1.828  16.809 -0.9954 -0.0095  0.4494
  472TMC3    C1 7020   1.632   1.847  16.584  0.9217  0.0166 -0.1457
  472TMC3    C2 7021   1.569   1.868  16.465  0.1328  0.2236  1.0722
  472TMC3    C3 7022   1.509   1.766  16.404  0.5548  0.4845  0.0754
  472TMC3    C4 7023   1.660   1.721  16.628 -0.3209  0.0639 -0.8890
  472TMC3    C5 7024   1.610   1.617  16.555 -0.3525 -0.0787  0.6236
  472TMC3    C6 7025   1.530   1.634  16.446  0.0931  0.0699 -0.3694
  472TMC3     C 7026   1.681   1.955  16.662 -0.6079 -0.2921 -0.4467
  472TMC3     O 7027   1.680   2.067  16.612  0.0801  0.5080  0.0473
  472TMC3     H 7028   1.531   1.969  16.452 -0.2079  0.3133  2.7833
  472TMC3    H1 7029   1.739   1.711  16.701 -2.0700 -0.2768  0.9625
  472TMC3    H2 7030   1.485   1.556  16.386 -0.7051  0.4094 -0.2172
  472TMC3    C7 7031   1.646   1.486  16.601  0.0971 -0.3585  0.1417
  472TMC3    C8 7032   1.385   1.792  16.341 -0.0580  0.0940 -0.6119
  472TMC3    O1 7033   1.690   1.484  16.715 -0.2232  0.3263 -0.0412
  472TMC3    O2 7034   1.380   1.886  16.262 -0.2134  0.0891  0.9118
  473MPD2     C 7035   1.640   4.151  13.924  0.1464 -0.3802 -0.3723
  473MPD2    C1 7036   1.609   4.281  13.896  0.2499 -0.1757 -0.0044
  473MPD2    C2 7037   1.686   4.386  13.932 -0.1729 -0.1976  0.7137
  473MPD2    C3 7038   1.795   4.362  14.016  0.2392  0.3530  0.0987
  473MPD2    C4 7039   1.827   4.238  14.053  0.2432 -0.2656  0.4455
  473MPD2    C5 7040   1.750   4.134  14.003  0.4347 -0.2277  0.0629
  473MPD2     H 7041   1.652   4.489  13.923  0.6739  0.0910  0.8459
  473MPD2    H1 7042   1.905   4.220  14.126  1.1223  0.7010 -0.2479
  473MPD2    H2 7043   1.591   4.062  13.887  1.0297 -0.7000 -0.7730
  473MPD2    H3 7044   1.781   4.037  14.041 -1.2555 -0.8942 -0.2742
  473MPD2     N 7045   1.860   4.468  14.081  0.3564 -0.0886 -0.4153
  473MPD2    H5 7046   1.915   4.450  14.164  0.3931 -0.0777 -0.4373
  473MPD2    N1 7047   1.498   4.316  13.811  0.9990  0.3779  0.2099
  473MPD2    H7 7048   1.450   4.405  13.821 -1.0395 -0.6671 -0.4233
  474TMC3    C1 7049   1.963   4.684  14.105 -0.7490  0.1144 -0.1800
  474TMC3    C2 7050   1.936   0.087  14.086 -0.1299 -0.1621  0.3959
  474TMC3    C3 7051   2.002   0.182  14.162 -0.5152 -0.6382  0.0790
  474TMC3    C4 7052   2.060   4.629  14.183 -0.3641  0.5449  0.3350
  474TMC3    C5 7053   2.132   4.723  14.251 -0.1149 -0.2686  0.3811
  474TMC3    C6 7054   2.109   0.138  14.240 -0.4860 -0.0726  0.3338
  474TMC3     C 7055   1.879   4.594  14.024  0.1411  0.4729 -0.0789
  474TMC3     O 7056   1.836   4.626  13.913 -0.0898 -0.0470  1.0292
  474TMC3     H 7057   1.850   0.117  14.026  0.0780 -0.1068  0.1242
  474TMC3    H1 7058   2.085   4.524  14.194  1.0736  0.6786 -1.6518
  474TMC3    H2 7059   2.178   0.207  14.286 -1.4090  0.6999  0.5706
  474TMC3    C7 7060   2.195   4.669  14.374  0.4656 -0.2425  0.8419
  474TMC3    C8 7061   1.991   0.329  14.145 -0.3555  0.4312  0.0780
  474TMC3    O1 7062   2.200   4.543  14.383 -0.7482  0.8831 -0.1909
  474TMC3    O2 7063   2.043   0.398  14.229 -0.3656 -0.7933  0.1281
  475MPD2     C 7064   0.024   2.280  10.101  0.0278 -0.5002 -0.0144
  475MPD2    C1 7065   0.096   2.393  10.120  0.5548  0.2691 -0.0054
  475MPD2    C2 7066   0.078   2.463  10.231 -0.0648 -0.2787  0.4370
  475MPD2    C3 7067   4.722   2.422  10.333 -0.2218  1.2064 -0.7186
  475MPD2    C4 7068   4.649   2.306  10.312 -0.5902  0.1537 -0.2372
  475MPD2    C5 7069   4.661   2.238  10.195 -0.7905 -0.0973  0.1074
  475MPD2     H 7070   0.138   2.551  10.252  0.2011 -0.2062 -0.5806
  475MPD2    H1 7071   4.571   2.274  10.381 -0.4924 -2.7735 -1.4974
  475MPD2    H2 7072   0.040   2.221  10.012 -0.6845 -3.0228  1.5466
  475MPD2    H3 7073   4.605   2.147  10.181  1.5749 -1.8028  1.6771
  475MPD2     N 7074   4.704   2.509  10.448  0.0969 -0.0981  0.5518
  475MPD2    H5 7075   0.036   2.592  10.455 -0.7911  0.7906 -2.9002
  475MPD2    N1 7076   0.199   2.426  10.028  0.1242 -1.2516 -0.1217
  475MPD2    H7 7077   0.184   2.380   9.939  0.2313  0.4130 -0.9762
  476TMC3    C1 7078   0.381   2.571   9.933 -0.5772 -0.0015 -0.0984
  476TMC3    C2 7079   0.314   2.588   9.813 -0.2568 -0.7429  0.5762
  476TMC3    C3 7080   0.345   2.693   9.734  0.1075  0.1862 -0.1305
  476TMC3    C4 7081   0.489   2.654   9.969  0.3425  0.8616 -0.5345
  476TMC3    C5 7082   0.529   2.752   9.878 -0.3242  0.0364  0.5570
  476TMC3    C6 7083   0.459   2.767   9.758  1.0153 -0.2910  0.3329
  476TMC3     C 7084   0.299   2.524  10.047  0.5068 -0.0137  0.2300
  476TMC3     O 7085   0.328   2.585  10.151 -0.1622  0.0797 -0.3238
  476TMC3     H 7086   0.219   2.536   9.805 -0.7379  0.0660  0.9878
  476TMC3    H1 7087   0.544   2.630  10.060  1.6751  2.3530 -0.9424
  476TMC3    H2 7088   0.469   2.867   9.718  0.1360 -1.7278 -3.4918
  476TMC3    C7 7089   0.625   2.845   9.913 -0.1827  0.6234  0.3414
  476TMC3    C8 7090   0.239   2.756   9.660 -0.2959  0.0923  0.5078
  476TMC3    O1 7091   0.691   2.895   9.823  0.2689 -0.1069 -0.8037
  476TMC3    O2 7092   0.244   2.876   9.640  0.4805 -0.0540  0.0709
  477MPD2     C 7093   1.683   3.733  11.788 -0.5381 -0.6639 -0.0725
  477MPD2    C1 7094   1.769   3.842  11.778  0.2142 -0.1243 -0.0301
  477MPD2    C2 7095   1.886   3.843  11.843 -0.9211  1.1132  0.0634
  477MPD2    C3 7096   1.914   3.740  11.932 -0.0850 -0.2214  0.1512
  477MPD2    C4 7097   1.830   3.631  11.949  0.6335  1.1020 -0.0341
  477MPD2    C5 7098   1.721   3.621  11.860 -0.1947  0.0212 -0.2854
  477MPD2     H 7099   1.959   3.924  11.842  0.6706 -0.2801  3.3286
  477MPD2    H1 7100   1.853   3.544  12.009 -1.4141 -0.0940 -0.9786
  477MPD2    H2 7101   1.593   3.722  11.727 -0.6853  2.4384 -0.4210
  477MPD2    H3 7102   1.648   3.540  11.863 -1.1057  0.8625  0.1360
  477MPD2     N 7103   2.024   3.755  12.017  0.3291 -0.3199 -0.4376
  477MPD2    H5 7104   2.094   3.822  11.987  0.3661  0.0236  0.4131
  477MPD2    N1 7105   1.715   3.952  11.715  0.1582  0.0359 -0.8091
  477MPD2    H7 7106   1.614   3.942  11.704 -0.3382  1.8478  2.0195
  478TMC3    C1 7107   1.688   4.181  11.654  0.3127 -0.2316 -0.3120
  478TMC3    C2 7108   1.709   4.304  11.699  0.6014 -0.3086 -0.0383
  478TMC3    C3 7109   1.602   4.400  11.678  0.3005  0.0084 -0.4130
  478TMC3    C4 7110   1.580   4.145  11.581 -0.1226 -0.2830 -0.0248
  478TMC3    C5 7111   1.480   4.236  11.558  1.1261 -0.8374  0.1473
  478TMC3    C6 7112   1.489   4.366  11.603 -0.1942 -0.6200 -0.3695
  478TMC3     C 7113   1.774   4.076  11.703 -0.2744 -0.0838 -0.5187
  478TMC3     O 7114   1.895   4.101  11.723 -0.2883  0.0977 -0.1661
  478TMC3     H 7115   1.800   4.332  11.749  0.3980  0.9198 -0.3627
  478TMC3    H1 7116   1.570   4.039  11.560  0.9833 -0.4786  0.4780
  478TMC3    H2 7117   1.413   4.439  11.583 -0.0292 -0.2084  0.5016
  478TMC3    C7 7118   1.387   4.190  11.456  0.2403  0.1352  0.1415
  478TMC3    C8 7119   1.591   4.494  11.784 -0.0119  0.0060 -0.1182
  478TMC3    O1 7120   1.388   4.070  11.439 -0.1092 -0.1498 -0.4583
  478TMC3    O2 7121   1.664   4.475  11.887 -0.0009 -0.6802  0.0530
  479MPD2     C 7122   1.503   1.795  15.404 -0.2463  0.4936 -0.0465
  479MPD2    C1 7123   1.431   1.696  15.462  0.1039 -0.6514  0.2535
  479MPD2    C2 7124   1.426   1.692  15.597 -0.0620  0.4686 -0.6934
  479MPD2    C3 7125   1.487   1.786  15.673 -0.7147  0.5509 -0.0217
  479MPD2    C4 7126   1.543   1.893  15.615  0.0349  0.1539  0.1043
  479MPD2    C5 7127   1.557   1.894  15.481  0.0636 -0.0211 -0.3358
  479MPD2     H 7128   1.367   1.619  15.650  0.4283 -0.2496 -1.1298
  479MPD2    H1 7129   1.576   1.980  15.671  1.2546  0.3871 -0.9614
  479MPD2    H2 7130   1.500   1.811  15.297 -3.3594  1.9903  0.2482
  479MPD2    H3 7131   1.622   1.955  15.419  1.5650  0.7484  2.0054
  479MPD2     N 7132   1.461   1.792  15.810 -0.2146  0.4529 -0.2800
  479MPD2    H5 7133   1.494   1.875  15.857 -2.6283  1.4470 -0.3388
  479MPD2    N1 7134   1.381   1.601  15.371 -0.6384  0.1710  0.1007
  479MPD2    H7 7135   1.387   1.619  15.271  2.6744  0.7441  0.3846
  480TMC3    C1 7136   1.227   1.527  16.097 -0.1757  0.6935 -0.6207
  480TMC3    C2 7137   1.119   1.554  16.019 -0.2827  0.1086 -0.0581
  480TMC3    C3 7138   1.123   1.663  15.939 -0.1369  0.7979 -0.2417
  480TMC3    C4 7139   1.345   1.598  16.079 -0.3747 -0.1308 -0.2853
  480TMC3    C5 7140   1.351   1.704  15.998  0.2128 -0.3839  0.0542
  480TMC3    C6 7141   1.237   1.748  15.937 -0.5699  0.2992 -0.0344
  480TMC3     C 7142   1.236   1.422  16.204  0.2719 -0.4246  0.2832
  480TMC3     O 7143   1.342   1.388  16.256 -0.1596 -0.1277 -0.7208
  480TMC3     H 7144   1.024   1.504  16.035 -0.3216 -0.5721 -2.5245
  480TMC3    H1 7145   1.434   1.565  16.132 -0.0627  0.5163 -0.4115
  480TMC3    H2 7146   1.232   1.845  15.888  1.8459 -0.6130 -2.1060
  480TMC3    C7 7147   1.439   1.679  15.887  0.7805 -0.4982 -0.1747
  480TMC3    C8 7148   1.052   1.652  15.810 -0.0205  0.3676 -0.0645
  480TMC3    O1 7149   1.469   1.567  15.860  0.5905  0.1006  0.1693
  480TMC3    O2 7150   0.985   1.549  15.794  0.0516 -0.5077  0.1837
  481MPD2     C 7151   3.455   1.039  14.378 -0.6405 -0.2391 -0.3464
  481MPD2    C1 7152   3.327   0.997  14.411 -0.0674  0.7017 -0.0410
  481MPD2    C2 7153   3.302   0.960  14.544 -0.0436 -0.1669 -0.5266
  481MPD2    C3 7154   3.393   0.994  14.643  0.8620 -0.2469 -0.1702
  481MPD2    C4 7155   3.516   1.039  14.604 -0.2628 -0.2802 -0.5662
  481MPD2    C5 7156   3.552   1.052  14.469  0.5200  0.2244  0.5801
  481MPD2     H 7157   3.205   0.914  14.562 -0.4188  1.0363  0.4988
  481MPD2    H1 7158   3.595   1.066  14.674  1.0115 -2.8525 -0.9985
  481MPD2    H2 7159   3.488   1.071  14.280  1.5071  0.7940  0.7358
  481MPD2    H3 7160   3.647   1.093  14.440  0.5328 -0.8506 -0.8850
  481MPD2     N 7161   3.361   0.973  14.779 -0.1127  0.2411  0.3707
  481MPD2    H5 7162   3.438   0.998  14.841 -1.9802  1.3869  2.2252
  481MPD2    N1 7163   3.235   0.984  14.302 -0.0533 -0.2324 -0.6844
  481MPD2    H7 7164   3.266   0.977  14.206 -0.8845  0.2125 -0.9846
  482TMC3    C1 7165   3.033   0.964  14.197  0.1657  0.4077  0.3596
  482TMC3    C2 7166   2.907   0.920  14.203  0.0692 -0.0238  0.9108
  482TMC3    C3 7167   2.817   0.951  14.101 -0.3462  0.2669 -0.4630
  482TMC3    C4 7168   3.085   1.037  14.088 -0.2249  0.7676  0.6949
  482TMC3    C5 7169   2.997   1.053  13.985  0.1828  0.1556  0.2162
  482TMC3    C6 7170   2.863   1.012  13.985 -0.1780 -0.3405 -0.7041
  482TMC3     C 7171   3.103   0.973  14.317 -0.1540  0.4193  0.1842
  482TMC3     O 7172   3.036   0.974  14.418  0.4738  0.1865  0.1074
  482TMC3     H 7173   2.863   0.875  14.292 -3.2179 -1.1363 -1.2897
  482TMC3    H1 7174   3.178   1.093  14.088 -0.0443  0.4816  2.3910
  482TMC3    H2 7175   2.803   1.002  13.896  0.4615 -2.1404 -0.9245
  482TMC3    C7 7176   3.044   1.115  13.861  0.1383  0.1843  0.0011
  482TMC3    C8 7177   2.691   0.879  14.106 -0.7044  0.3489 -0.2157
  482TMC3    O1 7178   3.166   1.113  13.849  0.3405 -0.1547 -0.3051
  482TMC3    O2 7179   2.681   0.783  14.179  0.4117 -0.0354 -0.7955
  483TMC3    C1 7180   0.375   4.590   1.347 -0.2127 -0.3414 -0.7497
  483TMC3    C2 7181   0.468   4.695   1.339  0.0967  0.3003 -0.4304
  483TMC3    C3 7182   0.592   4.663   1.380 -1.0314  0.8484 -0.3243
  483TMC3    C4 7183   0.406   4.464   1.397 -0.6635 -0.2229 -0.1553
  483TMC3    C5 7184   0.533   4.452   1.459 -0.2412  0.8976  0.7612
  483TMC3    C6 7185   0.626   4.549   1.452 -0.3274  0.1205 -0.0019
  483TMC3     C 7186   0.284   4.597   1.228 -0.1501  0.2378 -0.8890
  483TMC3     O 7187   0.216   4.701   1.215  0.3634  0.0786 -0.3477
  483TMC3     H 7188   0.449   0.060   1.282  0.5854 -0.4739 -1.8394
  483TMC3    H1 7189   0.336   4.382   1.384 -0.3235 -0.6312  0.5933
  483TMC3    H2 7190   0.730   4.523   1.467  0.2224  1.2517 -1.8118
  483TMC3    C7 7191   0.576   4.315   1.492 -0.3739 -0.6966 -0.2752
  483TMC3    C8 7192   0.697   4.710   1.287  0.4850 -0.6258  0.8780
  483TMC3    O1 7193   0.693   4.286   1.482  0.1201  0.2389  0.1748
  483TMC3    O2 7194   0.662   0.009   1.173  0.1624 -0.1256 -0.0952
  484MPD2     C 7195   3.460   2.657  12.877  0.1529  0.1695 -0.9451
  484MPD2    C1 7196   3.491   2.525  12.854  0.2795 -0.1736  0.0968
  484MPD2    C2 7197   3.603   2.492  12.776 -0.5054 -0.0600 -0.3160
  484MPD2    C3 7198   3.682   2.590  12.720 -0.0626 -0.3440  0.3947
  484MPD2    C4 7199   3.647   2.723  12.737 -0.5198  0.0053 -0.0528
  484MPD2    C5 7200   3.538   2.752  12.816  0.1732 -0.3061  0.3571
  484MPD2     H 7201   3.636   2.389  12.764 -0.4407 -0.2870  1.9284
  484MPD2    H1 7202   3.697   2.809  12.693 -1.0691  0.0250 -0.6410
  484MPD2    H2 7203   3.381   2.679  12.947  1.4253 -1.5043  1.0238
  484MPD2    H3 7204   3.509   2.853  12.842  1.4385  0.2714 -0.4376
  484MPD2     N 7205   3.797   2.557  12.646 -0.1790 -0.7708 -0.0981
  484MPD2    H5 7206   3.853   2.636  12.614  0.1222 -0.7575  0.4630
  484MPD2    N1 7207   3.402   2.434  12.908 -0.1191 -0.1349  0.6428
  484MPD2    H7 7208   3.324   2.465  12.966 -0.3572  2.3433 -1.0172
  485TMC3    C1 7209   3.986   2.427  12.561 -0.2491  0.3207 -0.3059
  485TMC3    C2 7210   4.050   2.305  12.569 -0.0332 -0.3815 -0.1488
  485TMC3    C3 7211   4.154   2.281  12.490  0.1165 -0.6645  0.1951
  485TMC3    C4 7212   4.026   2.530  12.474  0.6488 -1.0587 -0.0216
  485TMC3    C5 7213   4.136   2.496  12.396  0.3307  1.0752  0.3457
  485TMC3    C6 7214   4.204   2.379  12.415 -0.1851 -0.0650 -0.8796
  485TMC3     C 7215   3.847   2.429  12.619  0.6807 -0.2630 -0.2971
  485TMC3     O 7216   3.792   2.318  12.630 -0.6048 -0.8650  0.4427
  485TMC3     H 7217   4.021   2.234  12.645 -1.3999 -1.0265 -1.2744
  485TMC3    H1 7218   3.965   2.616  12.450 -0.1862 -1.7183 -0.2631
  485TMC3    H2 7219   4.293   2.361  12.356 -0.2579  2.4479 -1.7858
  485TMC3    C7 7220   4.122   2.534  12.260 -0.0965  0.0259 -0.6235
  485TMC3    C8 7221   4.158   2.159  12.412 -0.1684 -0.7142 -0.0457
  485TMC3    O1 7222   4.086   2.649  12.243  0.4718 -0.0535  0.0957
  485TMC3    O2 7223   4.165   2.184  12.291  0.1014 -0.1668  0.3348
  486MPD2     C 7224   1.175   1.785  13.076 -0.1252  0.3115 -0.2331
  486MPD2    C1 7225   1.069   1.741  13.006 -0.4280 -0.0132 -0.3049
  486MPD2    C2 7226   0.983   1.848  12.955 -0.0128 -0.4532  0.1083
  486MPD2    C3 7227   1.009   1.981  12.963 -1.0633  0.5141  0.2727
  486MPD2    C4 7228   1.134   2.018  13.020  0.2907 -0.2909 -0.3221
  486MPD2    C5 7229   1.210   1.917  13.075 -0.3010 -0.0218  0.4588
  486MPD2     H 7230   0.891   1.821  12.905  0.7156  2.2866 -2.7517
  486MPD2    H1 7231   1.168   2.118  13.043 -2.3548  0.6010 -0.3403
  486MPD2    H2 7232   1.241   1.711  13.119 -0.6921 -0.1810 -0.2137
  486MPD2    H3 7233   1.309   1.937  13.116 -0.5523 -1.3408  1.7323
  486MPD2     N 7234   0.918   2.067  12.898 -0.3796 -0.6651 -0.0327
  486MPD2    H5 7235   0.827   2.032  12.868 -0.2559 -2.2519  1.4126
  486MPD2    N1 7236   1.026   1.606  13.031  0.3194 -0.6698 -0.3002
  486MPD2    H7 7237   1.093   1.552  13.084  0.8417 -0.4563 -0.7420
  487TMC3    C1 7238   0.911   1.400  13.002  0.9307  0.3126  0.3125
  487TMC3    C2 7239   0.852   1.325  12.905 -0.9819 -0.2699 -0.1889
  487TMC3    C3 7240   0.872   1.186  12.912  0.3613  0.8137 -0.4361
  487TMC3    C4 7241   0.982   1.348  13.103 -0.4538  0.0445 -0.0173
  487TMC3    C5 7242   0.979   1.213  13.118 -0.2863  0.0330 -0.0052
  487TMC3    C6 7243   0.924   1.130  13.024  0.3392  0.1117  0.5443
  487TMC3     C 7244   0.924   1.544  12.964 -0.4541 -0.0311  0.2408
  487TMC3     O 7245   0.853   1.588  12.874  0.4074 -0.4000 -0.1440
  487TMC3     H 7246   0.803   1.372  12.821 -0.5797  1.9630  0.8178
  487TMC3    H1 7247   1.019   1.409  13.186  0.2678  0.2099 -0.4569
  487TMC3    H2 7248   0.954   1.026  13.024  2.6416  0.7845  0.5198
  487TMC3    C7 7249   0.943   1.168  13.253  0.8119  0.7124 -0.0543
  487TMC3    C8 7250   0.775   1.098  12.849 -0.1658 -0.1022  0.1780
  487TMC3    O1 7251   0.977   1.238  13.346  0.1379  0.0555  0.0134
  487TMC3    O2 7252   0.808   0.982  12.828  0.0227 -0.1193  0.2053
  488MPD2     C 7253   1.044   3.379  16.220 -0.9512  0.5299 -0.6271
  488MPD2    C1 7254   1.067   3.514  16.243  0.0992  0.0792 -0.7923
  488MPD2    C2 7255   1.071   3.568  16.367  0.2137 -0.0585  0.6509
  488MPD2    C3 7256   1.057   3.482  16.479 -0.0395  0.1912 -0.2773
  488MPD2    C4 7257   1.022   3.347  16.459 -1.0746 -0.2548  0.1015
  488MPD2    C5 7258   1.027   3.302  16.330  0.4258  0.4694  0.0745
  488MPD2     H 7259   1.112   3.666  16.388  0.8126  0.3327 -2.3625
  488MPD2    H1 7260   1.008   3.275  16.539 -2.8429  1.1853  1.0764
  488MPD2    H2 7261   1.048   3.332  16.123 -1.2172  1.7888 -1.2434
  488MPD2    H3 7262   0.996   3.199  16.315 -1.6119  0.8056  2.0341
  488MPD2     N 7263   1.071   3.540  16.605 -0.2480 -0.1333 -0.2671
  488MPD2    H5 7264   1.100   3.637  16.611  0.8147 -0.4191 -0.7328
  488MPD2    N1 7265   1.102   3.600  16.135  0.1269  0.0038  0.0027
  488MPD2    H7 7266   1.126   3.693  16.168 -1.4590  0.4336 -0.0627
  489TMC3    C1 7267   1.157   3.533  16.830  0.4828 -0.1837  0.1952
  489TMC3    C2 7268   1.259   3.624  16.802  0.5269  0.0040  0.5203
  489TMC3    C3 7269   1.333   3.684  16.903  0.5799 -0.0584  0.1254
  489TMC3    C4 7270   1.132   3.494  16.963  0.3608 -0.1277 -0.4034
  489TMC3    C5 7271   1.223   3.546  17.052  0.3316  0.4132 -1.0174
  489TMC3    C6 7272   1.315   3.645  17.031 -0.3545 -0.4739  0.1945
  489TMC3     C 7273   1.071   3.478  16.732  0.1618 -0.4260  0.2519
  489TMC3     O 7274   1.015   3.370  16.759  0.5635  0.5078 -0.8743
  489TMC3     H 7275   1.267   3.664  16.702  1.7220  0.7041  0.8944
  489TMC3    H1 7276   1.049   3.431  16.992  1.0556 -0.7596  0.1893
  489TMC3    H2 7277   1.378   3.681  17.112 -0.9107 -2.2605  1.4182
  489TMC3    C7 7278   1.207   3.508  17.188 -0.1478  0.4276  0.6526
  489TMC3    C8 7279   1.412   3.800  16.863  0.2607  0.5988 -0.3285
  489TMC3    O1 7280   1.224   3.592  17.271 -0.8112  0.1830 -0.8891
  489TMC3    O2 7281   1.422   3.819  16.742  0.4052  0.1519 -0.2265
  490MPD2     C 7282   1.766   2.900  17.175  0.3055  0.3655 -0.7319
  490MPD2    C1 7283   1.734   2.854  17.300 -0.4502  0.3994  0.5467
  490MPD2    C2 7284   1.752   2.937  17.409 -1.1060  0.8462  0.8288
  490MPD2    C3 7285   1.836   3.045  17.398  0.4490  0.4913 -0.1164
  490MPD2    C4 7286   1.880   3.073  17.276  0.2102 -0.6398 -0.1476
  490MPD2    C5 7287   1.851   3.008  17.165 -0.3510 -0.2017 -0.5892
  490MPD2     H 7288   1.740   2.887  17.504  0.3001  0.9689  1.0759
  490MPD2    H1 7289   1.948   3.157  17.258 -2.2243  1.5634  0.9435
  490MPD2    H2 7290   1.742   2.843  17.086  0.4448  1.2864 -1.3545
  490MPD2    H3 7291   1.880   3.052  17.070 -1.7314  0.3499 -0.7525
  490MPD2     N 7292   1.902   3.116  17.509  0.1048  0.1573 -0.2239
  490MPD2    H5 7293   1.961   3.192  17.479  0.6999 -0.1759  0.1011
  490MPD2    N1 7294   1.661   2.735  17.324 -0.5842  0.1131  0.1502
  490MPD2    H7 7295   1.651   2.718  17.424 -1.1309  0.9316  0.2338
  491TMC3    C1 7296   1.558   2.515  17.266  0.7251 -0.2548 -0.5241
  491TMC3    C2 7297   1.577   2.464  17.396 -0.6887 -0.4238  1.3032
  491TMC3    C3 7298   1.510   2.348  17.420 -0.2817  0.0137 -0.4601
  491TMC3    C4 7299   1.480   2.453  17.171  0.6442  0.5811 -0.6545
  491TMC3    C5 7300   1.413   2.345  17.209 -0.3873 -0.2087  0.4030
  491TMC3    C6 7301   1.414   2.297  17.338  0.4076 -0.2048  0.2098
  491TMC3     C 7302   1.613   2.648  17.225 -0.3634 -0.1537 -0.1767
  491TMC3     O 7303   1.619   2.654  17.102 -0.3882  0.0054  1.0174
  491TMC3     H 7304   1.646   2.514  17.463 -0.9680 -1.3819  2.2954
  491TMC3    H1 7305   1.456   2.506  17.079 -2.0552  0.8324  0.1822
  491TMC3    H2 7306   1.348   2.215  17.362  0.6796 -0.4062  0.2678
  491TMC3    C7 7307   1.343   2.264  17.113  0.4285 -0.0707  0.3859
  491TMC3    C8 7308   1.493   2.296  17.551  0.8105 -0.5810 -0.1964
  491TMC3    O1 7309   1.250   2.200  17.163 -0.0597 -0.0623 -0.0921
  491TMC3    O2 7310   1.389   2.232  17.571 -0.7697 -0.2393 -0.1405
  492MPD2     C 7311   1.963   2.956  11.767 -0.8251  0.1145  0.4107
  492MPD2    C1 7312   1.890   2.868  11.691  0.2818  0.0748  0.2615
  492MPD2    C2 7313   1.805   2.776  11.759  0.3555  0.0840  0.0075
  492MPD2    C3 7314   1.792   2.776  11.894 -0.2616  0.1955 -0.3310
  492MPD2    C4 7315   1.854   2.873  11.961  0.5622  1.2379  0.0290
  492MPD2    C5 7316   1.941   2.961  11.897 -0.0097  0.0204  0.3646
  492MPD2     H 7317   1.757   2.696  11.704  1.5050  0.0476 -0.9270
  492MPD2    H1 7318   1.848   2.862  12.069 -1.9672 -2.4857 -0.4662
  492MPD2    H2 7319   2.023   3.035  11.722 -3.0272  0.7178 -1.4570
  492MPD2    H3 7320   2.003   3.027  11.956  1.1299 -1.8758  1.2768
  492MPD2     N 7321   1.699   2.701  11.975  0.0751 -0.1466  0.2385
  492MPD2    H5 7322   1.671   2.730  12.068  0.3901  0.9037  0.0057
  492MPD2    N1 7323   1.904   2.883  11.551 -0.5934 -0.4598  0.1453
  492MPD2    H7 7324   1.969   2.953  11.518 -0.6596 -0.0862  0.8182
  493TMC3    C1 7325   1.850   2.862  11.321 -0.0642  0.2913 -0.0191
  493TMC3    C2 7326   1.974   2.904  11.287 -0.5870  0.7626  0.3242
  493TMC3    C3 7327   1.985   2.947  11.151 -0.1761 -0.8107 -0.1992
  493TMC3    C4 7328   1.746   2.842  11.232 -0.1650 -0.1958  0.7941
  493TMC3    C5 7329   1.770   2.883  11.104  0.7679 -0.3032  0.2242
  493TMC3    C6 7330   1.884   2.934  11.063 -0.2669  0.0159  0.1269
  493TMC3     C 7331   1.824   2.818  11.462  0.0426  0.3843  0.2569
  493TMC3     O 7332   1.720   2.754  11.481 -0.2787 -0.4270 -0.2841
  493TMC3     H 7333   2.063   2.904  11.349 -0.2866  0.1494 -0.1076
  493TMC3    H1 7334   1.650   2.805  11.266  1.1608 -2.2853  2.2905
  493TMC3    H2 7335   1.888   2.965  10.959 -0.8064 -0.1085  0.0730
  493TMC3    C7 7336   1.669   2.848  11.003 -0.2892  0.1183  0.1149
  493TMC3    C8 7337   2.121   2.987  11.105 -0.4182 -0.2170 -0.6845
  493TMC3    O1 7338   1.651   2.928  10.909  0.2355 -0.8920 -0.1335
  493TMC3    O2 7339   2.204   2.996  11.193 -1.0363  0.3222  0.6230
  494TMC3    C1 7340   2.682   4.186   0.471  0.0557  0.4241  0.2710
  494TMC3    C2 7341   2.713   4.086   0.561  0.1100 -0.4336 -1.0233
  494TMC3    C3 7342   2.847   4.079   0.600  0.4498  0.0721  0.2132
  494TMC3    C4 7343   2.777   4.275   0.421 -0.0506  0.2903  0.5211
  494TMC3    C5 7344   2.905   4.269   0.474  0.2557  0.3245  0.4727
  494TMC3    C6 7345   2.940   4.177   0.570 -0.6372 -0.1927 -0.0640
  494TMC3     C 7346   2.547   4.229   0.486  0.4657 -0.2967 -0.4280
  494TMC3     O 7347   2.494   4.193   0.593 -0.6374  0.2511 -0.2719
  494TMC3     H 7348   2.636   4.016   0.590  1.9113 -1.5852  0.9271
  494TMC3    H1 7349   2.741   4.338   0.340  0.1171  1.1047  1.0785
  494TMC3    H2 7350   3.032   4.171   0.626 -2.1582  1.8817  2.6555
  494TMC3    C7 7351   3.004   4.355   0.402 -0.0332  0.1082 -0.5564
  494TMC3    C8 7352   2.857   4.029   0.744 -0.2906 -0.1137  0.3230
  494TMC3    O1 7353   2.985   4.407   0.289  0.4462  0.0598 -0.0752
  494TMC3    O2 7354   2.962   3.983   0.789  0.1392 -0.9621  0.2478
  495TMC3    C1 7355   1.528   2.101  15.051 -0.4847 -0.6011  0.6182
  495TMC3    C2 7356   1.454   2.138  14.945  0.3084 -0.3853  0.2390
  495TMC3    C3 7357   1.312   2.128  14.938 -0.5475 -0.5192  0.3656
  495TMC3    C4 7358   1.456   2.077  15.167  0.2425 -0.1340  0.3984
  495TMC3    C5 7359   1.318   2.061  15.167 -1.0671  0.2690 -1.0510
  495TMC3    C6 7360   1.242   2.093  15.054  0.1174 -0.2420 -0.4566
  495TMC3     C 7361   1.607   1.984  15.028  0.4202  0.5490  0.4276
  495TMC3     O 7362   1.570   1.885  15.090 -0.3637 -0.0055 -0.2403
  495TMC3     H 7363   1.503   2.160  14.851  1.0936  0.1170  0.7639
  495TMC3    H1 7364   1.515   2.040  15.250  2.1439  0.0897 -0.8507
  495TMC3    H2 7365   1.134   2.086  15.049  0.0890 -0.7116  0.7900
  495TMC3    C7 7366   1.241   2.021  15.289  0.0394 -0.1132  0.4474
  495TMC3    C8 7367   1.241   2.092  14.818  0.1074  0.3843 -0.0904
  495TMC3    O1 7368   1.289   2.044  15.400 -0.3451  0.2742 -0.2362
  495TMC3    O2 7369   1.116   2.111  14.811  0.1381  0.4805 -0.5753
  496MPD2     C 7370   3.043   1.902  15.638  0.5016 -0.1148 -0.0305
  496MPD2    C1 7371   3.052   1.799  15.723  0.0833 -0.7833 -0.2630
  496MPD2    C2 7372   2.963   1.788  15.834 -0.3724 -0.7083  0.7183
  496MPD2    C3 7373   2.869   1.883  15.861  0.1589  0.1622 -0.1690
  496MPD2    C4 7374   2.863   1.987  15.772  0.1326  0.4153 -0.5309
  496MPD2    C5 7375   2.941   1.992  15.657  0.2657  0.2774 -0.3204
  496MPD2     H 7376   2.960   1.702  15.900 -0.7831 -0.7057  0.7025
  496MPD2    H1 7377   2.798   2.071  15.793 -2.5030 -1.9964  0.9385
  496MPD2    H2 7378   3.110   1.904  15.553 -0.4327 -0.2737 -0.7616
  496MPD2    H3 7379   2.920   2.068  15.583 -0.9097  0.0383 -0.2400
  496MPD2     N 7380   2.786   1.882  15.974  0.2573  0.5306  0.1287
  496MPD2    H5 7381   2.717   1.955  15.984 -0.3275 -0.1410  0.9167
  496MPD2    N1 7382   3.164   1.710  15.699  0.0423 -0.2582  0.0236
  496MPD2    H7 7383   3.213   1.723  15.611 -0.2688 -0.8543 -0.2344
  497TMC3    C1 7384   2.726   1.815  16.200 -0.0503 -0.4656  0.0507
  497TMC3    C2 7385   2.591   1.785  16.171  0.5506 -0.5378  0.4323
  497TMC3    C3 7386   2.521   1.720  16.269  0.0287 -0.0477 -0.2431
  497TMC3    C4 7387   2.775   1.782  16.326  0.6069 -0.3457  0.5886
  497TMC3    C5 7388   2.687   1.727  16.424 -0.1107  0.0939 -0.3297
  497TMC3    C6 7389   2.558   1.692  16.398  0.5046  0.1258 -0.3938
  497TMC3     C 7390   2.820   1.801  16.087  0.3292 -0.1850 -0.0677
  497TMC3     O 7391   2.920   1.733  16.110 -0.1326 -0.1799 -0.3291
  497TMC3     H 7392   2.547   1.808  16.075  1.4234  0.6577  0.3105
  497TMC3    H1 7393   2.874   1.819  16.350  0.5030  2.1051 -2.7831
  497TMC3    H2 7394   2.505   1.617  16.455  0.8805 -0.6333 -1.0475
  497TMC3    C7 7395   2.737   1.706  16.558  0.2752  0.6168 -0.0838
  497TMC3    C8 7396   2.383   1.673  16.243 -0.1101 -0.4229 -0.8009
  497TMC3    O1 7397   2.664   1.694  16.651  0.4519  0.2769 -0.0604
  497TMC3    O2 7398   2.354   1.655  16.126  0.3527  0.1374  0.4170
  498MPD2     C 7399   4.058   2.367  10.201 -0.2213 -0.0634 -0.2202
  498MPD2    C1 7400   3.982   2.332  10.094 -0.1402 -0.2467  0.4203
  498MPD2    C2 7401   3.875   2.246  10.110 -0.5966 -0.6237  0.3010
  498MPD2    C3 7402   3.859   2.179  10.231 -0.4488 -0.1558  0.2282
  498MPD2    C4 7403   3.927   2.235  10.342 -0.1036 -0.0441 -0.0486
  498MPD2    C5 7404   4.027   2.322  10.324  0.3923 -0.3605  0.2450
  498MPD2     H 7405   3.803   2.240  10.029 -0.8681  3.1594  0.2823
  498MPD2    H1 7406   3.900   2.214  10.444 -2.5116  1.4308 -0.3770
  498MPD2    H2 7407   4.131   2.448  10.200 -1.3294  0.9766  2.7901
  498MPD2    H3 7408   4.082   2.363  10.408 -1.0077  1.3135  0.3463
  498MPD2     N 7409   3.749   2.098  10.263  0.0029  0.4505  0.7767
  498MPD2    H5 7410   3.732   2.082  10.362  1.9230  2.1241  1.3804
  498MPD2    N1 7411   3.992   2.387   9.963 -0.1451  0.3627  0.1378
  498MPD2    H7 7412   3.924   2.355   9.895 -1.1593  0.4333  1.1011
  499TMC3    C1 7413   4.041   2.549   9.800  0.1862  0.1172 -0.3276
  499TMC3    C2 7414   4.021   2.463   9.701 -1.0222 -0.0622 -0.1261
  499TMC3    C3 7415   4.036   2.513   9.573  0.6891 -0.3743 -0.0522
  499TMC3    C4 7416   4.065   2.681   9.784  0.0849 -0.1387  0.0025
  499TMC3    C5 7417   4.078   2.723   9.657  0.2790  0.2946 -0.2420
  499TMC3    C6 7418   4.059   2.644   9.549  1.0576  0.1375  0.2448
  499TMC3     C 7419   4.067   2.498   9.931 -0.4459 -0.5341  0.1520
  499TMC3     O 7420   4.135   2.572  10.009  0.0680 -0.2606  0.5904
  499TMC3     H 7421   4.031   2.359   9.731  1.6299  0.9500  2.4059
  499TMC3    H1 7422   4.090   2.746   9.866 -0.0193 -0.9390  0.6662
  499TMC3    H2 7423   4.085   2.685   9.452  0.8486 -1.0903 -0.3213
  499TMC3    C7 7424   4.163   2.836   9.637 -0.0431  0.7794  0.7186
  499TMC3    C8 7425   4.005   2.432   9.457  0.5400  0.5610 -0.6972
  499TMC3    O1 7426   4.125   2.923   9.554 -0.2205  0.3556 -0.2389
  499TMC3    O2 7427   4.043   2.472   9.346 -0.1547  0.5569 -0.4491
  500MPD2     C 7428   1.444   3.848   9.859 -0.2277  0.2433  0.1365
  500MPD2    C1 7429   1.369   3.816   9.965 -0.1946  0.2127 -0.0110
  500MPD2    C2 7430   1.231   3.790   9.958 -0.2068  0.6761  0.1656
  500MPD2    C3 7431   1.172   3.800   9.833  0.5420  0.1766 -0.3223
  500MPD2    C4 7432   1.255   3.831   9.724  0.2215 -0.2976 -0.3461
  500MPD2    C5 7433   1.387   3.854   9.738 -0.2545 -0.4276 -0.0458
  500MPD2     H 7434   1.168   3.774  10.045 -1.2892  0.6992 -0.6216
  500MPD2    H1 7435   1.218   3.854   9.624  1.0509  1.3501 -0.2806
  500MPD2    H2 7436   1.548   3.879   9.856 -0.8215  2.3530  2.8178
  500MPD2    H3 7437   1.442   3.886   9.650 -1.1807 -0.9728 -0.8225
  500MPD2     N 7438   1.032   3.794   9.812  0.2753  0.0756  0.2913
  500MPD2    H5 7439   0.996   3.806   9.718  0.5531  1.9795  0.4189
  500MPD2    N1 7440   1.408   3.828  10.099 -0.1164  0.2993 -0.1787
  500MPD2    H7 7441   1.351   3.781  10.169 -1.7670  1.6762 -0.6041
  501TMC3    C1 7442   1.510   3.941  10.268 -0.6114 -0.2935 -0.2478
  501TMC3    C2 7443   1.390   3.996  10.303 -0.4481 -0.2999  0.3315
  501TMC3    C3 7444   1.380   4.045  10.429 -0.8348 -0.4687 -0.3271
  501TMC3    C4 7445   1.628   3.945  10.345  0.8267 -0.2063  0.3349
  501TMC3    C5 7446   1.611   3.997  10.475 -0.2758 -0.1553  0.2567
  501TMC3    C6 7447   1.487   4.034  10.516 -0.2679 -0.3189  0.3296
  501TMC3     C 7448   1.526   3.884  10.137  0.3322 -0.7666  0.0523
  501TMC3     O 7449   1.634   3.889  10.081 -0.5528 -0.4948  0.1546
  501TMC3     H 7450   1.311   4.010  10.230 -0.5523  0.6553  0.6351
  501TMC3    H1 7451   1.725   3.918  10.306  0.3730  0.6802 -1.4067
  501TMC3    H2 7452   1.462   4.063  10.617  0.9977  1.4264  0.1216
  501TMC3    C7 7453   1.726   4.017  10.553  0.3727 -0.4664 -0.0283
  501TMC3    C8 7454   1.277   4.145  10.467  0.0233 -0.6731  0.4833
  501TMC3    O1 7455   1.837   3.970  10.520  0.0581 -0.2207  0.4338
  501TMC3    O2 7456   1.268   4.166  10.588  0.3936 -0.0802 -0.1707
  502TMC3    C1 7457   0.746   2.984  15.137  0.6208  0.4809  0.0205
  502TMC3    C2 7458   0.791   3.018  15.010  0.2830 -0.9474 -0.1478
  502TMC3    C3 7459   0.805   2.924  14.912 -0.2979  0.6606 -0.1042
  502TMC3    C4 7460   0.718   2.856  15.167 -0.1286 -0.3285  0.6501
  502TMC3    C5 7461   0.752   2.761  15.069  0.8541  0.3521  0.1443
  502TMC3    C6 7462   0.786   2.790  14.939  0.5670  0.0764  1.0945
  502TMC3     C 7463   0.718   3.091  15.236 -0.9368 -0.4588  0.3665
  502TMC3     O 7464   0.765   3.203  15.214  0.2724  1.0667  0.6323
  502TMC3     H 7465   0.818   3.122  14.994 -2.3327 -0.3378 -0.4825
  502TMC3    H1 7466   0.716   2.820  15.270  0.5447 -3.0187 -0.2866
  502TMC3    H2 7467   0.800   2.716  14.861 -0.0952  1.4348 -0.3343
  502TMC3    C7 7468   0.701   2.627  15.089 -0.2039  0.5982  0.0095
  502TMC3    C8 7469   0.829   2.977  14.781 -0.0168  0.3911  0.4491
  502TMC3    O1 7470   0.771   2.533  15.049  0.8866  0.1140 -0.0861
  502TMC3    O2 7471   0.863   3.099  14.786 -0.7208  0.1005  0.0704
  503MPD2     C 7472   2.947   3.238  17.312 -0.1240  0.3685  0.2282
  503MPD2    C1 7473   3.018   3.262  17.426  0.0416  0.4437  0.6852
  503MPD2    C2 7474   3.119   3.184  17.468 -0.0079  0.0298  0.2078
  503MPD2    C3 7475   3.146   3.067  17.400  0.1407  1.1341 -0.1926
  503MPD2    C4 7476   3.086   3.044  17.280  0.4880 -0.4892  0.5944
  503MPD2    C5 7477   2.990   3.127  17.239  0.1314 -0.6879 -0.1814
  503MPD2     H 7478   3.170   3.213  17.559  0.5869  1.2124 -0.4938
  503MPD2    H1 7479   3.124   2.968  17.212  0.8919  2.0780 -2.0823
  503MPD2    H2 7480   2.856   3.290  17.287 -0.9257 -1.1216  0.0278
  503MPD2    H3 7481   2.944   3.123  17.141  0.6690  2.4959 -0.5602
  503MPD2     N 7482   3.238   2.976  17.462  0.1538  0.2115 -0.5741
  503MPD2    H5 7483   3.283   2.999  17.550 -0.0107 -0.9615 -0.1855
  503MPD2    N1 7484   2.999   3.381  17.502 -0.1409  0.3166  0.4125
  503MPD2    H7 7485   3.065   3.396  17.578 -0.8579 -0.7242  1.2397
  504TMC3    C1 7486   3.372   2.784  17.486 -0.4882 -0.6969  0.3200
  504TMC3    C2 7487   3.426   2.838  17.601  0.5559  0.0940 -0.3619
  504TMC3    C3 7488   3.559   2.831  17.620 -0.8176  0.8551  0.7213
  504TMC3    C4 7489   3.445   2.709  17.403  0.0485 -0.3208 -0.3980
  504TMC3    C5 7490   3.577   2.693  17.428  0.1880  0.5368  0.7569
  504TMC3    C6 7491   3.638   2.757  17.534  0.3041  0.2869  0.4065
  504TMC3     C 7492   3.264   2.851  17.418  1.0346  0.6326  0.3450
  504TMC3     O 7493   3.214   2.796  17.325 -0.3117 -0.2093  0.1358
  504TMC3     H 7494   3.362   2.900  17.663  0.1414 -0.1024 -0.5953
  504TMC3    H1 7495   3.413   2.686  17.302 -1.1229  0.7144 -0.2678
  504TMC3    H2 7496   3.746   2.756  17.543  0.2500  0.4710  1.0998
  504TMC3    C7 7497   3.660   2.643  17.312  0.4800  0.2473 -0.9370
  504TMC3    C8 7498   3.612   2.877   0.050 -0.3509 -0.4975  0.3510
  504TMC3    O1 7499   3.594   2.591  17.223  0.1808  0.3727  0.1872
  504TMC3    O2 7500   3.730   2.892   0.057  0.0297  0.2035 -0.3539
  505MPD2     C 7501   2.539   2.254  10.651  0.0406 -0.5678 -0.2976
  505MPD2    C1 7502   2.525   2.117  10.669 -0.4665 -0.6997 -0.8113
  505MPD2    C2 7503   2.574   2.070  10.788 -0.2343  0.1877  0.0033
  505MPD2    C3 7504   2.639   2.153  10.878  0.1202  0.5110 -0.2809
  505MPD2    C4 7505   2.672   2.282  10.845 -0.3346  0.4711 -0.4074
  505MPD2    C5 7506   2.626   2.332  10.729  0.1596  0.6253 -0.8313
  505MPD2     H 7507   2.574   1.967  10.821 -1.5706  0.5162  1.0625
  505MPD2    H1 7508   2.723   2.356  10.905 -0.4859 -0.2591  0.6211
  505MPD2    H2 7509   2.495   2.303  10.564 -3.1282 -0.4953  1.3803
  505MPD2    H3 7510   2.651   2.434  10.704  1.9070  0.1609 -0.9344
  505MPD2     N 7511   2.697   2.085  10.995 -0.2310  0.4824 -0.2005
  505MPD2    H5 7512   2.677   1.986  10.999 -1.4886  0.7641  0.3322
  505MPD2    N1 7513   2.461   2.031  10.575 -0.2814 -0.1873  0.0999
  505MPD2    H7 7514   2.413   2.065  10.492 -0.6470 -1.4277 -0.1942
  506TMC3    C1 7515   2.377   1.824  10.494  0.8219 -0.1493 -0.3108
  506TMC3    C2 7516   2.449   1.819  10.379  0.0335 -0.6544 -0.5628
  506TMC3    C3 7517   2.447   1.705  10.302  0.5810  0.1858 -0.2881
  506TMC3    C4 7518   2.334   1.707  10.552  0.5540 -0.1824 -0.1191
  506TMC3    C5 7519   2.356   1.588  10.489  0.8235 -0.4636  1.0336
  506TMC3    C6 7520   2.409   1.585  10.356 -0.0574  0.4843  0.0817
  506TMC3     C 7521   2.446   1.894  10.599 -0.1202  0.1015 -0.6241
  506TMC3     O 7522   2.500   1.814  10.674  0.3415 -0.0565  0.3680
  506TMC3     H 7523   2.488   1.903  10.324  0.0247 -0.4476 -0.2518
  506TMC3    H1 7524   2.307   1.707  10.657 -0.9920 -0.2278 -0.5187
  506TMC3    H2 7525   2.411   1.495  10.297 -0.4071  1.6217 -1.6603
  506TMC3    C7 7526   2.404   1.475  10.566 -0.0221  0.2628  0.2311
  506TMC3    C8 7527   2.533   1.696  10.184 -0.0868 -0.2440 -0.4488
  506TMC3    O1 7528   2.427   1.367  10.514  0.1472 -0.2096 -0.5347
  506TMC3    O2 7529   2.509   1.597  10.117 -0.4995 -0.1481  0.5078
  507TMC3    C1 7530   4.466   2.995  14.364 -0.8966  0.2455  0.1117
  507TMC3    C2 7531   4.428   2.956  14.237 -0.7732 -0.8075  0.7852
  507TMC3    C3 7532   4.458   3.038  14.128  0.3396  0.0884 -0.4600
  507TMC3    C4 7533   4.530   3.117  14.388 -0.8546  0.4087 -0.1117
  507TMC3    C5 7534   4.555   3.195  14.274 -1.1017  0.8223  0.3737
  507TMC3    C6 7535   4.526   3.155  14.149 -0.1820  0.2845  0.5599
  507TMC3     C 7536   4.407   2.936  14.479 -0.1520  0.1992 -0.4402
  507TMC3     O 7537   4.466   2.948  14.585 -0.0107  0.3363 -0.3299
  507TMC3     H 7538   4.363   2.870  14.221  0.8510 -1.7494 -0.8043
  507TMC3    H1 7539   4.559   3.148  14.488 -1.3731 -0.0873  0.1962
  507TMC3    H2 7540   4.563   3.212  14.065 -0.9966  0.5420  0.3752
  507TMC3    C7 7541   4.479   3.314  14.297  0.0538  0.4108  0.1760
  507TMC3    C8 7542   4.349   3.048  14.035 -0.1649  0.6291  1.2970
  507TMC3    O1 7543   4.414   3.354  14.197 -0.9666 -0.2985 -0.6977
  507TMC3    O2 7544   4.290   2.950  13.989  0.1896  0.3019  0.1989
  508MPD2     C 7545   0.183   0.242  16.213  0.0790  0.8305 -0.0810
  508MPD2    C1 7546   0.222   0.371  16.217  0.3035 -0.6111 -0.6614
  508MPD2    C2 7547   0.216   0.447  16.099  0.9902 -0.8507  0.1013
  508MPD2    C3 7548   0.166   0.393  15.984  0.1664  0.3934 -0.6447
  508MPD2    C4 7549   0.123   0.261  15.985  0.0343  1.1060 -0.0361
  508MPD2    C5 7550   0.131   0.192  16.096  0.6473 -0.1836  0.0089
  508MPD2     H 7551   0.239   0.553  16.102  1.8208 -0.9837 -1.8013
  508MPD2    H1 7552   0.087   0.211  15.896 -0.5832 -0.3667  1.0337
  508MPD2    H2 7553   0.179   0.177  16.299  0.0548  0.5342 -0.3067
  508MPD2    H3 7554   0.083   0.096  16.089 -0.3739  0.3354 -0.1087
  508MPD2     N 7555   0.172   0.474  15.871 -0.8659  0.8715 -0.4233
  508MPD2    H5 7556   0.225   0.560  15.878 -0.9780  0.8410  0.9545
  508MPD2    N1 7557   0.274   0.427  16.338 -0.0993  0.4293  0.1395
  508MPD2    H7 7558   0.309   0.361  16.406  3.3599  2.9468  0.7928
  509TMC3    C1 7559   0.064   0.673  15.474 -1.0960 -0.2933  0.1445
  509TMC3    C2 7560   0.181   0.737  15.464 -0.9324  0.3298 -0.6327
  509TMC3    C3 7561   0.284   0.691  15.542 -0.2329  0.4027  0.0592
  509TMC3    C4 7562   0.032   0.587  15.568  0.2485  0.1619  0.0051
  509TMC3    C5 7563   0.137   0.543  15.650 -0.0132 -0.1885 -0.3852
  509TMC3    C6 7564   0.265   0.584  15.628 -0.1372 -0.2017 -1.0511
  509TMC3     C 7565   4.672   0.741  15.415  0.0944 -0.0968  0.1964
  509TMC3     O 7566   4.572   0.673  15.397  0.3213 -0.2547  0.0348
  509TMC3     H 7567   0.203   0.812  15.388 -2.2499 -1.2532 -2.5876
  509TMC3    H1 7568   4.660   0.541  15.582  0.6892 -1.0226 -0.8550
  509TMC3    H2 7569   0.342   0.533  15.684 -2.8311 -2.4685  0.5950
  509TMC3    C7 7570   0.110   0.446  15.749  0.5565 -0.2872  0.4660
  509TMC3    C8 7571   0.413   0.752  15.552  0.0563 -0.2529 -0.1255
  509TMC3    O1 7572   0.018   0.367  15.723 -0.3431 -0.3217  0.5309
  509TMC3    O2 7573   0.508   0.679  15.577  0.2726 -0.4420  0.1317
  510MPD2     C 7574   2.556   2.298  15.027 -0.4788 -0.2099 -0.1009
  510MPD2    C1 7575   2.560   2.160  15.011  0.3156 -0.6357  0.5674
  510MPD2    C2 7576   2.652   2.101  14.921 -0.0704  0.3442 -0.4693
  510MPD2    C3 7577   2.742   2.185  14.855  0.1033 -0.5672  0.3050
  510MPD2    C4 7578   2.745   2.320  14.871 -0.5838  0.0493  0.6248
  510MPD2    C5 7579   2.656   2.375  14.958  0.1510  0.5587 -0.4590
  510MPD2     H 7580   2.653   1.993  14.906  0.6789  0.1534  0.9654
  510MPD2    H1 7581   2.829   2.377  14.831 -0.5160 -0.1845  0.4370
  510MPD2    H2 7582   2.494   2.344  15.103 -0.2838  1.2760 -0.8240
  510MPD2    H3 7583   2.652   2.482  14.979  0.0215  0.3528  0.5545
  510MPD2     N 7584   2.837   2.114  14.781 -0.8495  0.1769 -0.2733
  510MPD2    H5 7585   2.842   2.014  14.801 -1.2499  0.5633  1.7686
  510MPD2    N1 7586   2.475   2.094  15.099  0.4589  0.2408 -0.6812
  510MPD2    H7 7587   2.422   2.153  15.162 -1.5658 -0.9041 -1.3112
  511TMC3    C1 7588   2.402   1.916  15.232 -0.5282  1.0531 -0.3033
  511TMC3    C2 7589   2.355   2.004  15.321 -0.3223 -0.3290 -0.1649
  511TMC3    C3 7590   2.275   1.962  15.418  0.2464  0.0958 -0.2410
  511TMC3    C4 7591   2.358   1.786  15.234 -0.0821 -0.7153 -0.2044
  511TMC3    C5 7592   2.261   1.751  15.325 -0.1893  0.1873  0.3311
  511TMC3    C6 7593   2.219   1.844  15.418  0.1518 -0.3512  0.4539
  511TMC3     C 7594   2.484   1.958  15.122 -0.5949  0.2078  0.6519
  511TMC3     O 7595   2.524   1.869  15.054  0.1148  0.8641 -0.8672
  511TMC3     H 7596   2.395   2.105  15.325  0.8574 -0.7642 -0.8928
  511TMC3    H1 7597   2.389   1.712  15.162 -2.3902 -1.6491 -0.2370
  511TMC3    H2 7598   2.135   1.823  15.483 -1.1891 -0.5164 -1.3277
  511TMC3    C7 7599   2.208   1.624  15.311  0.7713  0.7228  0.3235
  511TMC3    C8 7600   2.210   2.063  15.499  0.6784 -0.4019 -1.0221
  511TMC3    O1 7601   2.230   1.574  15.201  0.1511 -0.0565  0.0668
  511TMC3    O2 7602   2.200   2.175  15.452 -0.0191  0.4918  0.5191
  512TMC3    C1 7603   1.540   1.594  13.189 -0.0821  0.1439  0.0737
  512TMC3    C2 7604   1.608   1.546  13.302  1.1113  0.1135 -1.0160
  512TMC3    C3 7605   1.579   1.419  13.337  0.6843 -0.5796  0.5062
  512TMC3    C4 7606   1.442   1.521  13.131 -0.2806  0.2657  1.0633
  512TMC3    C5 7607   1.418   1.397  13.165  0.6668  0.5922 -0.4088
  512TMC3    C6 7608   1.485   1.344  13.270  0.0070 -0.5294  0.0329
  512TMC3     C 7609   1.555   1.733  13.139  0.4160 -0.6161 -0.2389
  512TMC3     O 7610   1.515   1.744  13.024  0.6149 -0.1002  0.5618
  512TMC3     H 7611   1.676   1.613  13.353  0.8244 -1.9306  2.0339
  512TMC3    H1 7612   1.389   1.565  13.047 -0.8152  0.6071  1.5809
  512TMC3    H2 7613   1.477   1.241  13.302 -2.4683 -0.5349 -0.6071
  512TMC3    C7 7614   1.373   1.306  13.058 -1.0525 -0.0241 -0.4665
  512TMC3    C8 7615   1.652   1.356  13.454  0.7081 -0.0937  0.3056
  512TMC3    O1 7616   1.339   1.362  12.952 -0.6216 -0.5112 -0.0958
  512TMC3    O2 7617   1.668   1.234  13.457  0.2191  0.4168  0.4469
  513MPD2     C 7618   3.691   1.445  13.402  0.5075 -0.4300  0.0294
  513MPD2    C1 7619   3.763   1.400  13.299 -0.3639  0.2135 -0.0039
  513MPD2    C2 7620   3.901   1.423  13.301  0.5741 -0.3477 -0.0704
  513MPD2    C3 7621   3.961   1.498  13.399  0.2798  0.0593 -0.1529
  513MPD2    C4 7622   3.886   1.544  13.508  0.0207 -0.4387 -0.1334
  513MPD2    C5 7623   3.750   1.502  13.512 -0.5107  0.2556 -0.4330
  513MPD2     H 7624   3.962   1.399  13.215 -0.9995  1.3976 -1.6723
  513MPD2    H1 7625   3.938   1.589  13.591 -0.1296 -1.7770  0.6892
  513MPD2    H2 7626   3.586   1.420  13.405  0.1986  0.7781 -0.6234
  513MPD2    H3 7627   3.694   1.527  13.601 -1.9838  2.6743 -2.0180
  513MPD2     N 7628   4.099   1.524  13.385 -0.1692  0.2060 -0.4708
  513MPD2    H5 7629   4.135   1.474  13.304 -0.1485  2.2159 -1.6956
  513MPD2    N1 7630   3.702   1.311  13.204  0.3783 -0.6809 -0.2454
  513MPD2    H7 7631   3.601   1.303  13.203  0.1958  1.5143 -1.2299
  514TMC3    C1 7632   3.697   1.146  13.040 -0.1856 -0.2467  0.3034
  514TMC3    C2 7633   3.601   1.203  12.963  0.0134  0.6424  0.1170
  514TMC3    C3 7634   3.589   1.149  12.837  0.4566 -0.0770  0.5441
  514TMC3    C4 7635   3.780   1.053  12.987  0.3654 -1.2729 -0.2721
  514TMC3    C5 7636   3.772   1.007  12.860 -0.3908 -0.7001  0.0240
  514TMC3    C6 7637   3.667   1.050  12.782 -0.3424 -0.5443  0.1448
  514TMC3     C 7638   3.775   1.231  13.121  0.3201 -0.2623 -0.2584
  514TMC3     O 7639   3.896   1.222  13.107  0.6792 -0.9602  0.6593
  514TMC3     H 7640   3.552   1.294  12.994 -1.0202 -0.7411  2.5757
  514TMC3    H1 7641   3.843   1.002  13.060  1.8190  0.2871 -0.4241
  514TMC3    H2 7642   3.650   1.008  12.683  0.0052 -2.5641  0.9650
  514TMC3    C7 7643   3.905   1.003  12.797 -1.5602  0.3994 -0.0482
  514TMC3    C8 7644   3.469   1.186  12.763  0.3318  0.2000 -0.3767
  514TMC3    O1 7645   3.929   0.932  12.698  0.4792 -0.0986  0.4330
  514TMC3    O2 7646   3.384   1.253  12.820  0.1401 -0.8285 -0.2336
  515MPD2     C 7647   1.624   3.636  14.897  0.1392 -0.0562 -0.1353
  515MPD2    C1 7648   1.594   3.511  14.954  0.7114  0.8800  0.7240
  515MPD2    C2 7649   1.690   3.441  15.033 -0.1313  0.8151  0.5395
  515MPD2    C3 7650   1.819   3.496  15.037 -0.6925  1.1004 -0.1905
  515MPD2    C4 7651   1.849   3.612  14.973 -0.1054 -0.6051 -0.2460
  515MPD2    C5 7652   1.756   3.688  14.912  0.2708  0.7328  0.1911
  515MPD2     H 7653   1.664   3.344  15.072 -1.8604  0.4105 -1.5977
  515MPD2    H1 7654   1.943   3.665  14.987 -0.2613 -0.2663 -0.4758
  515MPD2    H2 7655   1.558   3.696  14.835  0.1938  1.5313  1.3496
  515MPD2    H3 7656   1.779   3.788  14.878 -0.4310  0.6989 -0.3881
  515MPD2     N 7657   1.929   3.430  15.094  0.4919  0.0757 -0.1097
  515MPD2    H5 7658   2.008   3.491  15.112  2.4994 -2.6322  0.2305
  515MPD2    N1 7659   1.474   3.448  14.931 -0.2995  0.4135 -0.9701
  515MPD2    H7 7660   1.462   3.352  14.963 -3.2262  0.7384 -1.0336
  516TMC3    C1 7661   1.269   3.419  14.824  0.6696 -0.2204  0.3690
  516TMC3    C2 7662   1.265   3.424  14.688 -0.8891 -0.1181 -0.2426
  516TMC3    C3 7663   1.197   3.323  14.623  0.2807  0.7663  0.6632
  516TMC3    C4 7664   1.234   3.313  14.896  0.1044 -0.9797 -0.1513
  516TMC3    C5 7665   1.189   3.198  14.831 -0.4435  0.1644 -0.3966
  516TMC3    C6 7666   1.164   3.207  14.693 -0.1920 -0.4727  0.2307
  516TMC3     C 7667   1.366   3.508  14.879 -0.0639 -0.6302 -0.7176
  516TMC3     O 7668   1.358   3.629  14.849  0.2620 -0.2133 -0.8058
  516TMC3     H 7669   1.290   3.516  14.637 -1.3596  0.1107 -0.0500
  516TMC3    H1 7670   1.261   3.311  15.001 -2.0282  1.2200  0.4416
  516TMC3    H2 7671   1.120   3.130  14.631  1.5156  0.1525 -1.7733
  516TMC3    C7 7672   1.151   3.078  14.909 -0.7167  0.3666  0.0967
  516TMC3    C8 7673   1.204   3.318  14.481 -0.0022 -0.5839  0.2409
  516TMC3    O1 7674   1.142   3.101  15.032  1.0032 -0.3560 -0.6516
  516TMC3    O2 7675   1.134   3.233  14.430 -0.3254  0.3333  0.9739
  517MPD2     C 7676   0.732   4.585   0.156 -0.2098  0.7067 -0.7355
  517MPD2    C1 7677   0.869   4.584   0.200  0.3377 -1.1193  0.3650
  517MPD2    C2 7678   0.905   4.670   0.299  0.1139 -0.0249  0.7353
  517MPD2    C3 7679   0.815   0.025   0.366 -0.6296 -0.1079  0.7722
  517MPD2    C4 7680   0.684   0.025   0.332  1.0108 -0.2256  0.0366
  517MPD2    C5 7681   0.644   4.670   0.225 -0.0511  0.3308  0.1763
  517MPD2     H 7682   1.010   4.690   0.320  0.6776 -0.8053 -1.4224
  517MPD2    H1 7683   0.616   0.090   0.386  1.3888  1.1088 -1.0909
  517MPD2    H2 7684   0.695   4.516   0.081  1.4453  0.9198 -1.7433
  517MPD2    H3 7685   0.541   4.667   0.194  0.5155 -0.7810 -1.6006
  517MPD2     N 7686   0.867   0.108   0.467 -0.2188  0.3502  0.7278
  517MPD2    H5 7687   0.969   0.114   0.467 -0.2383  0.6837  1.3826
  517MPD2    N1 7688   0.964   4.494   0.147 -0.2598  0.0158 -0.2269
  517MPD2    H7 7689   1.049   4.490   0.202 -1.6824  0.4773  1.9912
  518TMC3    C1 7690   1.074   4.334   0.020  0.0905  0.8356  0.6978
  518TMC3    C2 7691   1.062   4.219  17.656 -0.3010  0.4441 -0.5479
  518TMC3    C3 7692   1.172   4.133  17.651  0.8193 -0.1520  0.7591
  518TMC3    C4 7693   1.190   4.375   0.078  0.2741  0.1516  0.3725
  518TMC3    C5 7694   1.294   4.283   0.071 -0.2885  0.0302  0.2822
  518TMC3    C6 7695   1.285   4.156   0.017  0.0955 -0.0711  1.3286
  518TMC3     C 7696   0.947   4.399   0.051 -0.4731  0.7167 -0.0783
  518TMC3     O 7697   0.851   4.369  17.685 -0.0595  0.9300  0.5176
  518TMC3     H 7698   0.972   4.202  17.598 -0.7731  1.0767  0.0013
  518TMC3    H1 7699   1.211   4.472   0.122 -1.4109  1.0666 -0.8454
  518TMC3    H2 7700   1.363   4.081   0.018 -0.7346 -0.9694 -0.4651
  518TMC3    C7 7701   1.424   4.331   0.124 -0.5679  0.2009  0.3767
  518TMC3    C8 7702   1.152   3.999  17.609 -0.1411 -0.1492  0.1151
  518TMC3    O1 7703   1.425   4.416   0.208 -0.5153  0.1164 -0.1543
  518TMC3    O2 7704   1.238   3.944  17.544  0.3130  0.3981  0.3350
  519MPD2     C 7705   2.876   3.213  14.336  0.5850 -0.8071  0.2458
  519MPD2    C1 7706   2.898   3.247  14.208  0.0729 -0.2957 -0.7738
  519MPD2    C2 7707   3.019   3.202  14.148  0.8327 -0.3312  1.3123
  519MPD2    C3 7708   3.108   3.123  14.218  0.0340 -0.3058 -0.2793
  519MPD2    C4 7709   3.087   3.104  14.349  0.7098 -0.0081 -0.6447
  519MPD2    C5 7710   2.974   3.148  14.406 -0.3944 -0.4035  0.2723
  519MPD2     H 7711   3.043   3.242  14.050 -1.1013 -1.8025  0.2309
  519MPD2    H1 7712   3.165   3.058  14.408 -1.0280 -1.9852  0.1455
  519MPD2    H2 7713   2.782   3.221  14.391  1.4980  0.7645  1.5973
  519MPD2    H3 7714   2.958   3.117  14.509  1.1564 -1.3271  0.2303
  519MPD2     N 7715   3.226   3.064  14.164 -0.1006  0.0227 -0.9274
  519MPD2    H5 7716   3.272   2.994  14.221  1.5694  1.4858 -0.4863
  519MPD2    N1 7717   2.802   3.326  14.145 -0.0122  0.4062  0.6076
  519MPD2    H7 7718   2.739   3.372  14.211  0.5507 -0.3287  1.6561
  520TMC3    C1 7719   3.353   2.962  14.001 -0.1987  0.3599  0.0146
  520TMC3    C2 7720   3.308   2.900  13.887 -0.2202 -0.1538 -0.6114
  520TMC3    C3 7721   3.390   2.817  13.828 -0.3932 -0.0516 -0.9215
  520TMC3    C4 7722   3.473   2.936  14.060  0.1742  0.1112  0.3637
  520TMC3    C5 7723   3.553   2.850  13.989 -0.0171 -0.2470  0.1255
  520TMC3    C6 7724   3.514   2.792  13.872 -0.1004 -0.0641  0.5404
  520TMC3     C 7725   3.267   3.073  14.033  0.3531 -0.1095 -0.0684
  520TMC3     O 7726   3.239   3.152  13.941  0.5318  0.3110 -0.0669
  520TMC3     H 7727   3.213   2.940  13.853  1.2957  2.0984 -2.2253
  520TMC3    H1 7728   3.500   2.987  14.152 -3.0213 -2.2973  2.6433
  520TMC3    H2 7729   3.569   2.709  13.831 -0.2917  0.6062 -1.0766
  520TMC3    C7 7730   3.667   2.791  14.050 -0.3231 -0.3913  0.4695
  520TMC3    C8 7731   3.352   2.761  13.703  0.0167  0.0270 -0.2150
  520TMC3    O1 7732   3.663   2.772  14.170  0.1119  0.0069  0.0522
  520TMC3    O2 7733   3.444   2.723  13.634 -0.3700  0.0334 -0.1627
  521MPD2     C 7734   3.880   1.197   0.067  0.7388  0.4335 -0.8124
  521MPD2    C1 7735   3.921   1.064   0.066 -0.1594 -0.2887  0.6191
  521MPD2    C2 7736   4.015   1.028  17.669 -0.5003 -0.0306  0.3326
  521MPD2    C3 7737   4.058   1.119  17.578 -0.2109  0.3914 -0.1125
  521MPD2    C4 7738   4.015   1.250  17.573 -0.3947 -0.0813  0.2729
  521MPD2    C5 7739   3.928   1.286  17.672  0.4364  0.2048 -0.0620
  521MPD2     H 7740   4.071   0.935  17.665  2.8077  1.9980 -0.0269
  521MPD2    H1 7741   4.046   1.327  17.503  1.9413  0.5470  2.0152
  521MPD2    H2 7742   3.806   1.231   0.139 -0.1804  0.7700 -1.9142
  521MPD2    H3 7743   3.894   1.388  17.680 -0.7340 -0.2260  0.4861
  521MPD2     N 7744   4.153   1.065  17.488 -0.1298 -0.2045  0.2189
  521MPD2    H5 7745   4.170   0.967  17.503 -2.6512 -0.5798  0.6109
  521MPD2    N1 7746   3.874   0.972   0.161 -0.4798 -0.0551  0.3263
  521MPD2    H7 7747   3.822   1.005   0.242  1.2962  1.4166  0.8968
  522TMC3    C1 7748   4.358   1.054  17.366 -0.5244  0.2009 -0.3529
  522TMC3    C2 7749   4.482   1.103  17.345  0.4381 -0.2258 -0.3135
  522TMC3    C3 7750   4.579   1.025  17.288  0.0235  0.1844  0.4408
  522TMC3    C4 7751   4.340   0.920  17.342  0.2965  0.4019  0.1168
  522TMC3    C5 7752   4.431   0.849  17.272 -0.5441 -0.3487 -0.5024
  522TMC3    C6 7753   4.558   0.893  17.258  0.0105 -0.3121  0.8993
  522TMC3     C 7754   4.251   1.138  17.420 -0.3010  0.8140  0.2179
  522TMC3     O 7755   4.279   1.258  17.423 -0.2252  0.3536 -0.5195
  522TMC3     H 7756   4.494   1.209  17.368  2.4070 -0.6279  0.5037
  522TMC3    H1 7757   4.235   0.895  17.333 -0.6441  3.3043  3.2148
  522TMC3    H2 7758   4.630   0.822  17.217 -1.2739 -2.5802  2.5549
  522TMC3    C7 7759   4.415   0.705  17.242  1.0323 -0.1898 -0.9437
  522TMC3    C8 7760   4.714   1.073  17.298 -0.0738  0.8271  0.2870
  522TMC3    O1 7761   4.501   0.650  17.178 -0.2116  0.6577 -0.4115
  522TMC3    O2 7762   0.028   1.143  17.392  0.0460  0.0161 -0.2565
  523MPD2     C 7763   1.537   0.408  10.306  0.7618  0.4758 -0.4339
  523MPD2    C1 7764   1.460   0.321  10.234 -0.5307  0.7211 -0.8834
  523MPD2    C2 7765   1.346   0.364  10.171 -0.0810  0.0671  0.2438
  523MPD2    C3 7766   1.315   0.501  10.172  0.0524  0.2356 -0.1270
  523MPD2    C4 7767   1.403   0.590  10.239 -0.4781 -1.3361  0.6453
  523MPD2    C5 7768   1.512   0.541  10.303 -0.4589  0.2482 -0.2498
  523MPD2     H 7769   1.277   0.295  10.123 -0.9660  1.0601  0.0682
  523MPD2    H1 7770   1.396   0.697  10.224 -1.7051 -1.2523  1.8552
  523MPD2    H2 7771   1.630   0.385  10.357  0.2550  0.5817  0.5529
  523MPD2    H3 7772   1.582   0.604  10.357  1.1560 -0.9664 -0.9128
  523MPD2     N 7773   1.208   0.559  10.104  0.9820  0.7416 -0.0309
  523MPD2    H5 7774   1.197   0.657  10.125  2.2146  0.9130 -0.2001
  523MPD2    N1 7775   1.496   0.183  10.245 -0.2279  0.0562  0.3178
  523MPD2    H7 7776   1.561   0.148  10.315 -0.0014 -2.0425 -0.9148
  524TMC3    C1 7777   1.014   0.586   9.977 -0.1630 -0.0223  0.0534
  524TMC3    C2 7778   0.900   0.531   9.923 -0.1440 -0.8385  0.6789
  524TMC3    C3 7779   0.790   0.617   9.918  0.3824  1.3150 -0.7718
  524TMC3    C4 7780   1.035   0.724   9.992  0.5162  0.5555  0.1670
  524TMC3    C5 7781   0.912   0.799   9.994 -0.4460  0.5611 -0.2329
  524TMC3    C6 7782   0.792   0.752   9.948 -1.0298 -0.1320 -0.1396
  524TMC3     C 7783   1.101   0.495  10.036 -0.2038 -0.0709  0.2479
  524TMC3     O 7784   1.084   0.382  10.008  0.0199 -0.0092 -0.3526
  524TMC3     H 7785   0.876   0.429   9.952  0.4169 -1.2489 -0.3399
  524TMC3    H1 7786   1.129   0.768  10.022  0.6331  0.6615 -0.3648
  524TMC3    H2 7787   0.702   0.812   9.941 -1.2802 -0.1040  2.9874
  524TMC3    C7 7788   0.923   0.931  10.044 -0.1833 -0.3728 -0.2999
  524TMC3    C8 7789   0.666   0.573   9.867  0.2564  0.1389 -0.2952
  524TMC3    O1 7790   1.016   0.952  10.118  0.0211  0.4653  0.5260
  524TMC3    O2 7791   0.557   0.632   9.886 -0.0103 -0.6229  0.0999
  525MPD2     C 7792   4.518   2.525  14.719  1.1339  0.0985 -0.4439
  525MPD2    C1 7793   4.625   2.479  14.799 -0.5397 -0.4922  0.1703
  525MPD2    C2 7794   0.029   2.528  14.790 -0.1553  0.9882 -0.3924
  525MPD2    C3 7795   0.053   2.643  14.710 -0.6326  0.3965 -0.5063
  525MPD2    C4 7796   4.667   2.689  14.639  0.7714 -0.9752  0.2917
  525MPD2    C5 7797   4.546   2.632  14.642 -0.2009 -0.3543  0.3535
  525MPD2     H 7798   0.106   2.489  14.856  0.4217 -0.8250 -2.1230
  525MPD2    H1 7799   4.690   2.772  14.573  0.4169 -0.7715  0.4249
  525MPD2    H2 7800   4.419   2.481  14.712  0.9585  0.6179 -1.2026
  525MPD2    H3 7801   4.464   2.654  14.574  1.7983  2.1139 -1.2573
  525MPD2     N 7802   0.179   2.713  14.695  0.0077 -0.0195  0.7328
  525MPD2    H5 7803   0.184   2.806  14.655  3.5710  0.1368  1.5439
  525MPD2    N1 7804   4.619   2.370  14.883 -0.1911  0.1909  0.0664
  525MPD2    H7 7805   4.708   2.340  14.921  0.7460  0.2418 -2.0947
  526TMC3    C1 7806   4.525   2.189  15.010  0.1860  0.7250 -0.3502
  526TMC3    C2 7807   4.422   2.162  15.101 -0.5371  0.6105  0.3495
  526TMC3    C3 7808   4.443   2.059  15.196 -0.7472  0.0356 -0.4963
  526TMC3    C4 7809   4.642   2.123  15.014 -0.4137 -0.2024 -0.2057
  526TMC3    C5 7810   4.662   2.033  15.120  0.0927  0.1196 -0.2577
  526TMC3    C6 7811   4.565   2.002  15.212 -0.4609  0.0598 -0.0874
  526TMC3     C 7812   4.503   2.305  14.917 -0.5395  0.8269 -0.3911
  526TMC3     O 7813   4.390   2.333  14.880  0.2655  0.1867  0.1413
  526TMC3     H 7814   4.330   2.217  15.085 -1.3779 -0.7799  0.4812
  526TMC3    H1 7815   0.000   2.151  14.951 -0.9422  2.2745  0.2205
  526TMC3    H2 7816   4.588   1.931  15.291 -1.3678  0.6215  0.6943
  526TMC3    C7 7817   0.070   1.985  15.156 -0.1500 -0.1059 -0.3243
  526TMC3    C8 7818   4.366   2.072  15.320 -0.0486 -0.4318 -0.6302
  526TMC3    O1 7819   0.093   1.950  15.270 -0.3699  0.4560  0.1079
  526TMC3    O2 7820   4.430   2.055  15.424  0.2355 -0.1647 -0.4462
  527MPD2     C 7821   2.590   4.436   0.806  0.1840  0.1580  0.0899
  527MPD2    C1 7822   2.604   4.380   0.930 -0.3191 -0.0326  0.6434
  527MPD2    C2 7823   2.733   4.332   0.961  0.2875  0.2468 -0.0237
  527MPD2    C3 7824   2.848   4.350   0.881  0.3440 -0.1122  0.1142
  527MPD2    C4 7825   2.826   4.409   0.754  0.2332  0.3291 -0.2416
  527MPD2    C5 7826   2.696   4.455   0.719  0.2096  0.4048 -0.3101
  527MPD2     H 7827   2.746   4.269   1.048 -0.1476 -0.2648 -0.3325
  527MPD2    H1 7828   2.914   4.434   0.697  1.3525 -1.3446  0.7789
  527MPD2    H2 7829   2.501   4.486   0.769  0.5357 -0.6733 -1.9217
  527MPD2    H3 7830   2.675   4.508   0.627  3.4833  3.2231  0.5829
  527MPD2     N 7831   2.975   4.307   0.935 -0.3594 -0.9832  0.3114
  527MPD2    H5 7832   2.971   4.266   1.028  1.0207  0.2295  0.9278
  527MPD2    N1 7833   2.492   4.350   1.016  0.3967  0.5100  1.0784
  527MPD2    H7 7834   2.514   4.296   1.099 -0.8143 -0.6031  0.6706
  528TMC3    C1 7835   2.267   4.371   1.104 -0.6063  0.1914 -0.0592
  528TMC3    C2 7836   2.291   4.255   1.168 -0.1265 -0.4513  0.1230
  528TMC3    C3 7837   2.184   4.207   1.244 -0.6485 -0.6542 -0.7443
  528TMC3    C4 7838   2.143   4.431   1.103  0.3732  0.4830  0.3468
  528TMC3    C5 7839   2.047   4.379   1.183  0.0724 -0.0672 -0.7151
  528TMC3    C6 7840   2.065   4.270   1.260 -0.2481 -0.7150  0.1659
  528TMC3     C 7841   2.365   4.411   1.003  0.2559 -0.2046 -0.2263
  528TMC3     O 7842   2.340   4.503   0.926 -0.3336  0.1444  0.3363
  528TMC3     H 7843   2.375   4.191   1.143 -0.4818 -0.7708 -0.2672
  528TMC3    H1 7844   2.131   4.528   1.056  0.2210  1.6334  2.7121
  528TMC3    H2 7845   1.991   4.237   1.332 -1.0372  0.6574 -0.0315
  528TMC3    C7 7846   1.933   4.464   1.209  0.4401  0.1309 -0.2797
  528TMC3    C8 7847   2.236   4.128   1.354 -0.2430 -0.5059 -0.4781
  528TMC3    O1 7848   1.890   4.466   1.325  0.2203 -0.1798  0.4463
  528TMC3    O2 7849   2.357   4.128   1.364 -0.2351 -0.3878  0.1270
  529MPD2     C 7850   0.103   4.060   1.246  0.2146  0.2765 -0.1104
  529MPD2    C1 7851   0.095   3.949   1.165  0.3519  0.3222  0.1723
  529MPD2    C2 7852   0.063   3.969   1.032 -0.7322 -0.5251  0.1152
  529MPD2    C3 7853   0.024   4.094   0.987  0.1725 -0.2156  0.0718
  529MPD2    C4 7854   0.033   4.203   1.071 -0.0638  0.4524  0.2652
  529MPD2    C5 7855   0.072   4.183   1.199  0.1405 -0.1765 -0.3241
  529MPD2     H 7856   0.066   3.885   0.964 -0.7823  0.2732 -0.8827
  529MPD2    H1 7857   0.014   4.304   1.035  0.1884  0.2810 -0.3491
  529MPD2    H2 7858   0.134   4.055   1.350  1.7519 -0.1807 -0.5899
  529MPD2    H3 7859   0.088   4.257   1.276 -0.8558 -0.1535 -0.1445
  529MPD2     N 7860   4.716   4.129   0.853  0.2023  0.3133  0.2051
  529MPD2    H5 7861   4.703   4.228   0.835 -0.4701  0.3580  0.9218
  529MPD2    N1 7862   0.119   3.818   1.205  0.3429  0.2061  0.1561
  529MPD2    H7 7863   0.117   3.744   1.136 -0.4295 -0.7404  1.1913
  530TMC3    C1 7864   0.163   3.632   1.349 -0.3263 -0.5544  0.8627
  530TMC3    C2 7865   0.216   3.586   1.466 -0.1279 -0.4668 -0.4584
  530TMC3    C3 7866   0.261   3.460   1.470  0.0453 -0.0497 -0.0640
  530TMC3    C4 7867   0.145   3.546   1.244 -0.0426  0.5589 -0.4631
  530TMC3    C5 7868   0.180   3.420   1.259  0.0923 -0.1379 -0.2080
  530TMC3    C6 7869   0.243   3.370   1.366 -0.0626  0.3398  0.3268
  530TMC3     C 7870   0.132   3.772   1.338  0.9345 -0.4554 -0.3168
  530TMC3     O 7871   0.127   3.845   1.441  0.1660  0.2866 -0.4256
  530TMC3     H 7872   0.222   3.650   1.553  0.4260 -0.1291 -0.7490
  530TMC3    H1 7873   0.084   3.570   1.157 -1.3804  0.0994  0.3490
  530TMC3    H2 7874   0.262   3.264   1.380 -1.7833  0.1414  1.1530
  530TMC3    C7 7875   0.130   3.328   1.155 -0.2478 -0.1499  0.2645
  530TMC3    C8 7876   0.304   3.403   1.595 -0.3498 -0.7658 -0.0954
  530TMC3    O1 7877   0.127   3.368   1.038 -0.0425 -0.4159 -0.1033
  530TMC3    O2 7878   0.277   3.476   1.687 -0.1335  0.1600 -0.1189
  531MPD2     C 7879   4.388   1.173  12.835 -0.2319  0.0287 -0.6642
  531MPD2    C1 7880   4.316   1.238  12.932  0.0524  0.1654  0.0240
  531MPD2    C2 7881   4.177   1.218  12.932 -0.7186 -0.3406  1.1162
  531MPD2    C3 7882   4.120   1.119  12.854 -0.0548 -0.4031  0.1938
  531MPD2    C4 7883   4.199   1.058  12.763  0.0002 -0.3519 -0.8121
  531MPD2    C5 7884   4.331   1.096  12.743  0.0797  0.5042 -0.2285
  531MPD2     H 7885   4.118   1.275  13.003 -1.7425 -0.0626  0.0473
  531MPD2    H1 7886   4.161   0.986  12.691 -1.2706  0.4020 -0.8850
  531MPD2    H2 7887   4.494   1.186  12.821  0.2317 -0.9933  1.9146
  531MPD2    H3 7888   4.398   1.045  12.674 -0.3048 -1.9463  1.2228
  531MPD2     N 7889   3.985   1.086  12.874  0.3371 -0.1805 -0.0171
  531MPD2    H5 7890   3.947   1.143  12.949 -0.6595 -0.3328 -0.4018
  531MPD2    N1 7891   4.384   1.312  13.034  0.3881  0.1031  0.1786
  531MPD2    H7 7892   4.484   1.300  13.048  0.3472 -0.8716 -0.3495
  532TMC3    C1 7893   4.401   1.427  13.234  0.0996 -0.4308  0.1359
  532TMC3    C2 7894   4.339   1.530  13.304 -0.4167  0.0195  0.5317
  532TMC3    C3 7895   4.314   1.510  13.438  0.6474 -0.3129 -0.9204
  532TMC3    C4 7896   4.448   1.319  13.307 -0.3793  0.5575  0.1710
  532TMC3    C5 7897   4.410   1.304  13.439  0.1839 -0.1775 -0.0338
  532TMC3    C6 7898   4.344   1.395  13.507  0.3948 -0.9080 -0.1459
  532TMC3     C 7899   4.324   1.397  13.126 -0.6138 -0.4720  0.0176
  532TMC3     O 7900   4.207   1.431  13.131  0.3537 -0.1539  0.7201
  532TMC3     H 7901   4.287   1.611  13.254  0.4164  1.2338  1.6323
  532TMC3    H1 7902   4.517   1.251  13.260 -0.6103  0.2497  0.2826
  532TMC3    H2 7903   4.324   1.378  13.612  1.5274 -0.8554  0.0785
  532TMC3    C7 7904   4.435   1.179  13.515 -0.2005  0.4201 -0.1061
  532TMC3    C8 7905   4.186   1.559  13.486  0.3698 -0.4504 -0.2670
  532TMC3    O1 7906   4.458   1.181  13.634  0.5894  0.0176 -0.0611
  532TMC3    O2 7907   4.168   1.584  13.604  0.0169  0.7474 -1.1860
  533TMC3    C1 7908   0.376   2.794  14.766 -0.0995 -0.2049 -0.3312
  533TMC3    C2 7909   0.360   2.888  14.666  0.1777  0.0152  0.1553
  533TMC3    C3 7910   0.361   3.025  14.713  0.2351  0.4853 -0.0475
  533TMC3    C4 7911   0.421   2.827  14.895  0.0722 -0.8833  0.9443
  533TMC3    C5 7912   0.431   2.961  14.927 -0.0867 -0.3410 -0.4713
  533TMC3    C6 7913   0.395   3.060  14.843  0.2014 -0.1948 -0.5000
  533TMC3     C 7914   0.294   2.679  14.760 -0.2898 -0.1173  0.3003
  533TMC3     O 7915   0.299   2.602  14.855 -0.4934  0.2160  0.6483
  533TMC3     H 7916   0.335   2.859  14.565  1.3969  0.3665 -0.2535
  533TMC3    H1 7917   0.432   2.748  14.969  0.0417 -1.9109 -0.1593
  533TMC3    H2 7918   0.399   3.166  14.865  1.5057 -0.4517  0.4790
  533TMC3    C7 7919   0.391   2.977  15.066  0.0928 -0.3823  0.1580
  533TMC3    C8 7920   0.377   3.130  14.618 -0.2957 -0.4576  0.0679
  533TMC3    O1 7921   0.438   2.910  15.157  0.0720 -0.1134 -0.5897
  533TMC3    O2 7922   0.425   3.100  14.510 -0.0728 -0.2751  0.1875
  534MPD2     C 7923   2.152   3.047   1.510 -0.4492 -0.3825  0.0031
  534MPD2    C1 7924   2.095   3.175   1.515 -0.2900 -0.1091  0.1566
  534MPD2    C2 7925   1.959   3.181   1.546 -0.0763  0.8202  0.1189
  534MPD2    C3 7926   1.891   3.070   1.593  0.3033  0.3556  0.2304
  534MPD2    C4 7927   1.952   2.954   1.588 -0.0425  0.3968 -0.0551
  534MPD2    C5 7928   2.079   2.939   1.555  0.1633  0.0937 -0.0497
  534MPD2     H 7929   1.922   3.283   1.555  0.8555  1.0944  0.8873
  534MPD2    H1 7930   1.901   2.863   1.618  0.1094  0.3689  0.1161
  534MPD2    H2 7931   2.252   3.022   1.478 -0.9254 -0.4613 -1.4324
  534MPD2    H3 7932   2.115   2.839   1.535 -0.4313  0.2567 -1.9085
  534MPD2     N 7933   1.767   3.096   1.649  0.6449  0.7451  0.0208
  534MPD2    H5 7934   1.746   3.194   1.665  0.6083  0.6043  0.8409
  534MPD2    N1 7935   2.155   3.292   1.484 -0.3072 -0.1920 -0.4696
  534MPD2    H7 7936   2.102   3.378   1.486  1.8247  1.1140 -0.0493
  535TMC3    C1 7937   1.554   3.054   1.727 -0.0276  0.5499  0.0101
  535TMC3    C2 7938   1.441   3.002   1.669  0.2847  0.0261  0.1326
  535TMC3    C3 7939   1.336   3.084   1.639 -0.0988 -1.0978  0.7152
  535TMC3    C4 7940   1.554   3.192   1.760  0.2105  0.4490  0.8135
  535TMC3    C5 7941   1.444   3.274   1.736  0.1889 -0.2212  0.5433
  535TMC3    C6 7942   1.338   3.217   1.669  0.3579 -0.5027 -0.0720
  535TMC3     C 7943   1.677   2.996   1.680 -0.4057  0.6954 -0.3470
  535TMC3     O 7944   1.677   2.885   1.632  0.3027  0.4963 -0.2935
  535TMC3     H 7945   1.435   2.899   1.634 -0.0491  0.1495 -0.1758
  535TMC3    H1 7946   1.632   3.248   1.808  0.0480  1.5622 -0.2184
  535TMC3    H2 7947   1.252   3.281   1.649  0.7478  0.0966  0.1636
  535TMC3    C7 7948   1.493   3.397   1.669 -0.5168 -0.5142  0.0734
  535TMC3    C8 7949   1.237   3.044   1.542  0.7040 -0.5066  0.7590
  535TMC3    O1 7950   1.613   3.400   1.657  0.7430  0.2421 -0.4040
  535TMC3    O2 7951   1.131   3.106   1.542 -0.2346  0.2311 -0.0958
  536MPD2     C 7952   0.697   2.243  16.254  0.4589  0.3218 -0.4035
  536MPD2    C1 7953   0.598   2.294  16.335 -0.4233  0.0151 -0.3714
  536MPD2    C2 7954   0.512   2.392  16.283 -0.0548 -0.3997 -0.3338
  536MPD2    C3 7955   0.522   2.433  16.146 -0.2035 -0.1188 -0.0959
  536MPD2    C4 7956   0.625   2.379  16.069 -0.2176 -0.9860 -0.0699
  536MPD2    C5 7957   0.706   2.284  16.120 -0.2561 -0.0170  0.2193
  536MPD2     H 7958   0.434   2.433  16.346  0.9719 -0.1287  0.7473
  536MPD2    H1 7959   0.634   2.406  15.965 -0.5588 -0.5958 -0.0007
  536MPD2    H2 7960   0.754   2.157  16.286  1.0622  0.4419 -1.1458
  536MPD2    H3 7961   0.768   2.233  16.047 -0.4800  0.4163 -0.2716
  536MPD2     N 7962   0.449   2.535  16.079  0.1405 -0.3763  0.1812
  536MPD2    H5 7963   0.468   2.538  15.979  2.1840  0.7826  0.6093
  536MPD2    N1 7964   0.603   2.262  16.472 -0.1017  0.4343  0.2606
  536MPD2    H7 7965   0.679   2.201  16.501 -0.5901 -0.0302  0.5703
  537TMC3    C1 7966   0.567   2.246  16.695 -0.6316  0.4271  0.0251
  537TMC3    C2 7967   0.698   2.235  16.708 -0.4689 -0.7375  0.8349
  537TMC3    C3 7968   0.741   2.192  16.837  0.3735  0.2177  0.3194
  537TMC3    C4 7969   0.471   2.222  16.791  0.0283 -0.3781 -1.0779
  537TMC3    C5 7970   0.516   2.158  16.906 -0.0099 -0.2623 -0.0418
  537TMC3    C6 7971   0.654   2.148  16.931 -0.4018  0.4771 -0.4732
  537TMC3     C 7972   0.520   2.300  16.573  0.0830  0.2703  0.2226
  537TMC3     O 7973   0.404   2.334  16.558  0.3794 -0.1963  0.6580
  537TMC3     H 7974   0.758   2.294  16.640 -3.1870  1.8080  0.6354
  537TMC3    H1 7975   0.368   2.218  16.757  1.0577 -3.5261 -3.8485
  537TMC3    H2 7976   0.694   2.111  17.025  0.1233 -3.3270 -2.2132
  537TMC3    C7 7977   0.418   2.149  17.015 -0.0086  0.5617  0.2218
  537TMC3    C8 7978   0.886   2.197  16.875  0.3237 -0.1710 -0.1171
  537TMC3    O1 7979   0.311   2.211  17.011 -0.1484 -0.1971 -0.5817
  537TMC3    O2 7980   0.909   2.197  16.995 -0.2638 -0.3927 -0.6632
  538TMC3    C1 7981   1.725   0.625  10.997  0.5918 -0.8817 -0.1905
  538TMC3    C2 7982   1.792   0.507  11.007  0.0262  0.0157  0.2117
  538TMC3    C3 7983   1.793   0.437  10.885 -0.7114  0.1697 -0.0811
  538TMC3    C4 7984   1.693   0.680  10.873 -0.0020 -0.0389  0.2264
  538TMC3    C5 7985   1.703   0.605  10.758  0.8524 -0.2848 -0.1297
  538TMC3    C6 7986   1.743   0.472  10.769 -0.5432 -0.3313 -0.5100
  538TMC3     C 7987   1.680   0.706  11.118  0.2876  0.3315  0.2020
  538TMC3     O 7988   1.623   0.811  11.098 -0.2314  0.4616 -0.4042
  538TMC3     H 7989   1.831   0.466  11.100  2.3609 -0.7806 -1.1220
  538TMC3    H1 7990   1.653   0.780  10.868  0.6844  0.2492  0.5375
  538TMC3    H2 7991   1.746   0.402  10.686  1.2320 -2.8219  1.6635
  538TMC3    C7 7992   1.586   0.631  10.666 -0.1814 -0.2798  0.1169
  538TMC3    C8 7993   1.892   0.329  10.874 -0.5804 -0.9069 -0.4267
  538TMC3    O1 7994   1.499   0.547  10.650  0.6439 -0.7590 -0.5795
  538TMC3    O2 7995   1.900   0.265  10.769  0.5185  0.3324  0.6951
  539MPD2     C 7996   1.497   4.705  11.969  0.1337 -0.4292  0.0712
  539MPD2    C1 7997   1.508   0.002  11.837  0.4712  0.3300  0.4184
  539MPD2    C2 7998   1.502   0.132  11.787 -0.4289 -0.0999  0.0288
  539MPD2    C3 7999   1.472   0.238  11.870  0.2433  0.0626 -0.1558
  539MPD2    C4 8000   1.442   0.209  12.003 -0.0546  0.0313 -0.1376
  539MPD2    C5 8001   1.460   0.080  12.049  0.0593  0.7099 -0.5851
  539MPD2     H 8002   1.519   0.147  11.681 -0.1564 -1.1869 -0.0897
  539MPD2    H1 8003   1.411   0.283  12.075  0.3362 -1.3611  1.4521
  539MPD2    H2 8004   1.507   4.610  12.020 -0.2463 -0.2779  0.4286
  539MPD2    H3 8005   1.440   0.072  12.155  1.0493 -0.7571 -0.5191
  539MPD2     N 8006   1.466   0.372  11.822 -0.7782 -0.3852  0.2719
  539MPD2    H5 8007   1.432   0.443  11.886 -1.1540  0.0279 -0.3865
  539MPD2    N1 8008   1.541   4.620  11.750 -0.3027 -0.4270 -0.0353
  539MPD2    H7 8009   1.526   4.630  11.650  1.0496  0.6201 -0.1271
  540TMC3    C1 8010   1.422   0.548  11.658 -0.9016  0.0468 -0.0681
  540TMC3    C2 8011   1.396   0.569  11.523 -0.1278  0.6397  0.3471
  540TMC3    C3 8012   1.325   0.679  11.492  0.5186 -0.2839  0.1061
  540TMC3    C4 8013   1.403   0.642  11.750  0.1280 -0.2883  0.1802
  540TMC3    C5 8014   1.342   0.759  11.718  0.0143 -0.3817 -0.0003
  540TMC3    C6 8015   1.299   0.781  11.587 -0.1235  0.2734 -0.0106
  540TMC3     C 8016   1.488   0.418  11.687  0.1850 -0.4519  0.2711
  540TMC3     O 8017   1.535   0.362  11.589 -0.9389  0.5733 -0.0344
  540TMC3     H 8018   1.433   0.500  11.448 -0.9515  0.6362 -0.0482
  540TMC3    H1 8019   1.433   0.618  11.851  1.8308 -0.8393 -0.4579
  540TMC3    H2 8020   1.242   0.869  11.561 -0.9712 -0.2267  0.1541
  540TMC3    C7 8021   1.294   0.840  11.827  0.1926  0.1165 -0.2697
  540TMC3    C8 8022   1.288   0.706  11.354  0.5015 -0.7581 -0.2898
  540TMC3    O1 8023   1.270   0.786  11.936  0.0935 -0.2622  0.5564
  540TMC3    O2 8024   1.272   0.824  11.320 -0.1168 -0.0098  0.2282
  541MPD2     C 8025   4.673   1.609  13.351 -0.3530 -0.1907 -0.2364
  541MPD2    C1 8026   0.042   1.529  13.299 -0.3299  0.1287 -0.7505
  541MPD2    C2 8027   0.108   1.568  13.180 -0.1272 -0.4567 -0.0665
  541MPD2    C3 8028   0.076   1.685  13.117  0.1006 -0.4172  0.3121
  541MPD2    C4 8029   4.695   1.759  13.167 -0.0639 -0.0991  0.0687
  541MPD2    C5 8030   4.627   1.725  13.286  0.8575  0.4358  0.0762
  541MPD2     H 8031   0.187   1.510  13.134  0.2232 -0.9770  1.1882
  541MPD2    H1 8032   4.661   1.847  13.115  0.6939  0.3563  0.3484
  541MPD2    H2 8033   4.618   1.570  13.436 -0.1864  0.2643  0.0803
  541MPD2    H3 8034   4.536   1.779  13.311 -0.7843 -2.6845  0.8807
  541MPD2     N 8035   0.134   1.742  13.000 -0.2882  0.0471  0.1455
  541MPD2    H5 8036   0.097   1.829  12.962 -0.8473 -0.8562 -1.3945
  541MPD2    N1 8037   0.077   1.403  13.348  0.4746  0.1969  0.4638
  541MPD2    H7 8038   0.140   1.346  13.294  0.6974  1.4958 -0.6531
  542TMC3    C1 8039   0.291   1.789  12.834  0.7602 -0.1507  0.0477
  542TMC3    C2 8040   0.317   1.742  12.709 -0.5500  0.2078 -0.3760
  542TMC3    C3 8041   0.344   1.835  12.614 -0.0121 -0.2621  0.4650
  542TMC3    C4 8042   0.286   1.920  12.865 -0.2224  0.5527 -0.6502
  542TMC3    C5 8043   0.318   2.004  12.760  0.0728  0.0129 -0.0184
  542TMC3    C6 8044   0.329   1.969  12.630 -0.0050 -1.2095 -0.1389
  542TMC3     C 8045   0.239   1.691  12.924  0.7266 -0.3103  0.7197
  542TMC3     O 8046   0.296   1.582  12.922 -0.5300  0.0080  0.5811
  542TMC3     H 8047   0.331   1.637  12.686  0.4016 -0.1508  1.8343
  542TMC3    H1 8048   0.263   1.955  12.964  0.8031  0.8228 -0.5091
  542TMC3    H2 8049   0.343   2.048  12.557  0.1626 -3.6594 -2.7649
  542TMC3    C7 8050   0.295   2.150  12.793  0.7492 -0.3107 -0.4527
  542TMC3    C8 8051   0.382   1.788  12.476 -0.5080 -0.6014  0.8554
  542TMC3    O1 8052   0.303   2.182  12.913 -0.0031  0.3585 -0.0924
  542TMC3    O2 8053   0.361   1.672  12.434  0.1268  0.2619 -0.6847
  543TMC3    C1 8054   4.289   2.997   0.032 -0.1346  0.1747  0.3710
  543TMC3    C2 8055   4.218   2.900  17.676  0.6960  0.6547  0.4917
  543TMC3    C3 8056   4.114   2.851   0.041  0.0013  0.0460 -0.2263
  543TMC3    C4 8057   4.266   3.054   0.150  1.1397 -0.2359 -0.0869
  543TMC3    C5 8058   4.152   2.994   0.210 -0.3883 -0.0142 -0.2971
  543TMC3    C6 8059   4.078   2.891   0.159  0.3140  0.1842  0.2308
  543TMC3     C 8060   4.381   3.055  17.642  0.4973 -0.5976 -0.4918
  543TMC3     O 8061   4.442   2.972  17.573 -0.8511 -0.2855 -0.3245
  543TMC3     H 8062   4.239   2.858  17.578  2.3952 -0.1873  1.2166
  543TMC3    H1 8063   4.338   3.118   0.199 -2.6597  3.3228  0.8626
  543TMC3    H2 8064   3.997   2.857   0.222 -0.1114  0.4371 -0.1875
  543TMC3    C7 8065   4.110   3.048   0.344 -0.6351  0.4198  0.4040
  543TMC3    C8 8066   4.066   2.720   0.001  0.5669  0.1839 -0.1757
  543TMC3    O1 8067   4.066   2.965   0.423  0.2092 -0.3744  0.4677
  543TMC3    O2 8068   4.138   2.660  17.622  0.2262 -0.3134  0.6493
  544MPD2     C 8069   3.730   2.319  17.695 -0.4929  0.2218 -0.1929
  544MPD2    C1 8070   3.865   2.322  17.660 -0.8925  0.1116 -0.0019
  544MPD2    C2 8071   3.928   2.450  17.663  0.5422  0.5766  0.1129
  544MPD2    C3 8072   3.870   2.562   0.021 -0.1845  0.1717 -0.4470
  544MPD2    C4 8073   3.733   2.552   0.065  0.0637  0.6725 -0.6846
  544MPD2    C5 8074   3.670   2.440   0.033  0.4884  0.1142  0.0945
  544MPD2     H 8075   4.032   2.455  17.632  1.6086 -0.5033  3.5498
  544MPD2    H1 8076   3.673   2.636   0.098 -1.3291 -0.7707  0.4203
  544MPD2    H2 8077   3.670   2.230  17.682 -1.8780  0.9971  0.8481
  544MPD2    H3 8078   3.564   2.444   0.055  0.3187 -1.1678 -0.4552
  544MPD2     N 8079   3.932   2.690   0.032  0.0919  0.7174 -0.1755
  544MPD2    H5 8080   3.879   2.768   0.071 -1.5883 -0.3459 -0.3147
  544MPD2    N1 8081   3.931   2.206  17.617  0.4523 -0.0856  0.3873
  544MPD2    H7 8082   3.882   2.119  17.630 -0.1938 -0.0601 -1.7961
  545TMC3    C1 8083   4.094   2.067  17.506 -0.7123  0.5995 -0.2692
  545TMC3    C2 8084   4.181   2.045  17.401 -0.0562  0.3471 -0.2084
  545TMC3    C3 8085   4.243   1.927  17.381 -0.2026  0.2808 -0.0955
  545TMC3    C4 8086   4.066   1.967  17.589  0.8579 -0.4159  0.8502
  545TMC3    C5 8087   4.129   1.848  17.562  0.3706 -0.2051 -0.4697
  545TMC3    C6 8088   4.214   1.826  17.462 -0.0219 -0.5423  0.4735
  545TMC3     C 8089   4.045   2.203  17.537 -0.3064  0.0441 -0.0589
  545TMC3     O 8090   4.116   2.291  17.488  0.8456  0.1960  0.0794
  545TMC3     H 8091   4.205   2.127  17.335 -0.3774  1.2670  0.8083
  545TMC3    H1 8092   4.001   1.986  17.674  0.4217  0.3049  0.3493
  545TMC3    H2 8093   4.265   1.732  17.442  0.0016 -0.5512  0.5786
  545TMC3    C7 8094   4.110   1.739  17.658 -0.5716 -0.0941  0.2033
  545TMC3    C8 8095   4.321   1.910  17.265  0.1158 -0.5100 -0.9173
  545TMC3    O1 8096   4.004   1.754   0.018 -0.2222 -0.1086 -0.0460
  545TMC3    O2 8097   4.286   1.975  17.167 -0.7066 -0.7472 -0.1014
  546MPD2     C 8098   1.255   2.530  17.623 -0.1539 -0.2041  0.1734
  546MPD2    C1 8099   1.252   2.593  17.502 -0.5051 -1.1135 -0.4024
  546MPD2    C2 8100   1.303   2.714  17.486 -0.2654  0.7467  0.4843
  546MPD2    C3 8101   1.362   2.778  17.591 -0.1968 -0.2913  0.0634
  546MPD2    C4 8102   1.365   2.721   0.008  0.3936 -0.6746 -0.3118
  546MPD2    C5 8103   1.301   2.603   0.025  0.0213 -0.7430 -0.4187
  546MPD2     H 8104   1.288   2.758  17.388  0.7774 -3.4529 -1.5338
  546MPD2    H1 8105   1.402   2.781   0.090  2.1947  2.9607 -3.7665
  546MPD2    H2 8106   1.201   2.438  17.639  2.4937 -1.6257  0.9187
  546MPD2    H3 8107   1.281   2.566   0.125  1.3111 -4.2359 -1.4698
  546MPD2     N 8108   1.418   2.905  17.575 -0.1592  0.1602 -0.2160
  546MPD2    H5 8109   1.450   2.948  17.661  0.0059  1.6321 -1.0055
  546MPD2    N1 8110   1.173   2.525  17.400  0.7347  0.2477  0.3367
  546MPD2    H7 8111   1.138   2.434  17.427 -0.7256  0.3964 -1.0763
  547TMC3    C1 8112   1.012   2.510  17.225  0.0601 -0.2430 -0.9220
  547TMC3    C2 8113   0.932   2.587  17.151  0.1105 -0.2408 -0.1627
  547TMC3    C3 8114   0.809   2.562  17.127 -1.0157 -0.1700 -0.0894
  547TMC3    C4 8115   0.963   2.397  17.279  0.5928 -0.2098 -0.6340
  547TMC3    C5 8116   0.830   2.377  17.269  0.1075 -0.2223 -0.2024
  547TMC3    C6 8117   0.751   2.455  17.186  0.3408  0.0366  0.0935
  547TMC3     C 8118   1.119   2.581  17.282 -0.2104  0.1530  0.0329
  547TMC3     O 8119   1.147   2.693  17.239 -0.2777  0.1036 -0.3641
  547TMC3     H 8120   0.977   2.673  17.102 -1.5786  0.6186 -0.2011
  547TMC3    H1 8121   1.031   2.335  17.336  0.0104  0.3316  0.6495
  547TMC3    H2 8122   0.643   2.461  17.186  0.2745 -1.2374 -1.2375
  547TMC3    C7 8123   0.756   2.293  17.357  0.0839 -0.2091  0.2130
  547TMC3    C8 8124   0.721   2.670  17.122  0.4581  0.6665  0.2275
  547TMC3    O1 8125   0.644   2.334  17.393 -0.0139  0.4284  0.0142
  547TMC3    O2 8126   0.628   2.657  17.048 -0.9648  0.3038 -0.1056
  548MPD2     C 8127   0.856   3.544  12.408  0.3000  0.0403 -0.0897
  548MPD2    C1 8128   0.815   3.430  12.466  0.3636 -0.0617  0.3500
  548MPD2    C2 8129   0.915   3.328  12.466 -0.6377  0.8366 -0.7375
  548MPD2    C3 8130   1.042   3.335  12.418  0.8391 -0.0619 -0.5383
  548MPD2    C4 8131   1.078   3.458  12.378 -0.0526 -0.3130 -0.0812
  548MPD2    C5 8132   0.985   3.561  12.362 -0.1040 -0.1516  0.7628
  548MPD2     H 8133   0.888   3.230  12.505  0.8758  0.9324  0.5472
  548MPD2    H1 8134   1.178   3.482  12.346  0.4489 -0.1921  1.5546
  548MPD2    H2 8135   0.784   3.625  12.401 -1.3953 -1.4640 -0.0467
  548MPD2    H3 8136   1.015   3.652  12.311  0.4052 -0.8564 -0.1921
  548MPD2     N 8137   1.129   3.228  12.419  0.0633  0.0673  0.1486
  548MPD2    H5 8138   1.092   3.146  12.467  0.0562 -0.5936 -0.9926
  548MPD2    N1 8139   0.689   3.415  12.515 -0.3377 -0.4311  0.0580
  548MPD2    H7 8140   0.628   3.496  12.501  0.5053  0.1980  0.0440
  549TMC3    C1 8141   0.507   3.324  12.637 -0.7346 -0.3822 -0.1201
  549TMC3    C2 8142   0.416   3.411  12.582  0.0979 -0.5220 -0.0778
  549TMC3    C3 8143   0.281   3.390  12.623  0.2418  0.0784  0.5976
  549TMC3    C4 8144   0.470   3.220  12.714  0.1398 -0.3451 -0.0035
  549TMC3    C5 8145   0.339   3.210  12.755  0.5010 -0.0229 -0.0993
  549TMC3    C6 8146   0.241   3.288  12.707  0.0635  0.0161 -0.1883
  549TMC3     C 8147   0.645   3.304  12.581 -0.5278 -0.0470 -0.1660
  549TMC3     O 8148   0.690   3.191  12.585  0.6132  0.5136 -0.1570
  549TMC3     H 8149   0.434   3.485  12.505 -0.3340  0.7489  1.0525
  549TMC3    H1 8150   0.551   3.165  12.760 -0.6094 -0.4839  1.1390
  549TMC3    H2 8151   0.139   3.286  12.744  0.6304 -0.1371  1.3978
  549TMC3    C7 8152   0.300   3.116  12.856  1.0125  0.0595  0.0650
  549TMC3    C8 8153   0.176   3.458  12.546  0.2617  0.0485 -0.9757
  549TMC3    O1 8154   0.185   3.130  12.889  0.2354 -0.0803 -0.2705
  549TMC3    O2 8155   0.067   3.403  12.530 -0.0409 -0.0862  0.3544
  550TMC3    C1 8156   4.430   1.346  12.045 -0.4434 -0.5351  0.0654
  550TMC3    C2 8157   4.449   1.378  12.176  0.2132 -0.3979  0.2091
  550TMC3    C3 8158   4.384   1.491  12.213  0.2973  0.5882  0.5163
  550TMC3    C4 8159   4.372   1.422  11.944  0.0434  0.1872 -0.1750
  550TMC3    C5 8160   4.300   1.526  11.992 -0.0056 -0.4144  0.6281
  550TMC3    C6 8161   4.306   1.565  12.125  0.4223  0.1852 -0.1464
  550TMC3     C 8162   4.494   1.218  11.994 -0.7798  0.1472 -0.9323
  550TMC3     O 8163   4.576   1.158  12.058 -0.3768 -0.3032  0.4065
  550TMC3     H 8164   4.498   1.319  12.253 -0.5397  0.1418  1.1051
  550TMC3    H1 8165   4.368   1.401  11.838  0.1382 -0.9668  0.0563
  550TMC3    H2 8166   4.230   1.635  12.159  0.4976  1.1292 -1.9172
  550TMC3    C7 8167   4.168   1.545  11.928 -0.1883  0.2243 -0.5766
  550TMC3    C8 8168   4.372   1.519  12.352 -0.3840  1.2005  0.4379
  550TMC3    O1 8169   4.081   1.543  12.015 -0.5092  0.2329 -0.0683
  550TMC3    O2 8170   4.362   1.426  12.425 -0.7919 -0.4464  0.5459
  551TMC3    C1 8171   1.808   3.907  13.571 -0.1525  0.2134 -0.0089
  551TMC3    C2 8172   1.805   4.021  13.497  0.1430 -0.2815 -0.1611
  551TMC3    C3 8173   1.851   4.137  13.552 -1.1322  0.3190 -0.0179
  551TMC3    C4 8174   1.854   3.903  13.697 -0.2758 -0.6249 -0.2535
  551TMC3    C5 8175   1.900   4.022  13.746  0.1383  0.2141 -0.0518
  551TMC3    C6 8176   1.898   4.140  13.684 -0.2729  0.2949 -0.1015
  551TMC3     C 8177   1.726   3.805  13.514  0.1241 -0.2591 -0.8523
  551TMC3     O 8178   1.727   3.804  13.392 -0.3945 -0.1142 -0.3900
  551TMC3     H 8179   1.757   4.019  13.400  0.9978 -0.4511 -0.5801
  551TMC3    H1 8180   1.863   3.812  13.755 -1.1225  0.4710  1.5773
  551TMC3    H2 8181   1.922   4.241  13.717 -0.8698  0.7976 -1.1909
  551TMC3    C7 8182   1.996   4.007  13.851  0.1655  1.0247  0.0012
  551TMC3    C8 8183   1.881   4.250  13.470  0.2987 -0.2622  0.3940
  551TMC3    O1 8184   1.995   3.904  13.918 -0.7521  0.2065 -0.1432
  551TMC3    O2 8185   1.860   4.357  13.518  0.0871 -0.3194 -0.0477
  552MPD2     C 8186   3.836   1.253  13.822  0.4018 -0.9663  0.1580
  552MPD2    C1 8187   3.895   1.135  13.864  0.2744  0.6218  0.2815
  552MPD2    C2 8188   4.005   1.149  13.947  0.7027 -0.3420  0.1847
  552MPD2    C3 8189   4.056   1.273  13.988 -0.1560  0.4695 -0.0808
  552MPD2    C4 8190   3.992   1.388  13.948 -0.0441 -0.7675 -0.0488
  552MPD2    C5 8191   3.884   1.378  13.866 -1.0117 -0.7826 -0.1119
  552MPD2     H 8192   4.048   1.058  13.989  2.0727  0.1717 -0.1210
  552MPD2    H1 8193   4.038   1.486  13.959 -0.5389 -0.4374 -0.9721
  552MPD2    H2 8194   3.756   1.255  13.749  1.0265  1.7443 -0.4500
  552MPD2    H3 8195   3.848   1.471  13.823 -1.9293 -1.3255 -0.5157
  552MPD2     N 8196   4.169   1.272  14.073  0.1030  0.0316 -0.1927
  552MPD2    H5 8197   4.219   1.185  14.090 -1.5300 -0.9751 -0.4605
  552MPD2    N1 8198   3.853   1.004  13.824  0.3090 -0.2666  0.3228
  552MPD2    H7 8199   3.902   0.925  13.864 -1.2285 -2.0154 -1.2730
  553TMC3    C1 8200   3.740   0.824  13.728  0.0913 -0.0553  0.3294
  553TMC3    C2 8201   3.692   0.775  13.603 -0.7993 -0.2884 -0.6227
  553TMC3    C3 8202   3.700   0.639  13.578  0.5618  0.0883 -0.0527
  553TMC3    C4 8203   3.802   0.737  13.818  0.2199  0.4625  0.0884
  553TMC3    C5 8204   3.808   0.600  13.784  0.5280  0.6111  0.0987
  553TMC3    C6 8205   3.749   0.547  13.670  0.4773  0.4361 -0.5186
  553TMC3     C 8206   3.755   0.971  13.734  0.1256 -0.2091  0.1640
  553TMC3     O 8207   3.701   1.052  13.658  0.6116 -0.2372  0.3159
  553TMC3     H 8208   3.654   0.844  13.530  1.0527  2.6413  1.1613
  553TMC3    H1 8209   3.843   0.768  13.913 -1.1889 -1.4282  1.3207
  553TMC3    H2 8210   3.751   0.441  13.645 -2.0525  0.2474  0.1104
  553TMC3    C7 8211   3.861   0.503  13.867 -0.0381 -0.2670 -0.1789
  553TMC3    C8 8212   3.724   0.584  13.446 -0.1846 -0.5971 -0.0962
  553TMC3    O1 8213   3.807   0.390  13.874 -0.1546  0.4023 -1.1228
  553TMC3    O2 8214   3.807   0.489  13.448 -0.0275 -0.5433 -0.2558
  554TMC3    C1 8215   0.656   0.373  11.948 -0.6727 -0.8047  0.1389
  554TMC3    C2 8216   0.542   0.316  11.952 -0.4085  0.4476  0.7478
  554TMC3    C3 8217   0.464   0.331  11.842 -0.3132 -0.1258  0.1397
  554TMC3    C4 8218   0.706   0.452  11.849  0.0708 -0.3766  0.2610
  554TMC3    C5 8219   0.615   0.481  11.747 -0.0020  0.1175 -0.2395
  554TMC3    C6 8220   0.491   0.424  11.745 -0.0104 -0.3835  0.2218
  554TMC3     C 8221   0.752   0.328  12.044 -0.3163  0.5060  0.4607
  554TMC3     O 8222   0.838   0.408  12.068 -0.4809  1.1141  0.1215
  554TMC3     H 8223   0.505   0.273  12.045  1.2397 -0.4026  1.0006
  554TMC3    H1 8224   0.809   0.485  11.852 -0.0099  0.0065 -1.1620
  554TMC3    H2 8225   0.411   0.461  11.682 -0.6981 -2.2117  0.0286
  554TMC3    C7 8226   0.641   0.588  11.651  0.0095 -0.5956 -0.4307
  554TMC3    C8 8227   0.366   0.221  11.818  0.0914 -0.3915 -0.6400
  554TMC3    O1 8228   0.563   0.598  11.556  0.0249 -0.3016  0.7304
  554TMC3    O2 8229   0.329   0.160  11.916  0.8040  0.1539 -0.3644
  555TMC3    C1 8230   0.134   4.038  14.866  0.5072  0.1046  0.0261
  555TMC3    C2 8231   0.056   4.147  14.905  0.1358  0.8641  0.1074
  555TMC3    C3 8232   0.004   4.144  15.033 -0.2223 -0.8426 -0.8303
  555TMC3    C4 8233   0.148   3.928  14.947  0.4332 -0.1441  0.9239
  555TMC3    C5 8234   0.091   3.926  15.073  0.0412  0.0724  0.2210
  555TMC3    C6 8235   0.017   4.035  15.113 -0.2812 -0.3845  0.3433
  555TMC3     C 8236   0.195   4.032  14.737 -0.2216  0.3729 -0.3694
  555TMC3     O 8237   0.282   3.950  14.716  0.1674  0.1528 -0.0225
  555TMC3     H 8238   0.057   4.239  14.848 -0.6331  0.4043 -0.6461
  555TMC3    H1 8239   0.219   3.854  14.914 -1.1398 -1.2399  0.0265
  555TMC3    H2 8240   4.693   4.018  15.208 -0.4686 -1.9915 -0.0383
  555TMC3    C7 8241   0.106   3.824  15.165 -0.4433 -0.3465 -0.2077
  555TMC3    C8 8242   4.706   4.274  15.089  0.0262 -0.3261  0.0833
  555TMC3    O1 8243   0.037   3.818  15.262  0.5417 -0.0197  0.2420
  555TMC3    O2 8244   4.702   4.371  15.013  0.2767 -0.1449  0.2904
  556MPD2     C 8245   2.336   1.089  10.705 -0.1828 -0.3994  0.0178
  556MPD2    C1 8246   2.366   0.985  10.790  0.2444 -0.3896 -0.0534
  556MPD2    C2 8247   2.385   0.863  10.723 -0.0764 -0.2353 -0.2874
  556MPD2    C3 8248   2.359   0.846  10.588 -0.3354 -0.1862  0.1528
  556MPD2    C4 8249   2.316   0.959  10.508  0.8508  0.4326 -0.4884
  556MPD2    C5 8250   2.310   1.076  10.572 -0.7646  0.0361 -0.1261
  556MPD2     H 8251   2.431   0.783  10.779 -1.3685  0.2934  1.5160
  556MPD2    H1 8252   2.296   0.943  10.403 -0.7026  0.9339 -0.2581
  556MPD2    H2 8253   2.331   1.192  10.740  1.9650  0.3524 -1.8726
  556MPD2    H3 8254   2.277   1.164  10.518  2.2414  2.7097  2.4421
  556MPD2     N 8255   2.368   0.706  10.537  0.0822 -0.2492  0.8439
  556MPD2    H5 8256   2.391   0.638  10.609  1.1414  0.1582  0.8890
  556MPD2    N1 8257   2.394   0.993  10.929 -0.9537 -0.5805 -0.3226
  556MPD2    H7 8258   2.430   0.916  10.984 -0.2836  1.2216  1.7666
  557TMC3    C1 8259   2.349   0.525  10.397 -0.1945 -0.5889 -0.6545
  557TMC3    C2 8260   2.367   0.477  10.274  0.4429  0.3727 -0.2193
  557TMC3    C3 8261   2.386   0.345  10.260  0.4732  0.2951 -0.3777
  557TMC3    C4 8262   2.366   0.454  10.512 -0.2937 -0.5284 -0.2428
  557TMC3    C5 8263   2.375   0.316  10.498 -0.2583 -0.2314  0.6636
  557TMC3    C6 8264   2.378   0.263  10.371 -0.5256 -0.1248  0.1309
  557TMC3     C 8265   2.328   0.666  10.417 -0.2961  0.4523  0.3390
  557TMC3     O 8266   2.299   0.727  10.312  0.3455 -0.1686  0.0861
  557TMC3     H 8267   2.367   0.547  10.192 -2.5277  1.0430  0.3448
  557TMC3    H1 8268   2.326   0.486  10.608 -0.9545  0.4816 -0.8578
  557TMC3    H2 8269   2.354   0.157  10.361  1.3323 -0.8035  2.7644
  557TMC3    C7 8270   2.313   0.234  10.596  0.0139 -0.4420 -0.1079
  557TMC3    C8 8271   2.313   0.305  10.140 -0.0973  1.0156 -0.5932
  557TMC3    O1 8272   2.218   0.169  10.569  0.7231  1.1057  0.2352
  557TMC3    O2 8273   2.239   0.392  10.090 -0.9038 -0.6620  0.3253
  558TMC3    C1 8274   0.794   3.791   9.854  0.4888 -0.0417  0.1454
  558TMC3    C2 8275   0.688   3.829   9.940 -0.1894 -0.0363 -0.3248
  558TMC3    C3 8276   0.556   3.831   9.892  0.2734  0.6455 -0.1597
  558TMC3    C4 8277   0.772   3.788   9.721  0.9218  0.2865  0.2104
  558TMC3    C5 8278   0.636   3.792   9.676  0.2573 -0.3624 -0.1413
  558TMC3    C6 8279   0.529   3.806   9.760 -0.7564  0.5683  0.5139
  558TMC3     C 8280   0.933   3.779   9.908  0.0633 -0.3341 -1.0898
  558TMC3     O 8281   0.948   3.778  10.031  0.4806 -0.7840  0.3724
  558TMC3     H 8282   0.716   3.858  10.040 -0.4012  0.4137 -0.3974
  558TMC3    H1 8283   0.845   3.759   9.646 -0.1156  0.6757 -0.9525
  558TMC3    H2 8284   0.425   3.813   9.733 -1.6817 -3.1122  3.0287
  558TMC3    C7 8285   0.615   3.779   9.533 -0.4186  0.3792  0.2715
  558TMC3    C8 8286   0.448   3.806   9.981 -0.3200 -0.5419 -0.1322
  558TMC3    O1 8287   0.704   3.811   9.457 -0.4046  0.2093  0.8589
  558TMC3    O2 8288   0.336   3.844   9.945  0.0018 -0.2545  0.0749
  559MPD2     C 8289   0.231   4.184  10.727  0.6211 -0.6100 -0.1082
  559MPD2    C1 8290   0.154   4.168  10.840 -0.1314  0.5200  0.0560
  559MPD2    C2 8291   0.222   4.150  10.958  1.2098 -0.5225 -0.2147
  559MPD2    C3 8292   0.355   4.180  10.973 -0.4378 -0.0584 -0.4664
  559MPD2    C4 8293   0.428   4.202  10.857  0.0843 -0.2311 -0.5435
  559MPD2    C5 8294   0.367   4.200  10.738  0.3176 -0.3583 -0.0867
  559MPD2     H 8295   0.176   4.122  11.052 -1.8157 -0.6451 -1.7442
  559MPD2    H1 8296   0.536   4.205  10.866  0.1275 -1.4472 -0.6822
  559MPD2    H2 8297   0.176   4.189  10.634  1.3106  1.0358 -0.4263
  559MPD2    H3 8298   0.432   4.208  10.651 -1.4374  1.1087 -1.2637
  559MPD2     N 8299   0.419   4.164  11.098  0.4461 -0.2491 -0.5843
  559MPD2    H5 8300   0.357   4.113  11.160  2.4882 -0.3006  1.4640
  559MPD2    N1 8301   0.014   4.162  10.837  0.1301  0.1382 -0.0961
  559MPD2    H7 8302   4.692   4.133  10.752  2.0688  2.1258 -1.8377
  560TMC3    C1 8303   0.598   4.167  11.250  0.2695  0.1016  0.4468
  560TMC3    C2 8304   0.588   4.033  11.278  0.2367  0.0383  0.2127
  560TMC3    C3 8305   0.693   3.976  11.347 -0.2444 -0.1810 -0.1958
  560TMC3    C4 8306   0.688   4.249  11.311 -0.3846  0.4287  0.4020
  560TMC3    C5 8307   0.775   4.191  11.400 -0.1963 -0.1717  0.4404
  560TMC3    C6 8308   0.792   4.053  11.402  0.0195 -0.1164 -0.3720
  560TMC3     C 8309   0.543   4.217  11.130 -0.5308 -0.1350 -0.0950
  560TMC3     O 8310   0.608   4.297  11.061  0.0470  0.7479 -0.0014
  560TMC3     H 8311   0.516   3.976  11.220  0.1925  0.4115 -0.0991
  560TMC3    H1 8312   0.686   4.355  11.288  1.8222  0.8145  1.9633
  560TMC3    H2 8313   0.859   4.008  11.475  1.0560 -2.0018 -2.4641
  560TMC3    C7 8314   0.855   4.260  11.496  0.3531 -0.0935 -0.4583
  560TMC3    C8 8315   0.720   3.840  11.301  0.6249 -0.6017 -0.0146
  560TMC3    O1 8316   0.901   4.193  11.586  0.2211 -0.0232  0.1650
  560TMC3    O2 8317   0.637   3.767  11.249  0.1567  0.2953 -0.2545
  561TMC3    C1 8318   2.738   3.211  11.182  0.5536  0.1721 -0.0131
  561TMC3    C2 8319   2.718   3.157  11.302 -0.6656  1.1230  0.1530
  561TMC3    C3 8320   2.635   3.221  11.393 -0.4840 -0.8268  0.0224
  561TMC3    C4 8321   2.687   3.333  11.151  0.3171  0.3226  0.2452
  561TMC3    C5 8322   2.617   3.401  11.242  0.1898 -0.6677 -0.4469
  561TMC3    C6 8323   2.585   3.346  11.366 -0.4317 -0.0445 -0.5960
  561TMC3     C 8324   2.835   3.162  11.092 -0.4511 -0.3767 -0.5653
  561TMC3     O 8325   2.807   3.177  10.974 -0.3710  0.3600 -0.3881
  561TMC3     H 8326   2.762   3.061  11.327 -0.6837  1.1808  0.4096
  561TMC3    H1 8327   2.682   3.378  11.052 -1.7012  0.5790  0.4716
  561TMC3    H2 8328   2.540   3.407  11.443  0.2016 -1.7545  1.1323
  561TMC3    C7 8329   2.609   3.549  11.232  0.0485 -0.4466  0.4562
  561TMC3    C8 8330   2.644   3.172  11.536  0.1218 -0.3754  0.1925
  561TMC3    O1 8331   2.519   3.606  11.296  0.3206 -0.1518 -0.5544
  561TMC3    O2 8332   2.712   3.073  11.555 -0.4066 -0.4514 -0.5870
  562TMC3    C1 8333   4.541   0.347  16.157 -0.0488  0.5524  0.0722
  562TMC3    C2 8334   4.564   0.463  16.095  1.0468 -0.1408  0.2329
  562TMC3    C3 8335   4.522   0.476  15.963  0.4607 -0.0365  0.4071
  562TMC3    C4 8336   4.481   0.239  16.098 -0.5022 -0.9852  0.3646
  562TMC3    C5 8337   4.449   0.249  15.964 -0.3570  0.0313  0.3683
  562TMC3    C6 8338   4.455   0.376  15.906 -1.2726 -0.3587 -0.0996
  562TMC3     C 8339   4.583   0.333  16.295  0.5069  0.1109 -0.2722
  562TMC3     O 8340   4.579   0.216  16.339  0.2209 -0.6053 -0.1332
  562TMC3     H 8341   4.634   0.537  16.130  0.3939 -0.4096  2.1044
  562TMC3    H1 8342   4.461   0.148  16.152  0.6656 -1.5070 -0.0929
  562TMC3    H2 8343   4.439   0.392  15.800 -3.2373 -2.8901 -0.1788
  562TMC3    C7 8344   4.449   0.136  15.871  1.0285 -0.3500  0.3901
  562TMC3    C8 8345   4.530   0.612  15.904  0.1061 -0.6250 -0.6504
  562TMC3    O1 8346   4.454   0.164  15.752  0.2771 -0.3991  0.1905
  562TMC3    O2 8347   4.569   0.701  15.973 -0.3715 -0.2545  0.0261
  563MPD2     C 8348   2.719   1.351  16.293  0.5147 -0.4814  0.3855
  563MPD2    C1 8349   2.673   1.303  16.412  0.6503  0.0706 -0.2500
  563MPD2    C2 8350   2.762   1.268  16.516  0.4108 -0.3824 -0.3142
  563MPD2    C3 8351   2.899   1.289  16.497  0.8307  0.1063 -0.7310
  563MPD2    C4 8352   2.947   1.332  16.373 -0.0951  0.2634  0.2989
  563MPD2    C5 8353   2.852   1.367  16.279 -0.4135  0.8041  0.8496
  563MPD2     H 8354   2.718   1.232  16.608  0.0022  2.2857  0.5241
  563MPD2    H1 8355   3.050   1.358  16.352  0.4783 -2.5629 -0.4117
  563MPD2    H2 8356   2.658   1.393  16.215 -0.0572  0.1075  1.1464
  563MPD2    H3 8357   2.876   1.394  16.177 -0.9879 -1.4591  0.1255
  563MPD2     N 8358   2.978   1.267  16.605  0.7036  0.0736  0.6066
  563MPD2    H5 8359   2.937   1.262  16.698  2.6017  0.4114  1.4638
  563MPD2    N1 8360   2.540   1.271  16.445 -0.1631  0.2752  0.0375
  563MPD2    H7 8361   2.536   1.234  16.539  1.4184  0.6092  0.2461
  564TMC3    C1 8362   2.310   1.250  16.438 -0.1583 -0.9222  0.2443
  564TMC3    C2 8363   2.217   1.169  16.373 -0.0385  0.3047 -0.6040
  564TMC3    C3 8364   2.112   1.126  16.448  0.2073 -0.2139 -0.1918
  564TMC3    C4 8365   2.306   1.267  16.575 -0.4220  0.3062  0.1999
  564TMC3    C5 8366   2.199   1.220  16.646 -0.1797 -0.4190 -0.4362
  564TMC3    C6 8367   2.103   1.157  16.584 -0.4793  0.2092 -0.2886
  564TMC3     C 8368   2.431   1.282  16.365  0.0684 -0.2453  0.4193
  564TMC3     O 8369   2.425   1.283  16.241 -0.0156  0.9127 -0.1561
  564TMC3     H 8370   2.241   1.143  16.270 -0.5611  1.3419 -0.9876
  564TMC3    H1 8371   2.390   1.309  16.629 -0.8420  0.5389  0.6631
  564TMC3    H2 8372   2.014   1.127  16.639 -0.4911  0.8856  0.0584
  564TMC3    C7 8373   2.223   1.167  16.770  0.6809  0.0156  0.5708
  564TMC3    C8 8374   2.037   1.018  16.411  0.3382  0.0703  0.2368
  564TMC3    O1 8375   2.261   1.239  16.861  0.2441  0.3558  0.2200
  564TMC3    O2 8376   2.011   0.939  16.501  0.3672 -0.1532 -0.6376
  565TMC3    C1 8377   2.377   2.615  10.888  0.2838  0.0063 -0.2569
  565TMC3    C2 8378   2.344   2.489  10.937 -0.3024  0.4561  0.2305
  565TMC3    C3 8379   2.289   2.406  10.845 -0.1880 -0.0024 -0.3231
  565TMC3    C4 8380   2.359   2.656  10.759 -0.1584  0.3565 -0.1581
  565TMC3    C5 8381   2.292   2.563  10.677 -0.0616  0.6675 -0.2845
  565TMC3    C6 8382   2.250   2.446  10.718  0.4889 -0.1378  0.0850
  565TMC3     C 8383   2.513   2.652  10.929  0.4811  1.2329  0.0771
  565TMC3     O 8384   2.598   2.669  10.842 -0.0002 -0.5045 -0.2673
  565TMC3     H 8385   2.372   2.459  11.037  1.7976  1.1598 -0.1572
  565TMC3    H1 8386   2.384   2.759  10.734 -1.2494  0.2369 -1.7351
  565TMC3    H2 8387   2.219   2.365  10.654  1.2019 -1.9341  1.9930
  565TMC3    C7 8388   2.280   2.600  10.535 -0.2146  0.1546 -0.1599
  565TMC3    C8 8389   2.260   2.272  10.893  0.1132  0.0756  0.2997
  565TMC3    O1 8390   2.346   2.697  10.495  0.3661 -0.5651 -0.5449
  565TMC3    O2 8391   2.325   2.240  10.993  0.6353 -0.3063 -0.0124
  566MPD2     C 8392   3.782   4.336  14.176  0.1870 -0.0080 -0.2733
  566MPD2    C1 8393   3.837   4.248  14.075 -0.6449 -0.2045 -0.1485
  566MPD2    C2 8394   3.755   4.186  13.984  0.0777  0.5542  0.1326
  566MPD2    C3 8395   3.625   4.214  13.974  0.2139  0.3288 -0.2226
  566MPD2    C4 8396   3.573   4.298  14.063  0.0507  0.3201  1.2494
  566MPD2    C5 8397   3.644   4.359  14.167 -0.2929 -0.8025 -0.1489
  566MPD2     H 8398   3.805   4.125  13.910 -1.5423  0.0133 -0.5283
  566MPD2    H1 8399   3.473   4.340  14.061 -0.3097 -0.5445  1.1112
  566MPD2    H2 8400   3.835   4.395  14.249  1.2564 -2.2611  0.7791
  566MPD2    H3 8401   3.588   4.428  14.229  2.2547  0.1828  1.0479
  566MPD2     N 8402   3.540   4.165  13.875 -0.5590  0.4516 -0.0628
  566MPD2    H5 8403   3.455   4.216  13.855 -0.6183 -0.0815 -1.1819
  566MPD2    N1 8404   3.976   4.218  14.055 -0.3003  0.7900 -0.0107
  566MPD2    H7 8405   4.006   4.174  13.969  0.2249 -1.2670  1.2354
  567TMC3    C1 8406   4.204   4.187  14.104 -0.0262  0.5661 -0.0097
  567TMC3    C2 8407   4.244   4.205  13.974 -0.6065  0.4567  0.0690
  567TMC3    C3 8408   4.375   4.164  13.947  0.3166 -0.1046  0.2854
  567TMC3    C4 8409   4.290   4.151  14.201 -0.0110 -0.0901  0.3484
  567TMC3    C5 8410   4.410   4.094  14.165 -0.2544  0.4125  0.3425
  567TMC3    C6 8411   4.456   4.105  14.033  0.3643 -0.0072  0.0430
  567TMC3     C 8412   4.074   4.238  14.149 -0.1980 -0.4262 -0.2497
  567TMC3     O 8413   4.065   4.273  14.262 -0.7697 -0.0925  0.4827
  567TMC3     H 8414   4.177   4.250  13.902 -1.0809 -0.2217  0.0863
  567TMC3    H1 8415   4.247   4.146  14.300  1.3052 -4.1208  0.7167
  567TMC3    H2 8416   4.560   4.079  14.017  0.1062 -0.7405 -0.4379
  567TMC3    C7 8417   4.492   4.028  14.263 -0.3624 -0.0032  0.0580
  567TMC3    C8 8418   4.439   4.206  13.823 -0.7453 -0.0454  0.6366
  567TMC3    O1 8419   4.567   3.945  14.215  0.0702  0.0540 -0.0285
  567TMC3    O2 8420   4.393   4.300  13.763 -0.2421  0.2468  0.2744
  568MPD2     C 8421   2.023   4.236  16.497 -0.7948  0.5703 -0.4100
  568MPD2    C1 8422   1.993   4.317  16.604  0.3154  0.2683 -0.6909
  568MPD2    C2 8423   1.931   4.434  16.579  0.5966 -0.5998  0.4702
  568MPD2    C3 8424   1.921   4.484  16.451 -0.1906  0.0851  0.7110
  568MPD2    C4 8425   1.960   4.406  16.341 -0.1445 -0.4377 -0.0729
  568MPD2    C5 8426   2.003   4.274  16.370 -0.3687 -0.1441 -0.3534
  568MPD2     H 8427   1.911   4.505  16.659  2.2454  0.4782 -0.0610
  568MPD2    H1 8428   1.951   4.437  16.238  2.5493 -1.5839 -0.6693
  568MPD2    H2 8429   2.076   4.143  16.513 -0.2672  1.1144  1.0318
  568MPD2    H3 8430   2.040   4.212  16.290 -0.5081 -1.4481  0.5879
  568MPD2     N 8431   1.862   4.615  16.442 -0.3760  0.2040  0.1019
  568MPD2    H5 8432   1.837   4.658  16.531 -3.8988 -3.2202  0.7472
  568MPD2    N1 8433   2.034   4.272  16.736 -0.1521 -0.2997  0.3825
  568MPD2    H7 8434   2.087   4.186  16.744  0.9186  0.2790 -0.3890
  569TMC3    C1 8435   1.769   0.078  16.330 -0.1228 -0.5414 -0.3652
  569TMC3    C2 8436   1.694   0.098  16.445  0.1611 -0.0357 -0.0019
  569TMC3    C3 8437   1.656   0.227  16.485  0.4456 -0.6256  0.9602
  569TMC3    C4 8438   1.805   0.189  16.256  0.3607  0.5045  0.2038
  569TMC3    C5 8439   1.772   0.314  16.305  0.4159 -0.5409 -0.2059
  569TMC3    C6 8440   1.706   0.336  16.418  0.5143  0.5354 -0.9436
  569TMC3     C 8441   1.852   4.687  16.327 -0.0471 -0.2876 -0.1835
  569TMC3     O 8442   1.898   4.660  16.216 -0.5004  0.0461  0.7879
  569TMC3     H 8443   1.676   0.020  16.517  0.4915  0.2803  0.4240
  569TMC3    H1 8444   1.880   0.184  16.177  1.0604  0.8860  0.8462
  569TMC3    H2 8445   1.682   0.436  16.449  0.5078  0.1027  0.4422
  569TMC3    C7 8446   1.816   0.424  16.217 -0.2003  0.2052  0.4376
  569TMC3    C8 8447   1.632   0.240  16.626  0.4935 -0.2895 -0.2184
  569TMC3    O1 8448   1.825   0.393  16.099 -0.5343  0.1066  0.3477
  569TMC3    O2 8449   1.584   0.143  16.686 -0.1731 -0.5237  0.5058
  570TMC3    C1 8450   1.137   3.704  15.926  0.5464 -0.2944  0.5694
  570TMC3    C2 8451   1.233   3.693  15.821 -0.2628 -0.1388 -0.2960
  570TMC3    C3 8452   1.268   3.805  15.748  0.9505  0.7047 -0.0772
  570TMC3    C4 8453   1.099   3.830  15.965 -0.0527  0.0410  0.3250
  570TMC3    C5 8454   1.152   3.942  15.906  0.4996  0.6575 -0.5757
  570TMC3    C6 8455   1.233   3.928  15.796 -0.0741 -0.1930  0.0346
  570TMC3     C 8456   1.100   3.581  15.997  0.7066 -0.5270 -0.4883
  570TMC3     O 8457   1.114   3.476  15.935  0.0005 -0.7069 -0.0277
  570TMC3     H 8458   1.268   3.593  15.800  1.5911 -0.0430  2.3173
  570TMC3    H1 8459   1.037   3.835  16.054 -1.1870 -1.4168 -0.3957
  570TMC3    H2 8460   1.263   4.020  15.747  0.6289  0.5778  1.9128
  570TMC3    C7 8461   1.169   4.063  15.988  0.2586  0.0506  0.3504
  570TMC3    C8 8462   1.379   3.804  15.658 -1.2430  0.5770 -0.6581
  570TMC3    O1 8463   1.265   4.136  15.969 -0.6054 -0.6878 -0.3521
  570TMC3    O2 8464   1.438   3.905  15.643  0.8604 -0.1219 -0.0563
  571MPD2     C 8465   4.367   0.590  17.651  0.1576  0.1313 -0.3041
  571MPD2    C1 8466   4.387   0.533   0.073  1.0341  0.5899 -0.0933
  571MPD2    C2 8467   4.353   0.611   0.183  0.6774 -0.6297 -0.0412
  571MPD2    C3 8468   4.326   0.745   0.163 -0.0706 -0.4113 -0.1176
  571MPD2    C4 8469   4.325   0.802   0.036  0.4876  0.1394 -0.4357
  571MPD2    C5 8470   4.336   0.723  17.634 -1.1421  0.7055  0.2954
  571MPD2     H 8471   4.349   0.565   0.282  2.9938 -0.6786  0.0267
  571MPD2    H1 8472   4.317   0.909   0.021 -1.8095  0.0248 -0.0741
  571MPD2    H2 8473   4.383   0.548  17.553 -3.3417 -1.2050 -0.2866
  571MPD2    H3 8474   4.334   0.777  17.540 -1.0243  0.5994  0.2311
  571MPD2     N 8475   4.296   0.828   0.278 -0.2355  0.0991  0.0408
  571MPD2    H5 8476   4.294   0.930   0.270 -2.0173  0.0300 -0.3388
  571MPD2    N1 8477   4.432   0.398   0.075 -0.0667 -0.3508 -0.3364
  571MPD2    H7 8478   4.436   0.355  17.686  0.5343  1.1266 -1.0001
  572TMC3    C1 8479   4.259   0.898   0.507 -0.5743  0.4596  0.1165
  572TMC3    C2 8480   4.291   0.876   0.640 -0.0931 -0.6610  0.8954
  572TMC3    C3 8481   4.257   0.976   0.731  0.1555  0.3106 -0.0924
  572TMC3    C4 8482   4.183   1.004   0.463 -0.3241 -1.2772  0.1011
  572TMC3    C5 8483   4.159   1.099   0.557 -0.0311 -0.1229 -0.2355
  572TMC3    C6 8484   4.191   1.093   0.695  0.1017  0.0467 -0.4788
  572TMC3     C 8485   4.279   0.786   0.413  0.2145  0.7565 -0.1290
  572TMC3     O 8486   4.296   0.680   0.464  0.4824 -0.9587 -0.0270
  572TMC3     H 8487   4.374   0.808   0.657 -2.2147 -3.4065  0.2773
  572TMC3    H1 8488   4.159   1.009   0.357  1.1676  0.8244 -0.1522
  572TMC3    H2 8489   4.150   1.162   0.768  1.0007  0.1538 -0.0793
  572TMC3    C7 8490   4.049   1.194   0.520  0.8614 -0.2038  0.7519
  572TMC3    C8 8491   4.283   0.955   0.864  0.3163 -0.0787  0.0628
  572TMC3    O1 8492   3.963   1.144   0.450  0.5395  0.8667  0.3443
  572TMC3    O2 8493   4.257   1.047   0.938 -0.1436 -0.1198  0.0152
  573MPD2     C 8494   4.593   0.609   0.806  0.1965 -0.0370  0.2378
  573MPD2    C1 8495   4.664   0.727   0.797  0.3676  0.3475  0.1416
  573MPD2    C2 8496   4.705   0.772   0.676  0.3530  0.8733 -0.4108
  573MPD2    C3 8497   4.660   0.714   0.560  0.4672 -0.3057  0.1210
  573MPD2    C4 8498   4.597   0.594   0.562 -0.3121  0.5223 -0.7435
  573MPD2    C5 8499   4.566   0.542   0.688  0.9079  0.2517 -0.3438
  573MPD2     H 8500   0.046   0.856   0.660  0.3839  1.0459  0.6562
  573MPD2    H1 8501   4.560   0.550   0.470 -0.1879 -0.5849 -0.2554
  573MPD2    H2 8502   4.555   0.570   0.900  0.2491  0.9557  0.6727
  573MPD2    H3 8503   4.494   0.461   0.694  1.9659 -0.8851 -3.0414
  573MPD2     N 8504   4.673   0.779   0.434  0.8605  0.0214  0.0205
  573MPD2    H5 8505   4.642   0.726   0.353  0.3843  1.4992 -0.7637
  573MPD2    N1 8506   4.697   0.784   0.924 -0.0709 -0.1288  0.1628
  573MPD2    H7 8507   4.669   0.736   1.009  2.3367  0.5375  1.3352
  574TMC3    C1 8508   4.702   0.952   0.280 -0.1687 -0.5909  0.0719
  574TMC3    C2 8509   4.665   1.077   0.256  0.1912  0.0605 -0.2004
  574TMC3    C3 8510   4.597   1.103   0.139 -0.2712 -0.1906 -0.6981
  574TMC3    C4 8511   4.719   0.856   0.179 -0.0985 -0.0273 -0.1606
  574TMC3    C5 8512   4.655   0.890   0.066  0.3822  0.1449 -1.2264
  574TMC3    C6 8513   4.594   1.009   0.046 -0.1922 -0.7483 -0.4310
  574TMC3     C 8514   4.709   0.909   0.418 -0.1006  0.3858 -0.3237
  574TMC3     O 8515   4.713   0.997   0.504  0.1854 -0.3670  0.5093
  574TMC3     H 8516   4.637   1.139   0.340  0.0813 -0.2700  0.0030
  574TMC3    H1 8517   0.044   0.763   0.201  1.5359  1.4183  2.2973
  574TMC3    H2 8518   4.518   1.011  17.672 -0.2647 -0.5324 -0.3515
  574TMC3    C7 8519   4.662   0.801  17.654 -0.5429 -0.0123  0.3182
  574TMC3    C8 8520   4.463   1.154   0.174 -0.5880 -0.0738  0.3142
  574TMC3    O1 8521   4.611   0.844  17.551 -0.0411 -0.2530  0.6465
  574TMC3    O2 8522   4.408   1.112   0.272 -0.7788 -0.8834 -0.5494
  575TMC3    C1 8523   2.390   1.695  11.439  0.4371 -0.1999  0.2588
  575TMC3    C2 8524   2.320   1.577  11.456 -0.1540 -0.0976 -0.0206
  575TMC3    C3 8525   2.251   1.542  11.348  0.0056  0.4763  0.0539
  575TMC3    C4 8526   2.402   1.765  11.321  0.4439 -0.6570 -0.4096
  575TMC3    C5 8527   2.331   1.715  11.218  0.3208 -0.2579  0.0984
  575TMC3    C6 8528   2.248   1.606  11.225  0.0577  0.3940 -0.5829
  575TMC3     C 8529   2.480   1.738  11.546  0.7822  0.3115 -0.0364
  575TMC3     O 8530   2.508   1.858  11.544 -0.4471 -0.3258  0.2916
  575TMC3     H 8531   2.299   1.532  11.553 -0.2928  0.5212  0.2425
  575TMC3    H1 8532   2.469   1.850  11.318 -0.7873  0.3581  0.6693
  575TMC3    H2 8533   2.168   1.590  11.154 -0.4085 -1.4582  0.3419
  575TMC3    C7 8534   2.296   1.810  11.118 -0.7426 -0.5816  0.5982
  575TMC3    C8 8535   2.176   1.416  11.360  0.2538  0.3332  0.4583
  575TMC3    O1 8536   2.310   1.924  11.161 -0.2143 -0.2224 -0.9264
  575TMC3    O2 8537   2.174   1.356  11.467  0.3336 -0.2116 -0.0673
  576MPD2     C 8538   2.216   3.719  12.834 -0.0211  0.6060 -0.4855
  576MPD2    C1 8539   2.135   3.764  12.731  0.5895  0.1484 -0.1721
  576MPD2    C2 8540   2.034   3.847  12.768  0.3075  0.3308  1.0635
  576MPD2    C3 8541   2.006   3.879  12.904 -0.0915 -0.0022 -0.0937
  576MPD2    C4 8542   2.099   3.837  13.001  0.1806 -0.1515 -1.0182
  576MPD2    C5 8543   2.199   3.746  12.967  0.0765  0.2739  0.2603
  576MPD2     H 8544   1.968   3.876  12.687 -2.2407 -1.6065  2.4875
  576MPD2    H1 8545   2.100   3.867  13.105  1.0209 -1.1329 -0.7545
  576MPD2    H2 8546   2.296   3.648  12.817  0.2711  0.2394  2.3940
  576MPD2    H3 8547   2.273   3.709  13.037  1.2214 -0.8213 -1.5407
  576MPD2     N 8548   1.897   3.974  12.931 -1.3112  0.3538  0.8100
  576MPD2    H5 8549   1.875   4.017  12.841 -2.5610 -0.8945  0.5228
  576MPD2    N1 8550   2.151   3.727  12.597 -0.4187 -0.0322 -0.3386
  576MPD2    H7 8551   2.112   3.790  12.528 -0.2023  0.2085 -0.2417
  577TMC3    C1 8552   2.254   3.643  12.401 -0.2898  0.1025  0.8184
  577TMC3    C2 8553   2.367   3.595  12.344 -0.2929 -0.5549  1.0821
  577TMC3    C3 8554   2.379   3.588  12.206 -0.3067  0.3081  0.4640
  577TMC3    C4 8555   2.161   3.702  12.325 -0.1028 -0.1543 -0.2327
  577TMC3    C5 8556   2.168   3.706  12.191 -0.9032  0.8523 -0.2300
  577TMC3    C6 8557   2.279   3.643  12.129  0.1111 -0.3560 -0.8168
  577TMC3     C 8558   2.237   3.634  12.550  0.1360  0.3601 -0.5585
  577TMC3     O 8559   2.312   3.559  12.614  0.3751  0.6247  0.2311
  577TMC3     H 8560   2.452   3.566  12.404  0.4857 -3.0238 -1.2501
  577TMC3    H1 8561   2.064   3.723  12.369 -0.1784 -0.4338 -0.2673
  577TMC3    H2 8562   2.272   3.623  12.022 -0.2228  0.8210 -1.0206
  577TMC3    C7 8563   2.045   3.675  12.126  0.1297  0.8950  0.6629
  577TMC3    C8 8564   2.484   3.488  12.159 -0.0446  0.3867 -0.2109
  577TMC3    O1 8565   1.968   3.605  12.191  0.3219 -0.9153 -0.0368
  577TMC3    O2 8566   2.541   3.436  12.251  0.2152 -0.1321 -0.2944
  578MPD2     C 8567   0.460   3.765   1.141  0.4567 -0.2026  0.4754
  578MPD2    C1 8568   0.490   3.702   1.019 -0.5936  0.6402  0.0345
  578MPD2    C2 8569   0.515   3.565   1.018 -0.7827 -0.4538 -0.0517
  578MPD2    C3 8570   0.517   3.493   1.139  0.0916  0.0644 -1.0177
  578MPD2    C4 8571   0.514   3.565   1.260  0.1331  0.0821  0.2471
  578MPD2    C5 8572   0.492   3.698   1.254 -0.4291  0.0254 -0.1881
  578MPD2     H 8573   0.517   3.515   0.923 -1.6740 -0.1339 -0.2394
  578MPD2    H1 8574   0.523   3.517   1.357 -4.0066 -0.9459  0.1026
  578MPD2    H2 8575   0.437   3.871   1.143  0.0386 -0.2686 -1.0491
  578MPD2    H3 8576   0.479   3.752   1.347 -0.8910  0.5843 -0.5818
  578MPD2     N 8577   0.522   3.351   1.135  0.2092  0.4249  0.3529
  578MPD2    H5 8578   0.518   3.311   1.041  0.4245 -1.5744  1.2026
  578MPD2    N1 8579   0.483   3.782   0.902 -0.7070  0.4345 -0.1350
  578MPD2    H7 8580   0.453   3.877   0.920 -0.2551  0.4645  0.4518
  579TMC3    C1 8581   0.528   3.131   1.178 -0.2711 -0.8151 -0.5341
  579TMC3    C2 8582   0.625   3.036   1.214 -0.7505  0.1139  0.0987
  579TMC3    C3 8583   0.620   2.911   1.159 -0.4030  0.6343 -0.0119
  579TMC3    C4 8584   0.432   3.098   1.089  0.0629  0.0650  0.4966
  579TMC3    C5 8585   0.430   2.973   1.034  0.2852  0.6828  0.0157
  579TMC3    C6 8586   0.529   2.880   1.063 -0.4887 -0.4221  0.2503
  579TMC3     C 8587   0.532   3.263   1.230  0.1725 -0.0455  0.9037
  579TMC3     O 8588   0.557   3.288   1.344  1.0792 -0.2263 -0.2721
  579TMC3     H 8589   0.693   3.076   1.288 -0.2774 -4.1792  1.9651
  579TMC3    H1 8590   0.352   3.164   1.058  0.7321  1.1495  1.0820
  579TMC3    H2 8591   0.536   2.785   1.012 -0.2680 -0.3315  0.1100
  579TMC3    C7 8592   0.338   2.946   0.923 -0.4157  0.3434 -0.7038
  579TMC3    C8 8593   0.734   2.819   1.181  0.1614  0.2770  0.0551
  579TMC3    O1 8594   0.285   3.039   0.860 -0.2702  0.1945  0.5870
  579TMC3    O2 8595   0.722   2.708   1.134  0.4218 -0.3173  0.1900
  580TMC3    C1 8596   0.151   3.046  12.264  0.4206  0.4652  0.0909
  580TMC3    C2 8597   0.231   3.131  12.330  0.7354  0.3256  0.5105
  580TMC3    C3 8598   0.366   3.128  12.299  0.1851  0.6693 -0.2633
  580TMC3    C4 8599   0.195   2.927  12.212 -0.2152  0.3620 -0.3606
  580TMC3    C5 8600   0.333   2.913  12.211 -0.2195 -0.2159 -0.3966
  580TMC3    C6 8601   0.418   3.013  12.244 -0.6560  0.3049 -0.2267
  580TMC3     C 8602   0.044   3.102  12.194 -0.5982  0.0464  0.1252
  580TMC3     O 8603   4.707   3.033  12.119 -0.1422 -0.9194 -0.3353
  580TMC3     H 8604   0.189   3.217  12.379  1.6813  1.4323 -0.6199
  580TMC3    H1 8605   0.121   2.852  12.186  0.0148 -0.2563  0.7891
  580TMC3    H2 8606   0.518   3.014  12.203 -0.9969  0.8284 -1.0232
  580TMC3    C7 8607   0.388   2.782  12.247 -0.4480 -0.3457  0.2080
  580TMC3    C8 8608   0.432   3.255  12.275  0.0004 -0.3401 -0.0762
  580TMC3    O1 8609   0.474   2.788  12.333 -0.6467  0.3212  0.3032
  580TMC3    O2 8610   0.362   3.355  12.261  0.2704  0.3365 -0.4701
  581MPD2     C 8611   2.651   2.576  15.333  0.0186 -0.0123  0.1099
  581MPD2    C1 8612   2.751   2.600  15.252  0.0375  0.3155 -0.0617
  581MPD2    C2 8613   2.752   2.714  15.177  0.1849  0.1246  0.3268
  581MPD2    C3 8614   2.638   2.795  15.180  0.1618 -0.2389  0.6216
  581MPD2    C4 8615   2.537   2.763  15.264 -0.0276 -0.3544 -0.1794
  581MPD2    C5 8616   2.539   2.652  15.336  0.0473 -0.1676 -0.0272
  581MPD2     H 8617   2.835   2.728  15.109  0.4661 -3.5177 -0.1011
  581MPD2    H1 8618   2.443   2.817  15.271  2.1754  3.4205  0.2249
  581MPD2    H2 8619   2.668   2.491  15.397 -0.5950  1.6813  2.5062
  581MPD2    H3 8620   2.457   2.621  15.399 -0.2645 -1.4471 -1.0441
  581MPD2     N 8621   2.636   2.914  15.107  0.7122  0.1363  0.5968
  581MPD2    H5 8622   2.720   2.946  15.059 -1.6185 -0.7724 -4.0284
  581MPD2    N1 8623   2.847   2.495  15.238  0.2556 -0.3115  0.2597
  581MPD2    H7 8624   2.830   2.408  15.287  0.0658 -0.1473  0.4868
  582TMC3    C1 8625   3.027   2.381  15.188  0.6466  0.0722  0.2672
  582TMC3    C2 8626   3.107   2.372  15.304  0.2363 -0.2933  0.1338
  582TMC3    C3 8627   3.120   2.248  15.365 -0.5080  0.1187 -0.4864
  582TMC3    C4 8628   2.961   2.266  15.156 -0.2752  0.1789  0.6481
  582TMC3    C5 8629   2.949   2.154  15.230  0.2590 -0.3022  0.5183
  582TMC3    C6 8630   3.041   2.144  15.324 -0.4523  0.5808  0.0848
  582TMC3     C 8631   2.965   2.504  15.167  0.0192  0.4298 -0.2835
  582TMC3     O 8632   3.030   2.590  15.109 -0.0498  0.0779 -0.5369
  582TMC3     H 8633   3.149   2.455  15.358  2.9748 -0.6644 -1.4517
  582TMC3    H1 8634   2.877   2.282  15.090 -1.7623  1.5115  2.8394
  582TMC3    H2 8635   3.034   2.055  15.386 -0.2266  0.6798  0.2529
  582TMC3    C7 8636   2.819   2.145  15.300 -0.3342  0.3698 -0.0810
  582TMC3    C8 8637   3.108   2.257  15.504 -0.0684  0.5774  0.4232
  582TMC3    O1 8638   2.752   2.250  15.315  0.4477  0.5749  0.4972
  582TMC3    O2 8639   3.023   2.337  15.544 -0.1705  0.1369  0.1968
  583MPD2     C 8640   3.264   4.312  16.800 -0.1078 -0.1790  0.2381
  583MPD2    C1 8641   3.405   4.334  16.820  0.4841 -0.1790 -0.0613
  583MPD2    C2 8642   3.450   4.416  16.927 -0.4772  0.2771 -0.1938
  583MPD2    C3 8643   3.357   4.454  17.024 -0.5515 -0.3987  0.2833
  583MPD2    C4 8644   3.222   4.431  17.006  0.7752  0.8196 -0.5219
  583MPD2    C5 8645   3.179   4.353  16.903  0.2275 -0.4870 -0.5210
  583MPD2     H 8646   3.556   4.435  16.938 -0.1711 -1.2859 -0.4561
  583MPD2    H1 8647   3.144   4.466  17.074 -0.5799 -0.0241 -1.6515
  583MPD2    H2 8648   3.223   4.261  16.713  0.2996 -1.3854  0.7515
  583MPD2    H3 8649   3.077   4.317  16.892  0.3650 -0.8131 -0.7261
  583MPD2     N 8650   3.406   4.511  17.142  0.6425 -0.0667 -0.1472
  583MPD2    H5 8651   3.507   4.500  17.148  0.8552  1.8307 -0.1957
  583MPD2    N1 8652   3.501   4.292  16.726  0.0197 -0.1137  0.6007
  583MPD2    H7 8653   3.597   4.323  16.728 -0.2871  0.9379 -1.0135
  584TMC3    C1 8654   3.404   4.588  17.367 -0.1235 -0.6653 -0.7907
  584TMC3    C2 8655   3.538   4.613  17.363  0.1896 -0.2247  0.2317
  584TMC3    C3 8656   3.614   4.609  17.475 -0.1024 -0.1821  0.1275
  584TMC3    C4 8657   3.349   4.543  17.487  0.2271  0.3090  0.8905
  584TMC3    C5 8658   3.426   4.547  17.598 -0.4757 -0.0432 -0.2140
  584TMC3    C6 8659   3.555   4.585  17.593  0.5261  0.1344  0.1520
  584TMC3     C 8660   3.325   4.551  17.250 -0.9384  0.2044 -0.7616
  584TMC3     O 8661   3.205   4.546  17.261  0.1546 -0.2041  0.1293
  584TMC3     H 8662   3.588   4.647  17.273  1.2781 -1.0109  0.5441
  584TMC3    H1 8663   3.245   4.513  17.491  0.1225  0.7041  1.0946
  584TMC3    H2 8664   3.616   4.579  17.682  2.2111  2.3997 -0.8681
  584TMC3    C7 8665   3.361   4.497   0.017  0.0343 -0.6389  0.6427
  584TMC3    C8 8666   3.736   4.695  17.483  0.0077  0.2522  0.0264
  584TMC3    O1 8667   3.252   4.448   0.008 -0.4842  0.4683 -0.0304
  584TMC3    O2 8668   3.810   4.699  17.385  0.0452 -0.3712  0.0576
  585MPD2     C 8669   1.893   3.024   0.793 -0.8683 -0.0955  0.2949
  585MPD2    C1 8670   1.943   3.142   0.733  0.2258  0.2404 -0.2715
  585MPD2    C2 8671   1.987   3.133   0.606 -0.4979 -0.1814 -0.2094
  585MPD2    C3 8672   2.001   3.014   0.544  0.3560 -0.3146 -0.3384
  585MPD2    C4 8673   1.957   2.902   0.607 -1.1666  0.1810 -0.7798
  585MPD2    C5 8674   1.901   2.908   0.727 -0.3787 -0.6435 -0.1717
  585MPD2     H 8675   2.006   3.222   0.546  1.5631 -0.6259 -0.2302
  585MPD2    H1 8676   1.954   2.810   0.549  1.3542  0.2800 -1.0488
  585MPD2    H2 8677   1.841   3.030   0.888 -1.0142 -0.8307  0.2589
  585MPD2    H3 8678   1.852   2.828   0.782 -0.9335 -0.2154 -0.0391
  585MPD2     N 8679   2.037   3.011   0.406  1.0503 -0.4680  0.1755
  585MPD2    H5 8680   2.004   2.932   0.351 -0.4629  0.3243 -0.0693
  585MPD2    N1 8681   1.929   3.269   0.791  0.0938  0.5105 -0.0766
  585MPD2    H7 8682   1.983   3.347   0.754 -0.8781  1.3654  0.3253
  586TMC3    C1 8683   2.135   3.057   0.210  0.6051  0.4520  0.4459
  586TMC3    C2 8684   2.257   3.078   0.153 -0.6204 -0.3613  0.3527
  586TMC3    C3 8685   2.256   3.111   0.017 -0.0967 -0.0799  0.2379
  586TMC3    C4 8686   2.019   3.072   0.143 -0.3226  0.2634  0.1258
  586TMC3    C5 8687   2.020   3.103   0.014  0.3707 -0.3422 -0.6420
  586TMC3    C6 8688   2.138   3.127  17.653  0.8046  0.1447 -0.3044
  586TMC3     C 8689   2.125   3.099   0.350 -0.4523 -0.6701  0.0456
  586TMC3     O 8690   2.198   3.185   0.401 -0.3792  0.7082  0.3350
  586TMC3     H 8691   2.350   3.052   0.202 -1.1796 -2.6192  0.2256
  586TMC3    H1 8692   1.922   3.065   0.191 -0.2944 -1.6810 -0.1062
  586TMC3    H2 8693   2.146   3.136  17.545  0.3385 -1.3064 -0.4646
  586TMC3    C7 8694   1.898   3.071  17.635 -0.8280 -0.5251 -0.0224
  586TMC3    C8 8695   2.344   3.014  17.652  0.5223 -0.0087 -0.8967
  586TMC3    O1 8696   1.803   3.022  17.699 -0.5248  0.5683 -0.1096
  586TMC3    O2 8697   2.325   2.900  17.690  0.0176 -0.0797  0.1509
  587TMC3    C1 8698   4.652   1.457  16.239  0.4310 -0.7258  0.5044
  587TMC3    C2 8699   4.635   1.586  16.299 -0.0218  0.6693 -0.0509
  587TMC3    C3 8700   0.023   1.675  16.291  0.1026  0.4376  0.7331
  587TMC3    C4 8701   0.049   1.414  16.199 -0.1432 -0.1428 -0.7621
  587TMC3    C5 8702   0.158   1.499  16.218  0.5443  0.2795 -0.4007
  587TMC3    C6 8703   0.148   1.632  16.246 -0.1756 -0.3434 -0.0334
  587TMC3     C 8704   4.544   1.360  16.247 -1.0444  0.3772  0.3152
  587TMC3     O 8705   4.572   1.248  16.205 -0.9292 -0.9118 -0.3506
  587TMC3     H 8706   4.538   1.626  16.327  0.4476  1.7772  0.0008
  587TMC3    H1 8707   0.064   1.312  16.165 -2.0320 -1.4835  2.3663
  587TMC3    H2 8708   0.237   1.691  16.269 -0.6689 -0.2277  1.5536
  587TMC3    C7 8709   0.296   1.451  16.203  0.3563  0.0629 -0.7043
  587TMC3    C8 8710   0.003   1.821  16.306  0.2539 -0.3490  0.0414
  587TMC3    O1 8711   0.381   1.519  16.152 -0.0344  0.2203 -0.3409
  587TMC3    O2 8712   0.093   1.893  16.262 -0.2713  0.5542 -0.7760
  588TMC3    C1 8713   1.848   4.012   9.727  0.6439 -0.5055 -0.5611
  588TMC3    C2 8714   1.805   3.883   9.719  0.3531 -0.5192 -0.1842
  588TMC3    C3 8715   1.875   3.786   9.785  0.5005 -0.3986 -0.0312
  588TMC3    C4 8716   1.958   4.040   9.808  0.5923 -0.8617 -0.4650
  588TMC3    C5 8717   2.019   3.940   9.881  0.0002  0.2328 -0.3227
  588TMC3    C6 8718   1.980   3.808   9.865  0.0218 -0.6469  0.0435
  588TMC3     C 8719   1.761   4.120   9.682  0.7812  0.3065 -0.1860
  588TMC3     O 8720   1.664   4.094   9.609  0.9994 -0.2230 -0.0643
  588TMC3     H 8721   1.709   3.860   9.675  1.4279  0.1894 -2.8800
  588TMC3    H1 8722   1.996   4.141   9.823  0.1473 -0.7980  0.2608
  588TMC3    H2 8723   2.038   3.740   9.926  0.2090 -0.3593  0.1910
  588TMC3    C7 8724   2.121   3.979   9.978 -0.2214  0.9293 -0.2886
  588TMC3    C8 8725   1.810   3.653   9.795  0.0189 -0.3006  0.0676
  588TMC3    O1 8726   2.231   3.925   9.977  0.2870 -0.1464  0.3015
  588TMC3    O2 8727   1.693   3.643   9.763 -0.1231  0.0781  0.4351
  589TMC3    C1 8728   0.909   1.538   1.095 -0.5488 -0.1980  0.5242
  589TMC3    C2 8729   0.999   1.547   1.194 -0.0615 -0.1644  0.5993
  589TMC3    C3 8730   1.068   1.433   1.235  0.2291 -0.0019  0.7856
  589TMC3    C4 8731   0.898   1.431   1.018 -0.3274 -0.6437 -0.4165
  589TMC3    C5 8732   0.976   1.323   1.048 -0.4833  0.1483 -0.1703
  589TMC3    C6 8733   1.066   1.325   1.157 -0.3019  0.0803 -0.8830
  589TMC3     C 8734   0.802   1.637   1.085  0.7607 -0.4345  0.2926
  589TMC3     O 8735   0.747   1.652   0.975 -0.2439 -0.5165 -0.6030
  589TMC3     H 8736   1.030   1.637   1.245  1.0001 -0.2645  0.1448
  589TMC3    H1 8737   0.826   1.435   0.937 -1.7160 -1.5803  0.7606
  589TMC3    H2 8738   1.118   1.232   1.175 -0.4171 -0.1997 -2.0089
  589TMC3    C7 8739   0.962   1.195   0.972  0.1929  0.3953 -0.0972
  589TMC3    C8 8740   1.182   1.449   1.331 -0.4328  0.3326  0.6451
  589TMC3    O1 8741   1.011   1.096   1.022 -0.1672  0.6737  0.7604
  589TMC3    O2 8742   1.163   1.534   1.415  0.3345  0.0531 -0.0730
  590MPD2     C 8743   0.836   0.228  16.619 -0.1081  1.0419  0.2332
  590MPD2    C1 8744   0.832   0.366  16.603 -0.7113 -0.5272  0.2620
  590MPD2    C2 8745   0.943   0.440  16.570  0.3463 -0.6645  0.3155
  590MPD2    C3 8746   1.060   0.376  16.564 -0.2895  0.2764  0.0659
  590MPD2    C4 8747   1.072   0.240  16.588 -0.5557 -0.3815  0.0488
  590MPD2    C5 8748   0.956   0.167  16.620 -0.8655 -0.5022 -0.3178
  590MPD2     H 8749   0.939   0.547  16.551 -1.0287 -0.8289 -0.3144
  590MPD2    H1 8750   1.162   0.179  16.591  0.0565  0.6583  2.8900
  590MPD2    H2 8751   0.748   0.165  16.627  2.6310 -3.1024 -2.0557
  590MPD2    H3 8752   0.967   0.059  16.621  1.1848 -0.3134 -2.6648
  590MPD2     N 8753   1.174   0.451  16.528 -0.1728  0.8035  0.2586
  590MPD2    H5 8754   1.157   0.550  16.514  0.0522  0.5497 -1.8595
  590MPD2    N1 8755   0.704   0.427  16.606 -0.7422 -0.1582  0.1764
  590MPD2    H7 8756   0.623   0.365  16.613 -1.1518  0.4013  0.4142
  591TMC3    C1 8757   1.390   0.505  16.468 -0.5174 -0.1445  0.1990
  591TMC3    C2 8758   1.423   0.494  16.335 -0.7762  0.4654  0.3619
  591TMC3    C3 8759   1.415   0.595  16.253 -0.1012  0.1878  0.3537
  591TMC3    C4 8760   1.353   0.633  16.513 -0.1065 -0.0613  0.0370
  591TMC3    C5 8761   1.352   0.738  16.424 -0.5506 -0.6325 -0.2174
  591TMC3    C6 8762   1.383   0.724  16.293  0.5764  0.7575  0.2152
  591TMC3     C 8763   1.301   0.402  16.515  0.1924 -0.4290  0.0995
  591TMC3     O 8764   1.346   0.293  16.509 -1.3427 -0.7209 -0.2944
  591TMC3     H 8765   1.433   0.393  16.296 -1.9717 -0.2406  1.9370
  591TMC3    H1 8766   1.331   0.661  16.615  2.6025 -1.2077  0.9262
  591TMC3    H2 8767   1.405   0.808  16.228 -0.9015  1.8552  1.1385
  591TMC3    C7 8768   1.243   0.833  16.457 -0.0004  0.1117  0.2273
  591TMC3    C8 8769   1.439   0.564  16.109 -0.2198 -0.0589  0.2352
  591TMC3    O1 8770   1.160   0.788  16.534 -0.3910 -0.3591 -0.6343
  591TMC3    O2 8771   1.441   0.447  16.075 -0.0056  0.0519  0.1163
  592MPD2     C 8772   1.326   2.676  11.438  0.4485 -0.1067  0.4076
  592MPD2    C1 8773   1.302   2.726  11.567 -0.6901  0.1245  0.7968
  592MPD2    C2 8774   1.195   2.676  11.642  0.6733 -0.7847 -0.0127
  592MPD2    C3 8775   1.121   2.580  11.586  0.0187 -0.1009 -0.0887
  592MPD2    C4 8776   1.131   2.541  11.455  0.0320  0.2964 -0.4910
  592MPD2    C5 8777   1.234   2.592  11.381  0.1389 -0.0952  0.1261
  592MPD2     H 8778   1.188   2.703  11.747 -0.1705 -2.2286  0.2958
  592MPD2    H1 8779   1.071   2.468  11.402  0.7237 -1.2351  0.8392
  592MPD2    H2 8780   1.402   2.713  11.369  1.6567  0.1100  1.8521
  592MPD2    H3 8781   1.247   2.547  11.283  1.0161  2.6164 -1.0132
  592MPD2     N 8782   1.030   2.522  11.675  0.7146  0.0320 -0.1377
  592MPD2    H5 8783   1.036   2.553  11.772  0.6417  0.0184 -0.1285
  592MPD2    N1 8784   1.390   2.823  11.609 -0.4348 -0.6255  0.1253
  592MPD2    H7 8785   1.448   2.862  11.535 -3.3195  1.1741 -1.1340
  593TMC3    C1 8786   1.495   2.973  11.749  0.2040 -1.0241  0.2335
  593TMC3    C2 8787   1.506   3.031  11.873  0.1680 -0.0919 -0.2584
  593TMC3    C3 8788   1.589   3.136  11.888  0.1443  0.2099  0.0499
  593TMC3    C4 8789   1.548   3.041  11.643 -0.0307 -0.3131 -0.7719
  593TMC3    C5 8790   1.616   3.156  11.663  0.3824  0.1777  0.4752
  593TMC3    C6 8791   1.639   3.214  11.788  0.0086  0.0278 -0.1906
  593TMC3     C 8792   1.405   2.866  11.740 -0.0555  0.4074  0.1193
  593TMC3     O 8793   1.350   2.824  11.837 -0.4906  0.7492  0.1949
  593TMC3     H 8794   1.453   2.994  11.960  1.7758  0.1251  0.8023
  593TMC3    H1 8795   1.556   2.991  11.547  0.1276  0.5153 -1.1874
  593TMC3    H2 8796   1.688   3.309  11.808 -1.3563  1.0247 -1.5549
  593TMC3    C7 8797   1.705   3.206  11.560  0.4346 -0.0832 -0.5602
  593TMC3    C8 8798   1.623   3.172  12.026  0.4048 -0.4108 -0.1942
  593TMC3    O1 8799   1.799   3.275  11.605 -0.0812  0.0619  0.6621
  593TMC3    O2 8800   1.563   3.120  12.117 -0.0330  0.2503 -0.2285
  594MPD2     C 8801   0.149   1.602  13.935  0.2818  0.2186  0.3503
  594MPD2    C1 8802   0.128   1.583  14.072 -0.4877 -0.2579 -0.3700
  594MPD2    C2 8803   0.220   1.619  14.161  0.3042  0.1351  0.6285
  594MPD2    C3 8804   0.344   1.673  14.121  0.2704 -0.2425  0.1658
  594MPD2    C4 8805   0.366   1.687  13.984  0.4754 -0.3425  0.3849
  594MPD2    C5 8806   0.265   1.662  13.894  0.3656 -0.3093 -0.1519
  594MPD2     H 8807   0.207   1.595  14.265  0.9811 -0.6829  0.5196
  594MPD2    H1 8808   0.453   1.736  13.940  0.6859 -0.2482  0.9014
  594MPD2    H2 8809   0.067   1.597  13.865  1.7805 -1.5125 -1.2712
  594MPD2    H3 8810   0.282   1.683  13.789  1.1330  0.8424  0.2122
  594MPD2     N 8811   0.435   1.704  14.229 -0.3478 -0.7321 -0.1438
  594MPD2    H5 8812   0.399   1.685  14.322 -1.0395  0.4803 -0.1762
  594MPD2    N1 8813   0.007   1.508  14.097 -0.0680 -0.3455  0.1539
  594MPD2    H7 8814   4.666   1.484  14.024 -1.2276  0.1152  1.0657
  595TMC3    C1 8815   0.797   1.801  14.481 -0.9857 -0.1183 -0.8045
  595TMC3    C2 8816   0.751   1.782  14.356  0.5234  0.1496 -0.6417
  595TMC3    C3 8817   0.617   1.772  14.343  0.5985  0.1104 -0.1049
  595TMC3    C4 8818   0.719   1.817  14.593  0.8950  0.0241 -0.6583
  595TMC3    C5 8819   0.583   1.817  14.568  0.7787  0.2788 -0.0354
  595TMC3    C6 8820   0.531   1.791  14.445  0.0116 -0.5827 -0.3037
  595TMC3     C 8821   0.911   1.883  14.491  0.4840  0.5007  0.1143
  595TMC3     O 8822   0.896   1.982  14.562 -0.8230 -0.1600  0.5201
  595TMC3     H 8823   0.811   1.777  14.266  1.8801 -2.3247  0.3874
  595TMC3    H1 8824   0.761   1.839  14.691 -1.2346 -0.6190  0.4038
  595TMC3    H2 8825   0.423   1.793  14.443 -0.0047 -1.5769 -0.4563
  595TMC3    C7 8826   0.484   1.847  14.673 -0.5956  0.5358  0.1209
  595TMC3    C8 8827   0.558   1.749  14.217  0.6448 -0.4198 -0.2506
  595TMC3    O1 8828   0.367   1.851  14.646  0.7465  0.1181 -0.2627
  595TMC3    O2 8829   0.621   1.768  14.113  0.2575  0.3487  0.1965
  596MPD2     C 8830   4.292   3.976  16.585 -0.5572  0.1604 -0.3684
  596MPD2    C1 8831   4.249   4.103  16.555  0.3428 -0.1404  0.9310
  596MPD2    C2 8832   4.187   4.118  16.424  0.0628 -0.0045  0.4353
  596MPD2    C3 8833   4.171   4.014  16.338  0.3549 -0.1211 -0.0569
  596MPD2    C4 8834   4.215   3.887  16.380  0.8345  0.0227 -0.0727
  596MPD2    C5 8835   4.263   3.865  16.504 -0.1050 -0.1456 -0.2902
  596MPD2     H 8836   4.142   4.212  16.393 -0.2235  0.5676  2.6282
  596MPD2    H1 8837   4.196   3.801  16.317 -0.1627  0.7982 -0.8170
  596MPD2    H2 8838   4.354   3.961  16.673 -0.3921 -3.0301 -1.0286
  596MPD2    H3 8839   4.288   3.764  16.536  2.4924  0.5838 -0.0013
  596MPD2     N 8840   4.133   4.018  16.202 -0.3844  0.0245 -0.1591
  596MPD2    H5 8841   4.118   3.923  16.169  3.0640 -1.1182  1.5035
  596MPD2    N1 8842   4.292   4.217  16.628 -0.0143 -0.2325 -0.4550
  596MPD2    H7 8843   4.352   4.198  16.707 -0.7996 -1.9214 -0.2755
  597TMC3    C1 8844   4.294   4.438  16.704  0.3885 -1.0407 -0.0893
  597TMC3    C2 8845   4.305   4.569  16.665  0.0944  0.0846 -0.0963
  597TMC3    C3 8846   4.355   4.653  16.762 -0.2865 -0.1251  0.1562
  597TMC3    C4 8847   4.337   4.393  16.828 -0.0676  0.4825 -0.6864
  597TMC3    C5 8848   4.387   4.485  16.917  0.0478 -0.0269 -0.1044
  597TMC3    C6 8849   4.398   4.619  16.888 -0.0565 -0.0549 -0.1444
  597TMC3     C 8850   4.256   4.345  16.596  0.2197 -0.2108  0.2931
  597TMC3     O 8851   4.174   4.391  16.525 -0.2429 -0.5665 -0.2677
  597TMC3     H 8852   4.273   4.597  16.565  0.9054  0.5246 -0.2305
  597TMC3    H1 8853   4.302   4.294  16.855 -0.0502  0.4784 -0.6790
  597TMC3    H2 8854   4.445   4.692  16.953  2.7157 -0.4789 -1.6515
  597TMC3    C7 8855   4.330   4.461  17.050 -0.3928  0.3013 -0.1976
  597TMC3    C8 8856   4.331   0.072  16.741  0.6229  0.0851 -0.1938
  597TMC3    O1 8857   4.235   4.387  17.071 -0.1854 -0.3618 -0.1480
  597TMC3    O2 8858   4.342   0.144  16.841  0.1778 -0.4535 -0.6105
  598TMC3    C1 8859   1.700   1.357  16.039 -0.2671 -0.5769 -0.6529
  598TMC3    C2 8860   1.595   1.276  16.077  0.6507  0.7086 -0.5046
  598TMC3    C3 8861   1.583   1.162  16.003  0.1229 -0.2779 -0.8882
  598TMC3    C4 8862   1.793   1.325  15.942  0.6633 -0.1504  0.4391
  598TMC3    C5 8863   1.764   1.213  15.870  1.2767 -0.6872  0.2698
  598TMC3    C6 8864   1.663   1.132  15.903 -0.1190 -0.8810  0.9284
  598TMC3     C 8865   1.719   1.473  16.114  0.0226  0.4368 -0.1117
  598TMC3     O 8866   1.693   1.479  16.232 -0.3039  0.1338  0.1243
  598TMC3     H 8867   1.522   1.301  16.153  0.3037  0.4408 -0.7540
  598TMC3    H1 8868   1.880   1.389  15.934 -1.4811  2.8741  0.8561
  598TMC3    H2 8869   1.648   1.043  15.843 -0.7299 -0.4127  0.3922
  598TMC3    C7 8870   1.837   1.188  15.748 -0.3406  0.0563 -0.2716
  598TMC3    C8 8871   1.467   1.085  16.026  0.5761 -0.2145 -0.2199
  598TMC3    O1 8872   1.821   1.080  15.689  0.4932 -0.5387 -0.0819
  598TMC3    O2 8873   1.485   0.980  16.087 -0.3179  0.1990 -0.1927
  599MPD2     C 8874   2.176   3.076  15.811  0.6645  0.2285  0.0969
  599MPD2    C1 8875   2.100   3.006  15.905 -0.1403  1.0547  0.1651
  599MPD2    C2 8876   1.985   3.070  15.956  0.4571 -0.0267  0.3983
  599MPD2    C3 8877   1.958   3.200  15.921  0.9214 -0.2227 -0.2573
  599MPD2    C4 8878   2.036   3.267  15.826  0.1661 -0.3635 -0.8375
  599MPD2    C5 8879   2.146   3.206  15.771 -0.3691  1.0191 -0.4447
  599MPD2     H 8880   1.915   3.024  16.025  0.6904  1.7655  1.8374
  599MPD2    H1 8881   2.010   3.368  15.796  1.5548  1.3576  3.7316
  599MPD2    H2 8882   2.267   3.028  15.780  0.2660  0.5717 -1.6313
  599MPD2    H3 8883   2.208   3.261  15.702 -0.2672 -1.2017 -2.1222
  599MPD2     N 8884   1.847   3.279  15.969 -0.6297  0.1449 -0.1948
  599MPD2    H5 8885   1.860   3.379  15.981 -1.7159  0.2113  0.4061
  599MPD2    N1 8886   2.150   2.883  15.953  0.1806 -0.0194 -0.6977
  599MPD2    H7 8887   2.235   2.857  15.904  0.9906 -0.7433  1.0834
  600TMC3    C1 8888   1.652   3.352  16.072 -0.0585 -0.8070 -0.5595
  600TMC3    C2 8889   1.557   3.322  16.167 -0.1195  0.1370 -0.8410
  600TMC3    C3 8890   1.456   3.409  16.196  0.0199  0.5359 -0.1074
  600TMC3    C4 8891   1.626   3.459  15.995  0.5480  0.0148 -0.5950
  600TMC3    C5 8892   1.516   3.544  16.013  0.8189  0.2406 -0.8705
  600TMC3    C6 8893   1.425   3.514  16.116  0.1471  0.0935 -0.1417
  600TMC3     C 8894   1.726   3.236  16.019  0.2176 -0.0331 -0.4747
  600TMC3     O 8895   1.692   3.116  16.039  0.2423  0.3135  0.0517
  600TMC3     H 8896   1.571   3.233  16.227 -0.3053  0.3147 -0.5350
  600TMC3    H1 8897   1.694   3.477  15.913 -1.3467  0.4434 -2.0826
  600TMC3    H2 8898   1.361   3.593  16.154  2.5052  2.4817 -1.1076
  600TMC3    C7 8899   1.529   3.689  15.983 -0.5785  0.2720  0.5271
  600TMC3    C8 8900   1.434   3.442  16.334  0.2632 -0.0253  0.1904
  600TMC3    O1 8901   1.440   3.760  16.027  0.0154  0.0760  0.2824
  600TMC3    O2 8902   1.449   3.552  16.379 -0.6389  0.5794  0.2500
  601MPD2     C 8903   3.864   1.660   0.466 -0.3315 -0.4117 -0.5929
  601MPD2    C1 8904   3.812   1.541   0.416  0.2066 -0.6359 -0.2812
  601MPD2    C2 8905   3.872   1.428   0.451  0.3515  0.3028 -0.7925
  601MPD2    C3 8906   3.993   1.429   0.521 -0.5610  0.3698 -0.2805
  601MPD2    C4 8907   4.040   1.548   0.569  1.7683 -0.2348 -0.0494
  601MPD2    C5 8908   3.979   1.662   0.541  0.5029 -0.2461 -0.5487
  601MPD2     H 8909   3.831   1.337   0.408 -0.1867  1.9419 -3.7434
  601MPD2    H1 8910   4.119   1.557   0.643  0.4458  1.4822  1.1584
  601MPD2    H2 8911   3.819   1.755   0.441 -0.0984  0.0488  0.7161
  601MPD2    H3 8912   4.004   1.754   0.593  0.7213  0.1665 -1.3854
  601MPD2     N 8913   4.075   1.316   0.556 -0.6148  0.2308  0.8605
  601MPD2    H5 8914   4.165   1.329   0.602  0.1982  1.4419 -1.0728
  601MPD2    N1 8915   3.719   1.541   0.313  0.1109  0.1810 -0.2563
  601MPD2    H7 8916   3.705   1.448   0.274  2.0285 -1.0890  2.1265
  602TMC3    C1 8917   3.562   1.615   0.153  0.0966  0.1573  0.0925
  602TMC3    C2 8918   3.467   1.712   0.122 -0.1745  0.1312 -0.0131
  602TMC3    C3 8919   3.415   1.718  17.701  0.7189  0.9842  0.9662
  602TMC3    C4 8920   3.609   1.527   0.063  0.0048  0.1679  0.4366
  602TMC3    C5 8921   3.545   1.530  17.646 -0.5204  0.3469  0.3225
  602TMC3    C6 8922   3.444   1.622  17.612  0.1526 -0.2254 -0.7537
  602TMC3     C 8923   3.649   1.648   0.269 -0.1931  0.3393 -0.0168
  602TMC3     O 8924   3.637   1.754   0.325 -0.2671  0.2751 -0.6157
  602TMC3     H 8925   3.435   1.781   0.199 -0.3992 -0.6612  0.6017
  602TMC3    H1 8926   3.678   1.445   0.080  1.2328  0.8509 -1.1948
  602TMC3    H2 8927   3.400   1.635  17.513 -0.2423  2.4144 -0.2232
  602TMC3    C7 8928   3.638   1.527  17.535  0.2749  0.5681 -0.1421
  602TMC3    C8 8929   3.430   1.847  17.636  0.1866  0.6910 -0.0313
  602TMC3    O1 8930   3.707   1.427  17.526  0.0501 -0.0988  0.3407
  602TMC3    O2 8931   3.480   1.845  17.529 -0.3650 -0.1326  0.5873
  603TMC3    C1 8932   1.908   1.806  11.187 -0.2505  0.1986 -0.2022
  603TMC3    C2 8933   1.961   1.761  11.303  0.1807  0.2296  0.0156
  603TMC3    C3 8934   2.028   1.846  11.385  0.0621 -0.5614 -0.5845
  603TMC3    C4 8935   1.915   1.941  11.159 -0.7188  0.3416 -0.1698
  603TMC3    C5 8936   1.979   2.022  11.244  0.6379 -0.3484 -0.7960
  603TMC3    C6 8937   2.042   1.979  11.361  0.3291 -0.3140  0.1705
  603TMC3     C 8938   1.878   1.717  11.080 -0.8199  0.5307  0.1295
  603TMC3     O 8939   1.904   1.598  11.093  0.2022 -0.8233  0.5754
  603TMC3     H 8940   1.973   1.654  11.318  0.6491  0.2176 -0.4292
  603TMC3    H1 8941   1.896   1.981  11.060 -0.1732  2.8533  0.7340
  603TMC3    H2 8942   2.070   2.045  11.443 -0.6110  0.1127  0.1528
  603TMC3    C7 8943   2.015   2.157  11.210  0.1957 -0.2741 -0.1916
  603TMC3    C8 8944   2.052   1.789  11.515 -0.8016  0.1418  0.2382
  603TMC3    O1 8945   2.116   2.196  11.266 -0.2431  0.5985 -0.0928
  603TMC3    O2 8946   1.986   1.690  11.545 -0.4338  0.0021  0.0348
  604MPD2     C 8947   2.873   0.551  16.451 -0.0546 -0.6125  0.1934
  604MPD2    C1 8948   2.928   0.670  16.485  0.1063 -0.2662  0.0937
  604MPD2    C2 8949   2.977   0.749  16.378 -0.3582  0.7529  0.6638
  604MPD2    C3 8950   2.969   0.708  16.246  0.1740 -0.0144  0.1033
  604MPD2    C4 8951   2.915   0.581  16.220  0.5152 -0.0800  0.0753
  604MPD2    C5 8952   2.867   0.508  16.322  0.3857 -0.1952  0.8691
  604MPD2     H 8953   3.026   0.844  16.398  2.3505 -0.2822 -1.0538
  604MPD2    H1 8954   2.902   0.540  16.121  1.4674  0.0295 -0.0963
  604MPD2    H2 8955   2.826   0.487  16.525 -0.3050 -0.0234  0.5445
  604MPD2    H3 8956   2.808   0.418  16.310 -0.1849  0.4237 -0.9524
  604MPD2     N 8957   3.039   0.784  16.149 -0.7330 -0.3593 -0.3035
  604MPD2    H5 8958   3.073   0.873  16.185 -0.4862 -0.0896 -1.2191
  604MPD2    N1 8959   2.934   0.715  16.625 -0.0076  0.1076 -0.2709
  604MPD2    H7 8960   2.897   0.651  16.695  1.0063 -1.2840 -1.0168
  605TMC3    C1 8961   2.935   0.872  16.798 -0.4187 -0.8374 -0.1365
  605TMC3    C2 8962   2.986   0.787  16.888  0.0048  0.3046  0.8451
  605TMC3    C3 8963   2.942   0.797  17.015 -0.1360  0.3628  0.4163
  605TMC3    C4 8964   2.855   0.976  16.833  0.3220  0.0039  0.7011
  605TMC3    C5 8965   2.817   0.987  16.961  0.7604  0.1002  0.2154
  605TMC3    C6 8966   2.868   0.904  17.055  0.6381  0.0986 -0.4532
  605TMC3     C 8967   2.955   0.848  16.663  0.0188 -0.5379  0.1257
  605TMC3     O 8968   2.946   0.942  16.584  0.0582  0.3624 -0.1967
  605TMC3     H 8969   3.071   0.726  16.862 -0.6734  0.6154 -2.1363
  605TMC3    H1 8970   2.796   1.032  16.761 -1.3905 -3.1320 -0.3409
  605TMC3    H2 8971   2.840   0.920  17.159 -2.8188  0.5052 -1.4567
  605TMC3    C7 8972   2.679   1.024  16.975 -0.1055  0.6910 -0.2184
  605TMC3    C8 8973   3.029   0.729  17.109  0.6133  0.4985 -0.3150
  605TMC3    O1 8974   2.640   1.126  16.921  0.3208  0.1796  0.3301
  605TMC3    O2 8975   3.132   0.677  17.064 -0.2460  0.2793 -0.3670
  606TMC3    C1 8976   0.009   4.016  17.104 -0.1214 -0.5242 -0.0939
  606TMC3    C2 8977   0.045   3.998  17.234  1.1988 -0.4485  0.3286
  606TMC3    C3 8978   4.685   3.924  17.311 -0.3225  0.2432 -0.5193
  606TMC3    C4 8979   4.625   3.955  17.041  0.1372  0.4905  0.3890
  606TMC3    C5 8980   4.553   3.877  17.126 -0.4036  0.3000  0.5353
  606TMC3    C6 8981   4.576   3.856  17.260  0.8757 -0.0867 -0.2908
  606TMC3     C 8982   0.057   4.127  17.036  0.2556  0.4646 -0.1833
  606TMC3     O 8983   0.101   4.099  16.928  0.1528 -0.2615 -0.3612
  606TMC3     H 8984   0.129   4.054  17.272  1.5624 -0.3805 -0.5844
  606TMC3    H1 8985   4.592   3.969  16.939 -0.8939 -1.8545  0.4153
  606TMC3    H2 8986   4.511   3.791  17.316  0.8608  0.2063  0.0318
  606TMC3    C7 8987   4.425   3.832  17.070 -0.6691 -0.0002 -0.0890
  606TMC3    C8 8988   4.716   3.919  17.458  0.0995 -0.3790 -0.4463
  606TMC3    O1 8989   4.417   3.812  16.949  0.2189  0.2812  0.6334
  606TMC3    O2 8990   0.038   4.021  17.504  0.2362  0.1706 -0.1703
  607MPD2     C 8991   1.058   2.141  11.967 -0.6903 -0.2154  0.2776
  607MPD2    C1 8992   1.109   2.193  12.085 -0.1999 -1.0627 -0.1190
  607MPD2    C2 8993   1.082   2.111  12.200  0.6154 -0.3330 -1.3159
  607MPD2    C3 8994   1.014   1.998  12.208  0.4745  0.6264 -0.9206
  607MPD2    C4 8995   0.979   1.940  12.087 -0.0866  0.1193 -0.3503
  607MPD2    C5 8996   1.001   2.016  11.972 -0.2529 -0.5002 -0.3023
  607MPD2     H 8997   1.105   2.167  12.290 -1.3267  0.6727 -1.4468
  607MPD2    H1 8998   0.929   1.844  12.073 -0.3665  0.3258 -0.7773
  607MPD2    H2 8999   1.078   2.187  11.872  1.6141 -0.3115  0.7301
  607MPD2    H3 9000   0.982   1.971  11.875 -1.3083 -1.9815  0.5961
  607MPD2     N 9001   0.996   1.937  12.333 -0.5815  0.5540 -0.3048
  607MPD2    H5 9002   1.030   1.998  12.407 -1.7842 -0.7520  1.3103
  607MPD2    N1 9003   1.182   2.310  12.097  0.0236  0.2334 -0.8198
  607MPD2    H7 9004   1.204   2.330  12.194 -0.2052  2.3970 -1.2353
  608TMC3    C1 9005   1.304   2.496  12.048 -0.8027  0.0849 -0.1398
  608TMC3    C2 9006   1.326   2.490  12.181  0.1492  0.2046 -0.8695
  608TMC3    C3 9007   1.443   2.529  12.232 -0.4049  0.2110  0.7305
  608TMC3    C4 9008   1.408   2.527  11.967  0.2539  0.0970 -0.0807
  608TMC3    C5 9009   1.527   2.555  12.020  0.6247  0.3372  0.0350
  608TMC3    C6 9010   1.544   2.576  12.154 -0.2817  0.7273  0.1128
  608TMC3     C 9011   1.229   2.389  11.998  0.4559 -0.3028 -0.6625
  608TMC3     O 9012   1.209   2.380  11.877  0.0120 -0.6659  0.3464
  608TMC3     H 9013   1.237   2.478  12.242  0.4501  0.0150 -0.4697
  608TMC3    H1 9014   1.396   2.517  11.860  0.4702 -1.4372  0.0284
  608TMC3    H2 9015   1.636   2.603  12.204 -0.5940 -0.3074  1.2506
  608TMC3    C7 9016   1.622   2.598  11.924  0.2650 -0.0913  0.1370
  608TMC3    C8 9017   1.469   2.524  12.372 -0.0775  0.2692  0.0005
  608TMC3    O1 9018   1.613   2.558  11.810 -0.5802 -0.4716  0.3180
  608TMC3    O2 9019   1.559   2.594  12.419  0.4327  0.4298  0.3465
  609TMC3    C1 9020   0.411   0.150  10.041 -0.0816 -0.0764 -0.7309
  609TMC3    C2 9021   0.495   0.079   9.959 -0.6194 -0.0934  0.0351
  609TMC3    C3 9022   0.624   0.104   9.988 -0.7091 -0.1598  0.2722
  609TMC3    C4 9023   0.448   0.247  10.132 -0.3610 -0.1022 -0.2534
  609TMC3    C5 9024   0.582   0.273  10.149 -0.0081 -0.0909 -0.2615
  609TMC3    C6 9025   0.670   0.204  10.078 -0.5462  0.4099  0.3798
  609TMC3     C 9026   0.273   0.161   9.985 -0.1732 -0.2538  0.5095
  609TMC3     O 9027   0.251   0.070   9.899  0.3281 -0.7916  0.7712
  609TMC3     H 9028   0.473   0.025   9.868  2.0443 -1.1238 -0.0012
  609TMC3    H1 9029   0.376   0.315  10.177  0.0292  0.5009 -0.5424
  609TMC3    H2 9030   0.776   0.209  10.101 -0.4278  0.8224 -0.2697
  609TMC3    C7 9031   0.620   0.392  10.214  0.1949  0.2905  0.4583
  609TMC3    C8 9032   0.728   0.062   9.891  0.2108  0.6307 -0.2821
  609TMC3    O1 9033   0.531   0.460  10.261 -0.1094 -0.4509 -0.0178
  609TMC3    O2 9034   0.831   0.127   9.882  0.3903 -0.1358 -0.8454
  610TMC3    C1 9035   1.878   2.329  12.934 -0.2344 -0.1189 -0.1008
  610TMC3    C2 9036   1.796   2.300  12.831  0.3518 -0.1596  0.0138
  610TMC3    C3 9037   1.776   2.169  12.788  0.2929 -1.0766 -0.4080
  610TMC3    C4 9038   1.934   2.220  12.998 -0.2971  0.2117 -0.0848
  610TMC3    C5 9039   1.909   2.095  12.960  0.1404 -0.6204 -0.3397
  610TMC3    C6 9040   1.834   2.063  12.851  0.2159  0.9039  0.9036
  610TMC3     C 9041   1.838   2.427  13.030 -0.2984  0.4057 -0.2339
  610TMC3     O 9042   1.863   2.395  13.146  1.0195 -0.4226 -0.0998
  610TMC3     H 9043   1.751   2.380  12.775  1.0835 -0.3044 -0.7832
  610TMC3    H1 9044   2.012   2.236  13.071 -0.2371 -1.0888  0.1415
  610TMC3    H2 9045   1.829   1.965  12.805 -0.6905  1.8989 -1.1238
  610TMC3    C7 9046   1.976   1.989  13.029  0.0925 -0.3039  0.0772
  610TMC3    C8 9047   1.719   2.158  12.653 -0.0478  0.5731  0.1487
  610TMC3    O1 9048   2.015   1.897  12.962 -0.2786 -0.2385  0.2562
  610TMC3    O2 9049   1.745   2.250  12.578  0.0980 -0.2210 -0.0363
  611MPD2     C 9050   1.356   2.352  10.003  0.6033 -0.3645 -0.7168
  611MPD2    C1 9051   1.335   2.377  10.137  0.6024  0.3467 -0.1327
  611MPD2    C2 9052   1.438   2.435  10.214 -0.2979 -0.0063  0.1980
  611MPD2    C3 9053   1.558   2.479  10.149 -0.1318  0.3463 -0.2678
  611MPD2    C4 9054   1.569   2.468  10.010 -0.1293  0.3302 -0.1273
  611MPD2    C5 9055   1.471   2.397   9.946 -0.0120 -0.7878 -0.4393
  611MPD2     H 9056   1.424   2.455  10.320 -0.8533  1.6957 -0.2026
  611MPD2    H1 9057   1.660   2.490   9.954  1.2198  0.2739  2.0515
  611MPD2    H2 9058   1.277   2.302   9.949  0.1067 -0.2401 -0.1071
  611MPD2    H3 9059   1.479   2.370   9.842  2.9135  0.1904 -0.4570
  611MPD2     N 9060   1.654   2.552  10.223  0.0197 -0.0961  0.0005
  611MPD2    H5 9061   1.716   2.610  10.166 -1.6979  2.0666  0.3280
  611MPD2    N1 9062   1.214   2.338  10.203 -0.2753  0.2252 -0.2230
  611MPD2    H7 9063   1.143   2.296  10.144 -0.8776  0.1914  0.5208
  612TMC3    C1 9064   1.756   2.653  10.405 -0.0783 -0.1453  0.3096
  612TMC3    C2 9065   1.830   2.631  10.522 -0.4797  0.2400  0.2492
  612TMC3    C3 9066   1.873   2.736  10.594  0.2676  0.2495  0.7041
  612TMC3    C4 9067   1.732   2.778  10.356 -0.1320 -0.4588  0.0940
  612TMC3    C5 9068   1.784   2.878  10.437 -0.7280  0.1799 -0.1539
  612TMC3    C6 9069   1.862   2.863  10.549  0.4863 -0.4833  0.0817
  612TMC3     C 9070   1.662   2.549  10.364 -0.0363  0.1301 -0.0891
  612TMC3     O 9071   1.628   2.458  10.440  0.4391 -0.0408 -0.0482
  612TMC3     H 9072   1.828   2.529  10.560 -1.4785  0.4322  0.7331
  612TMC3    H1 9073   1.668   2.804  10.272 -3.1118 -0.7232  2.3118
  612TMC3    H2 9074   1.913   2.940  10.606  0.1764  0.0049 -0.3083
  612TMC3    C7 9075   1.764   3.011  10.389 -0.1231 -0.8018 -0.7259
  612TMC3    C8 9076   1.936   2.705  10.720  0.0147 -0.1452 -0.3877
  612TMC3    O1 9077   1.662   3.025  10.328  0.2333  0.8299  0.5291
  612TMC3    O2 9078   1.984   2.798  10.780  0.0434 -0.5486 -0.2198
  613MPD2     C 9079   0.413   4.264  16.450  0.5573 -0.1937  0.5359
  613MPD2    C1 9080   0.310   4.318  16.369  0.4080 -0.2047 -0.4399
  613MPD2    C2 9081   0.175   4.279  16.384 -0.7249 -0.3569  0.4378
  613MPD2    C3 9082   0.147   4.187  16.482  0.1842 -0.2054 -0.1346
  613MPD2    C4 9083   0.242   4.144  16.576  0.0758  0.1196 -0.1080
  613MPD2    C5 9084   0.372   4.194  16.563  0.5783  0.6059 -0.2166
  613MPD2     H 9085   0.097   4.306  16.314 -1.1356 -1.3796  0.5107
  613MPD2    H1 9086   0.212   4.072  16.650 -0.3390  0.6196  0.2115
  613MPD2    H2 9087   0.517   4.281  16.423  0.1410  1.1385 -0.2676
  613MPD2    H3 9088   0.449   4.143  16.620 -1.4166  0.0544  1.9755
  613MPD2     N 9089   0.020   4.113  16.467 -0.3445 -0.2862  0.7330
  613MPD2    H5 9090   0.008   4.026  16.518  0.5861 -1.1330 -0.4795
  613MPD2    N1 9091   0.357   4.403  16.265 -0.4098  0.2067 -1.1672
  613MPD2    H7 9092   0.453   4.419  16.239  0.3625 -0.6705  1.1555
  614TMC3    C1 9093   0.349   4.474  16.048  0.1689  0.1095 -0.1070
  614TMC3    C2 9094   0.428   4.370  16.012 -0.3546 -0.4820  0.3543
  614TMC3    C3 9095   0.417   4.319  15.884 -0.7964 -0.4437 -0.0127
  614TMC3    C4 9096   0.284   4.545  15.952 -0.1823  0.4196 -0.4447
  614TMC3    C5 9097   0.282   4.500  15.819 -0.1822  0.0065  0.4906
  614TMC3    C6 9098   0.340   4.383  15.785 -0.5417 -0.7238 -0.3064
  614TMC3     C 9099   0.283   4.473  16.181 -0.2830  0.0639  0.1230
  614TMC3     O 9100   0.162   4.501  16.177  0.1845  0.7629 -0.0508
  614TMC3     H 9101   0.480   4.306  16.083  1.2945  1.1908  0.6191
  614TMC3    H1 9102   0.208   4.619  15.975 -2.1689 -1.1165 -2.0981
  614TMC3    H2 9103   0.336   4.339  15.686 -1.7236  2.1068 -1.5045
  614TMC3    C7 9104   0.188   4.560  15.733  0.1779 -0.5345 -0.4031
  614TMC3    C8 9105   0.395   4.172  15.889  0.0257 -0.6436 -0.1224
  614TMC3    O1 9106   0.146   4.673  15.752 -0.5653 -0.1540 -0.3842
  614TMC3    O2 9107   0.389   4.127  16.005  0.8010 -0.0512  0.4647
  615MPD2     C 9108   4.672   0.975  16.522 -0.4993 -0.4923  0.3040
  615MPD2    C1 9109   4.537   1.016  16.524 -0.8685  0.2772 -0.9941
  615MPD2    C2 9110   4.453   0.967  16.422 -0.3516 -0.3111  0.1538
  615MPD2    C3 9111   4.498   0.898  16.312  0.0072 -0.0160  0.2367
  615MPD2    C4 9112   4.635   0.875  16.305  0.2404  0.5375  0.1746
  615MPD2    C5 9113   4.713   0.899  16.413  0.3625 -0.0631  0.3780
  615MPD2     H 9114   4.354   1.007  16.442 -1.3192 -1.0361 -3.2112
  615MPD2    H1 9115   4.672   0.832  16.213  0.1657 -0.2534  0.5187
  615MPD2    H2 9116   0.017   1.011  16.596  0.7651  3.3828 -2.7672
  615MPD2    H3 9117   0.095   0.889  16.404  0.3443  1.5797 -1.7133
  615MPD2     N 9118   4.410   0.841  16.209 -0.2505  0.2923 -0.2499
  615MPD2    H5 9119   4.448   0.820  16.117 -0.2459  0.3106 -0.2521
  615MPD2    N1 9120   4.486   1.100  16.625 -0.1323 -0.7355 -0.0775
  615MPD2    H7 9121   4.384   1.101  16.620 -0.2452  1.5281  2.9098
  616TMC3    C1 9122   4.484   1.225  16.824 -0.3785  0.5414 -0.6192
  616TMC3    C2 9123   4.566   1.304  16.903 -0.0674 -0.2977 -0.5013
  616TMC3    C3 9124   4.520   1.331  17.030 -0.2573 -0.5480 -0.3707
  616TMC3    C4 9125   4.367   1.165  16.875  0.0573 -0.6680 -0.1101
  616TMC3    C5 9126   4.326   1.195  17.001 -0.8066 -0.1184  0.0557
  616TMC3    C6 9127   4.402   1.283  17.080 -0.4900 -0.9020  0.5225
  616TMC3     C 9128   4.560   1.161  16.716 -0.0826 -0.6271 -0.2728
  616TMC3     O 9129   4.683   1.164  16.726 -0.4665  0.8864  0.1112
  616TMC3     H 9130   4.663   1.326  16.860 -0.3137 -1.2616 -1.5471
  616TMC3    H1 9131   4.314   1.086  16.823 -1.0450 -0.1586  0.2455
  616TMC3    H2 9132   4.358   1.315  17.174 -1.4949 -0.3775 -0.1222
  616TMC3    C7 9133   4.215   1.129  17.066  0.3770 -0.3370  0.0754
  616TMC3    C8 9134   4.617   1.397  17.118  0.4828  0.5199  0.4443
  616TMC3    O1 9135   4.139   1.202  17.134 -0.0364 -0.1964  0.7224
  616TMC3    O2 9136   4.567   1.422  17.225  0.0906 -0.8025  0.5557
  617MPD2     C 9137   2.249   3.944  13.440  0.2108  0.0291 -0.3783
  617MPD2    C1 9138   2.315   3.945  13.564  0.6257  0.8601  0.3952
  617MPD2    C2 9139   2.281   3.853  13.661  0.3484 -0.4515 -0.8248
  617MPD2    C3 9140   2.169   3.775  13.641 -0.1117  0.4129  0.6733
  617MPD2    C4 9141   2.101   3.779  13.520  0.2125  0.5058  0.3818
  617MPD2    C5 9142   2.133   3.871  13.429  1.0207 -0.1963  0.8795
  617MPD2     H 9143   2.332   3.837  13.755  0.3875 -1.9581 -1.0873
  617MPD2    H1 9144   2.016   3.714  13.503  0.0996 -0.1531  3.4628
  617MPD2    H2 9145   2.275   4.026  13.375 -0.8485  1.1611  0.6315
  617MPD2    H3 9146   2.077   3.877  13.336  0.1947  0.5987  1.4371
  617MPD2     N 9147   2.127   3.669  13.720 -0.1714  0.0628  0.1144
  617MPD2    H5 9148   2.059   3.602  13.684 -0.2803  0.6805 -0.8310
  617MPD2    N1 9149   2.416   4.042  13.577  0.6770  0.2725  0.1495
  617MPD2    H7 9150   2.446   4.090  13.493  0.0757 -1.6698 -1.1863
  618TMC3    C1 9151   2.630   4.127  13.637  0.0814  0.1680 -0.1528
  618TMC3    C2 9152   2.716   4.138  13.743  0.0928  0.8704 -0.5979
  618TMC3    C3 9153   2.846   4.167  13.711 -0.5966  0.3622 -0.0316
  618TMC3    C4 9154   2.664   4.122  13.505  0.1072  0.8168  0.3628
  618TMC3    C5 9155   2.797   4.151  13.488  0.5902  0.0821 -0.6773
  618TMC3    C6 9156   2.891   4.175  13.579  0.3047 -0.4486  0.2256
  618TMC3     C 9157   2.511   4.045  13.672  0.0657  0.3623 -0.0757
  618TMC3     O 9158   2.508   3.997  13.783 -0.3666 -0.0906 -0.3167
  618TMC3     H 9159   2.681   4.113  13.842  0.8717 -1.3103 -0.8773
  618TMC3    H1 9160   2.603   4.067  13.433  1.1602 -0.3934  0.3953
  618TMC3    H2 9161   2.992   4.212  13.564 -0.1495 -0.2735 -2.3650
  618TMC3    C7 9162   2.830   4.190  13.354 -0.4456  0.3986 -0.1915
  618TMC3    C8 9163   2.937   4.108  13.809 -0.4876 -0.3646 -0.0428
  618TMC3    O1 9164   2.948   4.216  13.327  0.2203  0.4212  0.6062
  618TMC3    O2 9165   2.909   4.115  13.926 -0.3206  0.1027 -0.3284
  619MPD2     C 9166   4.055   0.030  13.518  0.1345  0.0989  0.0717
  619MPD2    C1 9167   4.012   0.117  13.418  1.3376  0.3658 -0.6529
  619MPD2    C2 9168   3.885   0.170  13.425 -0.5162  0.3132  0.1207
  619MPD2    C3 9169   3.797   0.127  13.520 -0.5927  0.4250  1.3184
  619MPD2    C4 9170   3.841   0.037  13.608 -0.2655 -0.6469 -0.5869
  619MPD2    C5 9171   3.966   4.707  13.604  0.2745 -0.2548  0.1730
  619MPD2     H 9172   3.858   0.243  13.351 -2.2588  1.4795  1.9236
  619MPD2    H1 9173   3.773   0.006  13.687  0.6641  2.7642  1.5283
  619MPD2    H2 9174   4.157   4.717  13.520  1.7275  4.2517 -0.9860
  619MPD2    H3 9175   4.000   4.641  13.683 -1.0857 -1.1730 -0.0273
  619MPD2     N 9176   3.660   0.171  13.531 -0.5712 -0.8401  0.5448
  619MPD2    H5 9177   3.605   0.135  13.609 -0.5900 -1.2100  0.3621
  619MPD2    N1 9178   4.087   0.160  13.304  0.0980 -0.0766 -0.0361
  619MPD2    H7 9179   4.034   0.221  13.243  1.8192  3.0050  1.5495
  620TMC3    C1 9180   4.251   0.235  13.177 -0.0067 -0.1346  0.4326
  620TMC3    C2 9181   4.156   0.252  13.081 -0.6714  0.5379  0.2903
  620TMC3    C3 9182   4.129   0.373  13.030 -0.4178 -0.1776 -0.0727
  620TMC3    C4 9183   4.323   0.348  13.217 -0.5079 -0.7010 -0.1287
  620TMC3    C5 9184   4.286   0.470  13.175  1.1562 -0.7849  0.5580
  620TMC3    C6 9185   4.193   0.483  13.082  0.3235  0.0728 -0.2222
  620TMC3     C 9186   4.219   0.139  13.286 -0.2008 -0.4981  0.0426
  620TMC3     O 9187   4.303   0.097  13.365  0.0264 -0.1357  0.0870
  620TMC3     H 9188   4.096   0.168  13.047 -0.0697  0.5275 -0.7332
  620TMC3    H1 9189   4.385   0.340  13.305  0.9824 -1.5528 -1.2662
  620TMC3    H2 9190   4.153   0.580  13.057 -2.7481 -1.7495 -2.4347
  620TMC3    C7 9191   4.321   0.601  13.235 -0.0968  0.5058 -0.3805
  620TMC3    C8 9192   3.988   0.386  13.035  0.1542  0.4924  0.0961
  620TMC3    O1 9193   4.317   0.698  13.161  0.4411  0.4867  0.2764
  620TMC3    O2 9194   3.928   0.302  13.095 -0.1944  0.5002 -0.0260
  621MPD2     C 9195   3.736   0.631  10.273  0.1722 -0.2839 -0.7305
  621MPD2    C1 9196   3.862   0.611  10.327  0.1841  0.0580  0.3506
  621MPD2    C2 9197   3.971   0.648  10.248  0.6615  0.5242 -0.1408
  621MPD2    C3 9198   3.944   0.714  10.130  0.0956 -0.8377 -0.1435
  621MPD2    C4 9199   3.816   0.733  10.084  0.2323 -0.1378  0.7827
  621MPD2    C5 9200   3.713   0.698  10.160  0.9345  0.4593  0.1090
  621MPD2     H 9201   4.069   0.623  10.287  0.9370  2.2102  0.2549
  621MPD2    H1 9202   3.792   0.774   9.987  0.8286  1.9425  1.4991
  621MPD2    H2 9203   3.643   0.602  10.320 -0.7408  0.4244 -2.0930
  621MPD2    H3 9204   3.610   0.701  10.126  0.6990  1.3630  0.9170
  621MPD2     N 9205   4.055   0.763  10.055 -0.3200 -0.1763  0.7274
  621MPD2    H5 9206   4.143   0.773  10.105 -1.9081  0.2583  3.4640
  621MPD2    N1 9207   3.882   0.532  10.439  0.0371  0.3776  0.0205
  621MPD2    H7 9208   3.980   0.506  10.452 -0.6590 -1.3485  1.9103
  622TMC3    C1 9209   3.827   0.360  10.603  0.0159  0.2645 -0.0745
  622TMC3    C2 9210   3.730   0.272  10.630  0.2968  0.5043 -0.7365
  622TMC3    C3 9211   3.767   0.142  10.649 -0.3066  0.2011  0.7649
  622TMC3    C4 9212   3.956   0.314  10.599  0.1429  0.0876  0.1594
  622TMC3    C5 9213   3.993   0.183  10.618 -0.0527  0.2692 -0.1505
  622TMC3    C6 9214   3.893   0.094  10.644 -0.4258  0.3133  0.4895
  622TMC3     C 9215   3.783   0.467  10.508 -0.5482 -0.7402 -0.1221
  622TMC3     O 9216   3.661   0.480  10.493 -0.0731 -0.6774 -0.2923
  622TMC3     H 9217   3.625   0.301  10.633  0.6581  1.8362 -1.0153
  622TMC3    H1 9218   4.028   0.396  10.602 -1.8721  1.9511 -1.7003
  622TMC3    H2 9219   3.906   4.712  10.648  0.7608  0.3900 -1.2951
  622TMC3    C7 9220   4.127   0.154  10.587  0.0660  0.0492 -0.0062
  622TMC3    C8 9221   3.661   0.043  10.623 -0.2715  0.3038 -0.1116
  622TMC3    O1 9222   4.205   0.244  10.603 -0.1388 -0.2378  0.3533
  622TMC3    O2 9223   3.666   4.657  10.673 -0.1510  0.0101 -0.1368
  623MPD2     C 9224   3.289   0.636  16.656  0.0255  1.1044  0.0300
  623MPD2    C1 9225   3.328   0.707  16.772 -0.1485  0.5274 -0.1888
  623MPD2    C2 9226   3.404   0.633  16.866 -0.4215  0.7815 -0.6736
  623MPD2    C3 9227   3.426   0.493  16.850 -0.2057  0.1067 -0.1271
  623MPD2    C4 9228   3.360   0.424  16.749  0.2155 -0.0875 -0.1465
  623MPD2    C5 9229   3.298   0.498  16.647 -0.4226 -0.7100 -0.5665
  623MPD2     H 9230   3.461   0.682  16.944 -0.8918  0.1714  0.0468
  623MPD2    H1 9231   3.373   0.317  16.734  1.6423 -0.2623  2.3856
  623MPD2    H2 9232   3.234   0.674  16.571 -1.9861 -0.4127  0.6289
  623MPD2    H3 9233   3.264   0.455  16.554  0.3210  0.1343 -1.2223
  623MPD2     N 9234   3.504   0.433  16.952  0.4119 -0.1484  0.0455
  623MPD2    H5 9235   3.538   0.496  17.024 -0.8176  1.5526 -0.8356
  623MPD2    N1 9236   3.309   0.847  16.781 -0.3566  0.1694 -0.0365
  623MPD2    H7 9237   3.284   0.884  16.690 -0.1388 -0.1214 -0.2140
  624TMC3    C1 9238   3.690   0.392  17.244 -0.7744  0.2120  0.2116
  624TMC3    C2 9239   3.594   0.390  17.340  0.0083 -0.5736  0.0792
  624TMC3    C3 9240   3.482   0.319  17.306  0.2952  0.4589  0.0250
  624TMC3    C4 9241   3.676   0.347  17.118 -0.0852  0.2375  0.3798
  624TMC3    C5 9242   3.573   0.265  17.096  0.3515 -0.8190 -0.4887
  624TMC3    C6 9243   3.470   0.248  17.185  0.0066 -0.1908 -0.2069
  624TMC3     C 9244   3.825   0.427  17.293 -0.6009  1.1850 -0.7743
  624TMC3     O 9245   3.841   0.487  17.398  0.3018 -0.0562 -0.0648
  624TMC3     H 9246   3.599   0.431  17.440  1.7629 -1.6269  0.4203
  624TMC3    H1 9247   3.748   0.355  17.038 -0.4358  0.2188  0.0615
  624TMC3    H2 9248   3.390   0.178  17.163  0.2545 -0.7460  0.6617
  624TMC3    C7 9249   3.503   0.300  16.971  0.1697  0.4191 -0.3210
  624TMC3    C8 9250   3.354   0.374  17.341 -0.0309  0.2815 -0.6194
  624TMC3    O1 9251   3.448   0.206  16.913 -0.1793 -0.5626 -0.2036
  624TMC3    O2 9252   3.259   0.346  17.275  0.5468 -0.2899  0.2588
  625MPD2     C 9253   3.472   2.657   1.333  0.5535 -0.2476  0.4871
  625MPD2    C1 9254   3.518   2.665   1.199  0.2786 -0.1867  0.6885
  625MPD2    C2 9255   3.650   2.626   1.176 -0.2130 -0.0242  0.3402
  625MPD2    C3 9256   3.711   2.551   1.277 -0.1495  0.5482  0.1627
  625MPD2    C4 9257   3.665   2.544   1.402 -0.1774  0.5744 -0.6210
  625MPD2    C5 9258   3.547   2.604   1.434 -0.9957  0.8085 -0.7137
  625MPD2     H 9259   3.687   2.630   1.074  1.1571  1.1135  0.8807
  625MPD2    H1 9260   3.711   2.476   1.473  3.7815  0.4226 -3.3246
  625MPD2    H2 9261   3.377   2.695   1.370  1.3000  0.8605  1.3086
  625MPD2    H3 9262   3.501   2.596   1.532  0.5921 -0.9164 -0.1140
  625MPD2     N 9263   3.834   2.489   1.238 -0.0399 -0.3754 -0.1111
  625MPD2    H5 9264   3.872   2.499   1.145  0.8291 -1.7844  0.0987
  625MPD2    N1 9265   3.438   2.704   1.083 -0.6854  0.3089 -0.4985
  625MPD2    H7 9266   3.487   2.723   0.996  1.8134 -0.0989  0.8298
  626TMC3    C1 9267   3.234   2.772   0.967  0.0904  0.4926 -0.1427
  626TMC3    C2 9268   3.288   2.754   0.837  0.0554 -1.0676 -0.4713
  626TMC3    C3 9269   3.201   2.778   0.736 -0.6777 -0.7229 -0.2407
  626TMC3    C4 9270   3.099   2.803   0.993 -0.1570 -0.3004 -0.5325
  626TMC3    C5 9271   3.017   2.807   0.882  0.0805  0.2060  0.9303
  626TMC3    C6 9272   3.064   2.801   0.752  0.3198 -0.0071  0.1817
  626TMC3     C 9273   3.307   2.741   1.088  0.0694  0.3441 -0.0530
  626TMC3     O 9274   3.238   2.736   1.187 -0.3609  0.2148 -0.0855
  626TMC3     H 9275   3.392   2.726   0.822  0.8113  1.6129 -0.3061
  626TMC3    H1 9276   3.055   2.819   1.091 -0.7518 -1.6527 -0.5745
  626TMC3    H2 9277   2.997   2.816   0.667 -1.7373 -0.7836  1.6730
  626TMC3    C7 9278   2.869   2.806   0.912 -0.1632 -0.2705 -0.7534
  626TMC3    C8 9279   3.258   2.791   0.606  0.0228  0.3473 -0.1008
  626TMC3    O1 9280   2.843   2.818   1.027  0.4386  0.0133 -0.1893
  626TMC3    O2 9281   3.184   2.808   0.510 -0.3298 -0.0780  0.1804
  627MPD2     C 9282   2.523   2.836  14.426 -0.5105  0.3128  0.8964
  627MPD2    C1 9283   2.475   2.832  14.552  1.0010  0.2748  0.5721
  627MPD2    C2 9284   2.379   2.738  14.582 -0.2921 -0.3992 -0.2279
  627MPD2    C3 9285   2.324   2.663  14.483 -0.1590 -0.3655 -0.7213
  627MPD2    C4 9286   2.361   2.679  14.346  0.2548  0.6679 -0.2403
  627MPD2    C5 9287   2.458   2.768  14.324 -0.5977  0.0811  0.9693
  627MPD2     H 9288   2.353   2.716  14.685 -1.7884  0.1620 -0.4858
  627MPD2    H1 9289   2.315   2.631  14.260 -1.4762  1.3069  0.3187
  627MPD2    H2 9290   2.608   2.889  14.384  1.5675 -2.2981  1.8878
  627MPD2    H3 9291   2.488   2.784  14.221 -0.8327 -1.3890  0.6734
  627MPD2     N 9292   2.238   2.555  14.525 -0.0002  0.0497  0.5371
  627MPD2    H5 9293   2.209   2.554  14.622  0.6740  0.8714  0.7518
  627MPD2    N1 9294   2.525   2.910  14.662  0.4061  0.0807  0.0716
  627MPD2    H7 9295   2.490   2.897  14.756  1.0614  1.5311  0.5030
  628TMC3    C1 9296   2.608   3.109  14.748  0.1139 -0.4445 -0.6162
  628TMC3    C2 9297   2.631   3.056  14.870  0.2605 -0.4862 -0.7025
  628TMC3    C3 9298   2.549   3.094  14.976 -1.3077  0.6912 -0.8527
  628TMC3    C4 9299   2.513   3.202  14.724 -0.2584 -0.3319 -0.4597
  628TMC3    C5 9300   2.419   3.223  14.824 -0.0680 -0.5407  0.8399
  628TMC3    C6 9301   2.441   3.177  14.953 -0.2641  0.0049  0.2652
  628TMC3     C 9302   2.605   3.021  14.641  0.0623 -0.5418  0.4264
  628TMC3     O 9303   2.642   3.070  14.532 -0.0495 -0.1189  0.0760
  628TMC3     H 9304   2.706   2.977  14.875  0.2200 -0.7556 -4.4821
  628TMC3    H1 9305   2.512   3.241  14.622 -0.2292 -0.7196 -0.6064
  628TMC3    H2 9306   2.369   3.195  15.032 -0.1212 -0.2697  0.4595
  628TMC3    C7 9307   2.310   3.323  14.808 -0.3373 -0.0873  0.6426
  628TMC3    C8 9308   2.524   2.991  15.080 -0.5906  0.2167 -0.7607
  628TMC3    O1 9309   2.237   3.348  14.902 -0.1406 -0.3468  0.6381
  628TMC3    O2 9310   2.420   2.996  15.142 -0.4294 -0.0007  0.7324
  629MPD2     C 9311   0.368   1.485  17.254  0.2330  0.3602 -0.1390
  629MPD2    C1 9312   0.373   1.473  17.119 -0.8861 -0.1517 -0.1004
  629MPD2    C2 9313   0.254   1.446  17.062 -0.7731 -0.2350  0.5356
  629MPD2    C3 9314   0.140   1.433  17.137  0.0160 -0.3605 -0.0378
  629MPD2    C4 9315   0.132   1.448  17.275  0.1480  0.2981 -0.2910
  629MPD2    C5 9316   0.251   1.467  17.331 -0.1541  0.2126  0.4961
  629MPD2     H 9317   0.256   1.418  16.958 -1.3708  0.8294  0.2338
  629MPD2    H1 9318   0.036   1.457  17.323  0.5512 -0.5360  0.6654
  629MPD2    H2 9319   0.459   1.502  17.310  1.2790 -2.6958 -0.9306
  629MPD2    H3 9320   0.242   1.482  17.438 -1.6684 -1.0424  0.5451
  629MPD2     N 9321   0.018   1.408  17.068  0.2618 -0.0000  0.4198
  629MPD2    H5 9322   0.022   1.396  16.968  0.2142 -4.0721  0.8711
  629MPD2    N1 9323   0.499   1.467  17.043 -1.3581 -0.4856  0.4597
  629MPD2    H7 9324   0.584   1.491  17.093 -0.7434 -1.0133 -0.3328
  630TMC3    C1 9325   0.644   1.406  16.866  0.0862 -0.1786  0.4822
  630TMC3    C2 9326   0.700   1.451  16.753  0.0769  0.0789 -0.4098
  630TMC3    C3 9327   0.812   1.393  16.702  0.1400  0.3671 -0.2962
  630TMC3    C4 9328   0.696   1.308  16.941 -0.5131 -1.2568  0.5467
  630TMC3    C5 9329   0.817   1.267  16.898  0.1740 -0.0229  0.2646
  630TMC3    C6 9330   0.871   1.294  16.779  0.0878  0.4242  0.5070
  630TMC3     C 9331   0.516   1.467  16.908  0.5157  0.1530  0.3988
  630TMC3     O 9332   0.425   1.479  16.828 -0.4257 -0.7175  0.2759
  630TMC3     H 9333   0.651   1.537  16.709  1.5198  1.7669  1.3161
  630TMC3    H1 9334   0.668   1.291  17.044  0.4987  0.3301  1.0834
  630TMC3    H2 9335   0.959   1.238  16.750  0.8011  0.4825  2.6062
  630TMC3    C7 9336   0.907   1.252  17.002 -1.0998  0.1429  0.1171
  630TMC3    C8 9337   0.915   1.475  16.646  0.9064  0.2275 -1.0731
  630TMC3    O1 9338   0.865   1.200  17.104  0.2356 -0.2695  0.4880
  630TMC3    O2 9339   1.027   1.454  16.691 -0.4785  0.4163  0.3092
  631MPD2     C 9340   3.438   1.012  16.049  0.7989  0.0615 -0.3980
  631MPD2    C1 9341   3.534   1.077  15.971 -0.3899  0.5701 -0.3869
  631MPD2    C2 9342   3.642   0.998  15.922 -0.0266  0.2636  0.1939
  631MPD2    C3 9343   3.671   0.884  15.994  0.1385 -0.1445 -0.2485
  631MPD2    C4 9344   3.593   0.848  16.103  0.9343  0.1240  0.1368
  631MPD2    C5 9345   3.472   0.911  16.128  0.5997  0.0550 -0.2644
  631MPD2     H 9346   3.726   1.036  15.864 -1.1957  2.3139 -0.1430
  631MPD2    H1 9347   3.616   0.760  16.162 -1.0631 -0.9025 -0.5968
  631MPD2    H2 9348   3.343   1.061  16.066  0.7881 -0.7907  1.9346
  631MPD2    H3 9349   3.405   0.862  16.198 -0.1575 -0.5996 -1.4505
  631MPD2     N 9350   3.798   0.830  15.977  0.1832  0.1183 -0.0112
  631MPD2    H5 9351   3.855   0.883  15.912 -2.1667  1.7714 -0.7009
  631MPD2    N1 9352   3.490   1.198  15.905 -0.0679 -0.7011 -0.0883
  631MPD2    H7 9353   3.399   1.238  15.924  0.5057  1.4876 -2.0675
  632TMC3    C1 9354   3.514   1.406  15.793 -0.4706 -0.2548  0.1913
  632TMC3    C2 9355   3.385   1.443  15.798  0.9193  0.4419  0.2110
  632TMC3    C3 9356   3.332   1.553  15.730 -0.7459  0.1822 -0.0364
  632TMC3    C4 9357   3.599   1.490  15.729 -0.3176 -0.3000  0.4932
  632TMC3    C5 9358   3.548   1.597  15.661  0.5213 -0.3671  0.5212
  632TMC3    C6 9359   3.415   1.635  15.658 -0.6553  0.6764  0.0016
  632TMC3     C 9360   3.572   1.276  15.825 -0.9639  0.6424 -0.5482
  632TMC3     O 9361   3.689   1.253  15.812  0.6961  0.5331 -0.5297
  632TMC3     H 9362   3.304   1.385  15.842  1.6025  0.4482  1.4845
  632TMC3    H1 9363   3.701   1.460  15.707 -0.4928 -0.6541  0.1654
  632TMC3    H2 9364   3.384   1.721  15.600 -0.8073  0.6412  0.0299
  632TMC3    C7 9365   3.626   1.659  15.558 -0.6850  0.0864 -0.2074
  632TMC3    C8 9366   3.203   1.600  15.768 -0.1219  0.0703 -0.0647
  632TMC3    O1 9367   3.572   1.719  15.467  0.0917 -0.1700  0.8902
  632TMC3    O2 9368   3.155   1.560  15.877  0.6517  0.2046  0.6868
  633MPD2     C 9369   4.099   4.114  17.602 -0.2324  0.4207 -0.1308
  633MPD2    C1 9370   3.990   4.033  17.561 -0.0897 -0.2391 -0.2351
  633MPD2    C2 9371   3.925   3.954  17.655  0.0377 -0.0350 -0.1399
  633MPD2    C3 9372   3.968   3.956   0.084 -0.2786  0.1963  0.4184
  633MPD2    C4 9373   4.070   4.035   0.122 -0.0291 -0.3255  0.2676
  633MPD2    C5 9374   4.139   4.108   0.030 -0.3617 -0.2849  0.3980
  633MPD2     H 9375   3.829   3.912  17.629  0.1072  0.2257 -0.8203
  633MPD2    H1 9376   4.094   4.050   0.227  0.6539 -0.7949  0.1758
  633MPD2    H2 9377   4.160   4.171  17.532  2.4173 -3.0273 -0.6782
  633MPD2    H3 9378   4.227   4.159   0.067 -1.5893  0.0892  2.8104
  633MPD2     N 9379   3.901   3.896   0.193  0.1477 -0.4163  0.4278
  633MPD2    H5 9380   3.917   3.937   0.285 -2.0351 -1.3741  1.2317
  633MPD2    N1 9381   3.930   4.032  17.430  0.1908  0.0061 -0.0115
  633MPD2    H7 9382   3.847   3.976  17.420  2.0927 -2.5582 -1.4867
  634TMC3    C1 9383   3.903   4.091  17.204  0.4897 -0.3520  0.2388
  634TMC3    C2 9384   3.867   3.966  17.158  0.2133  0.0708  0.4977
  634TMC3    C3 9385   3.846   3.953  17.027 -0.0024  0.5434 -0.1241
  634TMC3    C4 9386   3.918   4.194  17.118 -0.5121  0.4231  0.2168
  634TMC3    C5 9387   3.889   4.175  16.981  0.5033  0.1840 -0.0425
  634TMC3    C6 9388   3.850   4.052  16.933  0.1661 -0.1737  0.0461
  634TMC3     C 9389   3.982   4.109  17.328  0.4881 -0.0995  0.0262
  634TMC3     O 9390   4.068   4.193  17.330 -0.1153 -0.4022 -0.3995
  634TMC3     H 9391   3.878   3.882  17.224 -0.8131 -1.2470 -1.0143
  634TMC3    H1 9392   3.924   4.293  17.162  0.1616  1.4369 -2.1638
  634TMC3    H2 9393   3.826   4.036  16.828  1.1135  0.7857 -0.3228
  634TMC3    C7 9394   3.862   4.295  16.900 -0.4783  0.6141 -0.9534
  634TMC3    C8 9395   3.794   3.831  16.988  0.2215 -0.3339 -0.6745
  634TMC3    O1 9396   3.769   4.291  16.822 -0.3145  0.6086  0.2341
  634TMC3    O2 9397   3.704   3.779  17.053 -0.1074  0.0737  0.1231
  635TMC3    C1 9398   4.515   0.198   0.142  0.4818  0.1008 -0.6250
  635TMC3    C2 9399   4.607   0.197   0.040  0.3022  0.3351 -0.3784
  635TMC3    C3 9400   4.643   0.074  17.697  0.0093  0.2117  0.5442
  635TMC3    C4 9401   4.456   0.087   0.195  0.1994 -0.5446 -0.4139
  635TMC3    C5 9402   4.505   4.693   0.152  0.5854  0.3788  0.5331
  635TMC3    C6 9403   4.603   4.686   0.053  0.2414 -0.6079  0.5236
  635TMC3     C 9404   4.464   0.321   0.185  0.1664 -0.1945 -0.1426
  635TMC3     O 9405   4.436   0.331   0.302  0.3940 -0.3853  0.4025
  635TMC3     H 9406   4.639   0.292  17.701 -1.2550  0.6102 -0.9303
  635TMC3    H1 9407   4.374   0.103   0.265 -0.2489 -0.1425 -1.0334
  635TMC3    H2 9408   4.652   4.590   0.044  0.2536 -0.6638  1.1273
  635TMC3    C7 9409   4.450   4.565   0.194 -0.1620  0.3019 -0.7077
  635TMC3    C8 9410   0.022   0.069  17.595  0.1217 -0.7563  0.6491
  635TMC3    O1 9411   4.487   4.467   0.137 -0.7265 -0.2129  0.0446
  635TMC3    O2 9412   0.072   0.173  17.566  0.0097  0.1969 -0.5149
  636MPD2     C 9413   4.470   4.598  15.747  0.0464  0.4910  0.2664
  636MPD2    C1 9414   4.436   4.618  15.879  0.3691 -0.1986  0.4388
  636MPD2    C2 9415   4.403   4.513  15.964  0.0420 -0.6262  0.2047
  636MPD2    C3 9416   4.419   4.385  15.917 -0.2161 -0.4047 -0.2287
  636MPD2    C4 9417   4.433   4.365  15.781  0.2249  0.2563  0.4867
  636MPD2    C5 9418   4.461   4.471  15.696  0.0285 -0.2030 -0.5421
  636MPD2     H 9419   4.366   4.526  16.065 -0.2556  1.6593 -0.2137
  636MPD2    H1 9420   4.448   4.264  15.744 -1.4666  0.8334 -1.8044
  636MPD2    H2 9421   4.500   4.680  15.683 -0.0487  0.6618  0.4424
  636MPD2    H3 9422   4.484   4.463  15.590 -2.1048 -0.1850 -0.9996
  636MPD2     N 9423   4.427   4.280  16.013  0.9988 -0.3162  0.1160
  636MPD2    H5 9424   4.423   4.304  16.111  3.0507 -0.6409  0.2848
  636MPD2    N1 9425   4.425   0.021  15.938 -0.1122  0.4962 -0.2141
  636MPD2    H7 9426   4.412   0.020  16.039  0.9118 -1.4450 -0.1033
  637TMC3    C1 9427   4.475   4.064  16.104 -0.2048  0.5716  0.5273
  637TMC3    C2 9428   4.481   4.117  16.227  0.4754 -0.2137  0.6716
  637TMC3    C3 9429   4.566   4.056  16.323 -0.6513  0.2489  0.2095
  637TMC3    C4 9430   4.542   3.944  16.069 -0.4474  0.4982 -0.8763
  637TMC3    C5 9431   4.638   3.898  16.160 -0.4498 -0.6817 -0.3018
  637TMC3    C6 9432   4.650   3.958  16.279 -0.6730 -0.2100  0.2337
  637TMC3     C 9433   4.433   4.147  15.986  0.6573 -0.7791 -0.4536
  637TMC3     O 9434   4.431   4.090  15.873 -0.0450 -0.1230 -0.2699
  637TMC3     H 9435   4.398   4.184  16.246 -0.3547 -0.9175 -0.4831
  637TMC3    H1 9436   4.541   3.914  15.965 -1.8101 -0.2955 -0.6324
  637TMC3    H2 9437   4.710   3.904  16.352  0.4629  0.5941 -0.0998
  637TMC3    C7 9438   0.041   3.861  16.109  0.3379  0.0591 -0.4509
  637TMC3    C8 9439   4.638   4.152  16.396 -0.2787  0.0658 -0.6355
  637TMC3    O1 9440   0.136   3.917  16.164 -0.5235 -0.1221 -0.1295
  637TMC3    O2 9441   4.605   4.271  16.372 -0.3689  0.3816  1.0682
  638MPD2     C 9442   0.101   3.162  15.150 -0.1723 -0.2534 -0.4527
  638MPD2    C1 9443   0.179   3.052  15.152  0.7236  1.1241 -0.1370
  638MPD2    C2 9444   0.150   2.939  15.223  0.0089  0.2197  0.0464
  638MPD2    C3 9445   0.036   2.939  15.300 -0.2596  0.3978 -0.2188
  638MPD2    C4 9446   4.685   3.055  15.310 -0.5922  0.1564  1.0281
  638MPD2    C5 9447   4.710   3.161  15.227 -0.3270 -0.4024  0.1794
  638MPD2     H 9448   0.210   2.849  15.211 -0.7079 -0.3711  0.8820
  638MPD2    H1 9449   4.590   3.061  15.362 -1.5331 -1.6999 -0.4581
  638MPD2    H2 9450   0.139   3.250  15.099 -0.5303  0.5915  0.7258
  638MPD2    H3 9451   4.653   3.253  15.230  0.2377 -0.0319 -0.4595
  638MPD2     N 9452   0.007   2.812  15.371 -0.1077 -0.4350  0.3025
  638MPD2    H5 9453   0.086   2.748  15.372  0.7388  0.5413 -3.6148
  638MPD2    N1 9454   0.289   3.064  15.070 -0.3000 -0.2394 -0.3754
  638MPD2    H7 9455   0.270   3.119  14.987  0.7425 -0.7285 -0.9454
  639TMC3    C1 9456   4.599   2.661  15.479  0.1206  0.2132  0.4991
  639TMC3    C2 9457   4.476   2.611  15.444 -0.3958  0.0844  0.6633
  639TMC3    C3 9458   4.475   2.478  15.409 -0.8220  0.5977 -0.1020
  639TMC3    C4 9459   4.714   2.590  15.484  0.0802 -0.0096 -0.1137
  639TMC3    C5 9460   4.704   2.460  15.446 -0.4346 -0.1404  0.2063
  639TMC3    C6 9461   4.587   2.398  15.413 -0.7414  0.1753  0.3881
  639TMC3     C 9462   4.613   2.794  15.440  0.3959  0.2599  0.2874
  639TMC3     O 9463   4.512   2.862  15.441 -0.5426 -0.0439  0.1849
  639TMC3     H 9464   4.390   2.667  15.410  1.6218  2.6344 -0.2259
  639TMC3    H1 9465   0.081   2.635  15.518  0.7174 -0.9207 -0.6621
  639TMC3    H2 9466   4.593   2.302  15.362 -0.4675  1.2635 -1.6012
  639TMC3    C7 9467   0.110   2.389  15.434 -0.0518 -0.3072 -0.7248
  639TMC3    C8 9468   4.390   2.462  15.292  0.6630  0.0595 -1.0743
  639TMC3    O1 9469   0.095   2.266  15.440 -0.1198  0.0038 -0.3678
  639TMC3    O2 9470   4.460   2.438  15.195 -0.3394 -0.0973  0.5461
  640MPD2     C 9471   4.124   1.521   9.319 -0.0870 -0.2634 -0.0546
  640MPD2    C1 9472   4.244   1.578   9.355  0.3797 -1.2225  0.0025
  640MPD2    C2 9473   4.252   1.720   9.341  0.5601  0.1291 -0.1850
  640MPD2    C3 9474   4.142   1.795   9.313 -0.3018  0.3067 -0.2068
  640MPD2    C4 9475   4.023   1.735   9.295  0.4282  0.3567 -0.4792
  640MPD2    C5 9476   4.012   1.598   9.297 -0.2845 -0.5927 -0.0164
  640MPD2     H 9477   4.345   1.770   9.366  0.8039  0.0660 -0.9601
  640MPD2    H1 9478   3.942   1.800   9.266 -0.3153 -0.0233  0.7857
  640MPD2    H2 9479   4.102   1.418   9.295  3.2929 -1.0237  0.1712
  640MPD2    H3 9480   3.924   1.548   9.258 -0.3448  0.0770 -0.7413
  640MPD2     N 9481   4.151   1.937   9.309 -0.4756 -0.1831 -0.2468
  640MPD2    H5 9482   4.067   1.975   9.265 -1.5718 -3.2530 -0.7690
  640MPD2    N1 9483   4.348   1.492   9.379  0.0017  0.2130  0.3504
  640MPD2    H7 9484   4.327   1.396   9.402  0.1199  0.5952  2.0498
  641TMC3    C1 9485   4.569   1.424   9.420  0.8635  0.4455  0.2289
  641TMC3    C2 9486   4.679   1.446   9.497 -0.1206 -0.4501  0.1012
  641TMC3    C3 9487   0.017   1.336   9.547 -0.2443 -0.4302 -0.1453
  641TMC3    C4 9488   4.531   1.296   9.383  0.5033  0.5922  0.2661
  641TMC3    C5 9489   4.604   1.190   9.418 -0.3373 -0.8431  0.2261
  641TMC3    C6 9490   4.716   1.212   9.492  0.6218 -0.2372 -0.1437
  641TMC3     C 9491   4.477   1.532   9.399 -0.4906  0.1538 -0.3064
  641TMC3     O 9492   4.525   1.642   9.422 -0.6792  0.2001 -0.6133
  641TMC3     H 9493   4.697   1.547   9.530 -1.5283  0.0279 -0.5772
  641TMC3    H1 9494   4.437   1.278   9.332 -0.0266  0.9267  1.1294
  641TMC3    H2 9495   0.063   1.132   9.501  0.0103 -0.6526  1.1027
  641TMC3    C7 9496   4.540   1.061   9.439 -0.1122 -0.0362  0.2369
  641TMC3    C8 9497   0.140   1.344   9.619  0.8304 -1.6663 -0.5931
  641TMC3    O1 9498   4.432   1.051   9.380 -0.3256  0.2183  0.3008
  641TMC3    O2 9499   0.183   1.236   9.656 -0.0731  0.1965 -0.0458
  642TMC3    C1 9500   1.321   3.108  12.427 -0.4369 -0.7923 -0.4023
  642TMC3    C2 9501   1.417   3.132  12.520  0.1029  0.0448  0.1850
  642TMC3    C3 9502   1.446   3.029  12.611 -0.1263 -0.3954  0.1353
  642TMC3    C4 9503   1.254   2.990  12.423  0.1577 -0.2192  0.7416
  642TMC3    C5 9504   1.296   2.892  12.511  0.2206  0.2985  0.3101
  642TMC3    C6 9505   1.389   2.910  12.606  0.6602 -0.0431 -0.3240
  642TMC3     C 9506   1.263   3.229  12.375 -0.8894  0.1442  0.2565
  642TMC3     O 9507   1.328   3.310  12.315 -0.6957  0.1557  0.3619
  642TMC3     H 9508   1.462   3.231  12.523  1.8875 -0.7069 -1.6565
  642TMC3    H1 9509   1.170   2.974  12.356 -0.5971 -0.5738  1.7771
  642TMC3    H2 9510   1.419   2.833  12.677  2.2039 -0.7984 -1.7824
  642TMC3    C7 9511   1.216   2.777  12.534 -0.1447  0.0144 -0.3681
  642TMC3    C8 9512   1.552   3.045  12.710 -0.1044 -0.5190  0.3784
  642TMC3    O1 9513   1.208   2.729  12.648 -0.1910  0.1260 -0.4599
  642TMC3    O2 9514   1.593   2.941  12.764  0.6587 -0.5881  0.2403
  643TMC3    C1 9515   0.221   2.107   0.321 -0.3536  0.0348 -0.4207
  643TMC3    C2 9516   0.102   2.159   0.279 -0.0370 -0.1071 -0.1411
  643TMC3    C3 9517   0.067   2.164   0.147  0.1404 -0.0627 -0.7459
  643TMC3    C4 9518   0.311   2.049   0.235  0.2413 -1.1063 -0.1885
  643TMC3    C5 9519   0.281   2.064   0.099 -0.1241 -0.2318 -0.4110
  643TMC3    C6 9520   0.159   2.115   0.057 -0.0071  0.4859 -0.0010
  643TMC3     C 9521   0.267   2.176   0.439  0.2913 -0.0145  0.1113
  643TMC3     O 9522   0.217   2.285   0.453 -0.0689 -0.2476  0.2200
  643TMC3     H 9523   0.036   2.196   0.357  1.1541 -2.2477  1.8612
  643TMC3    H1 9524   0.409   2.016   0.269 -0.4648  1.0580  3.9562
  643TMC3    H2 9525   0.147   2.146  17.657  1.1449  2.5396  0.4773
  643TMC3    C7 9526   0.390   2.089   0.011 -0.1706 -0.0294 -0.3371
  643TMC3    C8 9527   0.000   2.287   0.102  0.1308 -0.4772 -0.4382
  643TMC3    O1 9528   0.383   2.167  17.615 -0.6403  0.1384 -0.2803
  643TMC3    O2 9529   4.652   2.279   0.006  0.3530  0.0395 -0.1336
  644MPD2     C 9530   0.671   2.263   9.671  0.0599 -0.9094  0.0996
  644MPD2    C1 9531   0.570   2.184   9.616 -0.3963  0.2372  0.0611
  644MPD2    C2 9532   0.469   2.242   9.539  0.4653 -0.5168 -0.9697
  644MPD2    C3 9533   0.482   2.374   9.500  0.4404 -0.0641 -0.6634
  644MPD2    C4 9534   0.590   2.448   9.548 -0.5491  0.1186  0.6491
  644MPD2    C5 9535   0.673   2.397   9.652  1.1969 -0.2896  0.0781
  644MPD2     H 9536   0.399   2.183   9.481 -0.2538 -0.8546  0.2285
  644MPD2    H1 9537   0.606   2.554   9.533  2.3560 -0.7249 -2.0388
  644MPD2    H2 9538   0.744   2.221   9.739 -0.6703  0.5745  1.8096
  644MPD2    H3 9539   0.750   2.459   9.695  1.2222  0.0671 -0.4736
  644MPD2     N 9540   0.383   2.424   9.403 -0.4360  0.3343 -0.0295
  644MPD2    H5 9541   0.301   2.367   9.387  1.1409 -2.1089  0.6660
  644MPD2    N1 9542   0.571   2.043   9.637 -0.9814 -0.4842  0.0052
  644MPD2    H7 9543   0.658   2.008   9.675  0.6078  2.4535 -0.9326
  645TMC3    C1 9544   0.264   2.600   9.291  0.4367  0.1585  0.6254
  645TMC3    C2 9545   0.191   2.513   9.222  0.2172 -0.6345  0.2341
  645TMC3    C3 9546   0.082   2.572   9.169 -0.7442 -0.1271  0.5639
  645TMC3    C4 9547   0.248   2.732   9.293  0.3936 -1.1060  0.4507
  645TMC3    C5 9548   0.131   2.785   9.253 -0.9728 -0.0201  0.0983
  645TMC3    C6 9549   0.045   2.706   9.180  0.0179  0.0137  0.6730
  645TMC3     C 9550   0.383   2.561   9.367  0.2367  0.0204  0.0540
  645TMC3     O 9551   0.471   2.649   9.384 -0.2570  0.1261 -0.1270
  645TMC3     H 9552   0.217   2.410   9.205  0.7015 -0.6189  0.8793
  645TMC3    H1 9553   0.323   2.800   9.334  0.2856  0.7237 -2.3710
  645TMC3    H2 9554   4.666   2.724   9.160  0.5625 -0.4686 -2.5751
  645TMC3    C7 9555   0.117   2.927   9.261  0.0433  0.1621 -0.5633
  645TMC3    C8 9556   4.714   2.481   9.097 -0.3352  1.0218  0.6758
  645TMC3    O1 9557   0.214   2.998   9.283 -0.1945 -0.3045 -0.3101
  645TMC3    O2 9558   4.673   2.520   8.989 -0.3317 -0.0390 -0.5787
  646MPD2     C 9559   0.014   1.856  14.709  0.2523  0.0957 -0.6144
  646MPD2    C1 9560   4.640   1.832  14.803 -0.5246 -0.3421  0.9220
  646MPD2    C2 9561   4.512   1.885  14.790 -0.4495 -0.0140 -0.1556
  646MPD2    C3 9562   4.489   1.958  14.683  0.1596 -0.1752  0.5079
  646MPD2    C4 9563   4.589   1.988  14.589  0.3897 -0.0514  0.0009
  646MPD2    C5 9564   4.714   1.940  14.606  0.0245  0.3096  0.6667
  646MPD2     H 9565   4.439   1.872  14.869 -1.3398  1.6992 -0.7004
  646MPD2    H1 9566   4.578   2.053  14.503 -2.1265 -1.6820 -0.9068
  646MPD2    H2 9567   0.115   1.816  14.706  0.8713  1.7193 -1.4505
  646MPD2    H3 9568   0.070   1.967  14.540 -1.4160 -0.8099 -1.6243
  646MPD2     N 9569   4.362   2.023  14.671  0.8753  0.5603  0.1530
  646MPD2    H5 9570   4.304   2.026  14.755 -0.8815 -3.1775 -0.9252
  646MPD2    N1 9571   4.688   1.740  14.904 -0.2131  0.0328 -0.1807
  646MPD2    H7 9572   0.061   1.712  14.899 -0.3958 -0.3757 -1.4263
  647TMC3    C1 9573   4.725   1.633  15.108  0.2586 -0.2210 -0.5611
  647TMC3    C2 9574   4.667   1.561  15.208  0.3753 -0.0348  0.4258
  647TMC3    C3 9575   0.032   1.513  15.300 -0.2878 -0.1173  0.7243
  647TMC3    C4 9576   0.141   1.631  15.083  0.0329  0.0667  0.2902
  647TMC3    C5 9577   0.215   1.568  15.173  0.3408  0.6931  0.4816
  647TMC3    C6 9578   0.168   1.513  15.286  0.1954  0.0690  0.3401
  647TMC3     C 9579   4.628   1.701  15.023 -0.2534 -0.2955  0.6568
  647TMC3     O 9580   4.509   1.710  15.053 -0.4083  0.0097 -0.6010
  647TMC3     H 9581   4.560   1.568  15.221  0.2150  1.2616 -1.6976
  647TMC3    H1 9582   0.180   1.690  15.001  0.5123 -1.2046 -0.3998
  647TMC3    H2 9583   0.236   1.459  15.351  2.7307  1.4283 -1.1670
  647TMC3    C7 9584   0.358   1.545  15.154 -0.0502  0.2595  0.0895
  647TMC3    C8 9585   4.721   1.389  15.363 -1.4420  0.0526  0.4863
  647TMC3    O1 9586   0.424   1.543  15.260 -0.0330 -0.1999  0.0856
  647TMC3    O2 9587   0.070   1.350  15.448  0.1753 -0.4646  0.4204
  648TMC3    C1 9588   4.016   4.097  16.017 -0.6652  0.2208  0.1694
  648TMC3    C2 9589   3.999   3.968  15.973 -0.6822 -0.2399 -0.0248
  648TMC3    C3 9590   3.885   3.939  15.903  0.1470 -0.1752 -0.7213
  648TMC3    C4 9591   3.924   4.195  15.985 -0.1540  0.2066 -0.0846
  648TMC3    C5 9592   3.813   4.162  15.910  0.0905  0.6134  0.7703
  648TMC3    C6 9593   3.795   4.034  15.860 -0.6502  0.0620 -0.1087
  648TMC3     C 9594   4.086   4.126  16.142  0.2293 -0.0441  0.8755
  648TMC3     O 9595   4.084   4.243  16.175  0.2066  0.9173 -0.6203
  648TMC3     H 9596   4.071   3.893  16.002  0.8609  0.4640 -2.0115
  648TMC3    H1 9597   3.945   4.298  16.008 -0.2175  0.9270 -3.3100
  648TMC3    H2 9598   3.711   4.008  15.797  1.1324 -1.6250 -1.7930
  648TMC3    C7 9599   3.736   4.267  15.848  0.9544  0.2021 -0.0436
  648TMC3    C8 9600   3.868   3.803  15.848  1.2769  0.0420 -0.1660
  648TMC3    O1 9601   3.685   4.259  15.735  0.7337  0.1722  0.6201
  648TMC3    O2 9602   3.752   3.771  15.825  0.4093 -0.5362  0.0504
  649TMC3    C1 9603   2.618   0.537  12.722 -0.3949 -0.4009 -0.1634
  649TMC3    C2 9604   2.739   0.604  12.731 -0.0923  0.0570  0.2919
  649TMC3    C3 9605   2.799   0.616  12.853 -0.1033  0.0729 -1.2688
  649TMC3    C4 9606   2.565   0.473  12.826  0.1181  0.7287  0.0172
  649TMC3    C5 9607   2.631   0.475  12.948  0.0685  0.0186 -0.5367
  649TMC3    C6 9608   2.740   0.551  12.963  0.5568 -0.1096 -0.2974
  649TMC3     C 9609   2.529   0.583  12.618  0.1730  0.5484  0.0798
  649TMC3     O 9610   2.410   0.593  12.654 -0.2407 -0.4965  0.3837
  649TMC3     H 9611   2.769   0.673  12.654  0.2325 -1.7352 -1.1844
  649TMC3    H1 9612   2.466   0.430  12.814 -0.2228  2.1330 -2.1666
  649TMC3    H2 9613   2.793   0.549  13.058  2.1798 -1.0195 -1.2229
  649TMC3    C7 9614   2.571   0.403  13.060  0.2343  0.4518  0.3919
  649TMC3    C8 9615   2.935   0.656  12.846 -0.0835 -0.1312  0.7146
  649TMC3    O1 9616   2.596   0.454  13.171  0.3890 -0.2077 -0.6156
  649TMC3    O2 9617   2.975   0.667  12.729  0.4134  0.0217 -0.0809
  650TMC3    C1 9618   0.820   2.274  12.833  0.6293  0.3241 -0.5476
  650TMC3    C2 9619   0.783   2.387  12.895 -0.0525  0.0238  0.0596
  650TMC3    C3 9620   0.656   2.432  12.864  0.5350 -0.0416  0.1947
  650TMC3    C4 9621   0.749   2.216  12.729 -0.0214 -0.0028  0.4981
  650TMC3    C5 9622   0.629   2.276  12.701  0.9670  0.5897  0.3055
  650TMC3    C6 9623   0.578   2.378  12.766 -0.5985  0.9681 -0.3145
  650TMC3     C 9624   0.929   2.205  12.897 -0.2741  0.1530  0.0297
  650TMC3     O 9625   0.998   2.280  12.963 -0.0495 -0.2481  0.1328
  650TMC3     H 9626   0.829   2.425  12.986  1.2266  1.1974 -1.0772
  650TMC3    H1 9627   0.783   2.131  12.671 -2.6274 -0.9355  0.3382
  650TMC3    H2 9628   0.480   2.421  12.749 -0.0045  2.2495 -0.5525
  650TMC3    C7 9629   0.569   2.244  12.571 -0.4115  0.5543  0.4655
  650TMC3    C8 9630   0.616   2.541  12.947  0.1257  0.3278 -0.4558
  650TMC3    O1 9631   0.569   2.125  12.540  0.0206 -0.2429  0.4292
  650TMC3    O2 9632   0.698   2.631  12.958 -0.5502  0.2958 -0.4826
  651MPD2     C 9633   3.805   3.747  10.710 -0.0588  0.1779 -0.0479
  651MPD2    C1 9634   3.771   3.877  10.736 -0.1631 -0.3278 -0.8089
  651MPD2    C2 9635   3.878   3.963  10.735 -0.4522 -0.1637  0.2385
  651MPD2    C3 9636   4.011   3.932  10.733  0.4162 -1.3491  0.6906
  651MPD2    C4 9637   4.035   3.795  10.718 -0.1832  0.1961 -0.0126
  651MPD2    C5 9638   3.931   3.708  10.699  0.8690  0.4134 -0.1514
  651MPD2     H 9639   3.848   4.067  10.743  1.4222  0.3647  0.3725
  651MPD2    H1 9640   4.138   3.758  10.723 -0.2449  0.1226  0.8431
  651MPD2    H2 9641   3.735   3.665  10.703 -0.1776  0.2676  0.0852
  651MPD2    H3 9642   3.947   3.603  10.677 -0.5078 -0.0941  1.2835
  651MPD2     N 9643   4.109   4.031  10.757  0.1199 -0.1608 -0.5821
  651MPD2    H5 9644   4.072   4.125  10.768 -2.5730 -1.3116  0.0981
  651MPD2    N1 9645   3.639   3.926  10.744  0.8912 -0.0530 -0.3055
  651MPD2    H7 9646   3.627   4.020  10.779 -1.9661 -0.4933 -0.0579
  652TMC3    C1 9647   4.512   4.222  10.884 -0.1862 -0.0045 -0.2453
  652TMC3    C2 9648   4.455   4.128  10.802  0.9816  0.3173  0.0302
  652TMC3    C3 9649   4.317   4.137  10.809 -0.4334  0.4927 -0.2274
  652TMC3    C4 9650   4.451   4.322  10.944  0.4990  0.7879  0.4262
  652TMC3    C5 9651   4.318   4.333  10.933 -0.2953  0.4825  0.0571
  652TMC3    C6 9652   4.250   4.229  10.878 -1.3018  0.2997 -0.5233
  652TMC3     C 9653   4.652   4.204  10.935 -0.1365 -0.9439 -0.7642
  652TMC3     O 9654   4.671   4.234  11.049  0.4689  0.2910  1.0206
  652TMC3     H 9655   4.513   4.049  10.757  1.0450  0.1330  0.4330
  652TMC3    H1 9656   4.508   4.398  10.996  0.6595 -0.6860  2.4031
  652TMC3    H2 9657   4.143   4.247  10.880 -1.0240  1.5158  2.2074
  652TMC3    C7 9658   4.260   4.461  10.917  0.1299  0.9561  0.1190
  652TMC3    C8 9659   4.248   4.024  10.746 -0.2461  0.2176  0.3020
  652TMC3    O1 9660   4.139   4.464  10.929 -0.0727  0.1095  0.1982
  652TMC3    O2 9661   4.322   3.925  10.726 -0.3424  0.1897  0.0795
  653MPD2     C 9662   3.390   4.195  17.390  0.0680 -0.0599  0.2093
  653MPD2    C1 9663   3.433   4.119  17.497  0.5409  0.1140  0.5961
  653MPD2    C2 9664   3.347   4.023  17.551 -0.1136  0.0305  0.2390
  653MPD2    C3 9665   3.214   4.006  17.501  0.5826  0.2365  0.2242
  653MPD2    C4 9666   3.173   4.088  17.392  0.1447 -0.5988 -0.2993
  653MPD2    C5 9667   3.260   4.182  17.341  0.8037 -0.2939  0.0937
  653MPD2     H 9668   3.380   3.974  17.642 -0.2205 -1.0147 -0.2769
  653MPD2    H1 9669   3.075   4.081  17.346 -1.2780  0.9798  2.5300
  653MPD2    H2 9670   3.437   4.285  17.353 -2.6680  1.2660 -0.0605
  653MPD2    H3 9671   3.241   4.250  17.259  2.1879 -0.1196 -0.0919
  653MPD2     N 9672   3.125   3.902  17.551  0.5589  0.0535 -0.2944
  653MPD2    H5 9673   3.167   3.836  17.616  1.3752  0.6963 -0.1553
  653MPD2    N1 9674   3.549   4.156  17.565  0.6557  0.5638  0.6940
  653MPD2    H7 9675   3.574   4.109  17.652 -0.1533  0.5357  0.9144
  654TMC3    C1 9676   2.927   3.794  17.616 -0.5163 -0.4149 -0.1689
  654TMC3    C2 9677   2.797   3.812  17.646  0.3450  0.4938  0.1545
  654TMC3    C3 9678   2.709   3.704  17.648  0.1761  0.4190 -0.6310
  654TMC3    C4 9679   2.973   3.665  17.586  0.7443  0.2971  0.2458
  654TMC3    C5 9680   2.882   3.563  17.590  0.0305 -0.1957 -0.0999
  654TMC3    C6 9681   2.756   3.580  17.629  0.0096  0.5281  0.2754
  654TMC3     C 9682   2.987   3.900  17.539  0.2644 -0.4418 -0.1225
  654TMC3     O 9683   2.912   3.974  17.476 -0.2301  0.7357 -0.4515
  654TMC3     H 9684   2.767   3.915  17.660 -0.2414  0.7143 -2.7650
  654TMC3    H1 9685   3.075   3.653  17.553  0.6543 -1.8266  0.7279
  654TMC3    H2 9686   2.679   3.505  17.613  0.2089  0.5355 -0.7257
  654TMC3    C7 9687   2.893   3.463  17.486  0.3893 -0.3169 -0.0624
  654TMC3    C8 9688   2.610   3.737  17.552 -0.1177  0.2532  0.1759
  654TMC3    O1 9689   2.792   3.445  17.424 -0.0927  0.1036  0.5099
  654TMC3    O2 9690   2.537   3.834  17.572  0.0081  0.0887  0.0908
  655MPD2     C 9691   4.352   0.009  15.357  0.3088  1.1374 -0.1134
  655MPD2    C1 9692   4.266   4.665  15.435 -0.5157  0.6232 -0.3909
  655MPD2    C2 9693   4.244   4.527  15.418 -0.3299 -0.4971  0.1333
  655MPD2    C3 9694   4.299   4.464  15.312  0.4774 -0.1818 -0.6817
  655MPD2    C4 9695   4.367   4.538  15.219  0.0097  0.0657 -0.2767
  655MPD2    C5 9696   4.394   4.669  15.240  0.6230  0.7233 -0.9929
  655MPD2     H 9697   4.185   4.468  15.487 -0.2220 -1.2115 -0.3752
  655MPD2    H1 9698   4.400   4.484  15.131  1.3920 -0.9958  0.8796
  655MPD2    H2 9699   4.385   0.111  15.374 -0.0624  1.2554 -0.0942
  655MPD2    H3 9700   4.453   4.722  15.167  0.4232  1.0413 -0.9242
  655MPD2     N 9701   4.284   4.326  15.282  0.0602  0.1043  0.0178
  655MPD2    H5 9702   4.324   4.290  15.196  0.0788 -0.3399  0.2141
  655MPD2    N1 9703   4.212   0.001  15.546 -0.5185 -0.1925  0.1847
  655MPD2    H7 9704   4.156   4.667  15.607  0.8217 -2.2897 -0.6089
  656TMC3    C1 9705   4.145   0.160  15.706 -0.3390 -0.5098  0.1309
  656TMC3    C2 9706   4.051   0.070  15.745  0.3643  0.6283 -0.4555
  656TMC3    C3 9707   3.949   0.114  15.822  0.2671  0.4170  0.3704
  656TMC3    C4 9708   4.135   0.292  15.733  0.2336 -0.5896 -0.2716
  656TMC3    C5 9709   4.020   0.340  15.795  0.5701 -0.6912 -0.6815
  656TMC3    C6 9710   3.925   0.249  15.834 -0.0639  0.3368  0.3702
  656TMC3     C 9711   4.213   0.133  15.578 -0.1414  0.2585 -0.1181
  656TMC3     O 9712   4.254   0.239  15.519 -0.0836  0.4889  0.2312
  656TMC3     H 9713   4.070   4.689  15.731  1.4706  0.5447  1.6588
  656TMC3    H1 9714   4.212   0.359  15.696  0.4558  0.3291  1.8449
  656TMC3    H2 9715   3.836   0.282  15.887 -0.0178  0.1217  0.5856
  656TMC3    C7 9716   3.978   0.468  15.747 -0.2347 -0.0127 -0.3999
  656TMC3    C8 9717   3.924   0.034  15.938  0.0734 -0.3207  0.0756
  656TMC3    O1 9718   4.063   0.534  15.695 -0.0505  0.0776 -0.7767
  656TMC3    O2 9719   3.938   4.637  15.937 -0.7452  0.2280  0.0434
  657TMC3    C1 9720   3.404   3.471  14.828 -0.0073 -0.8351  0.1146
  657TMC3    C2 9721   3.391   3.398  14.942 -0.7426  0.7283 -0.0561
  657TMC3    C3 9722   3.268   3.418  15.002  0.1130  0.5267 -0.2949
  657TMC3    C4 9723   3.308   3.559  14.786  0.2040 -0.2961 -0.2202
  657TMC3    C5 9724   3.193   3.581  14.856  0.9255 -0.4984  0.6715
  657TMC3    C6 9725   3.171   3.510  14.969 -1.0874 -0.3556 -0.5239
  657TMC3     C 9726   3.533   3.489  14.762  0.4060 -0.1696 -0.4575
  657TMC3     O 9727   3.539   3.566  14.665  0.1001  0.0436  0.1792
  657TMC3     H 9728   3.473   3.344  14.988 -0.9295 -0.8509 -1.6042
  657TMC3    H1 9729   3.329   3.632  14.709  0.8880 -0.9904 -0.6860
  657TMC3    H2 9730   3.087   3.521  15.037 -0.2455 -0.1122  0.4695
  657TMC3    C7 9731   3.108   3.696  14.820 -0.1929  0.2571 -1.1968
  657TMC3    C8 9732   3.237   3.348  15.127  0.0120 -0.0112 -0.0568
  657TMC3    O1 9733   3.166   3.792  14.771 -0.4153  0.0087  0.0976
  657TMC3    O2 9734   3.131   3.369  15.186  0.9751  0.1898 -0.4061
  658MPD2     C 9735   4.545   3.885  14.747 -0.1211 -0.0695  0.0922
  658MPD2    C1 9736   4.439   3.968  14.745  0.1849 -1.0801 -0.4490
  658MPD2    C2 9737   4.405   4.023  14.621  0.0542  0.6526  0.0069
  658MPD2    C3 9738   4.483   3.989  14.510 -0.1220  0.2362 -0.2649
  658MPD2    C4 9739   4.586   3.902  14.518  0.3294  0.1045 -0.6753
  658MPD2    C5 9740   4.617   3.845  14.637 -0.3331  0.2570 -0.4483
  658MPD2     H 9741   4.316   4.081  14.601 -1.6710 -1.4665  1.5501
  658MPD2    H1 9742   4.645   3.856  14.439 -0.7740  0.0779 -1.4911
  658MPD2    H2 9743   4.566   3.824  14.834 -0.2954 -2.1577 -1.3210
  658MPD2    H3 9744   4.694   3.769  14.640  0.2855  0.9092  0.4519
  658MPD2     N 9745   4.449   4.055  14.390 -0.3182 -0.8617 -0.1007
  658MPD2    H5 9746   4.385   4.133  14.401  2.2112  1.1425  0.6757
  658MPD2    N1 9747   4.351   3.988  14.847 -0.4211  0.3861 -0.3895
  658MPD2    H7 9748   4.269   4.039  14.817 -0.1351 -0.0437 -1.8932
  659TMC3    C1 9749   4.256   4.017  15.062 -0.7763 -0.2365  0.0786
  659TMC3    C2 9750   4.289   4.082  15.178  0.4135 -0.0758 -1.0793
  659TMC3    C3 9751   4.184   4.124  15.248 -0.6011 -0.4120  0.3307
  659TMC3    C4 9752   4.134   3.988  15.016  0.1090  0.7988  0.2392
  659TMC3    C5 9753   4.032   4.034  15.089 -0.8116  0.0076  0.0042
  659TMC3    C6 9754   4.057   4.099  15.202  0.4384 -0.3909 -0.2974
  659TMC3     C 9755   4.370   3.972  14.983 -0.4191 -0.0622  0.5285
  659TMC3     O 9756   4.468   3.930  15.043 -0.3534  0.2312  0.0733
  659TMC3     H 9757   4.387   4.078  15.222 -1.2845 -1.0505  2.5948
  659TMC3    H1 9758   4.126   3.930  14.924  2.2858  1.3526 -0.3060
  659TMC3    H2 9759   3.975   4.145  15.256 -0.5140 -2.1505 -0.2646
  659TMC3    C7 9760   3.893   3.998  15.060 -0.3292  0.1925 -0.8507
  659TMC3    C8 9761   4.197   4.238  15.341 -0.3944  0.0073 -0.2807
  659TMC3    O1 9762   3.812   4.030  15.146 -0.0798  0.0444 -0.7845
  659TMC3    O2 9763   4.123   4.255  15.437 -0.5033 -0.4750 -0.1557
  660MPD2     C 9764   2.628   2.658  12.555 -0.5407 -0.5370 -0.0302
  660MPD2    C1 9765   2.584   2.782  12.578 -0.7252 -0.3998  0.5044
  660MPD2    C2 9766   2.514   2.795  12.701 -0.1455  0.4457 -0.0554
  660MPD2    C3 9767   2.492   2.694  12.785  0.4293  0.1376 -0.0137
  660MPD2    C4 9768   2.528   2.566  12.758  0.2727  0.0565 -0.3208
  660MPD2    C5 9769   2.606   2.553  12.640 -0.1820 -0.4044  0.1498
  660MPD2     H 9770   2.480   2.895  12.725  0.8590  1.1906 -1.7306
  660MPD2    H1 9771   2.509   2.481  12.822  0.6102 -0.2863 -0.6718
  660MPD2    H2 9772   2.696   2.642  12.471 -0.6535  0.0984 -0.2456
  660MPD2    H3 9773   2.659   2.462  12.614  0.7967 -0.2524  1.6070
  660MPD2     N 9774   2.405   2.701  12.896 -0.5691 -0.1064 -0.7555
  660MPD2    H5 9775   2.420   2.625  12.962  0.7524  2.8007  2.2883
  660MPD2    N1 9776   2.611   2.883  12.489 -0.0897  0.2709 -0.1595
  660MPD2    H7 9777   2.658   2.861  12.402 -0.3933  3.4462 -1.1180
  661TMC3    C1 9778   2.540   3.071  12.389 -0.4348 -0.3429 -0.1376
  661TMC3    C2 9779   2.532   2.992  12.281 -0.5394  0.0681 -0.8588
  661TMC3    C3 9780   2.442   3.023  12.178 -0.5476  0.4422 -0.5982
  661TMC3    C4 9781   2.449   3.172  12.406  0.2449 -0.0780 -0.1698
  661TMC3    C5 9782   2.352   3.190  12.312 -0.0628 -0.6400  0.0470
  661TMC3    C6 9783   2.347   3.123  12.192 -0.3733  0.4092 -0.0073
  661TMC3     C 9784   2.591   3.016  12.510 -0.1798 -0.3445 -0.2726
  661TMC3     O 9785   2.553   3.059  12.617  0.3968 -0.0861  0.4842
  661TMC3     H 9786   2.615   2.925  12.260  0.2359  0.3117  1.4108
  661TMC3    H1 9787   2.451   3.224  12.501  1.9884 -0.3874 -0.0375
  661TMC3    H2 9788   2.259   3.108  12.131 -0.2158  0.7315 -0.3152
  661TMC3    C7 9789   2.238   3.260  12.359 -0.6221 -0.9312 -0.0511
  661TMC3    C8 9790   2.448   2.949  12.048 -0.1029 -0.2998 -0.0892
  661TMC3    O1 9791   2.224   3.251  12.480 -0.1979 -0.4475  0.1662
  661TMC3    O2 9792   2.508   2.845  12.056 -0.1727 -0.7260 -0.4407
  662MPD2     C 9793   2.665   2.850  17.283 -0.1294  0.3272  0.1756
  662MPD2    C1 9794   2.575   2.787  17.364 -0.1542  0.2597  0.2266
  662MPD2    C2 9795   2.503   2.856  17.458 -0.6421 -0.2689  0.7026
  662MPD2    C3 9796   2.495   2.995  17.456 -0.4992 -0.6650  0.0877
  662MPD2    C4 9797   2.583   3.060  17.370  0.1764  0.4535  0.0554
  662MPD2    C5 9798   2.667   2.988  17.282 -0.2161 -0.4017  0.3274
  662MPD2     H 9799   2.434   2.805  17.525 -1.0806  0.2714  0.6555
  662MPD2    H1 9800   2.582   3.167  17.353 -1.6559  0.0500 -2.2966
  662MPD2    H2 9801   2.736   2.792  17.225 -1.6053 -2.4387  1.1404
  662MPD2    H3 9802   2.731   3.031  17.206 -0.5446  0.2268  0.4008
  662MPD2     N 9803   2.415   3.068  17.547  0.1500 -0.3966 -0.1299
  662MPD2    H5 9804   2.408   3.167  17.530 -1.9317 -0.4020  0.7185
  662MPD2    N1 9805   2.579   2.640  17.372 -0.0427 -0.2230 -0.3451
  662MPD2    H7 9806   2.534   2.601  17.454  0.0186  2.7010  1.0698
  663TMC3    C1 9807   2.622   2.413  17.310  0.5183  0.8089  0.9109
  663TMC3    C2 9808   2.623   2.380  17.442  0.1230 -0.5436  0.1429
  663TMC3    C3 9809   2.554   2.277  17.506 -0.5054  0.1873  0.5426
  663TMC3    C4 9810   2.552   2.335  17.224  0.1322  0.0676 -0.2821
  663TMC3    C5 9811   2.482   2.233  17.277 -0.0078  0.1969 -0.1403
  663TMC3    C6 9812   2.489   2.195  17.416 -0.9294 -0.1909  0.3964
  663TMC3     C 9813   2.633   2.551  17.275 -0.0413 -0.1424 -0.4769
  663TMC3     O 9814   2.660   2.580  17.157 -0.0706  0.0275  0.2224
  663TMC3     H 9815   2.697   2.427  17.506  1.3402 -1.9451 -0.2612
  663TMC3    H1 9816   2.545   2.373  17.123  1.3614  0.6621 -0.1382
  663TMC3    H2 9817   2.411   2.130  17.453 -0.6656 -1.9891 -2.1663
  663TMC3    C7 9818   2.416   2.141  17.195 -0.2587  0.2800  0.5476
  663TMC3    C8 9819   2.457   2.345  17.592 -0.3246  0.2067 -0.4005
  663TMC3    O1 9820   2.385   2.175  17.080 -0.8486  0.6238  0.3555
  663TMC3    O2 9821   2.481   2.464  17.604 -0.1229 -0.2111 -0.0049
  664MPD2     C 9822   0.400   1.032  17.659 -0.6028 -0.2678  0.2403
  664MPD2    C1 9823   0.458   1.106   0.055  0.1552  0.4736  0.6496
  664MPD2    C2 9824   0.437   1.057   0.182  0.1223  0.2546 -0.5810
  664MPD2    C3 9825   0.370   0.941   0.213  0.0838  0.4012 -0.5421
  664MPD2    C4 9826   0.318   0.865   0.115  1.1690 -0.1771  0.6114
  664MPD2    C5 9827   0.335   0.910  17.691 -0.4659  0.5460  0.0037
  664MPD2     H 9828   0.480   1.112   0.265 -0.9246  2.0611 -1.2445
  664MPD2    H1 9829   0.262   0.772   0.125  0.4966  0.1673  0.1002
  664MPD2    H2 9830   0.401   1.060  17.554 -1.2849  1.8213  0.8049
  664MPD2    H3 9831   0.293   0.853  17.609  1.2665  0.4400 -0.8099
  664MPD2     N 9832   0.345   0.908   0.351 -0.1617 -1.0027  0.4870
  664MPD2    H5 9833   0.386   0.978   0.413  1.1692  0.1394 -1.6423
  664MPD2    N1 9834   0.530   1.227   0.043 -0.0671  0.4635  0.0358
  664MPD2    H7 9835   0.589   1.259   0.119  0.3399  0.8502 -0.4398
  665TMC3    C1 9836   0.337   0.801   0.556 -0.7321 -0.2783 -0.6383
  665TMC3    C2 9837   0.333   0.679   0.619 -0.4744 -0.4160 -0.2909
  665TMC3    C3 9838   0.371   0.694   0.751 -0.1954 -0.0982  0.5941
  665TMC3    C4 9839   0.382   0.919   0.607 -0.0436 -0.1715  0.5022
  665TMC3    C5 9840   0.413   0.924   0.741 -0.4941 -0.2165  0.0072
  665TMC3    C6 9841   0.414   0.811   0.810 -0.4236 -0.1648  0.1159
  665TMC3     C 9842   0.313   0.795   0.413  0.2604 -0.5244  0.7561
  665TMC3     O 9843   0.268   0.691   0.361 -0.1774  0.3777 -0.2255
  665TMC3     H 9844   0.300   0.584   0.579 -1.9757  0.3335 -0.8395
  665TMC3    H1 9845   0.377   1.017   0.560 -0.6068 -0.8916 -0.9632
  665TMC3    H2 9846   0.453   0.809   0.911  2.4223 -0.1090 -0.9779
  665TMC3    C7 9847   0.417   1.059   0.807  0.2919 -0.1041 -0.5717
  665TMC3    C8 9848   0.310   0.606   0.854  0.0951 -0.1140  0.1605
  665TMC3    O1 9849   0.372   1.150   0.742  0.4061 -0.0519  0.0733
  665TMC3    O2 9850   0.326   0.629   0.971  0.8071  0.1969 -0.3819
  666TMC3    C1 9851   4.190   0.830   9.879 -0.2326  0.3565 -0.2031
  666TMC3    C2 9852   4.287   0.771   9.953 -0.5849 -0.6863  0.0471
  666TMC3    C3 9853   4.416   0.823   9.945  0.3289  0.4893 -0.0366
  666TMC3    C4 9854   4.211   0.944   9.803  0.1225  0.3568  0.2756
  666TMC3    C5 9855   4.335   1.004   9.818  1.0367  0.2320  0.5220
  666TMC3    C6 9856   4.443   0.947   9.876 -0.1083 -0.0483 -0.1921
  666TMC3     C 9857   4.054   0.813   9.922 -0.3931  0.4387 -0.2840
  666TMC3     O 9858   3.961   0.855   9.850  0.2041 -0.1234  0.1407
  666TMC3     H 9859   4.263   0.677  10.000  1.0211 -1.2180 -0.1946
  666TMC3    H1 9860   4.125   1.000   9.767 -1.7755 -2.4946  0.3715
  666TMC3    H2 9861   4.544   0.984   9.891 -0.3216 -0.0866  1.4116
  666TMC3    C7 9862   4.348   1.143   9.767 -0.5918  0.5868 -0.9631
  666TMC3    C8 9863   4.527   0.759  10.020 -0.6649  0.1866  1.0164
  666TMC3    O1 9864   4.267   1.183   9.689 -0.1381 -0.3817 -0.2027
  666TMC3    O2 9865   4.500   0.691  10.118  0.1443  0.6442 -0.3007
  667MPD2     C 9866   1.863   1.345  14.609  0.1150 -0.4011  0.3809
  667MPD2    C1 9867   1.774   1.318  14.715 -0.2334  0.2558 -0.2734
  667MPD2    C2 9868   1.671   1.231  14.706  1.1023 -0.5764  0.6130
  667MPD2    C3 9869   1.647   1.164  14.587  0.6473 -0.6475  0.5918
  667MPD2    C4 9870   1.745   1.181  14.485 -0.0853 -0.2198  0.5197
  667MPD2    C5 9871   1.844   1.281  14.491 -0.1870 -0.0330 -0.7339
  667MPD2     H 9872   1.598   1.223  14.786 -0.3041 -0.6464 -0.6729
  667MPD2    H1 9873   1.740   1.121  14.395 -2.0964 -2.4723  2.1503
  667MPD2    H2 9874   1.954   1.403  14.616  0.0348  0.0620 -2.3327
  667MPD2    H3 9875   1.914   1.300  14.411  1.5601 -0.5859  0.6518
  667MPD2     N 9876   1.548   1.074  14.567  0.6526  1.1221  0.0088
  667MPD2    H5 9877   1.549   1.028  14.477  1.7116 -0.1510  0.6622
  667MPD2    N1 9878   1.780   1.367  14.847 -0.6239  0.7263 -0.0062
  667MPD2    H7 9879   1.701   1.359  14.910 -2.0778  0.1093 -1.9299
  668TMC3    C1 9880   1.855   1.495  15.024 -0.2509 -0.2760  0.9751
  668TMC3    C2 9881   1.886   1.630  15.033 -0.9359 -0.0315  0.7843
  668TMC3    C3 9882   1.858   1.694  15.149 -0.5854  0.2165  1.0071
  668TMC3    C4 9883   1.804   1.421  15.123  0.2543 -0.3382  0.5113
  668TMC3    C5 9884   1.771   1.493  15.240  0.2163  0.4872  0.1182
  668TMC3    C6 9885   1.795   1.628  15.254 -0.2890  0.5100 -0.2621
  668TMC3     C 9886   1.881   1.445  14.895  0.5926 -0.7388  1.0388
  668TMC3     O 9887   1.985   1.473  14.840  0.1870 -0.3925 -0.2662
  668TMC3     H 9888   1.898   1.693  14.945 -0.0494  1.3094  1.8606
  668TMC3    H1 9889   1.781   1.317  15.103 -0.3087 -0.5210  2.0727
  668TMC3    H2 9890   1.782   1.680  15.347 -1.4549  0.3583 -0.3409
  668TMC3    C7 9891   1.700   1.421  15.344  0.6114 -0.0138  0.2990
  668TMC3    C8 9892   1.907   1.825  15.178  0.2893  0.2016 -0.0574
  668TMC3    O1 9893   1.702   1.471  15.455 -0.1411  0.3704  0.7490
  668TMC3    O2 9894   1.868   1.892  15.272  0.0548  0.1065 -0.0454
  669TMC3    C1 9895   4.453   1.234  14.358  0.4681  0.2974 -0.0424
  669TMC3    C2 9896   4.344   1.262  14.281 -0.2122  0.2169  0.3884
  669TMC3    C3 9897   4.351   1.362  14.186  0.2526 -0.2583  0.6657
  669TMC3    C4 9898   4.579   1.289  14.334  0.8154  0.6002  0.9345
  669TMC3    C5 9899   4.578   1.377  14.235 -0.5709  0.3831 -0.3489
  669TMC3    C6 9900   4.471   1.427  14.169  0.2373  0.6640  0.1420
  669TMC3     C 9901   4.425   1.153  14.478  0.2781 -0.0671  1.1138
  669TMC3     O 9902   4.305   1.137  14.499 -0.0002 -0.3659  0.1222
  669TMC3     H 9903   4.256   1.202  14.299  0.6790 -1.5352 -1.2047
  669TMC3    H1 9904   4.668   1.263  14.391  1.3123 -0.8388 -0.4795
  669TMC3    H2 9905   4.480   1.510  14.100 -0.8170  0.8818  0.2640
  669TMC3    C7 9906   4.705   1.442  14.218  0.5118  0.2531 -0.1238
  669TMC3    C8 9907   4.242   1.383  14.096  0.5264 -0.4537  0.7958
  669TMC3    O1 9908   0.063   1.422  14.308 -0.6588 -0.3832 -0.3378
  669TMC3    O2 9909   4.234   1.501  14.069  0.0364 -0.2740 -0.3318
  670MPD2     C 9910   2.503   3.748  13.237  0.8157 -0.0027 -0.1168
  670MPD2    C1 9911   2.633   3.744  13.284 -0.2608  0.2245 -0.8602
  670MPD2    C2 9912   2.661   3.693  13.412 -0.1834 -0.2362 -0.1420
  670MPD2    C3 9913   2.560   3.626  13.480 -0.2341  0.3238 -0.0948
  670MPD2    C4 9914   2.433   3.621  13.425 -0.0375 -0.0690 -0.6972
  670MPD2    C5 9915   2.405   3.683  13.308  0.5160 -0.5144 -0.2605
  670MPD2     H 9916   2.757   3.708  13.459 -1.4554  0.5626  2.1847
  670MPD2    H1 9917   2.351   3.585  13.487  0.6217 -1.8675 -0.8473
  670MPD2    H2 9918   2.471   3.794  13.144  0.2751 -1.1993 -0.5258
  670MPD2    H3 9919   2.303   3.703  13.277  0.7212  0.0338 -0.5917
  670MPD2     N 9920   2.586   3.566  13.604 -0.1259 -0.2757 -0.2859
  670MPD2    H5 9921   2.675   3.581  13.651  0.7256 -1.4141 -1.5072
  670MPD2    N1 9922   2.739   3.795  13.202 -0.0709  0.6978 -0.7452
  670MPD2    H7 9923   2.834   3.773  13.228 -0.9608 -1.8416  0.2971
  671TMC3    C1 9924   2.558   3.403  13.779 -0.3002 -0.7188 -0.0955
  671TMC3    C2 9925   2.648   3.459  13.864  0.1956 -0.6987 -0.1350
  671TMC3    C3 9926   2.655   3.412  13.991  0.0712 -0.6416 -0.1469
  671TMC3    C4 9927   2.472   3.303  13.822  0.1616 -0.2431 -0.2343
  671TMC3    C5 9928   2.459   3.280  13.955 -0.1852  1.1520 -0.9158
  671TMC3    C6 9929   2.550   3.331  14.039  0.2134  0.5870  0.5174
  671TMC3     C 9930   2.504   3.472  13.660 -0.1745 -0.3669  0.4946
  671TMC3     O 9931   2.397   3.431  13.620 -0.0040  0.1098 -0.1040
  671TMC3     H 9932   2.741   3.508  13.836 -0.1302 -1.5221 -2.6058
  671TMC3    H1 9933   2.418   3.241  13.752 -0.5698 -0.2145  0.3068
  671TMC3    H2 9934   2.563   3.276  14.132 -3.4125  0.2486  0.8205
  671TMC3    C7 9935   2.443   3.135  13.973 -0.4062 -0.7105 -0.1028
  671TMC3    C8 9936   2.786   3.354  14.013 -0.0829 -1.2639  0.0353
  671TMC3    O1 9937   2.525   3.079  13.905 -0.0725  0.2400 -0.4793
  671TMC3    O2 9938   2.854   3.329  13.914 -0.4809 -0.5569  0.3900
  672MPD2     C 9939   2.838   3.040   1.561 -0.2520  0.0616  0.5178
  672MPD2    C1 9940   2.790   3.166   1.521  0.2943  0.0503  0.3821
  672MPD2    C2 9941   2.804   3.276   1.605  0.1450  0.1352  0.5077
  672MPD2    C3 9942   2.874   3.259   1.725 -0.7197 -0.5682  0.6256
  672MPD2    C4 9943   2.907   3.134   1.770  0.4916  0.6724 -0.1100
  672MPD2    C5 9944   2.892   3.029   1.694 -0.0632 -0.3241 -0.0060
  672MPD2     H 9945   2.755   3.368   1.574 -1.6148 -1.1424 -0.4839
  672MPD2    H1 9946   2.953   3.113   1.866 -0.1011  3.1048  0.6999
  672MPD2    H2 9947   2.839   2.946   1.507  0.7868  1.6500 -2.1807
  672MPD2    H3 9948   2.924   2.930   1.724 -0.1126  0.4488  2.5734
  672MPD2     N 9949   2.907   3.372   1.800 -0.4419 -0.7865  0.4244
  672MPD2    H5 9950   2.958   3.346   1.884 -1.0089 -1.4948  0.5531
  672MPD2    N1 9951   2.736   3.198   1.402 -0.3195 -0.2208 -0.4257
  672MPD2    H7 9952   2.733   3.297   1.380 -0.6602 -0.5228 -1.7430
  673TMC3    C1 9953   2.696   3.189   1.181 -0.5818 -0.3173  0.5782
  673TMC3    C2 9954   2.771   3.148   1.078  0.1654 -0.5231  0.3546
  673TMC3    C3 9955   2.792   3.245   0.983 -0.6367  0.0489  0.2736
  673TMC3    C4 9956   2.628   3.307   1.185  0.2503  0.0384 -0.0907
  673TMC3    C5 9957   2.667   3.397   1.080  0.4150 -0.7794  0.1065
  673TMC3    C6 9958   2.735   3.365   0.975  0.0156 -0.2734 -1.0116
  673TMC3     C 9959   2.716   3.109   1.300  0.3809  0.0963 -0.4307
  673TMC3     O 9960   2.746   2.990   1.296  0.3807 -0.1751  0.0435
  673TMC3     H 9961   2.832   3.058   1.088 -0.2458 -0.8686 -0.2448
  673TMC3    H1 9962   2.562   3.325   1.269  0.2036 -0.1598 -0.0856
  673TMC3    H2 9963   2.767   3.425   0.890 -0.8013  1.6462  0.0361
  673TMC3    C7 9964   2.622   3.531   1.104  0.0770  0.5770 -0.1984
  673TMC3    C8 9965   2.916   3.226   0.905 -0.0136  0.1955 -0.2227
  673TMC3    O1 9966   2.522   3.543   1.179  0.2355 -0.0827  0.1697
  673TMC3    O2 9967   2.911   3.233   0.781  0.0510  0.0152 -0.0933
  674MPD2     C 9968   2.213   3.932   0.359  0.2614  0.2149  0.9712
  674MPD2    C1 9969   2.265   3.812   0.402  0.0224  0.4732  0.0857
  674MPD2    C2 9970   2.204   3.742   0.504  0.1511  0.3406  0.5220
  674MPD2    C3 9971   2.084   3.789   0.559  0.5199  0.1119  0.6208
  674MPD2    C4 9972   2.042   3.916   0.517 -0.1507 -0.1045  0.3447
  674MPD2    C5 9973   2.105   3.984   0.418 -0.4599  0.2944  0.4670
  674MPD2     H 9974   2.239   3.644   0.536 -1.5004  0.2963  2.1617
  674MPD2    H1 9975   1.959   3.970   0.563  0.0377  0.0881  0.4616
  674MPD2    H2 9976   2.274   3.995   0.296 -0.9129 -2.4103 -2.8095
  674MPD2    H3 9977   2.071   4.084   0.396  1.4328  1.0032  0.7272
  674MPD2     N 9978   2.023   3.712   0.654  0.7904  0.2650  0.2884
  674MPD2    H5 9979   2.059   3.618   0.671 -0.4644 -0.3671 -0.6056
  674MPD2    N1 9980   2.386   3.771   0.342  0.3868  0.1179  0.1039
  674MPD2    H7 9981   2.424   3.829   0.268  1.2124  0.2866  0.6530
  675TMC3    C1 9982   2.595   3.651   0.318 -0.3609 -0.0200  0.5155
  675TMC3    C2 9983   2.658   3.532   0.317  0.3709  0.7541 -0.1558
  675TMC3    C3 9984   2.790   3.523   0.290  0.2425  0.0125  0.6290
  675TMC3    C4 9985   2.668   3.765   0.328 -0.4666  0.1445  0.2839
  675TMC3    C5 9986   2.802   3.753   0.311  0.3865 -0.8080 -1.0155
  675TMC3    C6 9987   2.859   3.641   0.276  0.0511  0.6393  0.4420
  675TMC3     C 9988   2.455   3.653   0.372  0.2239 -0.2344  0.8741
  675TMC3     O 9989   2.421   3.563   0.445 -0.9937 -0.1780  0.0295
  675TMC3     H 9990   2.590   3.447   0.309  0.9173  0.2942  0.0257
  675TMC3    H1 9991   2.629   3.865   0.340 -0.3876  0.4157 -1.6295
  675TMC3    H2 9992   2.963   3.640   0.245 -0.3057 -0.8455 -0.7067
  675TMC3    C7 9993   2.865   3.883   0.280  0.7662  0.0875  0.2589
  675TMC3    C8 9994   2.854   3.404   0.230 -0.7080 -0.3915  0.6450
  675TMC3    O1 9995   2.800   3.973   0.224  0.1768 -0.3534  0.0954
  675TMC3    O2 9996   2.960   3.411   0.164 -0.2388  0.1404 -0.4694
  676MPD2     C 9997   0.650   2.146  10.948 -0.4755  0.2376 -0.6455
  676MPD2    C1 9998   0.523   2.119  10.999 -0.3697 -0.2907 -0.7872
  676MPD2    C2 9999   0.426   2.066  10.924  0.3710  0.0565  1.0953
  676MPD2    C310000   0.448   2.046  10.786 -0.1137  0.1859 -0.1546
  676MPD2    C410001   0.574   2.072  10.740  0.8455 -0.7002 -0.0103
  676MPD2    C510002   0.676   2.107  10.819  0.3361  0.3732  0.2523
  676MPD2     H10003   0.325   2.048  10.961  0.1027  0.0886  0.3718
  676MPD2    H110004   0.600   2.067  10.635 -1.7437 -0.0021 -0.6920
  676MPD2    H210005   0.724   2.198  11.008 -1.1713  2.0504 -1.3496
  676MPD2    H310006   0.776   2.116  10.776  0.8714 -0.0905  1.4058
  676MPD2     N10007   0.348   1.989  10.698 -0.8828 -0.8876 -0.4976
  676MPD2    H510008   0.363   2.017  10.602  3.3368  0.4315  0.5326
  676MPD2    N110009   0.480   2.153  11.129  0.1911  0.0400 -0.2155
  676MPD2    H710010   0.388   2.115  11.150 -0.5519  3.1151  2.0683
  677TMC3    C110011   0.448   2.277  11.323  0.5972  0.4654 -0.0046
  677TMC3    C210012   0.320   2.229  11.315  0.2353  0.3702  0.2608
  677TMC3    C310013   0.233   2.270  11.416 -0.9387  0.3191  1.1568
  677TMC3    C410014   0.491   2.364  11.414  0.0334 -0.0309 -0.1353
  677TMC3    C510015   0.401   2.415  11.504  0.2615 -0.0628  0.0830
  677TMC3    C610016   0.269   2.364  11.508  0.6599  0.1116 -0.5767
  677TMC3     C10017   0.540   2.236  11.215  0.0176 -0.1119  0.2107
  677TMC3     O10018   0.657   2.278  11.214  0.0135 -0.0584  0.0654
  677TMC3     H10019   0.282   2.153  11.247  1.1467 -0.7175  0.9610
  677TMC3    H110020   0.594   2.398  11.407 -0.5369  1.4296 -1.2185
  677TMC3    H210021   0.189   2.388  11.578  1.2072 -0.0899  0.1247
  677TMC3    C710022   0.437   2.484  11.622 -0.4758  0.6035 -0.3283
  677TMC3    C810023   0.107   2.200  11.435 -0.0838  0.0064  0.1594
  677TMC3    O110024   0.369   2.471  11.721 -0.1160  0.5802 -0.2532
  677TMC3    O210025   0.063   2.148  11.329 -0.0608 -0.4952 -0.6452
  678MPD2     C10026   1.645   1.319   1.525 -0.3252  0.3341 -0.4728
  678MPD2    C110027   1.635   1.260   1.397  0.5674  0.1261  0.3723
  678MPD2    C210028   1.513   1.282   1.325 -0.5872 -0.2115  0.1166
  678MPD2    C310029   1.409   1.358   1.375  0.2201  0.0323  0.1681
  678MPD2    C410030   1.423   1.397   1.509 -0.7022  0.2137  0.1124
  678MPD2    C510031   1.534   1.383   1.578  0.1574 -0.1934 -0.2310
  678MPD2     H10032   1.505   1.248   1.223  2.6058  0.0288 -0.2182
  678MPD2    H110033   1.345   1.443   1.568 -1.2114 -0.2764 -0.1806
  678MPD2    H210034   1.730   1.307   1.591  1.4561 -0.3801 -2.9288
  678MPD2    H310035   1.545   1.421   1.679 -2.0972 -0.5033  0.1365
  678MPD2     N10036   1.290   1.368   1.298  0.1441  0.3246 -0.0879
  678MPD2    H510037   1.279   1.341   1.200 -1.3923  0.4108  0.0536
  678MPD2    N110038   1.739   1.192   1.332  0.7868 -0.0438  0.2917
  678MPD2    H710039   1.716   1.166   1.236  1.7776  0.2307 -0.0205
  679TMC3    C110040   2.152   1.023   1.238 -0.8093 -0.0162 -0.0896
  679TMC3    C210041   2.058   1.055   1.331  0.3737 -0.0644 -0.2422
  679TMC3    C310042   1.947   1.117   1.282 -0.0151 -0.3376  0.2716
  679TMC3    C410043   2.133   1.053   1.105  0.4091  0.6802 -0.3003
  679TMC3    C510044   2.029   1.126   1.063  0.1325  0.4745  0.4104
  679TMC3    C610045   1.931   1.158   1.150 -0.1399 -0.2514  0.7032
  679TMC3     C10046   2.254   0.921   1.263 -0.1373  0.0076 -0.2543
  679TMC3     O10047   2.296   0.849   1.178  0.0698 -0.2692  0.8121
  679TMC3     H10048   2.055   1.024   1.434 -1.9194  1.2900  0.0844
  679TMC3    H110049   2.201   1.019   1.028  0.9523  1.2075 -0.0602
  679TMC3    H210050   1.855   1.227   1.115  0.7924 -1.1768 -3.1573
  679TMC3    C710051   2.041   1.216   0.948  0.6649 -1.0741  0.1777
  679TMC3    C810052   1.859   1.177   1.383  0.8007 -0.1973  0.2217
  679TMC3    O110053   1.934   1.249   0.901 -0.6518 -0.3447 -0.5293
  679TMC3    O210054   1.903   1.209   1.490  0.1769 -0.8907 -0.0202
  680MPD2     C10055   2.262   0.793  13.846 -0.4975 -0.2649  0.0010
  680MPD2    C110056   2.358   0.703  13.911  0.4497  0.1516  0.1098
  680MPD2    C210057   2.453   0.760  13.990 -0.1642  0.0823 -0.6053
  680MPD2    C310058   2.475   0.897  13.982  0.3993 -0.2457  0.4020
  680MPD2    C410059   2.385   0.985  13.926  0.1941 -0.6088 -0.4168
  680MPD2    C510060   2.273   0.934  13.856  0.5345  0.0719  0.0471
  680MPD2     H10061   2.522   0.690  14.037  0.6195  2.1739  1.3695
  680MPD2    H110062   2.402   1.091  13.912 -1.3725 -0.3508 -0.3463
  680MPD2    H210063   2.168   0.761  13.801 -0.6618 -0.3530  0.4025
  680MPD2    H310064   2.208   0.997  13.797  3.2377 -0.1273 -3.1008
  680MPD2     N10065   2.598   0.954  14.033  0.0608 -0.8197 -0.6784
  680MPD2    H510066   2.611   1.055  14.026  2.1102 -1.0557 -0.3404
  680MPD2    N110067   2.346   0.564  13.885 -0.3614 -0.5788  0.5421
  680MPD2    H710068   2.395   0.499  13.947 -1.4046  0.4106  2.4054
  681TMC3    C110069   2.276   0.371  13.767  0.4651 -0.2965 -0.3451
  681TMC3    C210070   2.305   0.298  13.873  0.3298 -0.3742 -0.9946
  681TMC3    C310071   2.293   0.161  13.867  0.3368 -0.3051 -0.2159
  681TMC3    C410072   2.231   0.315  13.651  0.3308  0.5136 -0.5595
  681TMC3    C510073   2.225   0.180  13.638 -0.3423 -0.0799  0.6213
  681TMC3    C610074   2.263   0.098  13.745 -0.2905  0.0569  0.6079
  681TMC3     C10075   2.267   0.515  13.785 -0.1964  0.2406 -0.9737
  681TMC3     O10076   2.210   0.570  13.690 -0.3023  0.2741  0.0540
  681TMC3     H10077   2.306   0.341  13.973 -0.4707 -1.7133 -0.4082
  681TMC3    H110078   2.170   0.369  13.580  0.3540  1.4253  0.1182
  681TMC3    H210079   2.275   4.716  13.732  2.9626  0.4103  0.7478
  681TMC3    C710080   2.211   0.114  13.506  0.5029 -0.8430 -0.2246
  681TMC3    C810081   2.335   0.074  13.976 -0.1993 -0.5408 -0.4222
  681TMC3    O110082   2.177   4.722  13.507 -0.1729 -0.0673 -0.2540
  681TMC3    O210083   2.298   4.682  13.966  0.1694 -0.0301  0.5478
  682MPD2     C10084   4.219   2.037  10.272 -0.4863  0.8346  0.3465
  682MPD2    C110085   4.117   1.967  10.207  0.4267  0.0736  0.1656
  682MPD2    C210086   4.030   1.894  10.291 -0.3992  0.0085 -0.1720
  682MPD2    C310087   4.034   1.894  10.428  0.5127  0.6556 -0.9403
  682MPD2    C410088   4.131   1.972  10.485  0.7075 -0.1460 -0.0403
  682MPD2    C510089   4.226   2.029  10.410  0.3333 -0.0866  0.7717
  682MPD2     H10090   3.950   1.841  10.241 -0.0294  0.5994 -1.3916
  682MPD2    H110091   4.142   1.978  10.592  1.1069  1.9436 -0.2001
  682MPD2    H210092   4.294   2.105  10.232  1.0462  0.1743  2.0936
  682MPD2    H310093   4.307   2.075  10.466 -1.0207 -0.3911  2.9929
  682MPD2     N10094   3.945   1.829  10.512 -0.1132  0.2901 -0.0330
  682MPD2    H510095   3.960   1.841  10.612  2.3359  0.9618 -0.4862
  682MPD2    N110096   4.076   1.971  10.074  0.0896 -0.2392  0.0392
  682MPD2    H710097   3.988   1.924  10.054  0.1386 -0.3810  0.1647
  683TMC3    C110098   3.712   1.655  10.808 -1.0579 -0.1363 -0.0358
  683TMC3    C210099   3.642   1.543  10.769 -0.0647  0.5128 -0.1750
  683TMC3    C310100   3.634   1.503  10.640  0.2316 -0.1556  0.0108
  683TMC3    C410101   3.797   1.721  10.714  0.4666  0.2270  0.1232
  683TMC3    C510102   3.779   1.681  10.581  0.1358 -0.0334 -0.5064
  683TMC3    C610103   3.703   1.569  10.545 -0.2508  0.3593 -0.2275
  683TMC3     C10104   3.713   1.711  10.944 -0.1747  0.2465  0.2495
  683TMC3     O10105   3.810   1.771  10.982 -0.6634  0.3234  0.0048
  683TMC3     H10106   3.586   1.492  10.846  1.8233  0.9379  1.4845
  683TMC3    H110107   3.837   1.817  10.744  0.2451  0.8975 -1.7098
  683TMC3    H210108   3.692   1.535  10.443  1.0514 -0.8712  0.0411
  683TMC3    C710109   3.847   1.749  10.470 -0.1105  0.5220  0.5045
  683TMC3    C810110   3.620   1.361  10.609 -0.4502  0.5935  0.2684
  683TMC3    O110111   3.814   1.717  10.358  0.1316 -0.2231 -0.4375
  683TMC3    O210112   3.570   1.330  10.500  0.0513  0.4546 -0.4561
  684MPD2     C10113   2.983   1.441  17.303 -0.1097  0.1026  0.1170
  684MPD2    C110114   2.927   1.439  17.176  0.0207  0.0723  0.3989
  684MPD2    C210115   2.833   1.534  17.139 -0.5486  0.1195  0.5600
  684MPD2    C310116   2.788   1.627  17.233  0.2140  0.2219 -0.0013
  684MPD2    C410117   2.845   1.623  17.361 -0.2270  0.3305  0.3781
  684MPD2    C510118   2.939   1.529  17.395  0.8760  0.6792 -0.1781
  684MPD2     H10119   2.795   1.531  17.038  1.2149  2.9360 -0.1576
  684MPD2    H110120   2.815   1.698  17.433 -1.7107  0.3384 -0.2619
  684MPD2    H210121   3.056   1.371  17.343 -1.2967 -1.0000  0.3502
  684MPD2    H310122   2.978   1.524  17.496 -1.1558  1.1984  0.6341
  684MPD2     N10123   2.724   1.743  17.194  0.5023 -0.6824 -0.2496
  684MPD2    H510124   2.730   1.817  17.262 -4.0482 -0.9395  0.4146
  684MPD2    N110125   2.976   1.360  17.074 -0.6317  0.9388  0.5989
  684MPD2    H710126   2.933   1.377  16.984 -0.4542 -0.1979  0.2941
  685TMC3    C110127   3.134   1.222  16.964 -0.4987 -0.1439  0.4756
  685TMC3    C210128   3.096   1.265  16.836 -0.8686  0.2413  0.0799
  685TMC3    C310129   3.166   1.213  16.726  0.5747 -0.2198 -0.0461
  685TMC3    C410130   3.220   1.118  16.982 -0.5068 -0.0054 -0.4482
  685TMC3    C510131   3.279   1.059  16.870 -0.4340 -0.6247 -0.0572
  685TMC3    C610132   3.255   1.106  16.743  0.4240 -0.2216 -0.4742
  685TMC3     C10133   3.071   1.267  17.088  0.1271 -0.4889  0.1338
  685TMC3     O10134   3.108   1.215  17.193  0.1202 -0.0288  0.4646
  685TMC3     H10135   3.039   1.356  16.824 -0.1270  0.6652 -0.2536
  685TMC3    H110136   3.247   1.083  17.081 -0.0934  1.1429 -0.1510
  685TMC3    H210137   3.304   1.057  16.659 -0.1773  1.7237 -1.9673
  685TMC3    C710138   3.326   0.924  16.887  0.6306 -0.2091  0.0349
  685TMC3    C810139   3.102   1.225  16.591  0.6880  0.0830  0.1083
  685TMC3    O110140   3.335   0.882  17.006 -0.0750 -0.6958  0.0701
  685TMC3    O210141   3.170   1.186  16.496  0.2621  0.7546  0.0073
  686MPD2     C10142   4.032   1.450  16.045  0.6106  0.1172  0.4798
  686MPD2    C110143   3.946   1.340  16.026  0.6983 -0.1045 -0.2574
  686MPD2    C210144   3.995   1.228  15.968  0.4811  0.5596  0.3589
  686MPD2    C310145   4.133   1.213  15.948  0.1849 -0.3601  0.0556
  686MPD2    C410146   4.214   1.315  15.980  0.2810 -0.0979  0.0647
  686MPD2    C510147   4.159   1.436  16.014 -0.2369  0.3168 -0.1603
  686MPD2     H10148   3.928   1.144  15.952 -0.6257  1.0579  2.3695
  686MPD2    H110149   4.322   1.306  15.968  0.6591  2.8931  1.2717
  686MPD2    H210150   4.005   1.544  16.093  0.7975 -0.5372  1.8735
  686MPD2    H310151   4.227   1.518  16.035  0.0345  0.1036 -0.2072
  686MPD2     N10152   4.188   1.086  15.910  0.3425 -0.1865 -0.1609
  686MPD2    H510153   4.285   1.069  15.934  0.8256  1.9463 -0.5960
  686MPD2    N110154   3.816   1.328  16.070 -0.0449 -0.0581 -1.1240
  686MPD2    H710155   3.785   1.232  16.067 -2.1591  0.5659  0.6352
  687TMC3    C110156   4.145   0.857  15.888  0.2718  0.4115 -0.6201
  687TMC3    C210157   4.030   0.782  15.891 -0.3172  1.0606 -0.5728
  687TMC3    C310158   3.996   0.717  16.006 -0.3321 -0.1840  0.6365
  687TMC3    C410159   4.238   0.850  15.991 -0.2028  0.1235 -0.2171
  687TMC3    C510160   4.202   0.781  16.107 -0.7711 -0.1853 -0.1424
  687TMC3    C610161   4.078   0.720  16.117  1.0925  0.5421 -0.2752
  687TMC3     C10162   4.109   0.990  15.851 -0.1188 -1.1501 -0.0503
  687TMC3     O10163   4.008   0.999  15.785  0.3197  0.3896  0.0346
  687TMC3     H10164   3.970   0.778  15.801 -0.6450 -1.2208 -0.2566
  687TMC3    H110165   4.337   0.890  15.975 -0.6889  1.2511 -0.3661
  687TMC3    H210166   4.051   0.674  16.211 -1.6608  2.5724 -0.0805
  687TMC3    C710167   4.273   0.818  16.229 -0.7945 -0.8234  0.5913
  687TMC3    C810168   3.858   0.725  16.044 -0.3275 -0.2193  0.9241
  687TMC3    O110169   4.216   0.808  16.339 -0.6535  0.2225 -0.2572
  687TMC3    O210170   3.826   0.657  16.143 -0.3408  0.3019  0.5262
  688MPD2     C10171   4.294   4.594  17.537 -0.1162  0.7831 -0.6032
  688MPD2    C110172   4.226   4.499  17.470  0.0041  0.0467 -0.7223
  688MPD2    C210173   4.253   4.476  17.340  0.8595 -0.3765 -0.4640
  688MPD2    C310174   4.349   4.556  17.276  0.0803 -0.0927 -0.9725
  688MPD2    C410175   4.419   4.649  17.342  0.8922 -0.8360 -0.6780
  688MPD2    C510176   4.389   4.674  17.474  0.0126  0.2246 -0.1409
  688MPD2     H10177   4.189   4.410  17.283  0.8543 -1.9256  1.3691
  688MPD2    H110178   4.500   4.713  17.308  0.6522 -0.8564 -1.2760
  688MPD2    H210179   4.278   4.614  17.643 -1.7888  0.8122 -0.8620
  688MPD2    H310180   4.441   0.030  17.522 -1.8547  1.7092 -0.6313
  688MPD2     N10181   4.382   4.547  17.139 -0.1749 -0.4218  0.6838
  688MPD2    H510182   4.458   4.601  17.099 -1.9670 -0.7471 -3.1718
  688MPD2    N110183   4.109   4.440  17.522  0.4766 -0.7411  0.2990
  688MPD2    H710184   4.065   4.368  17.466 -1.8147  1.0990 -0.2440
  689TMC3    C110185   3.921   4.399  17.677 -0.6972 -0.0677  0.2410
  689TMC3    C210186   3.885   4.411   0.100 -0.3225 -0.0326 -0.3052
  689TMC3    C310187   3.764   4.353   0.137 -0.3284  0.0352 -0.0727
  689TMC3    C410188   3.843   4.341  17.577 -0.2550 -0.4798 -0.7526
  689TMC3    C510189   3.729   4.287  17.618 -0.2812 -0.3345 -0.3541
  689TMC3    C610190   3.684   4.288   0.045 -0.7891 -0.5243  0.3921
  689TMC3     C10191   4.051   4.469  17.646  0.8470 -0.4969  0.7587
  689TMC3     O10192   4.092   4.542   0.032 -0.1569  0.2718  0.8750
  689TMC3     H10193   3.952   4.449   0.176  0.0630  0.6406 -0.9838
  689TMC3    H110194   3.885   4.317  17.479  0.9901 -0.8248 -0.1305
  689TMC3    H210195   3.583   4.261   0.073 -2.4637  1.6021 -3.5897
  689TMC3    C710196   3.647   4.236  17.512 -0.3790  0.4604  1.1908
  689TMC3    C810197   3.737   4.324   0.272  0.1911 -0.3417  0.3583
  689TMC3    O110198   3.683   4.267  17.397  0.1293  0.0330  0.4785
  689TMC3    O210199   3.663   4.234   0.296  0.3193 -0.2070  0.0414
  690MPD2     C10200   0.897   1.949  15.963 -0.6272  0.2540  0.8167
  690MPD2    C110201   0.842   1.961  15.837 -0.1362 -0.2164  0.2763
  690MPD2    C210202   0.898   2.055  15.745  0.3792  0.2127 -0.8311
  690MPD2    C310203   1.010   2.131  15.779 -0.4818  1.0751  0.1253
  690MPD2    C410204   1.068   2.106  15.906  0.1906  0.5279 -0.5338
  690MPD2    C510205   1.016   2.010  15.991  0.0726  0.2632 -0.1168
  690MPD2     H10206   0.873   2.053  15.640 -0.7591  0.2143 -0.5626
  690MPD2    H110207   1.153   2.162  15.944  0.6950  1.4275 -3.0004
  690MPD2    H210208   0.858   1.885  16.041 -0.7394  0.2299  0.7408
  690MPD2    H310209   1.072   1.984  16.080  0.2022  0.2125 -0.2128
  690MPD2     N10210   1.061   2.228  15.688  0.3189  0.6633  0.4572
  690MPD2    H510211   1.010   2.243  15.601 -1.0105  0.9502  1.2963
  690MPD2    N110212   0.739   1.871  15.798 -0.1622  0.1014 -0.1680
  690MPD2    H710213   0.710   1.884  15.702 -0.7251 -1.2972 -0.1906
  691TMC3    C110214   0.587   1.697  15.816 -0.2632 -0.6676  0.3149
  691TMC3    C210215   0.455   1.683  15.856 -0.1975  0.5120  0.2132
  691TMC3    C310216   0.373   1.617  15.770  0.3820  0.0889 -0.4186
  691TMC3    C410217   0.633   1.651  15.696  0.3651  0.3260  0.0101
  691TMC3    C510218   0.556   1.566  15.620  0.8306 -0.5669  0.5800
  691TMC3    C610219   0.422   1.546  15.661 -0.8082 -0.5937  0.0341
  691TMC3     C10220   0.669   1.791  15.884 -0.1326 -0.6361 -0.0151
  691TMC3     O10221   0.650   1.800  16.005  0.4009 -0.3685  0.0026
  691TMC3     H10222   0.419   1.729  15.947  1.0481 -0.8847  1.4122
  691TMC3    H110223   0.740   1.653  15.677  0.5221 -1.8130  0.7317
  691TMC3    H210224   0.348   1.501  15.595 -2.5242  0.7837  1.0254
  691TMC3    C710225   0.626   1.444  15.587 -0.3380  0.2570  0.6116
  691TMC3    C810226   0.238   1.585  15.807 -0.6604  0.0621  0.0566
  691TMC3    O110227   0.737   1.444  15.537 -0.0817  0.2365 -0.1450
  691TMC3    O210228   0.197   1.480  15.756  0.2960  0.4865  0.1605
  692TMC3    C110229   2.180   2.710  16.110  0.0580 -0.3067 -0.3011
  692TMC3    C210230   2.317   2.722  16.100  0.1852  0.0476  0.2173
  692TMC3    C310231   2.398   2.639  16.169 -0.1726  0.6851  0.1939
  692TMC3    C410232   2.130   2.628  16.205  0.3451  0.0740  0.4835
  692TMC3    C510233   2.219   2.548  16.282  0.1805  0.4699 -0.0202
  692TMC3    C610234   2.353   2.539  16.254 -0.5061  0.1527  0.0022
  692TMC3     C10235   2.089   2.807  16.051 -0.2575  0.4580 -0.4381
  692TMC3     O10236   1.977   2.819  16.096  0.9816 -0.1239 -0.0619
  692TMC3     H10237   2.372   2.786  16.032  0.6620  0.1924  0.7350
  692TMC3    H110238   2.024   2.609  16.216  0.1627  0.3458 -0.9001
  692TMC3    H210239   2.420   2.482  16.317  2.1307  2.2222 -0.9444
  692TMC3    C710240   2.165   2.487  16.394 -0.2568 -0.0796  0.0772
  692TMC3    C810241   2.502   2.715  16.234  0.3697 -0.1550  0.5347
  692TMC3    O110242   2.067   2.546  16.435  0.1691 -0.4340  0.6236
  692TMC3    O210243   2.598   2.655  16.295  0.2159  0.3213  0.2499
  693MPD2     C10244   1.313   1.041  10.595 -0.2944  0.5915  0.6387
  693MPD2    C110245   1.272   0.911  10.621  0.1931 -0.3900  0.0650
  693MPD2    C210246   1.367   0.816  10.623 -0.0912  0.0824  0.0297
  693MPD2    C310247   1.496   0.848  10.592  0.6224 -0.0753 -0.5305
  693MPD2    C410248   1.532   0.973  10.553  0.0525 -0.9008  0.2603
  693MPD2    C510249   1.442   1.075  10.554  0.1157  0.4370 -0.0316
  693MPD2     H10250   1.339   0.716  10.654  0.6133 -1.1737 -3.4461
  693MPD2    H110251   1.635   1.003  10.532  0.3955 -1.0997  1.6897
  693MPD2    H210252   1.242   1.122  10.592 -2.0791 -0.9799  1.0130
  693MPD2    H310253   1.480   1.175  10.539 -1.9993  1.5898  2.2361
  693MPD2     N10254   1.604   0.755  10.616 -0.3568  0.1266 -0.2009
  693MPD2    H510255   1.702   0.776  10.604  0.5645 -2.3254  3.1636
  693MPD2    N110256   1.135   0.893  10.664 -0.2127  0.2187  0.1336
  693MPD2    H710257   1.079   0.974  10.685  1.6938  2.1797 -2.3871
  694TMC3    C110258   0.971   0.767  10.780  0.4080  0.5180 -0.0231
  694TMC3    C210259   0.880   0.675  10.757  0.5481 -0.2217  0.4749
  694TMC3    C310260   0.780   0.655  10.844  1.6724 -0.4322  0.2157
  694TMC3    C410261   0.992   0.818  10.903 -0.1169  0.6845  0.5678
  694TMC3    C510262   0.903   0.797  10.997  0.1112  0.0390  0.1035
  694TMC3    C610263   0.789   0.720  10.964  0.2098 -0.2589  0.4469
  694TMC3     C10264   1.078   0.770  10.681 -0.0858  0.3397  0.3035
  694TMC3     O10265   1.127   0.661  10.647  0.0391 -0.3890 -0.1994
  694TMC3     H10266   0.890   0.641  10.654  0.4981 -3.0537  1.4305
  694TMC3    H110267   1.074   0.885  10.926  1.3764 -0.6463 -0.9073
  694TMC3    H210268   0.712   0.718  11.040 -0.4693  0.5872 -0.2232
  694TMC3    C710269   0.922   0.863  11.130  0.1072  0.9126 -0.4788
  694TMC3    C810270   0.688   0.547  10.833  0.4351 -0.0226 -0.3588
  694TMC3    O110271   0.979   0.967  11.132 -0.2500 -0.0844  0.6533
  694TMC3    O210272   0.599   0.520  10.918  0.0854 -0.5164 -0.4152
  695MPD2     C10273   3.206   2.605  13.496  0.0751 -0.2294  0.6487
  695MPD2    C110274   3.142   2.654  13.612  0.7695  0.2731 -0.7283
  695MPD2    C210275   3.011   2.616  13.638  0.7615  0.0423  0.0794
  695MPD2    C310276   2.934   2.538  13.560 -0.5652 -0.4881  0.1457
  695MPD2    C410277   2.996   2.486  13.448  1.0920  0.2845 -0.2119
  695MPD2    C510278   3.125   2.523  13.413  0.2245 -0.0697 -0.6193
  695MPD2     H10279   2.967   2.663  13.725 -0.2770  1.2416 -1.1049
  695MPD2    H110280   2.956   2.410  13.382  0.0784  1.5512 -1.0740
  695MPD2    H210281   3.310   2.615  13.467 -1.0684  2.6019 -2.4086
  695MPD2    H310282   3.168   2.480  13.323 -0.2957 -1.2959 -0.2827
  695MPD2     N10283   2.802   2.506  13.588  1.6907 -0.0449  0.2005
  695MPD2    H510284   2.760   2.517  13.680 -0.0842 -0.2626 -0.5978
  695MPD2    N110285   3.211   2.732  13.702 -0.0064  0.6182 -0.1657
  695MPD2    H710286   3.148   2.764  13.775  0.2665  0.9019 -0.0561
  696TMC3    C110287   2.578   2.448  13.552 -0.3367  0.1209  0.2237
  696TMC3    C210288   2.561   2.475  13.685 -0.3530 -0.9299  0.3503
  696TMC3    C310289   2.431   2.505  13.727  0.3243  0.2346 -0.4002
  696TMC3    C410290   2.480   2.467  13.459 -0.1923  0.3426 -0.1689
  696TMC3    C510291   2.357   2.524  13.500 -0.2543  0.8427  0.1519
  696TMC3    C610292   2.332   2.523  13.635 -0.2652  0.3555 -0.2009
  696TMC3     C10293   2.708   2.464  13.494 -0.2582  0.1344  1.1836
  696TMC3     O10294   2.709   2.466  13.371  0.6412  0.7628  1.0127
  696TMC3     H10295   2.639   2.454  13.756  0.5527 -1.1708 -0.7134
  696TMC3    H110296   2.486   2.435  13.356  0.3210 -0.0322 -0.0202
  696TMC3    H210297   2.241   2.570  13.669 -0.5509 -0.1883 -0.2007
  696TMC3    C710298   2.361   2.657  13.442 -0.2103  0.7132  0.4910
  696TMC3    C810299   2.430   2.603  13.844 -0.5124 -0.3050 -0.4977
  696TMC3    O110300   2.420   2.659  13.335  0.2744  0.0748  0.0224
  696TMC3    O210301   2.536   2.652  13.862 -0.0222 -0.0645  0.5326
  697MPD2     C10302   1.969   4.514  15.604  0.4743  0.7499  0.6298
  697MPD2    C110303   1.979   4.499  15.471 -0.1923 -0.7747  0.4239
  697MPD2    C210304   2.010   4.611  15.396 -0.1227  0.1547 -0.4736
  697MPD2    C310305   2.037   0.005  15.452  0.3326 -0.2585 -0.3621
  697MPD2    C410306   2.031   0.017  15.589 -0.3321 -0.3638 -0.1015
  697MPD2    C510307   1.991   4.635  15.664 -0.8129  0.5718  0.8370
  697MPD2     H10308   2.024   4.591  15.290  2.3097 -0.6421 -0.0131
  697MPD2    H110309   2.058   0.108  15.640 -2.8620 -0.3768  1.2504
  697MPD2    H210310   1.964   4.425  15.667  1.4948  0.5595  0.4483
  697MPD2    H310311   1.980   4.640  15.772 -0.0763 -0.8187  0.9758
  697MPD2     N10312   2.076   0.108  15.365  0.2506  0.6051  0.2751
  697MPD2    H510313   2.082   0.092  15.265 -0.7558 -0.0203  0.3131
  697MPD2    N110314   1.964   4.376  15.418 -0.4895  0.7388  0.1305
  697MPD2    H710315   1.965   4.310  15.496  1.2412 -0.7043 -1.1383
  698TMC3    C110316   2.123   0.329  15.280  0.5896  0.0460  0.2595
  698TMC3    C210317   2.173   0.453  15.310  0.6098  0.3927  0.2666
  698TMC3    C310318   2.239   0.524  15.213 -0.0593 -0.4925  0.6911
  698TMC3    C410319   2.144   0.276  15.155  0.1538  0.6427  0.4121
  698TMC3    C510320   2.201   0.356  15.057 -0.3845 -0.3160 -0.4506
  698TMC3    C610321   2.248   0.484  15.079  0.1221 -0.2772  0.0291
  698TMC3     C10322   2.078   0.246  15.389 -0.2430 -0.7031  0.4641
  698TMC3     O10323   2.062   0.299  15.502 -0.2249  0.3839 -0.2138
  698TMC3     H10324   2.174   0.488  15.413  0.3478  3.5541 -0.8167
  698TMC3    H110325   2.113   0.175  15.129 -0.9672  0.8280  1.0479
  698TMC3    H210326   2.299   0.548  15.008 -1.1908  1.8745  1.0149
  698TMC3    C710327   2.219   0.299  14.928  0.3993  0.4384 -0.0193
  698TMC3    C810328   2.308   0.644  15.265 -0.6905  0.4381 -0.1632
  698TMC3    O110329   2.226   0.369  14.831 -0.3123 -0.3475 -0.3233
  698TMC3    O210330   2.258   0.701  15.358 -0.1351 -0.1614  0.7383
  699TMC3    C110331   2.236   2.777  13.030  0.4090  0.7281 -0.0125
  699TMC3    C210332   2.224   2.649  13.066  0.2842 -0.1911 -0.2467
  699TMC3    C310333   2.143   2.618  13.177  0.5371 -0.2216 -0.1827
  699TMC3    C410334   2.168   2.882  13.087 -0.3071 -0.0578 -1.3301
  699TMC3    C510335   2.085   2.843  13.190  0.3024 -0.0815 -0.2286
  699TMC3    C610336   2.073   2.715  13.238 -0.0372 -0.4449  1.1822
  699TMC3     C10337   2.328   2.809  12.928  0.0911 -0.2039  0.1260
  699TMC3     O10338   2.316   2.920  12.876  0.1520 -0.2435 -0.2357
  699TMC3     H10339   2.260   2.564  13.008  1.4313  0.3180 -0.2868
  699TMC3    H110340   2.188   2.982  13.051 -0.0173  0.3077 -0.1376
  699TMC3    H210341   2.016   2.701  13.330 -0.3342  0.9940  1.2337
  699TMC3    C710342   2.005   2.949  13.262  0.6841 -0.2953 -0.3981
  699TMC3    C810343   2.143   2.486  13.238 -0.2621 -0.3598 -0.6632
  699TMC3    O110344   1.944   2.913  13.359  0.0391 -0.9247  0.0549
  699TMC3    O210345   2.091   2.485  13.349 -0.3037  0.7048 -0.0117
  700TMC3    C110346   1.256   4.631  17.388 -0.6356 -0.1452  0.0843
  700TMC3    C210347   1.367   4.561  17.383  0.2351 -0.1171 -0.7269
  700TMC3    C310348   1.452   4.573  17.490 -0.2642  0.2255  0.6540
  700TMC3    C410349   1.215   4.695  17.501 -0.1180  0.1230  0.8994
  700TMC3    C510350   1.298   4.701  17.606  0.9072 -0.5008 -0.1599
  700TMC3    C610351   1.422   4.647  17.601 -0.3391  0.3074  0.2666
  700TMC3     C10352   1.226   4.691  17.257  0.3906  0.4151 -0.6156
  700TMC3     O10353   1.220   4.615  17.161  0.5487  1.3676 -0.2390
  700TMC3     H10354   1.383   4.498  17.297 -3.1624 -1.5572 -0.3081
  700TMC3    H110355   1.130   0.034  17.487  0.7000  0.9527 -0.2596
  700TMC3    H210356   1.488   4.655  17.686  0.6705 -0.1231 -0.4768
  700TMC3    C710357   1.277   0.081   0.006  0.1711 -0.2410 -0.4154
  700TMC3    C810358   1.582   4.523  17.465 -0.5567 -0.3114  0.1458
  700TMC3    O110359   1.374   0.121   0.069  0.1847  0.2638  0.3913
  700TMC3    O210360   1.590   4.428  17.388 -0.9568 -0.4284  0.8776
  701TMC3    C110361   1.361   3.830  15.225  0.1503  0.4514 -0.2275
  701TMC3    C210362   1.378   3.827  15.086 -0.1721 -0.4394  0.4439
  701TMC3    C310363   1.463   3.918  15.034  0.6987  0.1792  0.5929
  701TMC3    C410364   1.429   3.911  15.312 -0.4506  0.9336 -0.5930
  701TMC3    C510365   1.519   3.997  15.251 -0.0820 -0.1050  1.1346
  701TMC3    C610366   1.531   4.004  15.115  0.2247  0.0017  0.4734
  701TMC3     C10367   1.262   3.737  15.277  0.3128  0.3126 -0.1782
  701TMC3     O10368   1.240   3.633  15.220  0.2462  1.3307 -0.1303
  701TMC3     H10369   1.296   3.771  15.042 -0.0654  0.0226 -0.3449
  701TMC3    H110370   1.416   3.899  15.419 -0.1842  2.7445 -0.3666
  701TMC3    H210371   1.592   4.078  15.065 -1.4154  2.3301  1.9272
  701TMC3    C710372   1.566   4.109  15.324  0.9624 -0.2160 -0.2223
  701TMC3    C810373   1.434   3.974  14.897  0.0321  0.3930 -0.2321
  701TMC3    O110374   1.619   4.193  15.247 -0.0066  0.3572  0.6262
  701TMC3    O210375   1.486   4.083  14.874 -0.1547  0.3859  0.3028
  702MPD2     C10376   0.295   2.075  10.050  0.0185 -0.9066 -0.3584
  702MPD2    C110377   0.328   2.077  10.182 -0.2180 -0.2566  0.7628
  702MPD2    C210378   0.448   2.135  10.227 -0.9483  0.1547 -0.3158
  702MPD2    C310379   0.527   2.206  10.146 -0.3611 -0.7284  0.3056
  702MPD2    C410380   0.498   2.211  10.012  0.1281 -0.5765  0.1582
  702MPD2    C510381   0.384   2.141   9.964  0.1094 -1.0476 -0.3671
  702MPD2     H10382   0.477   2.146  10.331  0.3454 -2.6662 -0.3522
  702MPD2    H110383   0.559   2.271   9.945  0.4402 -1.2596 -0.1595
  702MPD2    H210384   0.215   2.015  10.009  1.2072 -2.3511 -0.5953
  702MPD2    H310385   0.364   2.143   9.858 -2.3255 -1.5725  0.0868
  702MPD2     N10386   0.644   2.261  10.208 -0.0028  0.8418 -0.0457
  702MPD2    H510387   0.672   2.225  10.299  0.2324 -0.7233 -0.7340
  702MPD2    N110388   0.252   2.031  10.288  0.3557 -0.4741  0.6387
  702MPD2    H710389   0.282   2.072  10.376  2.8880  0.3827 -0.6149
  703TMC3    C110390   0.814   2.389  10.257  0.6887 -0.7092 -0.5608
  703TMC3    C210391   0.746   2.423  10.372  0.3387  0.1866  0.2561
  703TMC3    C310392   0.833   2.420  10.483  0.5603  0.8193  0.1617
  703TMC3    C410393   0.948   2.361  10.246  0.0865  0.6380  0.2748
  703TMC3    C510394   1.030   2.363  10.351  0.2365  0.0825 -0.4895
  703TMC3    C610395   0.969   2.393  10.470  0.4320 -0.1947 -0.0117
  703TMC3     C10396   0.734   2.342  10.149 -0.1427 -0.2293 -0.4851
  703TMC3     O10397   0.743   2.393  10.036  0.3849  0.1433 -0.1914
  703TMC3     H10398   0.641   2.452  10.377  0.5971  0.9464  1.1751
  703TMC3    H110399   0.976   2.337  10.144 -0.3078 -0.3834  0.4060
  703TMC3    H210400   1.031   2.368  10.555  0.1523 -1.7525 -0.2726
  703TMC3    C710401   1.172   2.359  10.337  0.0903 -0.1013 -0.0036
  703TMC3    C810402   0.786   2.439  10.627 -0.6826  0.1545  0.3792
  703TMC3    O110403   1.231   2.410  10.430  0.1076  0.2783  0.4383
  703TMC3    O210404   0.872   2.412  10.712 -0.2061  0.1113 -0.6681
  704TMC3    C110405   2.683   4.334  12.392 -0.0060  0.0989  0.8830
  704TMC3    C210406   2.815   4.334  12.353  0.3976 -0.1970 -0.0587
  704TMC3    C310407   2.903   4.263  12.425 -0.0710  0.3233  0.2318
  704TMC3    C410408   2.640   4.271  12.504 -0.6976  0.2348  0.0038
  704TMC3    C510409   2.735   4.196  12.569 -0.1933  0.4796  0.0528
  704TMC3    C610410   2.864   4.185  12.532 -0.0956  0.0885  0.0635
  704TMC3     C10411   2.585   4.374  12.296 -0.0690 -0.2998  0.0483
  704TMC3     O10412   2.490   4.447  12.333 -0.0078  0.1661  0.5321
  704TMC3     H10413   2.840   4.391  12.264 -0.6088  1.0017  0.4305
  704TMC3    H110414   2.533   4.266  12.518 -0.5043 -0.2076  1.2965
  704TMC3    H210415   2.931   4.122  12.590 -0.6805  0.0025  0.6473
  704TMC3    C710416   2.673   4.098  12.656  0.5060  0.4071  0.0089
  704TMC3    C810417   3.033   4.249  12.366 -0.4488  0.0301  0.1734
  704TMC3    O110418   2.558   4.115  12.690 -0.4981 -0.2863  0.2449
  704TMC3    O210419   3.039   4.273  12.248  0.3629  0.3042 -0.5870
  705MPD2     C10420   2.586   2.434  16.739 -0.5319 -0.7774 -0.2042
  705MPD2    C110421   2.595   2.516  16.626 -0.1869 -0.2773  0.3109
  705MPD2    C210422   2.496   2.616  16.622 -0.6161 -0.1923 -0.0463
  705MPD2    C310423   2.392   2.613  16.714  0.1756 -0.2962  0.0766
  705MPD2    C410424   2.402   2.543  16.830  0.2085 -0.2884 -0.1048
  705MPD2    C510425   2.501   2.447  16.845 -0.2407 -0.1544  0.5640
  705MPD2     H10426   2.493   2.684  16.538 -0.8881  2.2727  1.9567
  705MPD2    H110427   2.322   2.553  16.902  1.3990 -1.8491  1.4472
  705MPD2    H210428   2.654   2.350  16.748 -0.7484 -1.1647 -2.1314
  705MPD2    H310429   2.487   2.370  16.920  0.3159 -0.3126  0.5051
  705MPD2     N10430   2.278   2.704  16.705 -0.6481  0.0937  0.1679
  705MPD2    H510431   2.202   2.690  16.771 -0.7889 -1.3164 -0.2901
  705MPD2    N110432   2.698   2.515  16.530  0.0039 -0.9790  0.1292
  705MPD2    H710433   2.693   2.588  16.461 -1.6109 -2.8281 -1.7092
  706TMC3    C110434   2.989   2.383  16.221 -0.3130 -0.0273 -0.0661
  706TMC3    C210435   2.966   2.507  16.166  0.0103 -0.8773 -0.1898
  706TMC3    C310436   2.927   2.614  16.248 -0.1306 -1.0336 -0.0545
  706TMC3    C410437   2.960   2.365  16.356 -0.3671  0.0510 -0.1922
  706TMC3    C510438   2.908   2.467  16.423 -0.0602  0.4931 -0.1637
  706TMC3    C610439   2.884   2.596  16.379 -0.4539  0.9351 -0.4263
  706TMC3     C10440   3.066   2.281  16.156  0.7449  0.4066  0.3210
  706TMC3     O10441   3.099   2.182  16.216  0.3345  0.7301  0.2275
  706TMC3     H10442   2.991   2.534  16.064 -0.9585  0.6925 -0.0054
  706TMC3    H110443   2.972   2.271  16.409  0.9103 -0.8975 -2.1620
  706TMC3    H210444   2.868   2.682  16.443 -0.0752  0.1856  0.6820
  706TMC3    C710445   2.808   2.427  16.525  0.1953  0.5294 -0.0817
  706TMC3    C810446   2.981   2.748  16.201  0.3175  0.2140 -0.1853
  706TMC3    O110447   2.826   2.324  16.580  0.1167 -0.1034 -0.2268
  706TMC3    O210448   2.938   2.781  16.090 -0.0551  1.1564  0.1944
  707TMC3    C110449   4.192   1.465   1.611  0.1051  0.5159  0.0153
  707TMC3    C210450   4.104   1.361   1.607 -0.3629 -0.1052 -0.4231
  707TMC3    C310451   4.008   1.339   1.704  0.8900  0.4482  0.6675
  707TMC3    C410452   4.205   1.535   1.725  0.1328  0.2266  0.1090
  707TMC3    C510453   4.125   1.504   1.829  0.4772  0.6988  0.9404
  707TMC3    C610454   4.028   1.404   1.825 -0.4414 -0.6326 -0.0202
  707TMC3     C10455   4.305   1.427   1.538  0.0234  0.3854 -0.1681
  707TMC3     O10456   4.301   1.319   1.480  0.1133  0.6562 -0.4374
  707TMC3     H10457   4.086   1.309   1.513  1.1047  3.2287 -2.5629
  707TMC3    H110458   4.284   1.609   1.733  0.6657 -0.3700  0.3579
  707TMC3    H210459   3.959   1.377   1.904 -0.9866 -3.3540 -1.4018
  707TMC3    C710460   4.127   1.583   1.951 -0.3213 -0.3864  0.7054
  707TMC3    C810461   3.968   1.201   1.713 -0.8180  0.1598 -0.1055
  707TMC3    O110462   4.030   1.559   2.028 -0.5847  0.3284  0.7709
  707TMC3    O210463   3.863   1.179   1.772  0.0592 -0.7952 -0.3302
  708MPD2     C10464   1.055   1.547  13.867  0.1633 -0.0810 -0.8493
  708MPD2    C110465   0.971   1.515  13.973 -0.0485 -0.6225  0.2125
  708MPD2    C210466   1.026   1.485  14.100  0.2028  0.1132 -0.3553
  708MPD2    C310467   1.161   1.485  14.128 -0.2571 -0.0802 -0.2790
  708MPD2    C410468   1.244   1.543  14.028 -1.1894  0.0392 -0.0422
  708MPD2    C510469   1.192   1.567  13.904  0.9125 -0.1399  0.3772
  708MPD2     H10470   0.963   1.440  14.176 -0.5526  1.4820 -0.1679
  708MPD2    H110471   1.351   1.550  14.045 -1.0329  0.6786 -1.3347
  708MPD2    H210472   1.023   1.567  13.766  1.5316  3.0641 -0.6580
  708MPD2    H310473   1.262   1.594  13.825 -1.4260  0.7750 -1.3932
  708MPD2     N10474   1.203   1.456  14.251 -0.4039  0.1034 -0.0505
  708MPD2    H510475   1.131   1.447  14.321 -1.0512  1.1963 -0.5648
  708MPD2    N110476   0.834   1.503  13.943  0.5680  0.3009 -0.0324
  708MPD2    H710477   0.809   1.499  13.845  1.3641 -0.6220 -0.2014
  709TMC3    C110478   0.620   1.431  13.979 -0.0413 -0.8503  0.4383
  709TMC3    C210479   0.640   1.337  13.878 -0.3888 -0.1476 -0.2385
  709TMC3    C310480   0.599   1.204  13.903  0.2106  0.0339  0.2698
  709TMC3    C410481   0.547   1.388  14.082 -0.2443 -0.6679  0.3928
  709TMC3    C510482   0.515   1.256  14.111 -0.0838 -0.4644 -0.2032
  709TMC3    C610483   0.545   1.163  14.019 -0.1828 -0.0233 -1.0937
  709TMC3     C10484   0.738   1.481  14.035 -0.3106 -0.3095  0.1727
  709TMC3     O10485   0.748   1.478  14.157 -0.4657 -0.0098 -0.6851
  709TMC3     H10486   0.701   1.353  13.790 -1.3370  2.7747 -0.3643
  709TMC3    H110487   0.522   1.463  14.156 -2.3284  0.8028 -1.7872
  709TMC3    H210488   0.512   1.061  14.033  0.2693  0.1483  1.1143
  709TMC3    C710489   0.513   1.225  14.249  0.0921  0.0517  0.4910
  709TMC3    C810490   0.557   1.122  13.786 -0.4325  0.2505  0.4688
  709TMC3    O110491   0.468   1.118  14.280  0.1477 -0.1352 -0.0954
  709TMC3    O210492   0.480   1.030  13.809 -0.2822 -0.2953  0.4164
  710TMC3    C110493   1.769   1.879   0.469 -0.5570 -0.0670 -0.4102
  710TMC3    C210494   1.844   1.932   0.364  0.0175 -0.1278  0.4453
  710TMC3    C310495   1.979   1.892   0.351  0.8953  0.6205  1.1099
  710TMC3    C410496   1.819   1.790   0.560 -0.3811 -0.5109  0.0447
  710TMC3    C510497   1.951   1.742   0.538 -0.3256  0.0177 -0.1087
  710TMC3    C610498   2.024   1.795   0.430  0.1291  0.6386 -0.0435
  710TMC3     C10499   1.637   1.929   0.484 -0.4322  0.3455  0.4749
  710TMC3     O10500   1.572   1.969   0.386  0.0420 -0.2013 -0.6388
  710TMC3     H10501   1.791   2.010   0.310  0.0387 -0.7568 -0.4767
  710TMC3    H110502   1.755   1.742   0.634  0.1880 -2.8676 -1.0024
  710TMC3    H210503   2.123   1.753   0.417 -0.9910 -1.8503 -0.4689
  710TMC3    C710504   1.988   1.620   0.610 -0.4740 -0.1345 -0.1064
  710TMC3    C810505   2.077   1.968   0.270  0.7648 -0.3489 -0.0763
  710TMC3    O110506   1.913   1.586   0.703  0.3186 -0.2526 -0.2673
  710TMC3    O210507   2.186   1.915   0.241 -0.9703  0.0190 -0.1561
  711TMC3    C110508   2.060   3.269  15.202  0.3926 -0.2625  0.0241
  711TMC3    C210509   2.164   3.355  15.192 -0.7155  0.1168  0.3360
  711TMC3    C310510   2.270   3.338  15.275 -0.3350  0.4294 -0.3006
  711TMC3    C410511   2.056   3.163  15.293 -0.4480 -0.0140 -0.2403
  711TMC3    C510512   2.161   3.156  15.379  0.0844 -0.1255 -0.4429
  711TMC3    C610513   2.266   3.238  15.379 -0.2562  0.3965  0.5446
  711TMC3     C10514   1.932   3.302  15.138  0.6134 -0.0499  0.3487
  711TMC3     O10515   1.855   3.205  15.129  0.0076 -0.9344  0.7207
  711TMC3     H10516   2.191   3.425  15.113  1.0706  0.7123  1.4751
  711TMC3    H110517   1.966   3.104  15.305 -0.9189  0.6366 -0.6106
  711TMC3    H210518   2.341   3.229  15.457 -3.1568  1.1514  3.4290
  711TMC3    C710519   2.180   3.032  15.450 -0.6268 -0.2343 -0.4730
  711TMC3    C810520   2.366   3.445  15.281 -1.2215 -0.2702  0.0335
  711TMC3    O110521   2.278   3.025  15.523  0.0654  0.8855 -0.7693
  711TMC3    O210522   2.329   3.551  15.229  0.6383  0.3403  0.1771
  712MPD2     C10523   3.080   0.286  14.251  0.6358 -0.1059  0.3537
  712MPD2    C110524   3.059   0.180  14.160 -0.1557  0.2262 -0.0412
  712MPD2    C210525   3.103   0.197  14.029 -0.0890 -0.4037 -0.0782
  712MPD2    C310526   3.168   0.311  13.990 -0.0155  0.3276  0.5487
  712MPD2    C410527   3.173   0.416  14.075  0.4372 -0.8563 -0.4784
  712MPD2    C510528   3.132   0.400  14.204  0.0919 -0.8281  0.4302
  712MPD2     H10529   3.066   0.129  13.953 -0.5813  0.0175 -0.2125
  712MPD2    H110530   3.214   0.509  14.037  0.0580 -0.1629  0.7967
  712MPD2    H210531   3.077   0.274  14.358 -1.1496 -0.3259  0.2769
  712MPD2    H310532   3.149   0.485  14.269  0.7507 -0.5711 -0.0906
  712MPD2     N10533   3.211   0.332  13.854  0.3115  0.2286  0.3885
  712MPD2    H510534   3.230   0.428  13.831  0.5443  1.0112  3.7455
  712MPD2    N110535   3.006   0.056  14.197 -0.1773  0.6718 -0.5287
  712MPD2    H710536   3.007   4.714  14.121  2.4237 -0.3129  0.4024
  713TMC3    C110537   3.293   0.294  13.648 -0.2783  0.3124 -0.1447
  713TMC3    C210538   3.422   0.253  13.616 -0.3497 -0.3891  0.6057
  713TMC3    C310539   3.464   0.298  13.491 -0.4328 -0.1118 -0.8450
  713TMC3    C410540   3.212   0.358  13.566 -0.0822  0.1629  0.2344
  713TMC3    C510541   3.256   0.388  13.441  0.5421 -0.0004  0.1166
  713TMC3    C610542   3.386   0.370  13.408 -0.8820  0.3582  0.4261
  713TMC3     C10543   3.224   0.235  13.764 -0.2298  0.7037 -0.2809
  713TMC3     O10544   3.217   0.112  13.773 -0.0039  0.9607  0.4929
  713TMC3     H10545   3.481   0.197  13.688  1.8060  1.4608  0.2882
  713TMC3    H110546   3.112   0.387  13.596  0.1874  2.1528 -0.7419
  713TMC3    H210547   3.401   0.376  13.301 -0.9734  0.7773  0.4354
  713TMC3    C710548   3.205   0.515  13.387 -0.6301  0.1947 -0.3965
  713TMC3    C810549   3.594   0.255  13.440 -0.2566 -0.4088 -0.6249
  713TMC3    O110550   3.280   0.596  13.339 -0.4989 -0.3427  0.2313
  713TMC3    O210551   3.617   0.281  13.323  0.8359 -0.1691  0.3145
  714MPD2     C10552   0.509   3.048   1.907  0.1064  0.9921 -0.1916
  714MPD2    C110553   0.546   3.022   1.778  0.6517  0.3409  0.3349
  714MPD2    C210554   0.496   3.100   1.676  0.5398 -0.5256 -0.5067
  714MPD2    C310555   0.424   3.213   1.705  0.4811  0.4025 -0.2586
  714MPD2    C410556   0.380   3.236   1.834 -0.6709 -0.3665 -0.4143
  714MPD2    C510557   0.435   3.157   1.932 -0.3152 -0.4424 -0.6910
  714MPD2     H10558   0.527   3.082   1.574  1.3918  1.0102 -0.5273
  714MPD2    H110559   0.311   3.314   1.862  1.6014  1.4926  0.0309
  714MPD2    H210560   0.547   2.986   1.987 -0.3900  1.6982  0.5880
  714MPD2    H310561   0.411   3.174   2.036  1.2460  0.4848 -0.4723
  714MPD2     N10562   0.379   3.289   1.591 -0.2770 -0.1672  0.0191
  714MPD2    H510563   0.403   3.261   1.497 -1.5517  1.4800 -0.7912
  714MPD2    N110564   0.635   2.910   1.759  0.6545 -0.3359 -0.4558
  714MPD2    H710565   0.671   2.857   1.837  1.3543  3.1807  1.5915
  715TMC3    C110566   0.781   2.762   1.645  1.0603 -0.2695 -0.5768
  715TMC3    C210567   0.779   2.655   1.564  0.1806 -0.0175 -0.5898
  715TMC3    C310568   0.899   2.588   1.546  1.0153 -0.8793  0.2104
  715TMC3    C410569   0.886   2.800   1.714  0.1146  0.6502 -0.2574
  715TMC3    C510570   0.999   2.727   1.701 -0.6045  0.5471  0.0038
  715TMC3    C610571   1.006   2.615   1.627 -0.1811 -0.0609 -0.2700
  715TMC3     C10572   0.671   2.854   1.633 -0.6382 -0.5967  0.5835
  715TMC3     O10573   0.614   2.865   1.525 -0.7785  0.1459 -0.1496
  715TMC3     H10574   0.682   2.633   1.519 -0.0264  1.6641 -0.9978
  715TMC3    H110575   0.884   2.883   1.784 -0.6877  0.1347  0.3172
  715TMC3    H210576   1.107   2.577   1.614 -0.5330 -1.9599  2.6173
  715TMC3    C710577   1.109   2.751   1.794  0.4171  0.2383 -0.0988
  715TMC3    C810578   0.898   2.457   1.479  0.7283  0.1935  0.5214
  715TMC3    O110579   1.184   2.663   1.831 -0.0402 -0.4813 -0.0907
  715TMC3    O210580   0.811   2.434   1.394 -0.0435  0.7009 -0.1467
  716MPD2     C10581   0.274   1.638   9.810  0.1704 -0.0626  0.3826
  716MPD2    C110582   0.252   1.505   9.783 -0.5050 -0.6918 -0.7866
  716MPD2    C210583   0.293   1.413   9.883 -0.4681 -0.2225  0.0798
  716MPD2    C310584   0.366   1.449   9.992 -0.1893 -0.2840  0.2111
  716MPD2    C410585   0.407   1.581  10.003 -0.1900 -0.5640 -0.7127
  716MPD2    C510586   0.350   1.665   9.918 -0.0660 -0.3808  0.4856
  716MPD2     H10587   0.252   1.313   9.889 -0.9728 -0.1144 -1.5728
  716MPD2    H110588   0.480   1.616  10.075  0.5157 -0.1359 -1.6469
  716MPD2    H210589   0.227   1.721   9.757 -0.4248 -0.8180 -0.2932
  716MPD2    H310590   0.371   1.770   9.936 -0.4479 -0.0454 -0.9626
  716MPD2     N10591   0.404   1.353  10.085  0.0201 -0.0431  0.1010
  716MPD2    H510592   0.397   1.256  10.054 -0.5599  0.3291 -0.9280
  716MPD2    N110593   0.176   1.472   9.662 -0.5541 -0.0746 -0.0556
  716MPD2    H710594   0.138   1.550   9.609 -2.6968 -2.7892 -2.5706
  717TMC3    C110595   0.507   1.272  10.300 -0.2047 -0.8675  0.1956
  717TMC3    C210596   0.546   1.156  10.245  0.0656 -0.2450  0.4035
  717TMC3    C310597   0.623   1.078  10.324 -0.3730  0.0789  0.3686
  717TMC3    C410598   0.541   1.311  10.429  0.2833  0.4125  0.2788
  717TMC3    C510599   0.608   1.229  10.514  0.3698  0.0768 -0.3724
  717TMC3    C610600   0.656   1.114  10.455  0.5935  0.1879 -0.2197
  717TMC3     C10601   0.458   1.376  10.211 -0.1119 -0.0998 -1.0673
  717TMC3     O10602   0.461   1.489  10.263  0.2820 -0.5506  0.1556
  717TMC3     H10603   0.509   1.130  10.147  0.7692  0.4733 -0.0513
  717TMC3    H110604   0.516   1.410  10.463 -0.1453 -0.6206  3.0147
  717TMC3    H210605   0.715   1.050  10.518 -0.6206  0.6757  1.4389
  717TMC3    C710606   0.706   1.301  10.592 -0.3540  0.4685  0.2675
  717TMC3    C810607   0.647   0.939  10.287 -0.1601 -0.7983 -0.4726
  717TMC3    O110608   0.823   1.267  10.575 -0.4328  0.3012 -0.0083
  717TMC3    O210609   0.570   0.893  10.200 -0.3060 -0.2174 -0.0697
  718MPD2     C10610   4.154   0.404  12.513  0.1555 -0.1431  0.8115
  718MPD2    C110611   4.183   0.274  12.459  0.3849 -0.8147 -0.5636
  718MPD2    C210612   4.088   0.181  12.490  0.1374  0.6086 -0.3700
  718MPD2    C310613   3.983   0.202  12.573  0.0025 -0.8620  0.1550
  718MPD2    C410614   3.954   0.328  12.612  0.8510  0.3452 -0.4713
  718MPD2    C510615   4.038   0.431  12.584 -0.2349 -0.1819 -0.8457
  718MPD2     H10616   4.107   0.077  12.466 -0.3475  0.0905  1.4311
  718MPD2    H110617   3.862   0.364  12.656 -0.1641 -0.3146 -2.0498
  718MPD2    H210618   4.220   0.489  12.503  1.1604 -1.2272 -1.7535
  718MPD2    H310619   4.020   0.528  12.629 -0.0190 -1.0515  1.0858
  718MPD2     N10620   3.908   0.088  12.609 -0.0796 -0.1707  0.2319
  718MPD2    H510621   3.931   4.723  12.568 -1.4696 -0.1634 -0.5379
  718MPD2    N110622   4.313   0.253  12.397  0.3003 -0.3480  0.5829
  718MPD2    H710623   4.371   0.334  12.383 -0.4512  0.3397  1.4568
  719TMC3    C110624   4.497   0.117  12.334  0.3551 -0.0853  0.2511
  719TMC3    C210625   4.518   4.715  12.294  0.1509 -0.2896 -0.5293
  719TMC3    C310626   4.636   4.656  12.328 -0.5327 -0.7479 -0.6611
  719TMC3    C410627   4.590   0.191  12.396 -0.3199  0.0276 -0.0462
  719TMC3    C510628   4.707   0.137  12.436  0.2582 -0.3113 -0.1100
  719TMC3    C610629   0.009   0.000  12.403 -0.3768 -0.4574 -0.0393
  719TMC3     C10630   4.360   0.125  12.369 -0.1449  0.3893 -0.8466
  719TMC3     O10631   4.303   0.017  12.378 -0.0123  0.2372  0.7244
  719TMC3     H10632   4.442   4.662  12.237  0.3432 -0.2600 -0.8168
  719TMC3    H110633   4.563   0.294  12.416 -0.9960  0.0953 -1.3039
  719TMC3    H210634   0.110   4.689  12.416  0.3511  1.7853  0.6843
  719TMC3    C710635   0.094   0.231  12.440 -0.1631  1.3981 -0.4228
  719TMC3    C810636   4.621   4.525  12.381  0.3403 -0.3841  0.0479
  719TMC3    O110637   0.069   0.347  12.431 -0.0845  0.1772  0.0330
  719TMC3    O210638   4.719   4.463  12.409 -0.0671 -0.3681 -0.4851
  720MPD2     C10639   3.224   1.729  14.515 -0.5863  0.3624 -0.1832
  720MPD2    C110640   3.321   1.758  14.424 -0.1640  0.1815 -0.8897
  720MPD2    C210641   3.448   1.790  14.475 -0.4136 -0.0920  0.1909
  720MPD2    C310642   3.475   1.786  14.609 -0.8919 -0.8333  0.3022
  720MPD2    C410643   3.377   1.755  14.705 -0.0252  0.8357  0.1996
  720MPD2    C510644   3.249   1.736  14.648  0.4268 -0.0856 -0.5218
  720MPD2     H10645   3.523   1.826  14.405 -1.0520  3.1714  1.2166
  720MPD2    H110646   3.388   1.741  14.812 -1.9479  1.5265  0.4929
  720MPD2    H210647   3.122   1.699  14.490  0.1557 -1.0247 -1.5614
  720MPD2    H310648   3.169   1.724  14.720  3.8129  0.2950  3.3052
  720MPD2     N10649   3.612   1.809  14.649 -0.0734 -0.6328  0.5269
  720MPD2    H510650   3.680   1.849  14.585  1.4520 -0.7078  2.0856
  720MPD2    N110651   3.304   1.768  14.283  0.0878  0.0485 -0.2566
  720MPD2    H710652   3.382   1.807  14.231 -1.2493  4.0105  0.6971
  721TMC3    C110653   3.805   1.838  14.789 -0.4929 -0.1149 -0.3441
  721TMC3    C210654   3.843   1.810  14.916  0.3498 -0.4218  0.1893
  721TMC3    C310655   3.972   1.765  14.935  0.7875  1.2045  0.6244
  721TMC3    C410656   3.882   1.823  14.682 -0.2342 -0.6640  0.0906
  721TMC3    C510657   4.017   1.807  14.715 -0.2501 -1.0674 -0.7098
  721TMC3    C610658   4.068   1.767  14.836 -0.9023 -0.4956 -0.1147
  721TMC3     C10659   3.661   1.808  14.774  0.8333  0.2720  0.4565
  721TMC3     O10660   3.597   1.769  14.873 -0.7091 -0.5364  0.1898
  721TMC3     H10661   3.775   1.818  14.999  1.3767 -1.4522  1.1360
  721TMC3    H110662   3.853   1.857  14.584  0.9425 -1.7027 -0.6239
  721TMC3    H210663   4.171   1.736  14.853  0.0289  1.6946 -1.6457
  721TMC3    C710664   4.103   1.774  14.600 -0.2490 -0.8524 -0.0515
  721TMC3    C810665   4.021   1.778  15.066  0.4846 -0.2172 -0.1662
  721TMC3    O110666   4.095   1.836  14.496  0.3614  0.1111  0.3936
  721TMC3    O210667   4.132   1.828  15.070  0.7835  0.0679  0.1316
  722MPD2     C10668   1.957   0.379  13.413  0.4657 -0.1889  0.6418
  722MPD2    C110669   1.923   0.486  13.330 -0.5992 -0.0008  0.7657
  722MPD2    C210670   1.786   0.512  13.308  0.0968  0.0710 -0.0067
  722MPD2    C310671   1.693   0.417  13.362 -0.2353 -0.9692  0.4091
  722MPD2    C410672   1.732   0.329  13.458 -0.6639 -0.0964  0.0475
  722MPD2    C510673   1.865   0.305  13.485  0.7756  0.0644  0.1525
  722MPD2     H10674   1.759   0.588  13.236  0.8916 -0.2546 -0.6440
  722MPD2    H110675   1.662   0.270  13.515 -1.1314  0.5123  0.1034
  722MPD2    H210676   2.062   0.356  13.426  0.4408 -0.6842 -0.0542
  722MPD2    H310677   1.902   0.226  13.550  0.1531  0.5406  1.0941
  722MPD2     N10678   1.558   0.425  13.316  0.4701 -0.1332  0.2954
  722MPD2    H510679   1.525   0.503  13.259  0.7530 -1.1099 -1.2131
  722MPD2    N110680   2.023   0.567  13.274  0.1147 -0.2639  0.4147
  722MPD2    H710681   1.999   0.651  13.222 -1.5006 -0.2991  1.0902
  723TMC3    C110682   1.340   0.351  13.251  0.3784  0.4218 -0.0252
  723TMC3    C210683   1.262   0.244  13.229  0.2721  0.4185 -0.0334
  723TMC3    C310684   1.155   0.264  13.142 -0.1863  0.4874  0.1249
  723TMC3    C410685   1.323   0.468  13.187  0.3995 -0.5772  0.1758
  723TMC3    C510686   1.206   0.488  13.112  0.6678 -0.6159  0.1565
  723TMC3    C610687   1.124   0.385  13.090 -0.4078  0.5317  0.3152
  723TMC3     C10688   1.472   0.316  13.314 -0.4196 -0.8064 -0.2384
  723TMC3     O10689   1.488   0.201  13.352 -0.0414 -0.4185  0.3400
  723TMC3     H10690   1.280   0.149  13.279  0.1938 -0.1497 -1.0878
  723TMC3    H110691   1.395   0.548  13.200 -0.6021  0.3250  0.1774
  723TMC3    H210692   1.038   0.397  13.024 -0.9086 -1.9201  0.5126
  723TMC3    C710693   1.198   0.601  13.021  0.5686  0.3908 -0.2402
  723TMC3    C810694   1.050   0.162  13.130  0.8815  0.4839 -0.2233
  723TMC3    O110695   1.154   0.573  12.910 -0.4995  0.6252 -0.2646
  723TMC3    O210696   0.932   0.195  13.131 -0.4416 -0.6390  0.5041
  724TMC3    C110697   2.231   2.013   9.656  0.0099  0.2961  0.7462
  724TMC3    C210698   2.164   2.124   9.695 -0.1085 -0.2725  0.2201
  724TMC3    C310699   2.227   2.247   9.673  0.3737 -0.4253 -0.3119
  724TMC3    C410700   2.360   2.019   9.604  0.4711 -0.3628 -0.4864
  724TMC3    C510701   2.419   2.143   9.589  0.3440 -0.0939  0.4540
  724TMC3    C610702   2.354   2.258   9.627  0.0884 -0.4070  0.6956
  724TMC3     C10703   2.182   1.882   9.704 -0.0322  0.2422 -0.9782
  724TMC3     O10704   2.062   1.876   9.725  0.5673 -0.0372  0.4387
  724TMC3     H10705   2.070   2.128   9.751  0.3479 -1.1001  1.0426
  724TMC3    H110706   2.418   1.930   9.583  1.1712  0.2552 -1.1863
  724TMC3    H210707   2.396   2.356   9.606 -2.0393 -0.0975 -2.1981
  724TMC3    C710708   2.556   2.168   9.582  0.3186 -0.2258 -0.0737
  724TMC3    C810709   2.148   2.365   9.702 -0.6412 -0.1235  0.2296
  724TMC3    O110710   2.597   2.274   9.625  0.3450  0.3486  0.1541
  724TMC3    O210711   2.028   2.357   9.704 -0.1184 -0.4657 -0.1356
  725TMC3    C110712   3.904   1.688  13.111  0.0701 -0.3042  0.2999
  725TMC3    C210713   3.777   1.640  13.069 -0.2772  0.2437  0.2966
  725TMC3    C310714   3.768   1.544  12.968  0.3388  0.0364  0.3515
  725TMC3    C410715   4.016   1.655  13.043  0.3312  0.0756  0.0412
  725TMC3    C510716   4.000   1.576  12.931 -0.1235 -0.4414  0.4890
  725TMC3    C610717   3.880   1.507  12.906  0.6053  0.0596  0.4366
  725TMC3     C10718   3.916   1.784  13.219 -0.5841 -0.2812  0.0993
  725TMC3     O10719   4.019   1.849  13.222 -0.1674  0.2789  1.3427
  725TMC3     H10720   3.686   1.687  13.104  0.9642  0.8506  2.6697
  725TMC3    H110721   4.107   1.703  13.076  1.6144  0.1328 -3.5682
  725TMC3    H210722   3.870   1.440  12.821  0.5784 -1.6166  1.7445
  725TMC3    C710723   4.093   1.585  12.823 -0.0439 -0.3090  0.2372
  725TMC3    C810724   3.658   1.566  12.873  1.0738 -0.0246  0.5488
  725TMC3    O110725   4.060   1.511  12.730  0.1206 -0.3925 -0.4672
  725TMC3    O210726   3.542   1.534  12.906  0.1120  0.0060 -0.1147
  726MPD2     C10727   2.291   3.463  10.666 -1.0044  0.4007  0.2313
  726MPD2    C110728   2.227   3.584  10.639  0.8681 -0.4997  0.2306
  726MPD2    C210729   2.104   3.610  10.699  0.1797  0.0318 -0.7500
  726MPD2    C310730   2.025   3.505  10.746 -0.3238  0.0538  0.2738
  726MPD2    C410731   2.082   3.381  10.767 -0.1411  0.9630 -0.1719
  726MPD2    C510732   2.213   3.361  10.722  0.7456 -0.2808  1.0663
  726MPD2     H10733   2.056   3.704  10.677 -1.2603 -0.5947 -0.2814
  726MPD2    H110734   2.020   3.296  10.795 -0.5041  0.0679 -3.7532
  726MPD2    H210735   2.397   3.445  10.650 -0.7653 -0.1815  2.4636
  726MPD2    H310736   2.263   3.267  10.738  1.3521 -0.3703 -1.3695
  726MPD2     N10737   1.885   3.522  10.770 -0.5235  0.1479  0.3452
  726MPD2    H510738   1.832   3.443  10.806 -1.3354  0.6929  0.3527
  726MPD2    N110739   2.282   3.685  10.565 -0.4842 -0.2202  0.2679
  726MPD2    H710740   2.238   3.777  10.565  1.9993  0.9623  2.0636
  727TMC3    C110741   2.424   3.787  10.405  0.5416 -0.3050  0.3680
  727TMC3    C210742   2.509   3.759  10.301  0.2250  0.2909 -0.0390
  727TMC3    C310743   2.589   3.861  10.258 -0.3303 -0.3816  0.1449
  727TMC3    C410744   2.398   3.911  10.450  0.5282 -0.3014  0.0988
  727TMC3    C510745   2.470   4.010  10.397  0.1667 -0.0192  0.0325
  727TMC3    C610746   2.565   3.987  10.305 -0.4613 -0.2909 -0.1144
  727TMC3     C10747   2.378   3.664  10.473 -0.1854 -0.3668  0.1837
  727TMC3     O10748   2.415   3.568  10.419 -0.3283  0.3824  0.0555
  727TMC3     H10749   2.531   3.659  10.266 -1.2627 -0.5041  1.2759
  727TMC3    H110750   2.343   3.924  10.542 -0.8406 -0.1207 -0.7262
  727TMC3    H210751   2.619   4.074  10.271  1.2318 -1.2948 -0.0245
  727TMC3    C710752   2.476   4.133  10.477  0.0698  0.3577  0.7474
  727TMC3    C810753   2.719   3.824  10.186 -0.4209  0.3398 -0.0240
  727TMC3    O110754   2.575   4.203  10.471  0.3412 -0.0288  0.5394
  727TMC3    O210755   2.734   3.706  10.167 -0.7522 -0.0030  0.3339
  728TMC3    C110756   1.158   2.438  15.617  0.2448 -0.8360 -0.3007
  728TMC3    C210757   1.193   2.552  15.676  0.5302 -0.2204  0.9091
  728TMC3    C310758   1.238   2.651  15.598  0.0482  0.3925  0.4008
  728TMC3    C410759   1.150   2.418  15.486  0.7221  0.0503 -0.3352
  728TMC3    C510760   1.187   2.527  15.406 -0.5428  0.0014 -0.0632
  728TMC3    C610761   1.227   2.644  15.460 -0.5334 -0.3906 -0.5760
  728TMC3     C10762   1.153   2.327  15.718  0.2628  0.1216  0.2155
  728TMC3     O10763   1.232   2.342  15.809  0.0019 -0.2219 -0.4511
  728TMC3     H10764   1.168   2.564  15.781 -1.4911  1.5991  0.2323
  728TMC3    H110765   1.152   2.319  15.442 -0.5545 -0.8937  1.7525
  728TMC3    H210766   1.277   2.711  15.391  0.1700 -0.4560 -0.1332
  728TMC3    C710767   1.155   2.519  15.266  0.1070 -0.2507 -0.4222
  728TMC3    C810768   1.257   2.779  15.663  0.1983 -0.2430 -0.6681
  728TMC3    O110769   1.130   2.413  15.212 -0.5380 -0.6358 -0.4732
  728TMC3    O210770   1.222   2.789  15.780 -0.6833 -0.7905  0.4456
  729MPD2     C10771   3.260   3.549  17.246 -0.1134  0.4085 -0.0556
  729MPD2    C110772   3.321   3.440  17.283 -0.0204  0.1880  0.1339
  729MPD2    C210773   3.385   3.443  17.406  0.5527 -0.1684  0.1729
  729MPD2    C310774   3.395   3.558  17.488 -0.1348  0.8603  0.1128
  729MPD2    C410775   3.330   3.667  17.441 -0.1375 -0.1392  0.4696
  729MPD2    C510776   3.255   3.663  17.325 -1.1089 -0.2167  0.3072
  729MPD2     H10777   3.430   3.350  17.440  1.4580 -0.6536 -2.3426
  729MPD2    H110778   3.337   3.760  17.495  0.7211 -0.9725  1.7791
  729MPD2    H210779   3.202   3.545  17.155 -0.1969 -0.6576  0.0393
  729MPD2    H310780   3.204   3.749  17.284  0.2998 -0.1550 -1.3456
  729MPD2     N10781   3.475   3.568  17.601 -0.8639 -0.2612 -0.1960
  729MPD2    H510782   3.477   3.665  17.634 -0.9634 -0.7601  1.3004
  729MPD2    N110783   3.327   3.333  17.190 -0.2438 -0.8806 -0.0054
  729MPD2    H710784   3.270   3.331  17.106 -0.8505 -2.3378  0.4431
  730TMC3    C110785   3.694   3.552  17.653  0.6661  0.3306  0.3106
  730TMC3    C210786   3.806   3.513  17.588  0.3685  0.9859 -0.1971
  730TMC3    C310787   3.924   3.566  17.632  0.8427 -0.3035  0.0221
  730TMC3    C410788   3.686   3.644   0.046 -0.0879 -0.4338 -0.6776
  730TMC3    C510789   3.804   3.701   0.077 -0.3450  0.2774  0.1799
  730TMC3    C610790   3.925   3.651   0.036 -0.1322 -1.0362 -0.8045
  730TMC3     C10791   3.571   3.476  17.623 -1.1024  0.3646  0.0129
  730TMC3     O10792   3.583   3.360  17.585 -0.1772  0.4083  0.0017
  730TMC3     H10793   3.816   3.425  17.525  0.3351  1.5090 -0.9358
  730TMC3    H110794   3.597   3.681   0.095  0.8256  0.2811  0.4469
  730TMC3    H210795   4.022   3.689   0.067 -0.6275  1.7981 -2.7814
  730TMC3    C710796   3.811   3.792   0.191  0.4653 -0.0624 -0.2576
  730TMC3    C810797   4.029   3.587  17.530  0.3084 -0.4217  0.4751
  730TMC3    O110798   3.721   3.773   0.274 -0.4780 -0.0940  0.0037
  730TMC3    O210799   4.139   3.627  17.562  0.4572 -0.3022  0.1628
  731MPD2     C10800   3.172   1.267  12.347 -0.3399 -0.1629  0.1266
  731MPD2    C110801   3.307   1.253  12.306  0.1436 -0.1657 -0.6013
  731MPD2    C210802   3.402   1.229  12.401  0.5306 -0.2914 -0.5274
  731MPD2    C310803   3.370   1.214  12.535 -0.2443  0.6700  0.5353
  731MPD2    C410804   3.238   1.237  12.577  0.4657  0.0007  0.3958
  731MPD2    C510805   3.147   1.271  12.480 -0.6621 -0.0015  0.9387
  731MPD2     H10806   3.505   1.222  12.369  0.3646  1.1750 -1.3679
  731MPD2    H110807   3.209   1.233  12.682  0.5913  0.4292  0.4468
  731MPD2    H210808   3.088   1.290  12.282 -0.0001 -4.0288 -1.7254
  731MPD2    H310809   3.043   1.284  12.510  0.0130  0.5079  3.0430
  731MPD2     N10810   3.477   1.177  12.621 -0.5732 -0.0492  0.2404
  731MPD2    H510811   3.565   1.153  12.576 -0.9144 -0.6142 -0.1178
  731MPD2    N110812   3.327   1.271  12.170 -0.2180  0.3581 -0.1157
  731MPD2    H710813   3.249   1.295  12.110 -0.5049  0.7679  0.4212
  732TMC3    C110814   3.415   1.288  11.960 -0.0277  0.1764 -0.4691
  732TMC3    C210815   3.298   1.241  11.902  0.3069 -0.3423  0.1675
  732TMC3    C310816   3.273   1.270  11.769 -0.7270  0.3291 -0.6169
  732TMC3    C410817   3.505   1.351  11.889 -0.2361 -0.1323 -0.1001
  732TMC3    C510818   3.478   1.380  11.757 -0.4555  0.0276  0.3237
  732TMC3    C610819   3.365   1.330  11.689  0.5412 -0.2044  0.3040
  732TMC3     C10820   3.444   1.263  12.098  0.2388 -0.4786 -0.3223
  732TMC3     O10821   3.557   1.280  12.144 -0.3896  0.0015 -0.1297
  732TMC3     H10822   3.245   1.164  11.957  1.1546  0.2482  1.7933
  732TMC3    H110823   3.593   1.383  11.943 -0.7233 -0.1443  0.7113
  732TMC3    H210824   3.333   1.355  11.589  0.2406  0.6526  0.6129
  732TMC3    C710825   3.572   1.442  11.673 -0.2723  0.3566  0.1978
  732TMC3    C810826   3.162   1.209  11.697 -1.0807  0.7281  0.4116
  732TMC3    O110827   3.547   1.434  11.556 -0.3794 -0.1532  0.1258
  732TMC3    O210828   3.178   1.170  11.583  0.0969  0.4136 -0.2592
  733TMC3    C110829   3.708   4.499  12.850 -0.4293  0.0066  0.5540
  733TMC3    C210830   3.721   4.626  12.812 -0.1408  0.1695 -0.4029
  733TMC3    C310831   3.837   4.675  12.767  0.0614 -0.1274  0.6023
  733TMC3    C410832   3.817   4.422  12.856  0.3498  0.0055  0.4525
  733TMC3    C510833   3.934   4.479  12.817 -0.1973  0.3486 -1.0999
  733TMC3    C610834   3.953   4.611  12.771 -0.1897 -0.6029  0.1557
  733TMC3     C10835   3.584   4.465  12.919  0.0473  0.0910 -0.6957
  733TMC3     O10836   3.501   4.556  12.910  0.6386  0.1672 -0.2564
  733TMC3     H10837   3.636   4.691  12.793  0.0709  1.3911  2.8201
  733TMC3    H110838   3.823   4.318  12.885 -0.5222 -0.1754 -0.0314
  733TMC3    H210839   4.046   4.667  12.770 -0.1773 -0.6361 -1.9710
  733TMC3    C710840   4.052   4.399  12.804 -0.4520  0.3871 -0.0987
  733TMC3    C810841   3.832   0.083  12.719 -0.3076 -0.9574  0.6990
  733TMC3    O110842   4.061   4.300  12.871  0.3599 -0.2238  0.2938
  733TMC3    O210843   3.779   0.173  12.784  0.7931  0.1825 -0.0462
  734MPD2     C10844   1.357   2.277  12.824 -0.7727 -0.0744 -0.5532
  734MPD2    C110845   1.305   2.208  12.718 -0.0470  1.0234 -0.1811
  734MPD2    C210846   1.331   2.261  12.594  0.0681 -0.0755  0.7195
  734MPD2    C310847   1.399   2.376  12.568  0.8879  0.3038  0.1116
  734MPD2    C410848   1.435   2.460  12.675 -0.2080 -0.0260  0.4028
  734MPD2    C510849   1.412   2.409  12.799  0.8539 -0.0408 -0.1568
  734MPD2     H10850   1.301   2.199  12.510  0.9693 -0.1528  0.4556
  734MPD2    H110851   1.490   2.552  12.656  2.8412 -1.6718  1.4397
  734MPD2    H210852   1.359   2.242  12.927  2.6527  0.3068 -0.4692
  734MPD2    H310853   1.440   2.475  12.880  1.3281 -0.3712 -0.0548
  734MPD2     N10854   1.413   2.411  12.429 -0.0982 -0.1887 -0.1330
  734MPD2    H510855   1.385   2.340  12.362 -1.3747 -1.4073  1.7229
  734MPD2    N110856   1.235   2.085  12.732 -0.6321  0.2158 -0.5593
  734MPD2    H710857   1.232   2.034  12.820  0.3252 -1.3391 -1.4234
  735TMC3    C110858   1.090   1.916  12.659  0.4452 -0.4824 -0.3400
  735TMC3    C210859   0.981   1.906  12.574  0.0350  0.3310  0.0023
  735TMC3    C310860   0.956   1.795  12.498 -0.0496  0.5943 -0.4495
  735TMC3    C410861   1.174   1.811  12.684  0.0580 -0.2824  0.3357
  735TMC3    C510862   1.139   1.690  12.627  0.3031 -0.5070 -0.5150
  735TMC3    C610863   1.033   1.688  12.535  0.4985 -0.0576 -0.6371
  735TMC3     C10864   1.153   2.040  12.629 -0.3180  0.1896  0.2253
  735TMC3     O10865   1.098   2.090  12.533 -0.6023  0.0187 -0.1344
  735TMC3     H10866   0.905   1.984  12.570 -0.1238  0.2060  0.5116
  735TMC3    H110867   1.257   1.821  12.753  1.4081 -0.1353 -1.3050
  735TMC3    H210868   1.032   1.601  12.469  1.7726 -0.5356 -0.0240
  735TMC3    C710869   1.247   1.597  12.620  0.1520  0.0356  0.3474
  735TMC3    C810870   0.943   1.819  12.355 -0.2453  0.2552 -0.3386
  735TMC3    O110871   1.360   1.641  12.647 -0.6427  0.4714 -0.2724
  735TMC3    O210872   0.898   1.724  12.286 -0.1375  0.1378  0.0130
  736MPD2     C10873   1.236   1.243  12.564  0.3286  0.3606  0.2139
  736MPD2    C110874   1.290   1.371  12.543  0.2821 -0.1047 -0.7842
  736MPD2    C210875   1.422   1.390  12.503 -0.3240  0.0614 -1.1470
  736MPD2    C310876   1.483   1.277  12.451 -0.6053  0.1665 -1.1304
  736MPD2    C410877   1.426   1.155  12.458  0.3127  0.3544 -0.3452
  736MPD2    C510878   1.301   1.140  12.514 -0.6074  0.4385  0.0456
  736MPD2     H10879   1.460   1.492  12.504 -0.2467  0.0197  0.2775
  736MPD2    H110880   1.481   1.077  12.407  3.1584  2.6758 -0.8721
  736MPD2    H210881   1.137   1.231  12.606 -0.1396  0.6433 -0.8227
  736MPD2    H310882   1.256   1.042  12.508  1.7625 -0.7275  1.4856
  736MPD2     N10883   1.606   1.282  12.391 -0.7128 -0.0021 -0.0178
  736MPD2    H510884   1.656   1.194  12.381 -0.2786  0.0715  1.5686
  736MPD2    N110885   1.211   1.480  12.572 -0.7071  0.0020  0.2719
  736MPD2    H710886   1.113   1.453  12.573 -0.9515  0.8511 -0.3916
  737TMC3    C110887   1.793   1.370  12.278  0.6080 -0.1011 -0.4377
  737TMC3    C210888   1.869   1.480  12.256  0.3289 -0.4749  0.2928
  737TMC3    C310889   1.953   1.486  12.147 -0.0046 -0.0103 -0.0987
  737TMC3    C410890   1.789   1.264  12.191  0.1972 -0.0007 -0.2903
  737TMC3    C510891   1.877   1.270  12.083  0.5680  0.1489  0.1566
  737TMC3    C610892   1.950   1.390  12.052 -1.0388  0.1267 -0.3722
  737TMC3     C10893   1.674   1.394  12.355  0.2287 -0.4834  0.1380
  737TMC3     O10894   1.660   1.504  12.397  0.5783 -0.1029 -0.3749
  737TMC3     H10895   1.859   1.566  12.321  0.8190  0.9121 -1.4631
  737TMC3    H110896   1.725   1.177  12.200 -0.0108  0.4905  2.8137
  737TMC3    H210897   2.019   1.397  11.969  0.3521  0.2033  0.7814
  737TMC3    C710898   1.893   1.152  12.012 -0.1371  0.0056 -0.3818
  737TMC3    C810899   2.037   1.603  12.125  0.2015 -0.2514 -0.4584
  737TMC3    O110900   1.850   1.049  12.067  0.1813  0.3679 -0.0753
  737TMC3    O210901   2.105   1.633  12.221 -0.0351 -0.3889  0.0346
  738MPD2     C10902   2.496   0.878  15.301 -0.6014  0.0205  0.4317
  738MPD2    C110903   2.527   0.763  15.232  0.2548  0.0549  0.7965
  738MPD2    C210904   2.656   0.751  15.180 -0.3784  0.1173  0.5791
  738MPD2    C310905   2.749   0.854  15.192  0.2914 -0.7848 -0.1374
  738MPD2    C410906   2.708   0.961  15.262  0.3059  0.9655 -0.2925
  738MPD2    C510907   2.589   0.967  15.324  0.2460  0.4418  0.3167
  738MPD2     H10908   2.677   0.660  15.126  1.7933  0.7834  0.2871
  738MPD2    H110909   2.772   1.048  15.265  0.6752  0.6399  0.9598
  738MPD2    H210910   2.398   0.887  15.347 -1.6494 -0.4604 -1.7305
  738MPD2    H310911   2.571   1.056  15.383 -2.8112  1.1634 -1.7316
  738MPD2     N10912   2.881   0.854  15.139  1.2301 -0.5750 -0.2792
  738MPD2    H510913   2.925   0.945  15.133  0.5970 -0.0532  3.1206
  738MPD2    N110914   2.432   0.660  15.208 -0.0606  0.0900 -0.5454
  738MPD2    H710915   2.453   0.582  15.146  0.0801  0.0278 -0.4218
  739TMC3    C110916   3.067   0.755  15.046 -0.5280  0.1607  0.6293
  739TMC3    C210917   3.094   0.877  14.993  0.2143  0.1806 -0.6625
  739TMC3    C310918   3.228   0.902  14.967 -0.1829  0.0318 -0.4699
  739TMC3    C410919   3.157   0.654  15.048  0.8773 -0.1071  0.2306
  739TMC3    C510920   3.287   0.695  15.051 -0.1798  0.7674 -0.0426
  739TMC3    C610921   3.326   0.821  15.011 -0.3082  0.0585 -0.2152
  739TMC3     C10922   2.939   0.738  15.099  0.3443 -0.0833  0.6222
  739TMC3     O10923   2.907   0.622  15.125 -0.4562  0.1141 -0.0133
  739TMC3     H10924   3.013   0.942  14.962 -1.7302 -1.6789  0.5068
  739TMC3    H110925   3.135   0.552  15.078  2.3438 -0.7717 -0.9804
  739TMC3    H210926   3.429   0.844  14.985 -1.3673 -0.0712 -4.5266
  739TMC3    C710927   3.394   0.592  15.059 -0.5915 -0.0729  0.0037
  739TMC3    C810928   3.232   0.951  14.830  0.2936  0.1065  0.3169
  739TMC3    O110929   3.509   0.628  15.038  0.4443  0.1797  0.1969
  739TMC3    O210930   3.124   0.951  14.770  0.4273 -0.3591 -0.1958
  740TMC3    C110931   3.043   2.088  14.671  0.1788 -0.2269  0.0084
  740TMC3    C210932   3.117   2.073  14.790  0.0550  0.0793  0.3712
  740TMC3    C310933   3.257   2.081  14.789  0.7641 -0.3926  0.3372
  740TMC3    C410934   3.117   2.115  14.553 -0.2735 -0.3864 -0.3810
  740TMC3    C510935   3.258   2.124  14.557 -0.0023  0.0562 -0.0991
  740TMC3    C610936   3.323   2.105  14.675  0.3563 -0.8048 -0.0189
  740TMC3     C10937   2.921   2.166  14.687 -0.3745  0.4974  0.1351
  740TMC3     O10938   2.920   2.283  14.648 -0.4258 -0.6548 -0.3009
  740TMC3     H10939   3.071   2.064  14.887  0.3713  1.7361  0.6884
  740TMC3    H110940   3.062   2.141  14.463  1.5685  0.7107 -1.1907
  740TMC3    H210941   3.431   2.117  14.668  0.5127 -1.3013  1.5893
  740TMC3    C710942   3.332   2.121  14.431  0.0282  0.3334 -0.9568
  740TMC3    C810943   3.326   2.056  14.916  0.1580 -0.2065  0.5508
  740TMC3    O110944   3.452   2.112  14.440 -0.3457  0.1583 -0.2107
  740TMC3    O210945   3.281   1.956  14.970  0.3083  0.1910  0.4107
  741TMC3    C110946   3.102   1.434  14.153  0.5023  0.0564 -0.9811
  741TMC3    C210947   2.971   1.396  14.158 -0.7465 -0.1348 -0.4495
  741TMC3    C310948   2.923   1.350  14.282  0.4875  0.1440  0.4900
  741TMC3    C410949   3.182   1.424  14.266 -0.2709  0.0426 -0.4132
  741TMC3    C510950   3.126   1.385  14.386 -0.3081 -0.5615  0.8211
  741TMC3    C610951   2.995   1.355  14.401 -0.2184 -0.6899  0.4406
  741TMC3     C10952   3.161   1.435  14.020  0.4493  0.0003  0.0374
  741TMC3     O10953   3.280   1.406  14.022  0.5655  0.4140 -0.6816
  741TMC3     H10954   2.920   1.374  14.065  0.6882  1.5378 -1.6418
  741TMC3    H110955   3.289   1.441  14.269 -0.3742  0.5078  0.8577
  741TMC3    H210956   2.950   1.317  14.492 -0.1644  0.8068  1.0842
  741TMC3    C710957   3.218   1.377  14.498  0.3482  0.0486 -0.6043
  741TMC3    C810958   2.784   1.298  14.281  1.1545  0.3018  0.0037
  741TMC3    O110959   3.336   1.384  14.467 -0.0957  0.5952  0.2091
  741TMC3    O210960   2.721   1.306  14.177 -0.2170  0.6542  0.4665
  742TMC3    C110961   2.376   3.897  15.787 -0.8347 -0.1809 -0.2540
  742TMC3    C210962   2.355   3.951  15.661  0.2178  0.0914 -0.2715
  742TMC3    C310963   2.456   3.929  15.575  0.6032 -0.4108  1.0086
  742TMC3    C410964   2.493   3.838  15.820 -0.5329 -0.4425  0.4429
  742TMC3    C510965   2.588   3.822  15.730  0.1982  0.2841  0.3018
  742TMC3    C610966   2.573   3.869  15.604 -0.1161 -0.3147 -0.1584
  742TMC3     C10967   2.262   3.887  15.877  0.0730 -0.3260  0.8692
  742TMC3     O10968   2.162   3.853  15.815  0.5172 -0.3299 -0.2234
  742TMC3     H10969   2.258   3.994  15.639  0.3778 -0.6707 -2.4232
  742TMC3    H110970   2.515   3.801  15.920  2.8843 -2.9419 -1.2348
  742TMC3    H210971   2.651   3.867  15.529  0.2645 -2.1828  0.2882
  742TMC3    C710972   2.723   3.778  15.780 -0.2450  0.1371 -0.1521
  742TMC3    C810973   2.433   3.978  15.440  0.3874  0.5508 -0.0432
  742TMC3    O110974   2.710   3.708  15.880  0.3887  0.0570  0.3333
  742TMC3    O210975   2.496   3.912  15.358 -0.5869 -0.3462  0.3798
  743MPD2     C10976   4.507   4.628   1.460 -0.0602  0.2399 -0.4724
  743MPD2    C110977   4.553   0.012   1.524 -0.4284  0.2164  0.0523
  743MPD2    C210978   4.665   0.013   1.603 -0.3092 -0.3924 -0.0787
  743MPD2    C310979   0.011   4.623   1.624  0.0890 -0.4756  0.8473
  743MPD2    C410980   4.681   4.507   1.576 -0.0268 -0.0736 -0.0868
  743MPD2    C510981   4.566   4.510   1.491  0.1409  0.2167 -0.3071
  743MPD2     H10982   4.696   0.109   1.642 -0.3241  0.0614 -1.1826
  743MPD2    H110983   4.714   4.413   1.618 -0.1807  0.3201  0.9038
  743MPD2    H210984   4.422   4.631   1.392  0.7524  1.2028 -1.4499
  743MPD2    H310985   4.532   4.414   1.452 -1.8619  0.0518  1.8260
  743MPD2     N10986   0.137   4.626   1.696  0.0924  0.6938  0.0775
  743MPD2    H510987   0.171   4.701   1.755 -0.6513 -0.1067  1.5316
  743MPD2    N110988   4.492   0.133   1.490  0.8209 -0.4775 -0.0296
  743MPD2    H710989   4.427   0.130   1.412  2.5658 -0.7305 -1.4882
  744TMC3    C110990   4.470   0.360   1.482 -0.3292 -0.3695 -0.5309
  744TMC3    C210991   4.445   0.472   1.556  0.8250  0.4577  0.3045
  744TMC3    C310992   4.456   0.589   1.487  0.2295  0.6321  0.8301
  744TMC3    C410993   4.512   0.359   1.352  0.6231  0.2520 -0.7095
  744TMC3    C510994   4.523   0.476   1.292 -0.4554  0.1981  0.0174
  744TMC3    C610995   4.493   0.595   1.353  0.6642 -0.3423 -0.0132
  744TMC3     C10996   4.504   0.248   1.563 -0.5160  0.2314 -0.0749
  744TMC3     O10997   4.513   0.261   1.685  0.8716 -0.0937 -0.1954
  744TMC3     H10998   4.431   0.475   1.663 -0.4474 -1.6239  0.1915
  744TMC3    H110999   4.552   0.268   1.309  1.8236 -0.3838  1.7744
  744TMC3    H211000   4.506   0.693   1.310 -2.0847 -0.3805 -0.9532
  744TMC3    C711001   4.610   0.478   1.170  0.0525 -0.3902 -0.3398
  744TMC3    C811002   4.382   0.711   1.535 -0.7009 -1.1870  0.2278
  744TMC3    O111003   4.640   0.592   1.141  0.3106 -0.3923  0.2052
  744TMC3    O211004   4.420   0.821   1.490 -0.0610  0.0142 -0.2552
  745TMC3    C111005   2.881   4.636  14.337  0.5524  0.2912  0.5264
  745TMC3    C211006   2.901   4.561  14.454 -0.1374  0.1769 -0.1327
  745TMC3    C311007   2.891   4.421  14.441 -0.0205  0.2879  0.3632
  745TMC3    C411008   2.840   4.580  14.221 -0.2336 -0.3826  0.4279
  745TMC3    C511009   2.806   4.450  14.220  0.3540 -0.3938 -0.1967
  745TMC3    C611010   2.837   4.368  14.327  0.2208 -0.2460 -0.2297
  745TMC3     C11011   2.956   0.030  14.324 -0.3698  0.0839 -1.1790
  745TMC3     O11012   2.949   0.093  14.431 -0.0352  0.0104  0.1126
  745TMC3     H11013   2.944   4.606  14.543 -2.4368 -1.3754  1.7861
  745TMC3    H111014   2.800   4.650  14.148 -1.8874  0.1352  1.8011
  745TMC3    H211015   2.817   4.262  14.327 -0.8417 -0.0378 -1.3199
  745TMC3    C711016   2.713   4.404  14.116 -0.3027 -0.0495 -0.5223
  745TMC3    C811017   2.949   4.333  14.539 -0.0311  0.0114  0.0119
  745TMC3    O111018   2.653   4.298  14.132  0.4191  0.7400 -0.0473
  745TMC3    O211019   2.917   4.219  14.541 -0.7544  0.0369 -0.2692
  746TMC3    C111020   0.148   1.884  10.639 -0.5744  0.0530  0.5894
  746TMC3    C211021   0.197   1.918  10.514  0.5473  0.3320  0.4800
  746TMC3    C311022   0.105   1.938  10.419  0.3674  0.0150  0.0280
  746TMC3    C411023   0.016   1.908  10.671 -0.1606 -0.3692  0.3183
  746TMC3    C511024   4.648   1.937  10.576  0.0264 -0.2541 -0.4765
  746TMC3    C611025   4.691   1.937  10.443 -0.9620 -0.3729 -0.1495
  746TMC3     C11026   0.235   1.920  10.745  0.5803  0.2999  0.0935
  746TMC3     O11027   0.196   1.900  10.858  0.5999  0.1638 -0.2073
  746TMC3     H11028   0.296   1.889  10.482  0.2039 -1.3284  0.9322
  746TMC3    H111029   4.707   1.900  10.774 -1.4040  1.1328  0.0116
  746TMC3    H211030   4.624   1.964  10.362 -0.3268 -1.4299 -1.0358
  746TMC3    C711031   4.511   1.887  10.583 -0.1865 -0.1799  0.3514
  746TMC3    C811032   0.142   1.952  10.286 -0.8317  0.1162  0.6020
  746TMC3    O111033   4.444   1.854  10.486  0.2961 -0.0279  0.0196
  746TMC3    O211034   0.065   1.910  10.199 -0.1235  0.3563  0.0914
  747TMC3    C111035   2.447   1.111  11.130  0.3332  0.3412 -0.5147
  747TMC3    C211036   2.368   1.032  11.206  0.0002  0.0701 -0.0859
  747TMC3    C311037   2.366   1.059  11.334 -0.1263  0.1913 -0.3162
  747TMC3    C411038   2.507   1.224  11.176 -0.0793 -0.2353  0.2750
  747TMC3    C511039   2.507   1.240  11.312 -0.8045 -0.6220 -0.5109
  747TMC3    C611040   2.433   1.162  11.391  0.1524  0.1773 -0.2076
  747TMC3     C11041   2.400   1.120  10.994  0.4905 -0.8508 -0.6312
  747TMC3     O11042   2.364   1.236  10.967  0.7350 -0.0737 -0.3714
  747TMC3     H11043   2.295   0.958  11.173 -0.1663 -0.2633  1.0459
  747TMC3    H111044   2.566   1.287  11.112  0.7248  0.9433  2.1741
  747TMC3    H211045   2.452   1.187  11.495  4.0234  0.6278 -1.0333
  747TMC3    C711046   2.600   1.335  11.375  0.3627 -0.7663 -0.3384
  747TMC3    C811047   2.275   0.985  11.422  0.1424 -0.2325 -0.1560
  747TMC3    O111048   2.555   1.392  11.476  0.5394  0.1594  0.1864
  747TMC3    O211049   2.254   0.867  11.392  0.0113  0.1069 -0.4570
  748MPD2     C11050   0.035   1.959   2.547  0.1766 -0.1484 -0.0592
  748MPD2    C111051   4.723   1.922   2.425 -0.6544  0.3137 -0.8721
  748MPD2    C211052   0.047   1.991   2.315  0.6939  0.2164  0.2149
  748MPD2    C311053   0.143   2.091   2.334 -0.4548 -0.0053  0.1005
  748MPD2    C411054   0.189   2.117   2.462 -0.2888 -0.2438 -0.1493
  748MPD2    C511055   0.130   2.052   2.568 -0.3976  0.5887 -0.1433
  748MPD2     H11056   0.014   1.963   2.216 -1.0529  1.0461  0.5590
  748MPD2    H111057   0.265   2.188   2.494  0.4774 -0.5197 -1.3807
  748MPD2    H211058   4.716   1.910   2.632  1.2337  1.6025  1.4928
  748MPD2    H311059   0.156   2.078   2.670 -0.9839 -1.0636  0.4281
  748MPD2     N11060   0.226   2.144   2.228 -0.5102  0.2560  0.5557
  748MPD2    H511061   0.313   2.191   2.251  0.2706 -1.7104  1.5699
  748MPD2    N111062   4.632   1.814   2.420  0.5044  0.1253  0.0009
  748MPD2    H711063   4.586   1.786   2.506 -0.3133  1.1578 -0.1026
  749TMC3    C111064   0.307   2.123   2.013  0.9592  0.4591  0.7286
  749TMC3    C211065   0.425   2.073   2.065  0.0884  0.1215 -0.1445
  749TMC3    C311066   0.507   2.004   1.984  0.1003 -0.2104  0.3360
  749TMC3    C411067   0.278   2.092   1.882 -0.0070  0.3298 -0.5432
  749TMC3    C511068   0.366   2.023   1.809 -1.1482 -0.6977 -0.2075
  749TMC3    C611069   0.485   1.971   1.852  0.5963  0.1545 -0.3606
  749TMC3     C11070   0.191   2.136   2.098  0.4584 -0.0571 -0.2592
  749TMC3     O11071   0.087   2.104   2.048 -0.2438  0.2577 -0.3212
  749TMC3     H11072   0.452   2.075   2.170  1.0369 -1.0955 -0.3506
  749TMC3    H111073   0.185   2.130   1.842 -1.4982 -1.5439  1.1459
  749TMC3    H211074   0.561   1.936   1.783  0.6529 -0.0388 -0.2004
  749TMC3    C711075   0.320   2.002   1.676 -0.1430 -0.4443  0.0506
  749TMC3    C811076   0.617   1.931   2.050  0.0098  0.2160  1.0228
  749TMC3    O111077   0.246   2.085   1.632  0.3497 -0.1899  0.0760
  749TMC3    O211078   0.667   1.988   2.146 -0.1285  0.2074  0.5280
  750MPD2     C11079   0.953   3.582  11.527 -0.6779 -0.0412 -0.0752
  750MPD2    C111080   0.830   3.525  11.563  0.3312  0.1034 -0.4690
  750MPD2    C211081   0.797   3.401  11.523 -0.7607 -0.4850  0.3548
  750MPD2    C311082   0.884   3.333  11.437 -0.0574 -0.3547 -1.0944
  750MPD2    C411083   1.006   3.393  11.395  0.1079 -0.2337  0.2736
  750MPD2    C511084   1.036   3.516  11.443  0.0078 -0.8717 -0.6425
  750MPD2     H11085   0.701   3.354  11.538 -1.1347  0.4717  0.9543
  750MPD2    H111086   1.070   3.340  11.325 -0.1152  0.3916 -0.3998
  750MPD2    H211087   0.974   3.685  11.555 -1.5966  0.7299 -2.2073
  750MPD2    H311088   1.135   3.556  11.424 -0.9846  1.3374 -1.1651
  750MPD2     N11089   0.851   3.216  11.374  0.3719 -0.2491  0.4252
  750MPD2    H511090   0.910   3.185  11.298 -0.8143 -2.4199  0.3983
  750MPD2    N111091   0.737   3.610  11.632 -0.2695  0.2608  0.9334
  750MPD2    H711092   0.781   3.696  11.664  0.4052 -0.3465  1.6171
  751TMC3    C111093   0.731   3.018  11.326  0.6018 -0.5363 -0.3730
  751TMC3    C211094   0.640   2.926  11.366 -0.6754 -0.3875 -0.0663
  751TMC3    C311095   0.581   2.846  11.279 -0.3480 -0.0724  0.1805
  751TMC3    C411096   0.775   3.016  11.195  0.6381 -0.7618 -0.1465
  751TMC3    C511097   0.711   2.933  11.108  1.0769  0.7016 -0.4804
  751TMC3    C611098   0.623   2.834  11.149 -0.2203 -0.4790  0.4019
  751TMC3     C11099   0.746   3.133  11.409 -0.0983 -0.4512  0.0236
  751TMC3     O11100   0.678   3.135  11.509 -0.2711 -0.5451  0.0984
  751TMC3     H11101   0.609   2.926  11.470 -0.5749  1.1204 -0.0339
  751TMC3    H111102   0.840   3.095  11.158  0.2828 -0.4756 -0.1603
  751TMC3    H211103   0.571   2.767  11.082 -0.9572  0.0323  0.4624
  751TMC3    C711104   0.763   2.926  10.973 -0.4203 -0.1478 -0.5846
  751TMC3    C811105   0.480   2.756  11.321  0.8403  0.0850 -0.1988
  751TMC3    O111106   0.872   2.978  10.950  0.4964  0.2344 -0.8459
  751TMC3    O211107   0.488   2.641  11.282  0.2086 -0.0293  0.3292
  752TMC3    C111108   3.876   3.286   0.108 -0.7912 -0.4694 -0.1857
  752TMC3    C211109   3.746   3.254   0.124  0.2964  0.1111  1.2009
  752TMC3    C311110   3.683   3.306   0.244  0.4190 -0.3217  0.0746
  752TMC3    C411111   3.938   3.361   0.196 -0.0307 -0.0703 -0.1835
  752TMC3    C511112   3.874   3.418   0.308 -0.3170  0.3871 -0.8297
  752TMC3    C611113   3.744   3.394   0.333  0.1769 -0.3281 -0.4180
  752TMC3     C11114   3.948   3.212   0.007 -0.1450 -0.0241 -0.1166
  752TMC3     O11115   4.068   3.225   0.013 -0.6349 -0.3299 -0.1446
  752TMC3     H11116   3.695   3.173   0.073  2.2849 -0.0675 -0.5089
  752TMC3    H111117   4.042   3.383   0.179 -0.1009 -0.0742 -0.6136
  752TMC3    H211118   3.684   3.452   0.402 -0.8286 -1.0998 -0.6393
  752TMC3    C711119   3.949   3.518   0.379 -0.6566 -0.7184  0.7454
  752TMC3    C811120   3.542   3.294   0.243 -0.4890 -0.9279  0.3354
  752TMC3    O111121   4.033   3.581   0.310 -0.6190  0.0147  0.4066
  752TMC3    O211122   3.490   3.240   0.149  0.1862  0.3508 -0.0639
  753TMC3    C111123   1.221   4.478  13.558 -0.4836 -0.0105  0.4500
  753TMC3    C211124   1.305   4.435  13.663  0.1894 -0.1691  0.6515
  753TMC3    C311125   1.316   4.298  13.663 -0.8786 -0.4066  0.5178
  753TMC3    C411126   1.154   4.404  13.471 -0.5915  0.9695 -0.1129
  753TMC3    C511127   1.160   4.272  13.487 -0.4000 -0.1387  0.3776
  753TMC3    C611128   1.234   4.220  13.588  0.2179 -0.3410 -0.0096
  753TMC3     C11129   1.227   4.619  13.550  0.1155  0.0820  0.0658
  753TMC3     O11130   1.338   4.664  13.580 -0.2761  0.0099  0.3282
  753TMC3     H11131   1.363   4.498  13.730 -0.9164 -1.4371  2.8170
  753TMC3    H111132   1.103   4.453  13.389 -0.9489  1.5190  0.4359
  753TMC3    H211133   1.249   4.114  13.604 -1.2502 -0.4026  0.9087
  753TMC3    C711134   1.035   4.204  13.449  0.8017  0.2273 -0.2664
  753TMC3    C811135   1.424   4.228  13.737 -0.5451  0.5968  0.4523
  753TMC3    O111136   0.945   4.284  13.429  0.0960 -0.3792 -0.0698
  753TMC3    O211137   1.437   4.106  13.725 -0.3525  0.1890  0.3865
  754MPD2     C11138   4.389   2.575  12.647  0.8412  0.8981 -0.1044
  754MPD2    C111139   4.423   2.485  12.752  0.1126  0.0452  0.1213
  754MPD2    C211140   4.340   2.484  12.859 -0.3411 -0.7768  0.0835
  754MPD2    C311141   4.258   2.590  12.889 -0.1847  0.1383  0.1109
  754MPD2    C411142   4.239   2.689  12.799 -0.2244 -0.1091  0.5458
  754MPD2    C511143   4.295   2.677  12.675 -0.2245 -0.4784  0.0775
  754MPD2     H11144   4.336   2.390  12.913  0.6534 -0.6478  0.3948
  754MPD2    H111145   4.170   2.767  12.830 -2.0858 -0.4154 -2.7882
  754MPD2    H211146   4.421   2.580  12.544 -0.8458  1.1021 -0.6288
  754MPD2    H311147   4.278   2.747  12.594  0.5428 -0.5708 -0.1587
  754MPD2     N11148   4.198   2.592  13.015 -0.1363 -0.0437 -0.8507
  754MPD2    H511149   4.120   2.654  13.032 -0.4229 -0.6342  0.0077
  754MPD2    N111150   4.514   2.378  12.724  0.9232 -0.1827 -0.4165
  754MPD2    H711151   4.535   2.364  12.626 -0.0069 -0.0662 -0.6301
  755MPD2     C11152   3.618   3.152  13.144 -0.2168  0.1390 -0.8784
  755MPD2    C111153   3.656   3.105  13.267 -0.0004 -0.3853 -0.3263
  755MPD2    C211154   3.722   2.983  13.286  0.5146  0.0332 -0.3101
  755MPD2    C311155   3.751   2.904  13.175  0.7596 -0.3658  0.2062
  755MPD2    C411156   3.713   2.954  13.050  0.1868 -0.0410 -0.5183
  755MPD2    C511157   3.654   3.074  13.037  0.2175  0.3809 -0.1655
  755MPD2     H11158   3.747   2.954  13.388 -2.7391 -2.9487 -0.3669
  755MPD2    H111159   3.731   2.882  12.970 -0.1569 -1.3917  0.6243
  755MPD2    H211160   3.568   3.248  13.139  1.1815  0.9118 -0.0016
  755MPD2    H311161   3.634   3.103  12.934  2.5264 -2.4172 -1.4164
  755MPD2     N11162   3.828   2.782  13.188 -0.1248 -0.8243  0.7670
  755MPD2    H511163   3.862   2.746  13.099 -1.2679  0.4735 -0.1909
  755MPD2    N111164   3.626   3.182  13.384  0.1588 -0.1340 -0.1342
  755MPD2    H711165   3.638   3.138  13.474 -4.3434 -0.5497  0.2332
  756MPD2     C11166   0.453   3.809   9.279 -0.1217 -0.3461  0.7005
  756MPD2    C111167   0.408   3.775   9.405  0.0268  0.3405 -0.0392
  756MPD2    C211168   0.274   3.752   9.416  0.0682 -0.0755 -0.6140
  756MPD2    C311169   0.187   3.756   9.312 -0.4177 -0.3352 -0.1833
  756MPD2    C411170   0.231   3.786   9.190  1.0447  0.1740  0.0129
  756MPD2    C511171   0.367   3.805   9.174 -0.3956  0.6902  0.4494
  756MPD2     H11172   0.246   3.721   9.516  0.0707 -1.0457 -0.9152
  756MPD2    H111173   0.171   3.785   9.099 -0.7684  2.8842  1.2005
  756MPD2    H211174   0.557   3.836   9.262 -1.1649  1.5878 -2.7311
  756MPD2    H311175   0.410   3.831   9.078 -2.0583  1.8697  0.0220
  756MPD2     N11176   0.052   3.710   9.333 -0.2407  0.4541  0.2584
  756MPD2    H511177   0.041   3.664   9.423  1.7174  3.6030  2.0878
  756MPD2    N111178   0.486   3.752   9.514  0.4303 -0.1097 -0.5076
  756MPD2    H711179   0.444   3.704   9.593  0.5787 -1.3254 -1.1765
  757MPD2     C11180   4.457   2.939   9.836 -0.0315  0.0664 -0.6781
  757MPD2    C111181   4.357   2.949   9.739 -0.4017 -0.1713  1.2087
  757MPD2    C211182   4.358   3.061   9.655  0.0520 -0.0416 -0.1884
  757MPD2    C311183   4.457   3.156   9.660 -0.1407  0.0575 -0.3442
  757MPD2    C411184   4.548   3.156   9.768 -0.1015 -0.2257 -0.3914
  757MPD2    C511185   4.546   3.042   9.851  0.8449 -0.3100  0.0535
  757MPD2     H11186   4.284   3.070   9.576  1.3577  1.8437 -1.2186
  757MPD2    H111187   4.622   3.235   9.778  0.0306 -0.3352 -0.5113
  757MPD2    H211188   4.464   2.863   9.913  1.1919 -0.2082 -1.0472
  757MPD2    H311189   4.616   3.039   9.933  1.3139 -1.8538 -0.3909
  757MPD2     N11190   4.452   3.260   9.564  0.0256 -0.3996 -0.3220
  757MPD2    H511191   4.371   3.267   9.503 -0.4556 -1.3016  0.2240
  757MPD2    N111192   4.265   2.842   9.730  1.1621  0.1972 -0.0308
  757MPD2    H711193   4.282   2.770   9.799 -0.7483  0.0344  0.2717
  758MPD2     C11194   0.158   3.378  16.214  0.1902 -0.2807 -0.0806
  758MPD2    C111195   0.137   3.247  16.251  0.2961 -0.1632 -0.5899
  758MPD2    C211196   0.102   3.222  16.386  0.3335  0.4199  0.3759
  758MPD2    C311197   0.086   3.323  16.479  0.1675  0.1081  0.7314
  758MPD2    C411198   0.102   3.457  16.433 -0.5743  0.2233 -0.2213
  758MPD2    C511199   0.149   3.480  16.307  0.0420  0.0601  0.2072
  758MPD2     H11200   0.087   3.120  16.417  0.2845  0.9673  2.2124
  758MPD2    H111201   0.081   3.537  16.503 -0.7297 -0.5808  0.6539
  758MPD2    H211202   0.176   3.402  16.110  1.6806  1.8534  0.6667
  758MPD2    H311203   0.181   3.582  16.287 -0.7609 -0.2078 -2.4657
  758MPD2     N11204   0.066   3.306  16.617 -0.2165 -0.2796  0.3141
  758MPD2    H511205   0.034   3.384  16.674 -3.1103 -0.9245 -0.4035
  758MPD2    N111206   0.148   3.145  16.153  0.4629 -0.3801  0.0390
  758MPD2    H711207   0.167   3.175  16.058  1.0543  0.4425  0.4214
  759MPD2     C11208   3.574   0.117   9.382  0.4448  0.0363 -0.2486
  759MPD2    C111209   3.607   0.125   9.514 -0.3397 -0.3550 -0.6087
  759MPD2    C211210   3.739   0.101   9.548 -0.2316  0.2867  0.2081
  759MPD2    C311211   3.837   0.072   9.457  0.9530 -0.4187  0.8425
  759MPD2    C411212   3.801   0.073   9.321 -0.5096  0.6069 -0.3625
  759MPD2    C511213   3.669   0.079   9.285 -0.0747 -0.1921  0.7635
  759MPD2     H11214   3.760   0.103   9.655 -0.8482 -0.9489  0.3646
  759MPD2    H111215   3.861   0.053   9.233  2.4433  0.1249  1.7755
  759MPD2    H211216   3.471   0.128   9.350  0.5385  0.3317 -0.4551
  759MPD2    H311217   3.637   0.080   9.181  1.3312  1.6106  0.3441
  759MPD2     N11218   3.973   0.058   9.494 -0.0056  0.0959 -0.3487
  759MPD2    H511219   3.985   0.087   9.590 -0.0393 -0.7548 -0.0894
  759MPD2    N111220   3.519   0.168   9.610 -0.2754 -0.1836  0.5770
  759MPD2    H711221   3.566   0.178   9.699 -0.1559 -1.0737  0.6112
  760MPD2     C11222   3.317   2.635  12.427 -0.1343 -0.3022  0.1746
  760MPD2    C111223   3.402   2.646  12.318  0.0186 -0.0542  0.0441
  760MPD2    C211224   3.505   2.559  12.302 -0.5124  0.6839 -0.5781
  760MPD2    C311225   3.525   2.448  12.386 -0.5777  0.5735 -0.2650
  760MPD2    C411226   3.427   2.430  12.487 -0.4461  0.7996 -0.0665
  760MPD2    C511227   3.339   2.533  12.518 -0.2950 -0.5182  0.5843
  760MPD2     H11228   3.569   2.582  12.218 -0.8211 -1.9451 -1.5633
  760MPD2    H111229   3.416   2.350  12.560  0.0376 -0.1397 -1.0304
  760MPD2    H211230   3.233   2.698  12.455 -0.4139 -1.2716  1.4918
  760MPD2    H311231   3.270   2.516  12.600 -0.1160 -1.2040  0.5942
  760MPD2     N11232   3.619   2.345  12.358  0.0608 -0.2977  0.0965
  760MPD2    H511233   3.606   2.263  12.416  1.6229  0.2136  1.1556
  760MPD2    N111234   3.394   2.753  12.223 -0.4835 -0.2865 -0.3027
  760MPD2    H711235   3.472   2.754  12.158  0.6340  0.6268  1.0451
  761MPD2     C11236   0.012   2.671  11.508 -0.5893  0.3486  0.4109
  761MPD2    C111237   0.079   2.614  11.400 -0.3303 -0.4535 -0.1795
  761MPD2    C211238   0.204   2.661  11.377 -0.3216  0.3828  0.0997
  761MPD2    C311239   0.270   2.764  11.454  0.2902  0.0245  0.5757
  761MPD2    C411240   0.202   2.808  11.569 -0.5944 -0.0401 -0.4661
  761MPD2    C511241   0.072   2.767  11.590 -0.5092  0.1417 -0.0922
  761MPD2     H11242   0.260   2.633  11.289 -0.1959  0.0740  0.2764
  761MPD2    H111243   0.248   2.879  11.636 -0.0960 -1.5814  0.8101
  761MPD2    H211244   4.636   2.642  11.531 -1.5001  0.5921 -3.3443
  761MPD2    H311245   0.013   2.808  11.671 -1.3036 -1.1301 -0.0251
  761MPD2     N11246   0.397   2.811  11.424  0.7831  0.2689 -0.2817
  761MPD2    H511247   0.425   2.896  11.471 -1.7077  1.0056 -0.1826
  761MPD2    N111248   0.001   2.526  11.311  0.0694 -0.0177 -0.7647
  761MPD2    H711249   4.626   2.526  11.315  0.2488 -1.1686  4.0288
  762MPD2     C11250   0.452   2.493  11.000 -0.4170 -0.3830  0.0391
  762MPD2    C111251   0.383   2.457  10.887 -0.0832  0.0040  0.3690
  762MPD2    C211252   0.449   2.461  10.766  0.0384  0.2111 -0.2255
  762MPD2    C311253   0.584   2.471  10.763 -0.2585  0.4456 -0.0182
  762MPD2    C411254   0.651   2.501  10.878  0.2872  0.9000  0.7669
  762MPD2    C511255   0.584   2.509  10.997  0.1303 -0.5947  0.2669
  762MPD2     H11256   0.384   2.452  10.680 -1.2652 -0.4605  0.8182
  762MPD2    H111257   0.755   2.531  10.877  0.1632  1.3193  0.3338
  762MPD2    H211258   0.398   2.498  11.094  1.9022  1.5815  1.2482
  762MPD2    H311259   0.636   2.530  11.090 -1.9406 -2.0229  1.7507
  762MPD2     N11260   0.647   2.445  10.635 -0.5102 -0.7736  0.3085
  762MPD2    H511261   0.586   2.436  10.554  2.6326  3.4876 -2.5620
  762MPD2    N111262   0.244   2.444  10.905  0.1388 -0.3775 -0.2192
  762MPD2    H711263   0.206   2.447  10.999  0.0937  1.4554 -0.2917
  763MPD2     C11264   1.639   2.998  16.399  0.0736 -0.3739  0.2889
  763MPD2    C111265   1.745   2.984  16.318  0.7251  0.0100  0.1615
  763MPD2    C211266   1.838   3.086  16.312  0.2781  0.4297 -0.4758
  763MPD2    C311267   1.824   3.197  16.396 -0.1213  0.0909  1.0447
  763MPD2    C411268   1.716   3.216  16.470  0.3526 -0.3610  1.0224
  763MPD2    C511269   1.620   3.114  16.464  0.6273 -0.9261  0.5658
  763MPD2     H11270   1.926   3.062  16.254  0.7937 -0.2090  0.5812
  763MPD2    H111271   1.687   3.306  16.522  1.8767 -0.0927  1.3900
  763MPD2    H211272   1.560   2.924  16.396 -0.5307  0.2688  0.3588
  763MPD2    H311273   1.534   3.110  16.529  1.3199  3.0584  1.7030
  763MPD2     N11274   1.911   3.310  16.399  0.3366 -0.3352 -0.0181
  763MPD2    H511275   1.885   3.394  16.449 -1.9071 -0.2899 -1.2614
  763MPD2    N111276   1.758   2.875  16.224 -0.3289  0.2122 -0.2342
  763MPD2    H711277   1.833   2.876  16.157  1.0621  1.3272  1.3241
  764MPD2     C11278   0.103   0.159   0.359  0.4097  0.5604 -0.6267
  764MPD2    C111279   0.155   0.049   0.291  0.3848 -0.2781  0.1234
  764MPD2    C211280   0.115   4.647   0.327  0.3712  0.2611  0.1768
  764MPD2    C311281   0.016   4.626   0.419 -0.6635  1.3135  0.2441
  764MPD2    C411282   4.687   0.012   0.481 -0.3985 -0.3283 -0.5290
  764MPD2    C511283   0.007   0.140   0.457  0.0089 -0.3044  0.3488
  764MPD2     H11284   0.155   4.563   0.271  1.9934  1.6522 -0.7487
  764MPD2    H111285   4.601   0.004   0.545 -0.4813 -0.2841 -0.6353
  764MPD2    H211286   0.131   0.264   0.353 -0.8864  0.9106 -0.5406
  764MPD2    H311287   4.689   0.219   0.517 -1.4454 -1.2940  0.6054
  764MPD2     N11288   4.701   4.493   0.449  0.2557 -0.1585  0.2568
  764MPD2    H511289   0.020   4.420   0.394  0.2713  0.3736 -0.4559
  764MPD2    N111290   0.239   0.059   0.182 -0.0199  0.0388 -0.0127
  764MPD2    H711291   0.274   4.697   0.143  0.6288 -0.1662  1.0214
  765MPD2     C11292   4.498   1.687  15.966  0.0790  0.1557  0.0877
  765MPD2    C111293   4.565   1.810  15.977 -0.4471 -0.4813 -0.6121
  765MPD2    C211294   4.702   1.813  15.949  0.4617 -0.5475 -0.4864
  765MPD2    C311295   0.043   1.699  15.916 -0.0544 -0.5736 -0.3408
  765MPD2    C411296   4.692   1.580  15.911  0.3556 -0.4369 -0.6582
  765MPD2    C511297   4.560   1.573  15.934 -0.0940 -0.0733 -0.2598
  765MPD2     H11298   0.037   1.904  15.949 -1.0694  0.4681  2.9581
  765MPD2    H111299   0.007   1.488  15.870  1.5397 -0.6156  0.9137
  765MPD2    H211300   4.394   1.675  15.994 -0.1180  2.5766  0.3812
  765MPD2    H311301   4.504   1.482  15.918 -1.2955  0.6775 -0.3286
  765MPD2     N11302   0.180   1.696  15.872  0.1946  0.6001  0.5827
  765MPD2    H511303   0.238   1.779  15.870 -1.2458  1.6047  0.2247
  765MPD2    N111304   4.485   1.920  16.014  0.4163 -0.0291 -0.3658
  765MPD2    H711305   4.389   1.891  16.032  0.6631 -0.9378 -0.5172
  766MPD2     C11306   3.954   2.254  15.562  0.5116  0.0759  0.4423
  766MPD2    C111307   4.076   2.214  15.610 -0.0513 -0.3517 -0.2931
  766MPD2    C211308   4.170   2.173  15.522  0.3580  0.6742 -1.4293
  766MPD2    C311309   4.143   2.168  15.392 -0.0825  0.0895  0.1246
  766MPD2    C411310   4.023   2.217  15.346  0.5267 -0.3791 -0.3684
  766MPD2    C511311   3.925   2.260  15.432 -0.0019 -0.3116 -0.0530
  766MPD2     H11312   4.261   2.125  15.558 -0.3555  0.2176 -0.2192
  766MPD2    H111313   4.005   2.243  15.243  3.5052 -0.1425 -0.8170
  766MPD2    H211314   3.884   2.294  15.634 -0.5380  0.4346 -0.7938
  766MPD2    H311315   3.834   2.302  15.391  1.6247  1.4351 -1.8475
  766MPD2     N11316   4.239   2.125  15.300  0.0651  0.3937 -0.1322
  766MPD2    H511317   4.212   2.136  15.202  1.5424 -0.8239 -0.6715
  766MPD2    N111318   4.100   2.226  15.750  0.2859  0.6843  0.4769
  766MPD2    H711319   4.025   2.250  15.814 -2.0143  0.8586 -2.3022
  767MPD2     C11320   4.026   2.517  15.237  0.3488  0.5630  0.3201
  767MPD2    C111321   4.159   2.495  15.207 -0.0933  0.0567 -0.3229
  767MPD2    C211322   4.185   2.462  15.083  0.3118 -0.3565 -0.0903
  767MPD2    C311323   4.091   2.463  14.986 -0.5771 -0.3856 -0.4808
  767MPD2    C411324   3.959   2.487  15.012  0.3345 -0.1412 -0.1203
  767MPD2    C511325   3.932   2.508  15.142  0.3491  0.1452  0.9195
  767MPD2     H11326   4.289   2.453  15.054  0.5679  1.9334  0.1187
  767MPD2    H111327   3.879   2.477  14.939 -1.0009  1.0433  1.1758
  767MPD2    H211328   4.001   2.543  15.339 -1.3434  3.2205 -0.7782
  767MPD2    H311329   3.831   2.502  15.180  0.2807 -0.3930  0.6524
  767MPD2     N11330   4.129   2.420  14.856  0.3941 -0.8455  0.0623
  767MPD2    H511331   4.223   2.383  14.852  0.6664 -0.2070  0.3960
  767MPD2    N111332   4.258   2.498  15.311  0.2356  0.4532  0.2875
  767MPD2    H711333   4.225   2.517  15.405  0.8132  0.3838  0.5067
  768MPD2     C11334   4.200   0.723  10.651  0.3397  0.3165 -0.2848
  768MPD2    C111335   4.230   0.854  10.692  0.5103 -0.2708  0.1281
  768MPD2    C211336   4.331   0.859  10.787  0.8592  0.0959 -0.5002
  768MPD2    C311337   4.410   0.750  10.826 -0.0741 -0.0519 -0.4715
  768MPD2    C411338   4.366   0.626  10.778 -0.4121  0.8684  0.1871
  768MPD2    C511339   4.267   0.616  10.693  0.5438  0.1507 -0.7182
  768MPD2     H11340   4.351   0.961  10.819 -0.9823  1.1413 -2.6503
  768MPD2    H111341   4.422   0.537  10.806 -1.1669  0.1442 -0.6296
  768MPD2    H211342   4.114   0.707  10.587  0.6892  0.4084 -0.7789
  768MPD2    H311343   4.234   0.516  10.665 -0.5000 -0.1948  1.6972
  768MPD2     N11344   4.517   0.759  10.918  0.2368 -0.4698  0.2881
  768MPD2    H511345   4.557   0.673  10.956 -1.9015 -1.6087 -0.0289
  768MPD2    N111346   4.161   0.971  10.654  0.4032  0.4829  0.3836
  768MPD2    H711347   4.180   1.052  10.713  0.1422  0.7261  0.1403
  769MPD2     C11348   1.168   4.019  14.448  0.2753  0.2680  0.2855
  769MPD2    C111349   1.155   3.889  14.490  0.4841 -0.2557  0.5565
  769MPD2    C211350   1.220   3.849  14.608  0.6527 -0.6219 -0.4181
  769MPD2    C311351   1.297   3.939  14.686 -0.8939 -0.3678  0.3024
  769MPD2    C411352   1.318   4.067  14.633 -0.2724 -0.3004 -0.4678
  769MPD2    C511353   1.251   4.107  14.519  0.1870 -0.0577 -0.6430
  769MPD2     H11354   1.215   3.747  14.644  1.6463 -0.3442  0.5121
  769MPD2    H111355   1.379   4.144  14.679 -1.1974 -0.8284  1.6931
  769MPD2    H211356   1.112   4.050  14.361  0.6097  2.9456  1.0246
  769MPD2    H311357   1.260   4.204  14.471  0.1079 -0.4647 -1.4838
  769MPD2     N11358   1.347   3.898  14.818  0.2507 -0.4303 -0.9223
  769MPD2    H511359   1.317   3.805  14.845  1.9096 -0.1559  1.8225
  769MPD2    N111360   1.064   3.803  14.428  0.3976  0.2043  0.3587
  769MPD2    H711361   1.010   3.831  14.346 -0.3685  1.5255  1.3122
  770MPD2     C11362   0.744   2.853  14.437  0.1800 -0.2531 -0.6646
  770MPD2    C111363   0.781   2.942  14.539 -0.2117  0.3455 -0.6440
  770MPD2    C211364   0.798   3.076  14.493  0.7511 -0.0171 -0.3707
  770MPD2    C311365   0.793   3.113  14.356  0.0204  0.4711 -0.1646
  770MPD2    C411366   0.762   3.023  14.268 -0.6700 -0.7934  0.9453
  770MPD2    C511367   0.738   2.898  14.305  0.0800  0.3385  0.1194
  770MPD2     H11368   0.809   3.154  14.568 -0.3199 -0.6719  0.4716
  770MPD2    H111369   0.756   3.037  14.161  0.1057  2.8978  1.3829
  770MPD2    H211370   0.727   2.747  14.454  0.6439  0.1453  2.2905
  770MPD2    H311371   0.719   2.827  14.225  2.3648  0.2121 -0.3021
  770MPD2     N11372   0.824   3.248  14.333 -0.1380  0.3601 -0.5892
  770MPD2    H511373   0.842   3.307  14.414  0.4570  0.9312 -1.1424
  770MPD2    N111374   0.803   2.895  14.675  0.4479 -0.2499  0.1785
  770MPD2    H711375   0.784   2.795  14.679 -1.9023  0.1854  0.0393
  771MPD2     C11376   2.049   1.397  13.784 -0.0684 -0.0158  0.3195
  771MPD2    C111377   1.986   1.519  13.781  0.5570  0.0013  0.4137
  771MPD2    C211378   1.873   1.535  13.709 -0.0621 -0.1897 -0.2263
  771MPD2    C311379   1.825   1.431  13.630 -0.1331 -0.1742  0.4665
  771MPD2    C411380   1.881   1.306  13.645  0.4477 -0.2220  1.1359
  771MPD2    C511381   1.994   1.288  13.725  0.1073  0.1453  0.0255
  771MPD2     H11382   1.814   1.626  13.705  0.8016  0.3755 -0.1373
  771MPD2    H111383   1.861   1.223  13.578  2.3163 -0.1845  0.5446
  771MPD2    H211384   2.129   1.391  13.857  1.3168  1.1963 -1.0818
  771MPD2    H311385   2.028   1.186  13.741 -2.2407 -0.5870  0.3215
  771MPD2     N11386   1.716   1.450  13.537 -0.1529 -0.0412 -0.0723
  771MPD2    H511387   1.682   1.543  13.516  1.5061  1.0809  2.2291
  771MPD2    N111388   2.028   1.629  13.859 -0.0631 -0.2066  1.0500
  771MPD2    H711389   1.964   1.708  13.850 -3.4504 -2.8058  2.0496
  772MPD2     C11390   1.881   2.297  14.148 -0.0947 -0.4590 -0.4150
  772MPD2    C111391   1.833   2.182  14.095  0.9583  0.6166 -0.3634
  772MPD2    C211392   1.697   2.146  14.120  0.5116  0.7079 -0.2645
  772MPD2    C311393   1.621   2.231  14.203  0.1587 -0.2434 -0.2582
  772MPD2    C411394   1.675   2.340  14.256  0.0629  0.0624  0.1136
  772MPD2    C511395   1.807   2.369  14.233 -0.0318  0.4281 -0.0844
  772MPD2     H11396   1.661   2.050  14.084  0.5615  0.3817  0.5702
  772MPD2    H111397   1.619   2.408  14.320 -1.4060 -0.9527 -0.0858
  772MPD2    H211398   1.987   2.315  14.135 -0.1573  0.3303  0.2378
  772MPD2    H311399   1.853   2.446  14.293  1.7273 -2.1944  1.9575
  772MPD2     N11400   1.483   2.211  14.244  0.8891  0.1330 -0.5814
  772MPD2    H511401   1.466   2.276  14.321  3.2414  1.0507 -0.8334
  772MPD2    N111402   1.912   2.092  14.020  0.0883 -0.0505  0.2977
  772MPD2    H711403   1.867   2.007  13.987  0.1998 -0.8620  2.2288
  773MPD2     C11404   0.639   2.866   0.723  0.3773 -0.1343 -0.8508
  773MPD2    C111405   0.587   2.813   0.609  1.1174  0.2175 -0.5199
  773MPD2    C211406   0.630   2.691   0.552 -0.3665  0.6298 -0.5410
  773MPD2    C311407   0.741   2.629   0.613 -0.1006 -0.6031 -0.3360
  773MPD2    C411408   0.785   2.683   0.733 -0.3679  0.0037  0.1666
  773MPD2    C511409   0.742   2.800   0.786  0.0486 -0.6408 -0.0170
  773MPD2     H11410   0.590   2.645   0.461  0.0707 -0.0211 -0.4097
  773MPD2    H111411   0.855   2.628   0.795 -1.9392  0.1635  2.1126
  773MPD2    H211412   0.605   2.960   0.766 -2.5864 -0.7597 -1.8359
  773MPD2    H311413   0.764   2.821   0.890 -1.2589  0.8911 -0.0576
  773MPD2     N11414   0.803   2.515   0.549  0.8403  0.2460 -0.0683
  773MPD2    H511415   0.745   2.475   0.476 -0.5277  0.1352  1.0702
  773MPD2    N111416   0.490   2.886   0.537 -0.1034 -0.5177 -0.5015
  773MPD2    H711417   0.449   2.847   0.453 -0.5930 -0.0056 -0.5060
  774MPD2     C11418   4.322   1.921  13.682  0.5085 -0.5074  0.5071
  774MPD2    C111419   4.449   1.969  13.707  0.2069  0.5219 -0.0314
  774MPD2    C211420   4.515   2.034  13.601 -0.8600  0.6264 -0.0431
  774MPD2    C311421   4.461   2.059  13.475 -0.8191 -0.4777 -0.6548
  774MPD2    C411422   4.328   2.020  13.457 -0.1042  0.1220  0.3115
  774MPD2    C511423   4.264   1.950  13.564  0.8740  0.0402  0.5711
  774MPD2     H11424   4.615   2.073  13.616 -0.6724 -0.1651  0.7854
  774MPD2    H111425   4.274   2.044  13.365 -0.9733 -1.4403  0.4121
  774MPD2    H211426   4.275   1.866  13.763  0.0609 -0.7325  0.0980
  774MPD2    H311427   4.163   1.917  13.541  0.8315  2.7816 -3.1294
  774MPD2     N11428   4.541   2.122  13.370  0.5949 -0.0447 -0.6210
  774MPD2    H511429   4.639   2.142  13.386  0.0866  0.3981  1.9715
  774MPD2    N111430   4.509   1.964  13.836  0.5106  0.1320  0.6865
  774MPD2    H711431   4.460   1.898  13.897 -2.3433  0.0540 -1.7185
  775MPD2     C11432   1.503   3.544  15.428  0.3316  1.0134  0.8236
  775MPD2    C111433   1.511   3.651  15.514 -0.9823  1.0837  0.2489
  775MPD2    C211434   1.621   3.734  15.495  0.3412 -0.2971  0.2682
  775MPD2    C311435   1.726   3.694  15.413 -0.3302 -0.0906  0.0696
  775MPD2    C411436   1.718   3.572  15.344 -0.3363  0.1764  0.1631
  775MPD2    C511437   1.600   3.502  15.345  0.1194  0.6593  0.3305
  775MPD2     H11438   1.628   3.828  15.549  0.7255  0.0480 -0.3900
  775MPD2    H111439   1.802   3.538  15.285 -1.0214  0.8934 -1.2142
  775MPD2    H211440   1.410   3.488  15.429  0.7558  0.2867 -1.8106
  775MPD2    H311441   1.587   3.418  15.277 -1.8546  0.2363  1.2030
  775MPD2     N11442   1.836   3.772  15.391 -0.6263  0.2697 -0.1323
  775MPD2    H511443   1.902   3.733  15.324 -0.8741  0.4863 -0.5003
  775MPD2    N111444   1.400   3.681  15.601  0.0345 -0.0245  0.1164
  775MPD2    H711445   1.336   3.606  15.624 -0.0977  0.5365  1.5770
  776MPD2     C11446   0.271   4.206  11.399 -0.1622 -0.0041 -0.0576
  776MPD2    C111447   0.361   4.195  11.500  0.1064 -0.0028  0.3622
  776MPD2    C211448   0.422   4.310  11.544 -0.4237 -0.0427  0.3637
  776MPD2    C311449   0.403   4.428  11.483  0.4112 -0.0726  0.0263
  776MPD2    C411450   0.315   4.439  11.378  0.5669  0.1406 -0.8452
  776MPD2    C511451   0.243   4.335  11.340 -0.1051 -0.4810  0.3781
  776MPD2     H11452   0.496   4.310  11.623 -1.5451 -1.1373  1.4065
  776MPD2    H111453   0.280   4.537  11.345 -0.4600 -0.5451 -1.8115
  776MPD2    H211454   0.205   4.125  11.373  0.7725 -0.8981  0.3646
  776MPD2    H311455   0.165   4.343  11.265  0.2850  0.8644  0.1252
  776MPD2     N11456   0.476   4.538  11.531 -0.2923 -1.1617 -0.9176
  776MPD2    H511457   0.512   4.536  11.626 -1.0563 -2.0188 -0.6425
  776MPD2    N111458   0.376   4.066  11.555 -0.5253  0.0504  0.7065
  776MPD2    H711459   0.317   3.986  11.533 -2.1005  1.7665 -1.3396
  777MPD2     C11460   0.574   1.383   1.167 -0.1586 -0.2370  0.8298
  777MPD2    C111461   0.650   1.269   1.186  0.0843 -0.1160  0.2849
  777MPD2    C211462   0.625   1.169   1.098  0.4652 -0.9246 -0.1707
  777MPD2    C311463   0.534   1.175   0.994  0.6948  0.5516 -0.1465
  777MPD2    C411464   0.467   1.289   0.980  0.1741 -0.0593  0.2954
  777MPD2    C511465   0.494   1.392   1.063  0.8995 -0.9279  0.4786
  777MPD2     H11466   0.682   1.077   1.101  0.5671 -0.9632 -3.1288
  777MPD2    H111467   0.394   1.298   0.901 -0.3138 -0.4370  0.7029
  777MPD2    H211468   0.593   1.470   1.228  0.4436  1.1851 -1.3580
  777MPD2    H311469   0.441   1.485   1.045 -0.3904 -1.5298  1.1635
  777MPD2     N11470   0.500   1.065   0.917  0.1127 -0.0006  0.2292
  777MPD2    H511471   0.546   0.977   0.935  0.4716  0.1516  0.0626
  777MPD2    N111472   0.723   1.265   1.301  0.0365 -0.4376 -0.2780
  777MPD2    H711473   0.712   1.346   1.361  1.1218  1.2206 -2.3343
  778MPD2     C11474   2.044   2.092  15.166 -0.4851 -0.4297  0.2743
  778MPD2    C111475   2.057   1.992  15.073  0.1647  0.8996 -0.6089
  778MPD2    C211476   2.138   2.019  14.964 -0.9399  0.1161  0.8122
  778MPD2    C311477   2.191   2.142  14.939  0.7346 -0.6140 -0.6552
  778MPD2    C411478   2.172   2.239  15.030 -0.1004  0.0577  0.5021
  778MPD2    C511479   2.101   2.212  15.147 -0.5821 -0.2989  0.2488
  778MPD2     H11480   2.168   1.947  14.889  1.1935  1.9258 -0.0539
  778MPD2    H111481   2.215   2.338  15.027 -0.7858  0.3368 -0.0576
  778MPD2    H211482   1.975   2.088  15.249 -0.1497 -1.5921  0.4872
  778MPD2    H311483   2.101   2.288  15.224 -2.4510  0.1447 -0.1914
  778MPD2     N11484   2.268   2.154  14.822  0.6638 -0.0040  0.5749
  778MPD2    H511485   2.306   2.068  14.785 -0.4803 -0.2233 -0.0860
  778MPD2    N111486   1.999   1.865  15.084 -0.4341 -0.4153 -0.2934
  778MPD2    H711487   2.034   1.803  15.012 -2.0113 -0.5720 -0.9248
  779MPD2     C11488   1.842   0.494  13.848 -0.5579  0.0303  0.1204
  779MPD2    C111489   1.906   0.487  13.970  0.1307  0.4675 -0.3495
  779MPD2    C211490   1.936   0.607  14.038 -0.0247  0.1003 -0.1659
  779MPD2    C311491   1.905   0.727  13.979 -0.4263  0.5214  0.3531
  779MPD2    C411492   1.838   0.730  13.852  0.3352 -0.0820 -0.0778
  779MPD2    C511493   1.810   0.613  13.792  0.5325  0.2167  0.1690
  779MPD2     H11494   1.988   0.603  14.133  1.7665 -2.4601 -1.2699
  779MPD2    H111495   1.809   0.821  13.801  1.4719 -1.5094 -3.2922
  779MPD2    H211496   1.821   0.405  13.789  0.7652 -0.7427  0.8006
  779MPD2    H311497   1.764   0.626  13.694  2.9243  0.8561 -0.8585
  779MPD2     N11498   1.939   0.851  14.038  0.2015  0.5099 -0.0623
  779MPD2    H511499   1.998   0.849  14.121  0.6276 -0.1233 -0.3897
  779MPD2    N111500   1.936   0.360  14.023 -0.4106 -0.9189 -0.0308
  779MPD2    H711501   1.895   0.280  13.975  1.9445 -2.0418 -0.2087
  780MPD2     C11502   1.051   0.048   1.351 -0.0933  0.6057  0.8655
  780MPD2    C111503   0.940   0.026   1.269  0.2407  0.1653  0.1035
  780MPD2    C211504   0.944   0.058   1.134 -0.2354 -0.0356  1.1087
  780MPD2    C311505   1.058   0.121   1.090  0.1883 -0.3163  0.3956
  780MPD2    C411506   1.171   0.138   1.170 -0.2099 -0.7159 -0.3485
  780MPD2    C511507   1.164   0.096   1.295  0.7132 -0.6410  0.0916
  780MPD2     H11508   0.852   0.051   1.077  0.9233 -2.0988 -0.4644
  780MPD2    H111509   1.251   0.202   1.135 -0.4811 -0.5569 -0.6759
  780MPD2    H211510   1.056   0.013   1.453  0.9124 -2.9408 -0.3773
  780MPD2    H311511   1.254   0.104   1.355 -0.4951 -0.3800  1.8625
  780MPD2     N11512   1.042   0.171   0.952 -0.3086 -0.2801 -0.4079
  780MPD2    H511513   0.946   0.186   0.923 -0.7483 -0.8771  0.7736
  780MPD2    N111514   0.825   4.711   1.341 -0.3850 -0.1126  0.1114
  780MPD2    H711515   0.836   4.686   1.439 -2.7330 -3.1304 -0.3823
  781MPD2     C11516   3.298   2.155  12.280 -0.6723 -0.0325 -0.0174
  781MPD2    C111517   3.237   2.033  12.247  0.2940 -0.4957 -0.6968
  781MPD2    C211518   3.195   2.020  12.116  0.3370  0.4077  0.8898
  781MPD2    C311519   3.204   2.119  12.022 -0.9352  0.0248 -0.4241
  781MPD2    C411520   3.267   2.240  12.058 -0.1185 -0.1570 -0.3544
  781MPD2    C511521   3.311   2.251  12.188 -0.4472 -0.8942  0.2673
  781MPD2     H11522   3.157   1.920  12.098  0.5749  0.1402  1.8878
  781MPD2    H111523   3.292   2.316  11.985 -0.7006 -0.9623 -1.3823
  781MPD2    H211524   3.315   2.192  12.380 -1.0665 -0.4740  0.2135
  781MPD2    H311525   3.366   2.340  12.215 -0.7504 -0.7454  0.3986
  781MPD2     N11526   3.158   2.093  11.892 -0.3560 -0.2293 -0.9078
  781MPD2    H511527   3.130   1.998  11.869 -0.6727  0.3705 -2.9436
  781MPD2    N111528   3.202   1.937  12.339  0.1064 -0.6720 -0.0299
  781MPD2    H711529   3.153   1.852  12.311 -2.9031  0.8377  0.6199
  782MPD2     C11530   1.342   3.280  10.119  0.0461  0.3265 -0.1282
  782MPD2    C111531   1.338   3.214  10.238  0.2349 -0.5249  0.3153
  782MPD2    C211532   1.353   3.272  10.360  0.4901 -0.0030  0.1913
  782MPD2    C311533   1.370   3.407  10.368 -0.3404 -0.4679 -0.0543
  782MPD2    C411534   1.394   3.477  10.250  0.3681  0.1752 -0.2978
  782MPD2    C511535   1.367   3.416  10.122  0.2060  0.2288 -0.7190
  782MPD2     H11536   1.351   3.212  10.450 -0.8848 -1.8778 -1.0883
  782MPD2    H111537   1.437   3.576  10.242  2.4704 -0.6321  1.1130
  782MPD2    H211538   1.324   3.235  10.022 -0.7223 -0.5890  0.4458
  782MPD2    H311539   1.387   3.476  10.034 -2.0813  0.2557 -1.2189
  782MPD2     N11540   1.383   3.462  10.499 -0.6158 -0.1135 -0.3897
  782MPD2    H511541   1.371   3.400  10.579 -0.2007 -1.9131 -1.7106
  782MPD2    N111542   1.311   3.074  10.244 -1.0506  0.1180 -0.8995
  782MPD2    H711543   1.300   3.028  10.334 -3.6476  0.9013 -0.8205
  783MPD2     C11544   0.578   2.803  10.670  0.3650  0.3167 -0.6818
  783MPD2    C111545   0.692   2.841  10.745  0.1910  0.1546  0.2301
  783MPD2    C211546   0.822   2.832  10.684 -0.8331  0.1624  0.0088
  783MPD2    C311547   0.819   2.792  10.553 -0.5546 -0.3728 -0.2418
  783MPD2    C411548   0.704   2.753  10.486 -0.0015 -0.3931 -0.2516
  783MPD2    C511549   0.583   2.758  10.543 -0.1930  0.3684  0.2071
  783MPD2     H11550   0.912   2.867  10.732 -1.0986 -1.4826  1.7066
  783MPD2    H111551   0.704   2.709  10.388  1.9677  1.7964 -1.2414
  783MPD2    H211552   0.482   2.799  10.721  0.6564  0.3472 -0.1357
  783MPD2    H311553   0.499   2.711  10.491 -0.8559  1.8621 -0.0808
  783MPD2     N11554   0.947   2.781  10.488 -0.2846  0.2546  0.4469
  783MPD2    H511555   1.028   2.795  10.548 -0.5176 -1.0471  1.0586
  783MPD2    N111556   0.673   2.886  10.882  0.4141 -0.6914  0.3254
  783MPD2    H711557   0.574   2.889  10.906  0.7239  1.0580  1.3811
  784MPD2     C11558   3.411   3.077   0.876  0.2783  0.2380  0.0128
  784MPD2    C111559   3.383   3.091   1.008  0.2579 -0.5326  0.3648
  784MPD2    C211560   3.256   3.136   1.040  0.4726 -0.4200  0.1067
  784MPD2    C311561   3.151   3.157   0.944  0.6283  0.0751  0.2319
  784MPD2    C411562   3.188   3.143   0.808 -0.2888 -0.1190  0.5896
  784MPD2    C511563   3.314   3.102   0.782  0.0863  0.3097  0.0715
  784MPD2     H11564   3.234   3.130   1.146 -1.7230  0.9561 -0.2746
  784MPD2    H111565   3.123   3.169   0.725  1.2775  0.0016 -0.5981
  784MPD2    H211566   3.508   3.042   0.843 -0.3415  1.9913 -3.6656
  784MPD2    H311567   3.341   3.108   0.678  0.0301 -2.8578 -0.1397
  784MPD2     N11568   3.016   3.192   0.984  0.1854 -0.1410 -0.0485
  784MPD2    H511569   3.011   3.217   1.083 -0.5889  2.2457 -0.7059
  784MPD2    N111570   3.472   3.062   1.114  0.2981  0.1522 -0.3660
  784MPD2    H711571   3.434   3.071   1.207 -0.8386 -1.0682 -0.7113
  785MPD2     C11572   2.741   1.367  10.950 -0.5219 -0.7350  0.1543
  785MPD2    C111573   2.694   1.494  10.965  0.2815  0.5511 -0.2581
  785MPD2    C211574   2.585   1.534  10.893 -0.1969  0.5858  0.1449
  785MPD2    C311575   2.541   1.471  10.773 -0.0590  0.4314 -0.5118
  785MPD2    C411576   2.596   1.342  10.754 -0.5967 -0.4893 -0.4652
  785MPD2    C511577   2.681   1.287  10.850 -0.3851 -0.0142  0.6579
  785MPD2     H11578   2.528   1.624  10.912  0.4995  1.4480 -1.8364
  785MPD2    H111579   2.578   1.285  10.663 -3.4492  1.0576 -0.8563
  785MPD2    H211580   2.830   1.330  10.999 -0.5293  0.3307  0.9612
  785MPD2    H311581   2.717   1.185  10.840 -1.3023 -0.0711 -2.1327
  785MPD2     N11582   2.454   1.533  10.678 -0.3338 -0.1109  0.4244
  785MPD2    H511583   2.436   1.632  10.689  0.0033  0.0830 -0.8457
  785MPD2    N111584   2.760   1.582  11.053 -0.3905 -0.1001  0.0762
  785MPD2    H711585   2.844   1.551  11.101 -0.6318 -2.2660 -0.9019
  786MPD2     C11586   2.344   4.278  15.043 -0.5517  0.7003 -0.3312
  786MPD2    C111587   2.365   4.143  15.058  0.4398  0.0123  0.1326
  786MPD2    C211588   2.367   4.083  15.182 -0.5366 -0.0482 -0.2291
  786MPD2    C311589   2.348   4.157  15.295  0.0008 -0.0198 -0.2805
  786MPD2    C411590   2.339   4.298  15.286 -0.0766 -0.5063 -0.1387
  786MPD2    C511591   2.327   4.348  15.156  0.1346  0.2931  0.4725
  786MPD2     H11592   2.372   3.975  15.187  1.3113  0.0676  0.3695
  786MPD2    H111593   2.334   4.367  15.369  0.1922  0.7106 -1.1353
  786MPD2    H211594   2.335   4.331  14.949  0.5286  3.6237  1.1935
  786MPD2    H311595   2.301   4.453  15.148 -2.1075 -0.0826  2.9122
  786MPD2     N11596   2.361   4.096  15.422 -0.8874  0.2503 -0.3128
  786MPD2    H511597   2.322   4.143  15.503  0.8920  1.4819 -0.1691
  786MPD2    N111598   2.367   4.055  14.946 -0.4096 -0.5154 -0.3193
  786MPD2    H711599   2.377   3.956  14.966 -3.1018 -0.7792 -0.2077
  787MPD2     C11600   2.616   3.502  14.968 -0.1952  0.5247  0.1527
  787MPD2    C111601   2.620   3.534  14.834 -0.3451  0.2011  0.2148
  787MPD2    C211602   2.707   3.468  14.752  0.1039 -0.6007  0.3455
  787MPD2    C311603   2.807   3.393  14.806  0.0387 -0.0542  0.5665
  787MPD2    C411604   2.802   3.371  14.942 -0.0274 -0.4395  0.3623
  787MPD2    C511605   2.700   3.413  15.022 -0.5534  0.4228 -0.2202
  787MPD2     H11606   2.709   3.488  14.646 -1.6198  1.3627  0.6587
  787MPD2    H111607   2.874   3.319  15.002  1.7697  2.7344  0.9777
  787MPD2    H211608   2.534   3.526  15.034 -0.7039  1.8561 -0.9646
  787MPD2    H311609   2.694   3.390  15.128  0.4306 -0.7024 -0.4065
  787MPD2     N11610   2.918   3.355  14.722 -0.7262 -0.1299 -0.0870
  787MPD2    H511611   2.918   3.397  14.630  2.8790  0.4040  0.1740
  787MPD2    N111612   2.528   3.625  14.791 -0.1614  0.4477 -0.1577
  787MPD2    H711613   2.465   3.670  14.857  1.7333  0.6656  1.5015
  788MPD2     C11614   4.326   2.811   0.913 -0.3168  0.4107  0.0991
  788MPD2    C111615   4.210   2.735   0.928 -0.7967 -0.9683 -0.7376
  788MPD2    C211616   4.100   2.752   0.845 -0.2537  0.4418 -0.4102
  788MPD2    C311617   4.104   2.839   0.740 -0.3479  0.3790 -0.3464
  788MPD2    C411618   4.222   2.916   0.727  0.2494 -0.1828 -0.1585
  788MPD2    C511619   4.326   2.900   0.809 -0.0863 -0.0743 -0.0685
  788MPD2     H11620   4.017   2.683   0.852  1.4967 -1.6909 -0.8209
  788MPD2    H111621   4.241   2.980   0.642  1.9296  0.6127  0.8146
  788MPD2    H211622   4.412   2.792   0.977 -0.1696  2.9066  0.6251
  788MPD2    H311623   4.407   2.965   0.778 -0.8394  0.6056 -0.6045
  788MPD2     N11624   4.018   2.821   0.631  0.1084  0.0935 -0.3338
  788MPD2    H511625   4.042   2.870   0.545  0.7167 -0.2900 -0.3806
  788MPD2    N111626   4.193   2.632   1.017 -0.1861  0.8271  0.8394
  788MPD2    H711627   4.101   2.588   1.016  1.0302 -1.6687  0.2484
  789MPD2     C11628   4.654   2.096  16.387  0.0332  0.0069  0.4453
  789MPD2    C111629   4.565   1.992  16.395  0.8191 -0.1652 -0.4198
  789MPD2    C211630   4.433   2.024  16.435 -0.6801  0.5362  0.1341
  789MPD2    C311631   4.396   2.149  16.475  0.1883 -0.8010  0.7283
  789MPD2    C411632   4.488   2.246  16.473  1.0998 -0.1300  0.5035
  789MPD2    C511633   4.612   2.220  16.419  0.5353  0.4216  0.3623
  789MPD2     H11634   4.361   1.942  16.430  0.5381 -0.4993 -0.3899
  789MPD2    H111635   4.475   2.348  16.507 -0.3389 -0.4568  0.9399
  789MPD2    H211636   0.034   2.084  16.367 -0.2640 -1.5228 -0.2664
  789MPD2    H311637   4.687   2.298  16.415  0.9709  0.0452  0.9860
  789MPD2     N11638   4.268   2.186  16.505  0.2518  0.7334  0.0901
  789MPD2    H511639   4.252   2.279  16.542 -1.7599 -0.0403  1.1642
  789MPD2    N111640   4.602   1.862  16.353 -0.3675 -0.5926 -0.1328
  789MPD2    H711641   4.527   1.794  16.355  1.4138 -2.5042  1.1909
  790MPD2     C11642   0.405   4.582  13.206  0.5965 -0.1412 -0.1548
  790MPD2    C111643   0.422   4.446  13.233  0.7201 -0.7358 -0.1233
  790MPD2    C211644   0.393   4.349  13.143  0.6942 -0.3747 -0.2098
  790MPD2    C311645   0.330   4.374  13.027  0.7237 -0.9366  0.4549
  790MPD2    C411646   0.288   4.503  13.005  0.1138 -0.4431  0.8667
  790MPD2    C511647   0.319   4.604  13.097 -0.2511  0.0837 -0.4111
  790MPD2     H11648   0.418   4.246  13.166 -0.5739 -0.4912  0.6175
  790MPD2    H111649   0.237   4.539  12.916  0.0750 -0.3422  0.9291
  790MPD2    H211650   0.453   4.658  13.266  0.1558  0.2093 -0.2433
  790MPD2    H311651   0.288   4.703  13.064 -0.9551  0.2195  0.6481
  790MPD2     N11652   0.306   4.265  12.943  0.4616 -0.2571  0.2957
  790MPD2    H511653   0.342   4.174  12.972 -1.4010 -1.7217 -1.9908
  790MPD2    N111654   0.483   4.420  13.355  0.9617  0.2821 -1.0385
  790MPD2    H711655   0.491   4.501  13.415  1.1722  1.5742 -2.7915
  791MPD2     C11656   4.472   4.073  12.372  0.0854 -0.3406 -0.3315
  791MPD2    C111657   4.506   3.980  12.469  0.7826  0.6596 -0.1690
  791MPD2    C211658   4.427   3.869  12.490  0.2884 -0.2157  1.1554
  791MPD2    C311659   4.321   3.846  12.416 -0.5093  0.0760  0.1272
  791MPD2    C411660   4.266   3.947  12.342 -0.0082 -0.4551 -0.4079
  791MPD2    C511661   4.344   4.059  12.316 -0.8617  0.1061 -0.0816
  791MPD2     H11662   4.454   3.796  12.566  1.0539 -0.8249  0.2829
  791MPD2    H111663   4.169   3.937  12.295  0.3365 -0.3604 -1.1412
  791MPD2    H211664   4.535   4.157  12.345 -0.6874 -0.0266 -1.1919
  791MPD2    H311665   4.310   4.144  12.258 -3.7090 -1.3860 -0.5896
  791MPD2     N11666   4.247   3.728  12.435  0.6794  0.6371  0.1344
  791MPD2    H511667   4.289   3.652  12.488 -1.3934 -0.0289  0.8558
  791MPD2    N111668   4.631   3.999  12.529  0.4921 -0.2933 -0.0796
  791MPD2    H711669   4.694   4.071  12.494  0.8919 -0.8866 -0.5875
  792MPD2     C11670   1.046   3.726  11.194  0.0679  0.0752  0.0996
  792MPD2    C111671   0.914   3.712  11.202 -0.0050  0.2016  0.1137
  792MPD2    C211672   0.845   3.610  11.125  0.1768 -0.1156 -0.1531
  792MPD2    C311673   0.919   3.526  11.046 -0.4073  0.2765  0.2208
  792MPD2    C411674   1.057   3.540  11.047 -0.2609 -0.2095  0.2033
  792MPD2    C511675   1.124   3.639  11.123  0.4353  0.8145  0.3219
  792MPD2     H11676   0.737   3.607  11.136  0.2534  0.2870  0.7098
  792MPD2    H111677   1.104   3.458  10.992  1.9218 -0.5902  2.5980
  792MPD2    H211678   1.100   3.800  11.253  0.2901 -1.7710  2.1878
  792MPD2    H311679   1.232   3.650  11.118  0.2031  1.2441 -3.5125
  792MPD2     N11680   0.856   3.437  10.954  0.4534 -0.4937  0.6264
  792MPD2    H511681   0.920   3.400  10.884 -0.0693 -1.5813  0.7174
  792MPD2    N111682   0.854   3.817  11.283 -0.0004 -0.4409 -0.0113
  792MPD2    H711683   0.915   3.867  11.348 -1.5150 -0.0730  1.1176
  793MPD2     C11684   0.270   3.707  10.209  0.2922 -0.1076  0.3430
  793MPD2    C111685   0.407   3.684  10.202 -0.4918 -0.3500  0.3307
  793MPD2    C211686   0.463   3.608  10.299  0.0221  0.8604  0.1438
  793MPD2    C311687   0.392   3.577  10.409 -0.1727  0.2973 -0.7689
  793MPD2    C411688   0.255   3.591  10.412  0.0626  0.2203 -0.4916
  793MPD2    C511689   0.194   3.655  10.308  0.4177 -0.8820 -0.1264
  793MPD2     H11690   0.571   3.594  10.305  0.0281  1.3516  1.1957
  793MPD2    H111691   0.198   3.555  10.497 -1.4133  1.2244 -1.0611
  793MPD2    H211692   0.217   3.772  10.139 -0.6270 -1.0750  0.1458
  793MPD2    H311693   0.087   3.668  10.297  0.7020  1.2195 -0.4286
  793MPD2     N11694   0.464   3.504  10.503 -1.0075  0.3752 -0.2810
  793MPD2    H511695   0.561   3.493  10.479 -0.9297 -1.5832  0.8824
  793MPD2    N111696   0.489   3.742  10.097  0.0087 -0.3536 -0.0097
  793MPD2    H711697   0.586   3.711  10.102 -0.2355 -1.5916 -2.7141
  794MPD2     C11698   0.237   3.703   0.292  0.4306 -0.1068 -0.0884
  794MPD2    C111699   0.242   3.598   0.210 -0.1587  0.7595 -0.7875
  794MPD2    C211700   0.236   3.622   0.073  0.5598  0.1607 -0.1434
  794MPD2    C311701   0.259   3.751   0.032 -0.7043  0.2614  0.0852
  794MPD2    C411702   0.251   3.857   0.119  0.0029 -0.2218  0.7352
  794MPD2    C511703   0.243   3.832   0.251  1.0877  0.0041  0.3646
  794MPD2     H11704   0.240   3.538   0.004  2.7157  1.3436 -1.4444
  794MPD2    H111705   0.267   3.956   0.076 -0.1243  0.9272  3.3161
  794MPD2    H211706   0.243   3.689   0.400  1.5608  1.3931  0.0476
  794MPD2    H311707   0.247   3.918   0.318 -0.8681  0.8875 -0.6843
  794MPD2     N11708   0.294   3.785  17.603  0.3980 -0.7699  0.2266
  794MPD2    H511709   0.305   3.884  17.585 -0.1528 -0.8202 -0.3719
  794MPD2    N111710   0.259   3.465   0.246  0.2633  0.4338  0.5143
  794MPD2    H711711   0.230   3.391   0.183  1.2420 -0.9082  1.6308
  795MPD2     C11712   2.841   0.866  13.359 -0.4870 -0.7133  0.6091
  795MPD2    C111713   2.784   0.742  13.352 -1.2680 -0.0821  0.4799
  795MPD2    C211714   2.858   0.627  13.372 -1.1872 -0.1486 -0.0613
  795MPD2    C311715   2.996   0.639  13.393 -0.1693  1.0209 -0.1720
  795MPD2    C411716   3.056   0.761  13.399 -0.1146  0.2600  0.7422
  795MPD2    C511717   2.975   0.874  13.390  0.2120 -0.5776  0.0055
  795MPD2     H11718   2.807   0.534  13.352  0.5334 -0.9263 -0.8634
  795MPD2    H111719   3.159   0.774  13.429 -0.0822  0.4181  0.5638
  795MPD2    H211720   2.801   0.966  13.357  1.2329 -0.1167 -2.5225
  795MPD2    H311721   3.024   0.970  13.396 -2.0116  0.4525  1.3176
  795MPD2     N11722   3.073   0.526  13.406  0.1383 -0.0580 -0.0349
  795MPD2    H511723   3.025   0.436  13.405  1.5952 -0.8437  0.2043
  795MPD2    N111724   2.647   0.732  13.328  0.6846 -0.3368  0.2938
  795MPD2    H711725   2.618   0.635  13.318  0.4149 -0.1090 -1.1426
  796MPD2     C11726   2.193   2.197  16.813  0.2248  0.0300 -0.1921
  796MPD2    C111727   2.305   2.173  16.741  0.7980  0.1890 -0.1370
  796MPD2    C211728   2.310   2.234  16.614 -0.0350  0.0176  0.1252
  796MPD2    C311729   2.214   2.324  16.572 -0.5544  0.1153 -0.1007
  796MPD2    C411730   2.098   2.335  16.646 -0.3810  0.4517 -0.7094
  796MPD2    C511731   2.089   2.272  16.770  0.1112  0.6243 -0.0595
  796MPD2     H11732   2.392   2.219  16.545  0.6233 -2.5906  1.4371
  796MPD2    H111733   2.011   2.389  16.611 -1.6127  0.7261  2.7101
  796MPD2    H211734   2.173   2.146  16.907  0.0326  0.6649  0.1134
  796MPD2    H311735   2.003   2.282  16.835 -0.0125 -1.8541  0.1582
  796MPD2     N11736   2.235   2.383  16.450  0.1562 -0.3512  0.2621
  796MPD2    H511737   2.320   2.349  16.405 -0.9458 -1.5309 -0.9584
  796MPD2    N111738   2.412   2.100  16.802  0.4176  0.0055  0.0932
  796MPD2    H711739   2.412   2.097  16.904  0.7720 -0.0784  0.0912
  797MPD2     C11740   3.804   1.576  17.277 -0.3065  0.0770 -0.0631
  797MPD2    C111741   3.739   1.673  17.354  0.6902  0.0780  0.3927
  797MPD2    C211742   3.757   1.810  17.314  0.2126 -0.0396  0.1267
  797MPD2    C311743   3.841   1.847  17.214  0.5492  0.3167 -0.4153
  797MPD2    C411744   3.907   1.749  17.141 -0.3214  0.3205 -0.3155
  797MPD2    C511745   3.893   1.614  17.173 -0.0286  0.2634  0.5494
  797MPD2     H11746   3.694   1.888  17.355 -1.0309 -1.0218  0.0841
  797MPD2    H111747   3.987   1.777  17.074 -0.4388  2.3236  0.3887
  797MPD2    H211748   3.787   1.470  17.294 -1.1018  0.2991  0.5160
  797MPD2    H311749   3.944   1.544  17.108  2.9963  2.6827  0.3015
  797MPD2     N11750   3.856   1.983  17.192 -0.2973  1.0226  0.8607
  797MPD2    H511751   3.813   2.041  17.264 -0.0567 -1.8597  3.3202
  797MPD2    N111752   3.649   1.644  17.455 -0.1287  0.3044  0.1971
  797MPD2    H711753   3.597   1.727  17.482 -1.2450  0.4469 -2.3639
  798MPD2     C11754   3.356   2.337  17.528  0.8569  0.6806 -0.2736
  798MPD2    C111755   3.457   2.254  17.490  0.2377  0.4381  0.5123
  798MPD2    C211756   3.471   2.129  17.547 -0.0318 -0.5481  0.4092
  798MPD2    C311757   3.374   2.077  17.638  0.6952  1.2616 -0.9288
  798MPD2    C411758   3.274   2.163  17.677 -0.1028 -0.2392 -0.4075
  798MPD2    C511759   3.268   2.296  17.628  0.2278  0.0029 -0.0917
  798MPD2     H11760   3.552   2.065  17.515 -1.2145 -2.7869  1.9193
  798MPD2    H111761   3.206   2.134   0.052 -0.6685  0.3293 -0.6842
  798MPD2    H211762   3.345   2.433  17.479 -1.3143  0.4834 -0.1614
  798MPD2    H311763   3.182   2.358  17.651 -0.2487 -0.8311  0.3837
  798MPD2     N11764   3.373   1.948  17.699 -0.2910 -0.5818 -0.2843
  798MPD2    H511765   3.314   1.935   0.077 -0.6005  0.6542 -0.3100
  798MPD2    N111766   3.543   2.302  17.392  0.0961 -0.1570  0.1475
  798MPD2    H711767   3.531   2.398  17.362 -1.0343 -0.1276  0.6967
  799MPD2     C11768   2.068   3.465  14.700  0.8949  0.0370 -0.3229
  799MPD2    C111769   2.161   3.403  14.620 -0.1957  0.0981  0.3414
  799MPD2    C211770   2.142   3.386  14.486 -0.5201 -0.5438 -0.1671
  799MPD2    C311771   2.020   3.424  14.428  1.2813  0.7019  0.8169
  799MPD2    C411772   1.923   3.478  14.513  0.1971  0.0813  0.1530
  799MPD2    C511773   1.950   3.504  14.643  0.1949 -0.2328 -1.0230
  799MPD2     H11774   2.220   3.337  14.429 -0.0322 -0.2573  0.2661
  799MPD2    H111775   1.827   3.516  14.481  0.9419  0.6988 -1.3433
  799MPD2    H211776   2.084   3.502  14.800  0.9782 -1.3084  0.1569
  799MPD2    H311777   1.876   3.553  14.705 -0.4484 -0.0450 -1.9563
  799MPD2     N11778   1.991   3.421  14.294 -0.1462 -0.7269 -0.8666
  799MPD2    H511779   1.909   3.465  14.254  0.0823  0.5997  0.1056
  799MPD2    N111780   2.279   3.348  14.674 -0.2955  0.3205 -0.2673
  799MPD2    H711781   2.345   3.307  14.608 -0.0803  1.7874 -0.9646
  800MPD2     C11782   3.394   4.222  14.771 -0.0234  0.1785  0.5219
  800MPD2    C111783   3.390   4.360  14.754  0.0255  0.5129 -0.2126
  800MPD2    C211784   3.276   4.419  14.705 -0.4894  0.5122  0.0701
  800MPD2    C311785   3.175   4.331  14.658 -0.3396 -0.2899  0.7801
  800MPD2    C411786   3.182   4.195  14.687  0.2272  0.1239 -0.7539
  800MPD2    C511787   3.289   4.137  14.744 -0.5421 -0.4473  0.1786
  800MPD2     H11788   3.269   4.527  14.701 -2.4520  0.3626 -0.6220
  800MPD2    H111789   3.093   4.141  14.657 -0.1005 -0.1527  0.7254
  800MPD2    H211790   3.480   4.170  14.812  0.3582  0.0070 -0.4889
  800MPD2    H311791   3.292   4.037  14.785  1.3141  0.0406  1.2159
  800MPD2     N11792   3.066   4.388  14.584  0.4305  0.4892  0.4842
  800MPD2    H511793   3.082   4.481  14.546  1.1861  0.8002  1.5548
  800MPD2    N111794   3.512   4.427  14.779  0.1199 -0.8732 -0.1315
  800MPD2    H711795   3.595   4.372  14.758  0.0171 -1.5529  1.1970
  801MPD2     C11796   3.496   0.480  14.683 -0.1405  0.4779 -0.2135
  801MPD2    C111797   3.450   0.358  14.740 -0.3155  0.1178  0.6887
  801MPD2    C211798   3.317   0.356  14.781  0.1418  0.1570  0.3382
  801MPD2    C311799   3.230   0.459  14.767 -0.3152  0.0027 -0.3713
  801MPD2    C411800   3.285   0.578  14.728  0.2933  0.2052  0.0593
  801MPD2    C511801   3.411   0.589  14.682  0.5128  0.1467 -0.3092
  801MPD2     H11802   3.281   0.262  14.822  2.9669 -1.5362 -1.1241
  801MPD2    H111803   3.228   0.666  14.701 -0.9155 -0.9134 -1.0136
  801MPD2    H211804   3.596   0.504  14.649  0.4292  2.0648  2.5983
  801MPD2    H311805   3.439   0.686  14.644  0.8197 -1.5173 -4.3576
  801MPD2     N11806   3.088   0.451  14.789 -0.2514 -0.8503 -0.1287
  801MPD2    H511807   3.044   0.543  14.786  3.8055  1.1016 -0.5575
  801MPD2    N111808   3.532   0.241  14.742  0.3101 -0.4519 -0.0290
  801MPD2    H711809   3.488   0.166  14.794 -2.6713  1.4471  0.1982
  802MPD2     C11810   2.326   0.803   0.817  0.0233  0.7181 -0.0614
  802MPD2    C111811   2.282   0.798   0.689  0.0868 -0.6141  0.0024
  802MPD2    C211812   2.371   0.769   0.589  0.1072 -0.2210  0.2668
  802MPD2    C311813   2.502   0.736   0.616 -0.7781  0.2839 -0.4435
  802MPD2    C411814   2.536   0.726   0.745  0.7780 -0.1957  0.5303
  802MPD2    C511815   2.455   0.759   0.851 -0.1928  0.6260  0.1945
  802MPD2     H11816   2.335   0.799   0.491 -3.6913  0.9892  2.0098
  802MPD2    H111817   2.633   0.691   0.779  0.4741  0.6472  2.2724
  802MPD2    H211818   2.270   0.817   0.909 -1.3221 -1.4348 -0.5538
  802MPD2    H311819   2.485   0.761   0.955 -1.5097 -0.1941  0.5895
  802MPD2     N11820   2.594   0.740   0.503 -0.2170 -0.0227 -0.0202
  802MPD2    H511821   2.553   0.748   0.410 -0.6249 -2.2707 -0.0469
  802MPD2    N111822   2.151   0.846   0.662 -0.4135 -0.7638 -0.5741
  802MPD2    H711823   2.117   0.858   0.567  0.8176  2.1343 -0.6452
  803MPD2     C11824   2.929   3.820  11.730 -0.2145 -0.3950 -0.1345
  803MPD2    C111825   3.029   3.816  11.825  0.5938 -0.2209  0.0149
  803MPD2    C211826   3.023   3.724  11.928 -0.4107 -0.1599  0.2036
  803MPD2    C311827   2.916   3.638  11.941  0.4386  0.7304  0.1575
  803MPD2    C411828   2.810   3.644  11.850  0.2035 -0.4499  0.1977
  803MPD2    C511829   2.815   3.740  11.747  0.4396  0.4065  0.5677
  803MPD2     H11830   3.106   3.721  11.998  1.6241  0.2654 -2.2034
  803MPD2    H111831   2.722   3.581  11.846 -0.1364  0.1058 -1.2480
  803MPD2    H211832   2.943   3.892  11.651  2.1902 -0.3087  0.3797
  803MPD2    H311833   2.733   3.743  11.676  0.9614  1.8732  0.0099
  803MPD2     N11834   2.908   3.537  12.044 -0.2003 -0.7930 -0.1582
  803MPD2    H511835   2.820   3.491  12.062 -0.0333 -0.8223  0.6059
  803MPD2    N111836   3.150   3.884  11.816  0.0258 -0.0781 -0.0829
  803MPD2    H711837   3.221   3.860  11.884  0.1306 -2.6923 -1.1196
  804MPD2     C11838   3.973   0.128  17.591  0.4653 -0.3959 -0.3573
  804MPD2    C111839   3.848   0.142  17.635 -0.3849 -0.4501  0.0369
  804MPD2    C211840   3.821   0.218   0.039 -0.3503 -0.2731 -0.4746
  804MPD2    C311841   3.923   0.281   0.107 -1.0174 -0.3672  0.6400
  804MPD2    C411842   4.055   0.259   0.068  0.3288 -0.3923 -0.0958
  804MPD2    C511843   4.078   0.193  17.659  0.0741  0.2263  0.3497
  804MPD2     H11844   3.719   0.214   0.077  0.0036 -1.1456  0.3765
  804MPD2    H111845   4.135   0.319   0.110  0.8247 -2.5456  2.0258
  804MPD2    H211846   3.994   0.063  17.507 -0.0718  0.6822 -1.3167
  804MPD2    H311847   4.180   0.180  17.625 -0.4545  1.9377 -1.8893
  804MPD2     N11848   3.890   0.387   0.202 -0.4937 -0.2580  0.2502
  804MPD2    H511849   3.796   0.423   0.195  0.1749  1.5882  0.8407
  804MPD2    N111850   3.735   0.057  17.587 -0.4245 -0.1091 -0.4443
  804MPD2    H711851   3.646   0.069  17.636  0.6218 -0.8388  1.6181
  805MPD2     C11852   2.601   3.604  15.302  0.4050  0.2994  0.2183
  805MPD2    C111853   2.592   3.492  15.374  0.5127 -0.1262  0.2904
  805MPD2    C211854   2.703   3.435  15.450  0.2700 -0.4814  0.1182
  805MPD2    C311855   2.816   3.516  15.444 -1.1587 -0.0826  0.4235
  805MPD2    C411856   2.820   3.639  15.386  0.6267 -0.0967  0.3025
  805MPD2    C511857   2.715   3.679  15.319 -0.7693  0.0117  0.6472
  805MPD2     H11858   2.700   3.337  15.497 -2.1251  1.4512  3.9559
  805MPD2    H111859   2.914   3.692  15.375 -0.1335  0.9176 -1.4397
  805MPD2    H211860   2.529   3.651  15.236 -1.7066 -2.8009  0.3497
  805MPD2    H311861   2.724   3.773  15.264  1.0523 -0.4388  0.1617
  805MPD2     N11862   2.939   3.472  15.499  0.2731 -0.5291 -0.6935
  805MPD2    H511863   3.014   3.531  15.464 -0.1724  0.9707  0.8867
  805MPD2    N111864   2.477   3.414  15.358 -0.0901  0.5411 -0.2520
  805MPD2    H711865   2.489   3.318  15.389  0.6087  0.5315 -0.5471
  806MPD2     C11866   2.759   2.949   0.012  0.6826 -0.4722  0.9394
  806MPD2    C111867   2.698   2.951   0.131  0.2711  0.6199  0.1695
  806MPD2    C211868   2.719   3.063   0.210 -0.0288  0.3237  0.1199
  806MPD2    C311869   2.786   3.172   0.167 -0.8885 -0.2909  0.4900
  806MPD2    C411870   2.853   3.166   0.041  0.2925 -0.0990 -0.1570
  806MPD2    C511871   2.833   3.048  17.667  0.1929  0.5066 -0.1628
  806MPD2     H11872   2.673   3.073   0.308 -0.7334  2.2226 -0.4144
  806MPD2    H111873   2.904   3.251  17.700 -0.4332  1.0158  1.1567
  806MPD2    H211874   2.739   2.868  17.646  1.8593 -0.1866  0.2553
  806MPD2    H311875   2.872   3.043  17.566 -0.9544  2.2258 -0.6852
  806MPD2     N11876   2.777   3.294   0.247 -0.3136  0.2346  0.4064
  806MPD2    H511877   2.715   3.285   0.327 -1.6742 -0.9632 -0.7971
  806MPD2    N111878   2.613   2.842   0.163 -0.3121 -0.4540  0.2540
  806MPD2    H711879   2.619   2.766   0.096  0.7081 -0.7623  0.6867
  807MPD2     C11880   2.490   2.084   0.335  0.0369 -0.5819  0.6261
  807MPD2    C111881   2.407   2.148   0.421 -0.0035  0.8956  0.4374
  807MPD2    C211882   2.341   2.072   0.515 -0.2603  0.1222  0.1706
  807MPD2    C311883   2.364   1.938   0.530  0.6062  0.0727 -0.3481
  807MPD2    C411884   2.461   1.873   0.455 -0.4884 -0.4544  0.3030
  807MPD2    C511885   2.508   1.946   0.350 -0.2497 -0.3347  0.0723
  807MPD2     H11886   2.282   2.120   0.592  1.1716 -1.9347  2.5662
  807MPD2    H111887   2.492   1.769   0.454 -1.7453 -0.7959 -4.5410
  807MPD2    H211888   2.523   2.143   0.250  0.8053 -0.7893  0.7773
  807MPD2    H311889   2.579   1.900   0.282 -0.1543  1.6107 -1.1458
  807MPD2     N11890   2.289   1.880   0.634  0.2399 -0.0909 -0.2436
  807MPD2    H511891   2.216   1.939   0.674  0.5123  0.4497 -0.5302
  807MPD2    N111892   2.395   2.287   0.419 -0.3312 -0.7680  0.2057
  807MPD2    H711893   2.324   2.324   0.481  0.0534  0.1743  0.0921
  808MPD2     C11894   3.166   3.227   9.675 -0.5072 -0.4204  0.1007
  808MPD2    C111895   3.075   3.323   9.722  0.3742 -0.4700  0.5112
  808MPD2    C211896   3.114   3.449   9.731 -0.1021 -0.4880 -0.5282
  808MPD2    C311897   3.243   3.486   9.693 -0.4179 -0.5054  0.0594
  808MPD2    C411898   3.327   3.394   9.643  0.6284  0.1109 -0.7222
  808MPD2    C511899   3.289   3.266   9.633 -0.5454  0.7084 -0.4792
  808MPD2     H11900   3.052   3.520   9.785  2.8995  0.5878  1.5463
  808MPD2    H111901   3.428   3.415   9.610  0.9773  1.6303  1.3350
  808MPD2    H211902   3.149   3.121   9.660  2.1308 -0.8714  0.3390
  808MPD2    H311903   3.358   3.192   9.595 -1.8953 -1.6581  1.7157
  808MPD2     N11904   3.295   3.619   9.708  0.2995  0.2224 -0.7585
  808MPD2    H511905   3.396   3.627   9.696  0.5212 -0.9752  0.3905
  808MPD2    N111906   2.942   3.290   9.757  0.4908  0.0239 -0.0221
  808MPD2    H711907   2.879   3.361   9.794  0.2299 -0.5955  0.7342
  809MPD2     C11908   4.017   3.748  10.036  0.7073 -0.2484 -0.1768
  809MPD2    C111909   4.001   3.867   9.980  0.6507  0.3961 -0.3556
  809MPD2    C211910   3.878   3.909   9.933  0.9677 -0.0921 -0.8995
  809MPD2    C311911   3.771   3.823   9.961 -0.2990  0.4465  0.3797
  809MPD2    C411912   3.789   3.695  10.013  0.5677  0.6989 -0.2878
  809MPD2    C511913   3.915   3.655  10.043 -0.3954 -0.4339 -0.4402
  809MPD2     H11914   3.862   4.009   9.893  2.3077  0.2239 -0.6690
  809MPD2    H111915   3.711   3.625  10.043  1.7437 -0.3720  0.2792
  809MPD2    H211916   4.113   3.713  10.072  1.6661  1.2388 -1.2881
  809MPD2    H311917   3.933   3.556  10.085  0.2991 -1.2549 -2.6563
  809MPD2     N11918   3.641   3.858   9.921 -0.2925 -0.2910 -0.1968
  809MPD2    H511919   3.572   3.785   9.932  0.7977 -0.9246  2.3117
  809MPD2    N111920   4.103   3.966   9.979  0.1206  0.0074 -0.2542
  809MPD2    H711921   4.083   4.053   9.929 -0.0110  1.0492  1.6170
  810MPD2     C11922   2.810   2.743  10.113 -1.0671  1.0755 -0.7912
  810MPD2    C111923   2.775   2.874  10.114  0.1569  0.0904  0.0360
  810MPD2    C211924   2.868   2.977  10.095 -0.0398  0.3653  0.4272
  810MPD2    C311925   3.002   2.951  10.085 -0.4454 -0.2154 -0.2351
  810MPD2    C411926   3.034   2.816  10.094  0.4570 -0.2103 -0.6339
  810MPD2    C511927   2.942   2.714  10.101 -0.7994  0.0269 -0.4834
  810MPD2     H11928   2.835   3.080  10.087 -5.0381 -1.2312  0.1453
  810MPD2    H111929   3.138   2.786  10.094  0.0906 -1.4991 -1.8526
  810MPD2    H211930   2.742   2.658  10.117  1.3997 -1.0129 -2.9855
  810MPD2    H311931   2.978   2.612  10.101  0.8946  0.6110 -0.4039
  810MPD2     N11932   3.108   3.050  10.075  0.7781  0.7549  0.3901
  810MPD2    H511933   3.207   3.025  10.078  1.1273  2.0056 -0.8777
  810MPD2    N111934   2.641   2.906  10.139  0.2174  0.1662 -0.1346
  810MPD2    H711935   2.575   2.832  10.160  0.7545  0.0910  1.3349
  811MPD2     C11936   1.778   3.217  10.053 -0.1812 -0.2067 -0.5673
  811MPD2    C111937   1.906   3.230  10.002 -0.6791  0.2493  0.2257
  811MPD2    C211938   1.942   3.343   9.931  0.8343 -0.2769 -0.0819
  811MPD2    C311939   1.846   3.437   9.908  0.3510  0.3991  1.0558
  811MPD2    C411940   1.717   3.421   9.961 -0.1588  0.1230 -0.9216
  811MPD2    C511941   1.682   3.306  10.023 -0.7296  0.3892 -0.1305
  811MPD2     H11942   2.041   3.350   9.888  1.0962  0.9742  0.7183
  811MPD2    H111943   1.634   3.485   9.933 -0.9324 -1.2776 -1.8388
  811MPD2    H211944   1.755   3.144  10.130 -1.0337 -1.1884 -1.7386
  811MPD2    H311945   1.577   3.286  10.045 -0.6439  1.1138  0.9385
  811MPD2     N11946   1.891   3.560   9.854 -0.7755  0.0842  0.2333
  811MPD2    H511947   1.993   3.562   9.850 -0.8067 -1.1992 -1.0034
  811MPD2    N111948   2.008   3.141  10.050  0.7196 -0.4815 -0.2346
  811MPD2    H711949   1.984   3.073  10.121 -2.2615 -0.9256 -1.6389
  812MPD2     C11950   1.298   3.759  12.377 -0.6276 -0.1906 -0.4097
  812MPD2    C111951   1.207   3.800  12.471  0.7878  0.1141 -0.2187
  812MPD2    C211952   1.193   3.731  12.591 -0.0189  0.0623  0.3599
  812MPD2    C311953   1.282   3.624  12.618  0.0622  0.2172  0.0777
  812MPD2    C411954   1.371   3.592  12.522  0.2445  0.7200 -0.5151
  812MPD2    C511955   1.385   3.658  12.401  0.2845  0.5586  0.0927
  812MPD2     H11956   1.123   3.755  12.670 -0.8392 -0.1336 -0.3045
  812MPD2    H111957   1.450   3.518  12.529  1.5177  2.2265  0.9133
  812MPD2    H211958   1.314   3.805  12.281  0.2290  1.1398  0.3645
  812MPD2    H311959   1.475   3.633  12.346 -2.0109  0.7231 -3.8106
  812MPD2     N11960   1.274   3.554  12.738 -0.4508  0.0510 -0.1059
  812MPD2    H511961   1.204   3.582  12.806 -0.0412 -3.0462  1.5924
  812MPD2    N111962   1.135   3.911  12.429  0.1651  1.1180  0.1754
  812MPD2    H711963   1.157   3.936  12.333 -0.8243 -1.4370 -0.7027
  813MPD2     C11964   0.543   0.915  12.888  0.4998  0.4503 -0.5669
  813MPD2    C111965   0.552   1.044  12.938 -0.6291 -0.5259 -0.2679
  813MPD2    C211966   0.460   1.079  13.037  0.1899 -0.1219 -0.0161
  813MPD2    C311967   0.381   0.985  13.106  0.3224 -0.0664 -0.0356
  813MPD2    C411968   0.389   0.851  13.058  0.1278  0.2969  0.2947
  813MPD2    C511969   0.462   0.821  12.943 -0.3115 -0.9711  0.8155
  813MPD2     H11970   0.463   1.183  13.067  0.8822 -0.2083  0.2011
  813MPD2    H111971   0.323   0.774  13.097  1.2106 -0.2909  0.9934
  813MPD2    H211972   0.595   0.883  12.799 -2.6287  2.2697 -3.0541
  813MPD2    H311973   0.452   0.725  12.895  0.9092 -0.4128 -0.5337
  813MPD2     N11974   0.292   1.025  13.216 -0.5710  0.4309  0.1893
  813MPD2    H511975   0.296   1.124  13.235 -1.2605  0.2575  1.2168
  813MPD2    N111976   0.650   1.142  12.893  0.1218  0.0581  0.4126
  813MPD2    H711977   0.646   1.230  12.942  4.1307  0.4749 -0.0108
  814MPD2     C11978   0.937   2.387  12.376 -0.1464 -0.5991 -0.2890
  814MPD2    C111979   0.947   2.479  12.265 -0.3683  0.2552  0.1903
  814MPD2    C211980   1.014   2.592  12.283  0.8443  0.2457 -0.3990
  814MPD2    C311981   1.088   2.614  12.397  0.9440 -0.7723 -0.2054
  814MPD2    C411982   1.073   2.524  12.504  1.0880 -0.6090 -0.2591
  814MPD2    C511983   1.009   2.406  12.489  0.2247 -0.3301  0.0110
  814MPD2     H11984   1.028   2.666  12.205 -0.8547  0.1790 -0.7536
  814MPD2    H111985   1.134   2.537  12.593 -1.6339  0.4824  1.4449
  814MPD2    H211986   0.883   2.293  12.369 -0.0478 -0.7064  0.3837
  814MPD2    H311987   1.020   2.337  12.572 -0.6221 -0.1810  0.2427
  814MPD2     N11988   1.159   2.731  12.412  0.1938  0.1288  0.2322
  814MPD2    H511989   1.163   2.789  12.329 -0.9127  0.0138  0.0981
  814MPD2    N111990   0.888   2.462  12.143  0.2269  0.0940  0.4900
  814MPD2    H711991   0.908   2.526  12.067 -1.8975  0.5717  0.3359
  815MPD2     C11992   1.151   1.185  11.811 -0.3402  0.1100 -1.2300
  815MPD2    C111993   1.165   1.050  11.848 -0.2677  0.4671 -0.6687
  815MPD2    C211994   1.064   0.993  11.925 -0.4475  0.2903  0.0077
  815MPD2    C311995   0.949   1.058  11.956 -0.0260 -0.4123  0.1757
  815MPD2    C411996   0.938   1.192  11.927 -0.1963  0.1432  0.4890
  815MPD2    C511997   1.040   1.257  11.852  0.5240 -0.0173 -0.4280
  815MPD2     H11998   1.067   0.888  11.949 -0.4639  0.5632  1.2128
  815MPD2    H111999   0.848   1.251  11.945 -1.5775 -1.5246 -0.9471
  815MPD2    H212000   1.220   1.237  11.746 -1.2898  0.5353 -1.9015
  815MPD2    H312001   1.029   1.360  11.820  0.5158  0.3660  0.8190
  815MPD2     N12002   0.839   0.975  12.000 -0.3046 -0.7341 -0.2440
  815MPD2    H512003   0.845   0.878  12.027 -0.5215 -0.7109 -0.1137
  815MPD2    N112004   1.265   0.966  11.784 -0.7310  0.1387  0.5147
  815MPD2    H712005   1.302   1.004  11.697 -2.0302  1.1663  0.4196
  816MPD2     C12006   1.889   4.612  17.655 -0.2742  0.4806  0.4130
  816MPD2    C112007   1.806   4.561  17.551 -0.2533 -0.0252  0.2026
  816MPD2    C212008   1.863   4.495  17.450  0.1878  0.3236 -0.4067
  816MPD2    C312009   2.001   4.480  17.448 -0.4257  0.8561 -0.1191
  816MPD2    C412010   2.084   4.540  17.543  0.0040 -0.0833  0.1515
  816MPD2    C512011   2.024   4.603  17.649  0.0293  0.4564  0.2349
  816MPD2     H12012   1.817   4.457  17.360  1.0007  0.4775 -0.8914
  816MPD2    H112013   2.189   4.515  17.548  0.3722  1.6494  0.9947
  816MPD2    H212014   1.843   4.666   0.033  2.5173  1.0638  1.6103
  816MPD2    H312015   2.082   4.647   0.026  0.3481  0.4062  0.0328
  816MPD2     N12016   2.046   4.408  17.343  0.2093  0.6564  0.1215
  816MPD2    H512017   1.979   4.376  17.274  1.5299 -0.6023 -0.5803
  816MPD2    N112018   1.668   4.583  17.552 -0.3659 -0.7025  0.1461
  816MPD2    H712019   1.640   4.654  17.619 -0.3283  0.2982 -0.9134
  817MPD2     C12020   0.887   1.222  10.120 -0.3110 -0.0076  0.0790
  817MPD2    C112021   0.834   1.160  10.009 -0.4367  0.6076  0.4464
  817MPD2    C212022   0.761   1.242   9.918 -0.3998 -0.0838 -0.0019
  817MPD2    C312023   0.753   1.382   9.934 -0.6277  0.4167 -0.6252
  817MPD2    C412024   0.793   1.436  10.057 -0.0305  0.3742  0.0965
  817MPD2    C512025   0.851   1.352  10.147  0.0223  0.6018 -0.8122
  817MPD2     H12026   0.722   1.206   9.824 -1.7361  2.3826 -0.3913
  817MPD2    H112027   0.765   1.537  10.085 -1.3497 -0.4777  1.8249
  817MPD2    H212028   0.953   1.167  10.187 -1.4089 -0.0485  1.1302
  817MPD2    H312029   0.874   1.395  10.243  0.8501  0.3497 -0.8965
  817MPD2     N12030   0.687   1.463   9.833 -0.3573  0.5679  0.2784
  817MPD2    H512031   0.647   1.403   9.761  0.1083 -2.4620  2.5303
  817MPD2    N112032   0.838   1.021   9.986 -0.1681 -0.4258  0.2094
  817MPD2    H712033   0.773   0.990   9.914  0.9578 -2.1827 -0.0432
  818MPD2     C12034   4.534   1.617   9.803 -0.1353 -0.4508 -0.8925
  818MPD2    C112035   4.416   1.571   9.746 -0.0731  0.0943 -0.4392
  818MPD2    C212036   4.383   1.438   9.762  0.3062 -0.6796 -0.4265
  818MPD2    C312037   4.473   1.344   9.815 -0.0787 -0.2386  0.0270
  818MPD2    C412038   4.593   1.385   9.853  0.1268 -0.6201  0.3798
  818MPD2    C512039   4.617   1.519   9.847 -0.0771 -0.2020  0.4861
  818MPD2     H12040   4.282   1.417   9.727 -0.9111  2.5468  1.1203
  818MPD2    H112041   4.665   1.309   9.883 -0.1397 -1.8476 -2.0742
  818MPD2    H212042   4.556   1.721   9.823  0.0149 -0.7295  0.3980
  818MPD2    H312043   4.715   1.549   9.885  0.1932  0.6999 -0.9416
  818MPD2     N12044   4.449   1.210   9.833 -0.5151  0.6336  0.2614
  818MPD2    H512045   4.512   1.146   9.880 -0.5327 -0.2849 -0.9662
  818MPD2    N112046   4.316   1.657   9.696  0.2430  0.5759  1.0683
  818MPD2    H712047   4.225   1.623   9.669  0.6643 -0.4295  0.9246
  819MPD2     C12048   2.815   2.741  15.576  0.2596  0.7973  0.1705
  819MPD2    C112049   2.839   2.664  15.688 -1.0437  0.7063 -0.5690
  819MPD2    C212050   2.974   2.631  15.713 -0.4763 -0.6576  0.2309
  819MPD2    C312051   3.067   2.644  15.616 -0.2771  0.0916 -0.4255
  819MPD2    C412052   3.041   2.712  15.499  0.1133  0.5053 -0.4548
  819MPD2    C512053   2.917   2.763  15.485 -0.4866  0.0713  0.3799
  819MPD2     H12054   2.996   2.594  15.813 -2.4172 -0.1907  0.8337
  819MPD2    H112055   3.107   2.726  15.415 -0.9484 -1.3372 -1.5830
  819MPD2    H212056   2.719   2.784  15.552  0.0719 -0.2077 -0.8426
  819MPD2    H312057   2.894   2.826  15.400 -1.2307  0.2924  0.7490
  819MPD2     N12058   3.198   2.589  15.641 -0.1010 -0.0824 -0.4170
  819MPD2    H512059   3.216   2.559  15.736  0.2929  0.5371 -0.2951
  819MPD2    N112060   2.734   2.611  15.767 -0.7129  0.6658  0.3636
  819MPD2    H712061   2.644   2.657  15.754 -1.5856 -1.6556 -1.8570
  820MPD2     C12062   1.959   2.731  15.432 -0.3153  0.0802  0.2435
  820MPD2    C112063   2.062   2.806  15.479 -0.5172 -0.0110 -0.0614
  820MPD2    C212064   2.144   2.745  15.568  0.2248  0.4536 -0.1458
  820MPD2    C312065   2.143   2.606  15.595 -0.3452  0.5282 -0.6628
  820MPD2    C412066   2.036   2.531  15.537  0.6141  0.1653 -0.9976
  820MPD2    C512067   1.945   2.598  15.457 -0.3094 -0.1402 -0.3203
  820MPD2     H12068   2.224   2.813  15.597 -0.8007  0.5025  2.5860
  820MPD2    H112069   2.015   2.431  15.573  3.7242 -0.3263 -0.5943
  820MPD2    H212070   1.894   2.776  15.356 -2.8937 -1.2236  1.6728
  820MPD2    H312071   1.857   2.547  15.419  0.7128 -1.0684 -1.4439
  820MPD2     N12072   2.228   2.539  15.684 -0.0970 -0.1003 -0.2549
  820MPD2    H512073   2.221   2.438  15.686 -1.2556 -0.0334 -1.1189
  820MPD2    N112074   2.074   2.939  15.432  0.3056  0.1670  0.6884
  820MPD2    H712075   2.000   2.961  15.366 -0.2728 -1.1229  0.9079
  821MPD2     C12076   2.560   4.406  13.874  0.0029 -0.7651 -0.2433
  821MPD2    C112077   2.686   4.453  13.878  0.2265 -0.0002  0.7898
  821MPD2    C212078   2.750   4.491  13.766 -0.1206  0.0586  0.1511
  821MPD2    C312079   2.679   4.502  13.641 -0.7220  0.1639  0.9487
  821MPD2    C412080   2.549   4.463  13.637 -0.2213 -0.2222 -0.7420
  821MPD2    C512081   2.494   4.410  13.751  0.1386 -0.4243  0.0017
  821MPD2     H12082   2.848   4.536  13.773 -0.1866 -0.0323  1.7330
  821MPD2    H112083   2.501   4.459  13.540 -0.2381  1.3050 -0.7930
  821MPD2    H212084   2.502   4.375  13.961  0.5000  0.0403  0.3734
  821MPD2    H312085   2.391   4.376  13.755  1.4801 -4.0990  3.6591
  821MPD2     N12086   2.756   4.562  13.535  0.1221 -0.0467  0.2191
  821MPD2    H512087   2.855   4.576  13.551 -0.4809  0.8249  3.3417
  821MPD2    N112088   2.757   4.461  14.000  0.1771 -0.2298  0.2608
  821MPD2    H712089   2.835   4.526  14.005  0.1031 -0.1109 -0.1355
  822MPD2     C12090   3.602   4.536  15.794  0.7368  0.9704  0.2511
  822MPD2    C112091   3.647   4.486  15.916  0.3897  0.3402 -0.2829
  822MPD2    C212092   3.617   4.561  16.027 -0.2094  0.1096  0.1128
  822MPD2    C312093   3.560   4.687  16.035  0.3491 -0.1526 -0.4141
  822MPD2    C412094   3.535   0.015  15.913 -0.1816 -0.1508 -0.9405
  822MPD2    C512095   3.556   4.666  15.799 -0.5155 -0.7015  0.2034
  822MPD2     H12096   3.644   4.515  16.122 -0.0338 -0.5969 -0.2744
  822MPD2    H112097   3.487   0.109  15.891 -1.2474 -0.3365  0.6019
  822MPD2    H212098   3.607   4.489  15.696  0.1309 -1.2434  1.2640
  822MPD2    H312099   3.528   4.711  15.704 -2.1265 -1.5650  0.2570
  822MPD2     N12100   3.554   0.027  16.162 -0.1327  0.0300  0.6400
  822MPD2    H512101   3.568   4.697  16.246  0.4821  0.0901  0.5819
  822MPD2    N112102   3.720   4.367  15.939 -0.1886 -0.4655  0.4956
  822MPD2    H712103   3.765   4.354  16.029 -0.5526 -0.5743  0.6657
  823MPD2     C12104   3.947   0.070  16.815 -0.7086  0.3921 -0.4600
  823MPD2    C112105   3.838   4.720  16.780  0.0767  0.6527 -0.6834
  823MPD2    C212106   3.842   4.581  16.797  0.1207  0.2564  0.4461
  823MPD2    C312107   3.934   4.535  16.890  0.0301  0.3221  0.2117
  823MPD2    C412108   4.034   4.617  16.944 -0.0735  0.0445 -0.0975
  823MPD2    C512109   4.041   0.025  16.904  0.1982 -0.1369 -0.1857
  823MPD2     H12110   3.775   4.509  16.752  0.9521  0.2999 -0.8588
  823MPD2    H112111   4.101   4.587  17.023 -0.5888  0.6481  0.5678
  823MPD2    H212112   3.955   0.171  16.775 -0.2695  1.1280  1.5235
  823MPD2    H312113   4.128   0.078  16.942  1.8168 -2.6170 -0.4140
  823MPD2     N12114   3.945   4.401  16.928 -0.0279  0.1347  0.4409
  823MPD2    H512115   4.022   4.384  16.992  1.2385 -0.8144 -1.3198
  823MPD2    N112116   3.747   0.064  16.699 -0.2590  0.1251 -0.3761
  823MPD2    H712117   3.769   0.160  16.676 -0.5273  0.6155  1.4563
  824MPD2     C12118   3.891   3.536  15.721  0.7797 -0.1222  0.4370
  824MPD2    C112119   3.995   3.613  15.757 -0.6430 -0.5336  0.2178
  824MPD2    C212120   4.120   3.564  15.737  0.8456 -0.0446 -0.5564
  824MPD2    C312121   4.144   3.429  15.688  0.1671 -0.0027 -0.0053
  824MPD2    C412122   4.026   3.354  15.666  0.6145 -0.0353 -0.7070
  824MPD2    C512123   3.902   3.407  15.677  0.0104 -0.4577  0.1640
  824MPD2     H12124   4.204   3.626  15.765 -0.4258  2.3026 -1.9292
  824MPD2    H112125   4.042   3.255  15.625  1.7631 -1.0165  2.1337
  824MPD2    H212126   3.788   3.565  15.733  0.5024 -0.9878  0.1219
  824MPD2    H312127   3.817   3.351  15.641 -2.0500  2.6076  0.2908
  824MPD2     N12128   4.274   3.374  15.683 -0.3776  0.6651 -0.4307
  824MPD2    H512129   4.354   3.432  15.705  1.9788 -1.9331 -2.1965
  824MPD2    N112130   3.984   3.740  15.820  0.0444  0.6013  1.2609
  824MPD2    H712131   4.070   3.791  15.838  0.5461 -0.7609  2.7626
  825MPD2     C12132   0.300   3.356  15.312 -0.0459  0.2044 -0.1783
  825MPD2    C112133   0.202   3.434  15.369 -0.5919 -0.5725  0.1673
  825MPD2    C212134   0.157   3.549  15.304 -0.3365 -0.4526 -0.1789
  825MPD2    C312135   0.221   3.599  15.187  0.0245  0.0398 -0.1829
  825MPD2    C412136   0.322   3.518  15.132 -0.1730 -0.2317  0.0692
  825MPD2    C512137   0.356   3.397  15.195  0.0295  0.7868  0.4510
  825MPD2     H12138   0.069   3.599  15.343  0.2331  0.2790  0.1570
  825MPD2    H112139   0.360   3.539  15.032 -0.2924  0.7012  0.2157
  825MPD2    H212140   0.330   3.265  15.364  1.4408  1.0143  0.3729
  825MPD2    H312141   0.429   3.330  15.151  1.8476  0.5625  3.8853
  825MPD2     N12142   0.195   3.728  15.122  0.4557  0.0964 -0.4515
  825MPD2    H512143   0.258   3.746  15.044  0.2818  1.4296 -0.2804
  825MPD2    N112144   0.126   3.373  15.473  0.0984  0.0381 -0.3878
  825MPD2    H712145   0.147   3.275  15.491 -0.6640  0.1390  1.0325
  826MPD2     C12146   3.982   3.466  13.592  0.1185 -0.1815  0.5310
  826MPD2    C112147   3.914   3.479  13.475 -0.5618  0.0918  0.3568
  826MPD2    C212148   3.826   3.587  13.458 -0.4419  0.0484  0.5686
  826MPD2    C312149   3.796   3.672  13.560  0.4001 -0.5065  0.5426
  826MPD2    C412150   3.878   3.667  13.671  0.4495 -0.3278  0.1460
  826MPD2    C512151   3.965   3.561  13.687  1.2846 -0.0093 -0.4328
  826MPD2     H12152   3.772   3.598  13.364 -2.0334 -0.6725  1.3942
  826MPD2    H112153   3.870   3.744  13.747  0.2602  1.4254 -1.6290
  826MPD2    H212154   4.051   3.385  13.607 -0.6502 -0.2847  3.3975
  826MPD2    H312155   4.014   3.558  13.784 -1.4118  0.7763  0.9636
  826MPD2     N12156   3.712   3.779  13.546  0.1113  0.4622 -0.3766
  826MPD2    H512157   3.708   3.825  13.636  2.2642  0.4091 -0.2539
  826MPD2    N112158   3.943   3.381  13.371 -0.5123 -0.3007  0.2218
  826MPD2    H712159   4.024   3.323  13.390 -1.0490 -1.0428  0.2610
  827MPD2     C12160   0.142   4.411  10.446  0.4411 -0.1340 -0.1705
  827MPD2    C112161   0.044   4.435  10.536 -0.0277  1.1982  1.1634
  827MPD2    C212162   4.655   4.361  10.521  0.5434  0.3734  0.5899
  827MPD2    C312163   4.634   4.262  10.426  0.9217 -0.6553  0.3749
  827MPD2    C412164   0.022   4.230  10.351  0.0662  0.0035 -0.2780
  827MPD2    C512165   0.125   4.314  10.353 -0.6708 -0.8164 -0.1162
  827MPD2     H12166   4.567   4.386  10.580 -2.5231 -1.2283 -3.2518
  827MPD2    H112167   0.028   4.143  10.286  0.0338  0.3494 -0.7493
  827MPD2    H212168   0.243   4.446  10.459 -0.3262  1.8702  0.3833
  827MPD2    H312169   0.207   4.289  10.287 -1.3289 -0.5221 -1.0259
  827MPD2     N12170   4.509   4.192  10.429  0.4363 -0.2217 -0.6377
  827MPD2    H512171   4.435   4.231  10.487  1.6886 -0.4597  1.1431
  827MPD2    N112172   0.082   4.505  10.653  0.1788  0.1329 -0.0223
  827MPD2    H712173   0.179   4.528  10.670  0.3059  0.2986 -0.9918
  828MPD2     C12174   3.128   4.531  12.666  0.5769 -0.1091  0.3511
  828MPD2    C112175   3.110   4.578  12.539  0.1397 -0.1339 -0.0596
  828MPD2    C212176   3.224   4.583  12.462 -0.8715  0.4902  0.2140
  828MPD2    C312177   3.348   4.551  12.508  0.2256  0.3402 -0.3876
  828MPD2    C412178   3.367   4.513  12.638  0.7165 -0.4735 -0.2139
  828MPD2    C512179   3.256   4.510  12.719 -0.1647  0.5404  0.2607
  828MPD2     H12180   3.211   4.630  12.366 -0.7564 -0.7924 -0.4249
  828MPD2    H112181   3.465   4.505  12.684  1.0575 -0.7083 -0.9796
  828MPD2    H212182   3.047   4.516  12.737  0.2108 -0.0078 -0.0446
  828MPD2    H312183   3.267   4.488  12.825 -0.6577  0.1591  0.2305
  828MPD2     N12184   3.468   4.556  12.431 -0.4140  0.1229 -0.1996
  828MPD2    H512185   3.555   4.539  12.480 -0.6949  2.1602  1.0054
  828MPD2    N112186   2.992   4.613  12.479 -0.7176 -0.0436  0.5902
  828MPD2    H712187   3.001   4.656  12.388  1.5193  0.2680  0.9752
  829MPD2     C12188   2.509   0.216  11.740 -0.6008  0.9027 -0.0616
  829MPD2    C112189   2.432   0.218  11.852  0.1335 -0.1839  0.2696
  829MPD2    C212190   2.497   0.195  11.978 -0.0461 -0.2856  0.5761
  829MPD2    C312191   2.637   0.170  11.977  0.4972 -0.4041  0.0904
  829MPD2    C412192   2.699   0.177  11.852 -0.2585  0.3575 -0.1363
  829MPD2    C512193   2.641   0.192  11.733 -0.3003  0.5337  1.0344
  829MPD2     H12194   2.443   0.193  12.072 -2.5788  0.7257 -0.8723
  829MPD2    H112195   2.808   0.174  11.856 -0.3231 -0.9772  0.6738
  829MPD2    H212196   2.464   0.222  11.642 -1.7708  1.1072  0.4831
  829MPD2    H312197   2.695   0.195  11.639 -2.7115  1.1547 -0.3563
  829MPD2     N12198   2.705   0.133  12.101  0.0885 -1.1897 -0.4726
  829MPD2    H512199   2.804   0.118  12.086  0.5589  1.4038  0.1046
  829MPD2    N112200   2.293   0.240  11.840  0.1049  0.2894 -0.2311
  829MPD2    H712201   2.264   0.270  11.748 -2.0838 -0.2748  0.2747
  830MPD2     C12202   4.089   2.676  15.765  0.0469 -0.4275  0.7095
  830MPD2    C112203   4.008   2.668  15.653 -0.5660 -0.4517 -0.2976
  830MPD2    C212204   4.055   2.740  15.545  0.2658 -0.5441 -0.3564
  830MPD2    C312205   4.179   2.790  15.536 -0.0554 -0.1603 -0.2232
  830MPD2    C412206   4.263   2.787  15.638  0.9338  0.5387  0.1598
  830MPD2    C512207   4.213   2.737  15.756 -0.2103  0.5840  0.9744
  830MPD2     H12208   3.993   2.739  15.456 -1.2106 -1.5316  0.6805
  830MPD2    H112209   4.364   2.826  15.649  0.4049  2.6533 -2.6629
  830MPD2    H212210   4.058   2.630  15.859 -0.7106 -2.6158 -0.6021
  830MPD2    H312211   4.276   2.746  15.844 -0.0693  1.0960  0.8230
  830MPD2     N12212   4.231   2.863  15.426 -0.2547  0.1227  0.3279
  830MPD2    H512213   4.326   2.899  15.430  0.0439 -1.0173  3.5077
  830MPD2    N112214   3.884   2.608  15.677 -0.7340 -0.6893  0.3415
  830MPD2    H712215   3.873   2.556  15.764 -0.3885 -2.2651 -0.5582
  831MPD2     C12216   3.944   0.184  16.270  0.0970 -0.2312 -0.0174
  831MPD2    C112217   3.913   0.089  16.179  0.1045  0.5671 -0.0524
  831MPD2    C212218   3.890   4.684  16.227 -0.4352  0.3883 -0.1286
  831MPD2    C312219   3.906   4.646  16.360  0.2346 -0.6515  0.5106
  831MPD2    C412220   3.947   0.018  16.446  0.1809  0.0846 -0.7872
  831MPD2    C512221   3.966   0.147  16.402  0.2624 -0.1448  0.5553
  831MPD2     H12222   3.860   4.613  16.151 -1.7767 -0.2462  0.9830
  831MPD2    H112223   3.969   4.723  16.550  2.1005  2.0847 -0.8052
  831MPD2    H212224   3.945   0.287  16.239 -1.5564  0.6915  2.9721
  831MPD2    H312225   4.004   0.220  16.473  0.8479 -0.1761  0.2735
  831MPD2     N12226   3.874   4.516  16.411 -0.7814 -0.1158 -0.4348
  831MPD2    H512227   3.896   4.502  16.509 -1.2824 -0.6498 -0.3970
  831MPD2    N112228   3.903   0.122  16.043 -0.1327  0.6045 -0.3488
  831MPD2    H712229   3.898   0.222  16.026 -3.9232  0.3292 -0.7441
  832MPD2     C12230   1.967   0.902   0.001  0.0009 -0.6865 -0.0346
  832MPD2    C112231   1.976   0.993  17.603  0.3749 -0.2402  0.3352
  832MPD2    C212232   1.877   0.997  17.500  0.1854  0.3089 -0.0685
  832MPD2    C312233   1.784   0.888  17.494  0.2950  0.0192 -0.9702
  832MPD2    C412234   1.781   0.803  17.597  0.0345  0.3252  0.4200
  832MPD2    C512235   1.866   0.811   0.000  0.3843 -0.0205 -0.6894
  832MPD2     H12236   1.888   1.065  17.417  1.6836  2.3810  1.8360
  832MPD2    H112237   1.699   0.733  17.602  1.4399 -1.2564  1.2481
  832MPD2    H212238   2.033   0.904   0.086 -1.1049  1.7138  0.7744
  832MPD2    H312239   1.862   0.738   0.080 -1.4066  0.5441 -0.2694
  832MPD2     N12240   1.695   0.853  17.386 -0.0815  0.6340 -0.2649
  832MPD2    H512241   1.647   0.764  17.396 -0.9555  1.2840  1.1344
  832MPD2    N112242   2.092   1.076  17.609  0.6721  0.2191  0.1127
  832MPD2    H712243   2.157   1.066  17.687 -1.5331 -2.2809  1.6642
  833MPD2     C12244   4.010   1.834  12.490 -0.5697  0.5522  0.3488
  833MPD2    C112245   4.024   1.945  12.414  0.1481  0.3863  0.1126
  833MPD2    C212246   4.005   1.927  12.281  0.4068  0.5355  0.3362
  833MPD2    C312247   3.962   1.815  12.211  0.1116  0.5312  0.0380
  833MPD2    C412248   3.943   1.705  12.288 -0.0150  0.2567  0.3117
  833MPD2    C512249   3.966   1.718  12.425 -0.0206 -0.0087 -0.2464
  833MPD2     H12250   4.028   2.017  12.226 -0.2034  1.3220  1.3706
  833MPD2    H112251   3.924   1.605  12.250 -0.4112 -0.9239  3.6158
  833MPD2    H212252   4.042   1.825  12.594 -2.5302 -2.6182  0.6735
  833MPD2    H312253   3.984   1.633  12.490  1.1576  0.8752  0.5839
  833MPD2     N12254   3.936   1.806  12.077 -0.4623  0.6306  0.6720
  833MPD2    H512255   3.900   1.721  12.035 -0.3457 -0.4522  2.7642
  833MPD2    N112256   4.076   2.062  12.475  0.2067  0.2495  0.5546
  833MPD2    H712257   4.078   2.059  12.576 -1.5024 -1.7912  0.5135
  834MPD2     C12258   3.441   1.673  11.185  0.3423 -0.1340  0.1001
  834MPD2    C112259   3.567   1.702  11.144  0.0824 -0.0114 -0.1690
  834MPD2    C212260   3.648   1.769  11.235  0.3308 -0.2017 -0.3805
  834MPD2    C312261   3.617   1.781  11.375 -0.7311  0.1317 -0.1315
  834MPD2    C412262   3.491   1.746  11.407 -0.7231 -0.4463  0.2268
  834MPD2    C512263   3.405   1.701  11.312 -0.2565 -0.8849  0.4900
  834MPD2     H12264   3.740   1.818  11.205 -0.9165  0.4131 -3.2706
  834MPD2    H112265   3.445   1.754  11.505  1.7473 -5.8843  1.8514
  834MPD2    H212266   3.361   1.641  11.120 -0.3051 -1.0472  1.3549
  834MPD2    H312267   3.300   1.691  11.334 -0.7976  0.1655 -1.6280
  834MPD2     N12268   3.703   1.835  11.474 -0.0769 -0.4565  0.0294
  834MPD2    H512269   3.797   1.845  11.436 -0.5798 -0.0935 -1.0941
  834MPD2    N112270   3.604   1.675  11.012 -0.2414  0.6660  0.3465
  834MPD2    H712271   3.538   1.620  10.957  0.9730 -1.8300  1.3434
  835MPD2     C12272   4.019   4.666  11.226 -0.2222  0.1811  0.7033
  835MPD2    C112273   3.997   0.071  11.262 -0.3139  0.1850 -0.1179
  835MPD2    C212274   4.071   0.132  11.366 -0.7752 -0.1815  0.0770
  835MPD2    C312275   4.157   0.052  11.442  0.1230  0.9802 -0.4115
  835MPD2    C412276   4.176   4.648  11.397  0.6578 -0.6737  0.4445
  835MPD2    C512277   4.117   4.593  11.290 -0.5870  0.0615  0.0500
  835MPD2     H12278   4.046   0.232  11.400  0.5237 -1.1823  3.9959
  835MPD2    H112279   4.232   4.577  11.456  0.9047  1.0421  2.2632
  835MPD2    H212280   3.962   4.612  11.151 -0.4822 -0.6236  1.4838
  835MPD2    H312281   4.128   4.490  11.258  1.6704  0.2288  0.2861
  835MPD2     N12282   4.207   0.087  11.570 -0.7771 -0.0232  0.4897
  835MPD2    H512283   4.271   0.021  11.613 -0.0687  0.6876  0.5428
  835MPD2    N112284   3.900   0.146  11.193 -0.6671 -0.3370  0.0449
  835MPD2    H712285   3.892   0.236  11.239  1.7371  0.7586 -1.7258
  836MPD2     C12286   3.906   0.516  12.253 -0.5170 -0.1697  0.8208
  836MPD2    C112287   3.885   0.386  12.205  0.2926  0.0166  0.3307
  836MPD2    C212288   3.766   0.318  12.239  0.3853 -1.1354 -0.2776
  836MPD2    C312289   3.674   0.394  12.314 -0.0625  0.0257  0.3894
  836MPD2    C412290   3.700   0.519  12.370  0.8864  0.4427 -0.0469
  836MPD2    C512291   3.816   0.580  12.341  0.0608  0.3478  0.1376
  836MPD2     H12292   3.749   0.214  12.213  3.8315 -2.2444  1.9642
  836MPD2    H112293   3.625   0.569  12.430 -0.6734 -2.2368  0.2211
  836MPD2    H212294   3.999   0.571  12.237 -2.6409  3.1205 -0.2957
  836MPD2    H312295   3.847   0.673  12.387  2.4666 -0.3890 -0.0089
  836MPD2     N12296   3.545   0.346  12.334 -0.0470 -0.0674  0.5375
  836MPD2    H512297   3.485   0.409  12.386 -1.6510 -0.9344 -0.2631
  836MPD2    N112298   3.976   0.323  12.116 -0.3844  0.7099 -0.1914
  836MPD2    H712299   3.959   0.227  12.087  2.4960  0.1550 -0.1214
  837MPD2     C12300   2.285   4.173  10.142  0.4926 -0.0442  0.4439
  837MPD2    C112301   2.147   4.172  10.131  0.3665 -0.2855 -0.1327
  837MPD2    C212302   2.084   4.287  10.184 -0.6024  0.3743  0.6136
  837MPD2    C312303   2.151   4.392  10.232  0.2280 -0.0353 -1.2641
  837MPD2    C412304   2.289   4.394  10.247 -0.0818  0.7050 -0.2145
  837MPD2    C512305   2.350   4.281  10.203 -0.2769  0.0681 -0.1711
  837MPD2     H12306   1.978   4.298  10.163 -0.8313 -1.6286  0.7496
  837MPD2    H112307   2.336   4.470  10.308 -1.6761  1.2235  0.3896
  837MPD2    H212308   2.341   4.087  10.105 -0.4413 -0.9375  1.0990
  837MPD2    H312309   2.457   4.272  10.216  0.0858  3.0679 -1.0389
  837MPD2     N12310   2.071   4.505  10.251 -0.0146  0.2006  0.1003
  837MPD2    H512311   1.970   4.501  10.255  0.0467  0.0911  1.5416
  837MPD2    N112312   2.077   4.086  10.049 -0.1458  0.1572  0.1512
  837MPD2    H712313   1.977   4.100  10.043 -0.2239  0.0024  1.0046
  838MPD2     C12314   0.773   3.496  11.974  0.6678  0.4411 -0.5062
  838MPD2    C112315   0.810   3.372  11.998  0.7575 -0.2333 -0.3411
  838MPD2    C212316   0.745   3.292  12.090 -0.1389 -0.8602  0.3178
  838MPD2    C312317   0.626   3.334  12.152  0.2187 -0.2946 -0.1006
  838MPD2    C412318   0.580   3.460  12.122 -0.5807 -0.6806  0.4327
  838MPD2    C512319   0.659   3.536  12.039  0.2668  0.1731 -0.0659
  838MPD2     H12320   0.785   3.192  12.101  0.7295 -0.3845  1.5266
  838MPD2    H112321   0.486   3.510  12.145  0.3990 -0.1651  3.2248
  838MPD2    H212322   0.821   3.566  11.906  0.0788  0.8938 -0.4613
  838MPD2    H312323   0.630   3.641  12.032  0.5084  0.1547 -1.2744
  838MPD2     N12324   0.555   3.235  12.221 -0.4117  0.3393 -0.3715
  838MPD2    H512325   0.605   3.148  12.234  0.2220  0.7671  0.0720
  838MPD2    N112326   0.925   3.318  11.941  0.5261  0.5672 -0.1140
  838MPD2    H712327   0.947   3.222  11.965 -1.4269 -0.2722 -1.7297
  839MPD2     C12328   0.598   2.606  11.840  0.6352  0.2512  0.4322
  839MPD2    C112329   0.624   2.630  11.707  0.9135 -0.7224 -0.3314
  839MPD2    C212330   0.729   2.722  11.670 -0.7426 -0.0668  0.1320
  839MPD2    C312331   0.773   2.799  11.775  0.3546  0.5710  0.3760
  839MPD2    C412332   0.738   2.779  11.902  0.4547  0.2544 -0.0330
  839MPD2    C512333   0.653   2.682  11.942  0.9450 -0.0318  0.2470
  839MPD2     H12334   0.764   2.749  11.571 -0.1220  0.8357  0.5934
  839MPD2    H112335   0.772   2.845  11.981  0.2013  1.8718 -1.2750
  839MPD2    H212336   0.521   2.540  11.879  1.9285 -1.3092  0.3373
  839MPD2    H312337   0.613   2.671  12.042 -1.5651 -0.9361 -0.8558
  839MPD2     N12338   0.875   2.900  11.759  0.2441 -0.5019 -0.0141
  839MPD2    H512339   0.889   2.966  11.836 -2.2930  1.8502 -1.5604
  839MPD2    N112340   0.558   2.555  11.609  0.7760  0.1372  0.5748
  839MPD2    H712341   0.575   2.577  11.511 -0.2083  0.7103  0.5273
  840MPD2     C12342   0.539   0.128  10.583  0.9109  0.2582 -0.0183
  840MPD2    C112343   0.484   0.184  10.695  0.5445  0.2602 -0.4135
  840MPD2    C212344   0.540   0.301  10.745  0.2337 -0.1754  0.0322
  840MPD2    C312345   0.656   0.351  10.689 -0.3420  0.6691 -0.4878
  840MPD2    C412346   0.719   0.284  10.591 -0.0822 -0.7483 -0.0261
  840MPD2    C512347   0.661   0.175  10.537  0.9295 -0.0575 -0.4168
  840MPD2     H12348   0.505   0.348  10.836  0.2016  0.1223 -0.1331
  840MPD2    H112349   0.810   0.321  10.545 -1.9152  1.5806 -1.7606
  840MPD2    H212350   0.492   0.046  10.530  0.2543  0.9918 -0.5583
  840MPD2    H312351   0.702   0.129  10.447 -2.4138 -3.1976 -0.3596
  840MPD2     N12352   0.722   0.469  10.727 -0.2658  0.7408 -0.2737
  840MPD2    H512353   0.808   0.493  10.679  1.2895 -1.0942  1.5988
  840MPD2    N112354   0.369   0.118  10.756  0.0315 -0.7263 -0.2206
  840MPD2    H712355   0.337   0.031  10.714  1.6553 -2.7728  2.7488
  841MPD2     C12356   0.519   0.870  14.832  0.6659  0.1297 -0.2641
  841MPD2    C112357   0.522   0.795  14.720  0.0376  0.0332 -0.2350
  841MPD2    C212358   0.644   0.784  14.654 -0.0533 -0.2713  0.3747
  841MPD2    C312359   0.758   0.857  14.695 -0.3209  0.3881 -0.1695
  841MPD2    C412360   0.752   0.918  14.818  0.2723  0.3864 -0.0159
  841MPD2    C512361   0.637   0.918  14.884 -0.0192 -0.1838  0.3127
  841MPD2     H12362   0.651   0.721  14.565  2.0545  1.5523 -0.7480
  841MPD2    H112363   0.834   0.966  14.868  0.6205 -0.3902  0.1569
  841MPD2    H212364   0.429   0.900  14.885  2.1487  2.1901  1.0973
  841MPD2    H312365   0.644   0.972  14.978 -1.3193  0.7741 -0.1349
  841MPD2     N12366   0.885   0.858  14.622  0.2452  0.9983  0.1614
  841MPD2    H512367   0.877   0.820  14.528 -0.4115  2.0423 -0.2114
  841MPD2    N112368   0.425   0.697  14.697 -0.2834  0.2060  0.0785
  841MPD2    H712369   0.455   0.625  14.634 -0.9864  0.4571 -0.5425
  842MPD2     C12370   1.191   1.463  17.047  0.0670 -0.5342 -0.1773
  842MPD2    C112371   1.096   1.377  17.086  0.3750  0.1300  0.7166
  842MPD2    C212372   1.059   1.369  17.220 -0.2364  0.2372 -0.9381
  842MPD2    C312373   1.106   1.459  17.313 -0.1127  0.6557 -0.5150
  842MPD2    C412374   1.202   1.550  17.266 -0.7230 -0.1366 -0.2066
  842MPD2    C512375   1.249   1.553  17.135 -0.8228  0.6753 -0.0990
  842MPD2     H12376   0.967   1.322  17.251  0.5999 -1.6984 -1.3814
  842MPD2    H112377   1.227   1.628  17.337  0.4774 -0.0712 -0.6991
  842MPD2    H212378   1.228   1.464  16.945  1.3761  1.9501  0.3278
  842MPD2    H312379   1.327   1.622  17.105  1.0316 -1.9272 -1.2655
  842MPD2     N12380   1.046   1.479  17.441 -0.6859 -0.0646  0.0912
  842MPD2    H512381   1.062   1.571  17.481  1.1063 -1.4771  2.6164
  842MPD2    N112382   1.021   1.320  16.977 -0.5030  0.2365 -0.2053
  842MPD2    H712383   1.054   1.341  16.883  2.5819  0.6123  0.9699
  843MPD2     C12384   3.176   0.918   0.619 -0.2742  0.2052 -0.1859
  843MPD2    C112385   3.310   0.919   0.587 -0.4617 -0.3500  0.8608
  843MPD2    C212386   3.373   1.046   0.571 -0.2341  0.3657  0.4880
  843MPD2    C312387   3.293   1.155   0.597 -0.3628  0.1379  0.7509
  843MPD2    C412388   3.158   1.148   0.617  0.1900 -0.4287  0.0016
  843MPD2    C512389   3.098   1.028   0.634  0.0666 -0.0301  0.0411
  843MPD2     H12390   3.479   1.062   0.560  0.1040 -1.2597  1.4578
  843MPD2    H112391   3.105   1.240   0.641  0.2733 -0.2931 -0.3349
  843MPD2    H212392   3.128   0.822   0.636  0.2278 -0.0571 -0.2392
  843MPD2    H312393   2.994   1.001   0.652  0.3781  0.1059  2.0767
  843MPD2     N12394   3.350   1.286   0.597  0.7627 -0.2692  0.2313
  843MPD2    H512395   3.292   1.363   0.627 -1.4027 -0.4780 -3.3605
  843MPD2    N112396   3.381   0.799   0.584 -0.1862  0.6607 -0.3239
  843MPD2    H712397   3.337   0.710   0.606  1.1065  0.1799  0.3484
  844MPD2     C12398   1.615   0.304  16.919  0.2105  0.2336 -0.7907
  844MPD2    C112399   1.676   0.390  16.823 -0.1028 -0.6073  0.1651
  844MPD2    C212400   1.742   0.501  16.877 -0.0232  0.1167  0.0213
  844MPD2    C312401   1.769   0.517  17.013 -0.1969  0.3206  0.2382
  844MPD2    C412402   1.719   0.427  17.104  0.4769  0.8686  0.7897
  844MPD2    C512403   1.639   0.329  17.053  0.0098 -0.3270  0.1090
  844MPD2     H12404   1.804   0.563  16.813  1.3122  1.5998  2.7564
  844MPD2    H112405   1.744   0.437  17.209 -1.7897  1.2365  1.3067
  844MPD2    H212406   1.550   0.219  16.904  0.8863 -0.6500  1.3287
  844MPD2    H312407   1.591   0.257  17.119  1.3352  1.6353  3.1624
  844MPD2     N12408   1.847   0.628  17.042  0.0390 -0.3428  0.4379
  844MPD2    H512409   1.888   0.682  16.966  1.6139  0.4174  1.8262
  844MPD2    N112410   1.682   0.358  16.680  0.0640 -0.2635  0.4030
  844MPD2    H712411   1.714   0.435  16.623 -1.7388  0.8035  0.8300
  845MPD2     C12412   1.851   1.598  17.092  0.5290  0.0686 -0.1965
  845MPD2    C112413   1.869   1.547  17.220 -0.1388 -0.6036 -0.2463
  845MPD2    C212414   1.922   1.419  17.247 -0.4072 -0.2181  0.0824
  845MPD2    C312415   1.948   1.343  17.138  0.0843  0.1137 -0.6471
  845MPD2    C412416   1.925   1.392  17.007  0.2197  0.1357  0.5206
  845MPD2    C512417   1.866   1.513  16.986 -0.1098 -0.3725 -0.1758
  845MPD2     H12418   1.933   1.377  17.346  0.4458 -2.3996 -0.9413
  845MPD2    H112419   1.961   1.331  16.925  0.3057  1.3151 -0.3251
  845MPD2    H212420   1.814   1.697  17.065  2.0099  0.8086  0.4797
  845MPD2    H312421   1.843   1.541  16.884  0.1906 -1.6990 -0.6044
  845MPD2     N12422   2.002   1.213  17.150 -0.2277  0.2296  0.7013
  845MPD2    H512423   2.030   1.191  17.245  3.4926 -0.6188 -0.6270
  845MPD2    N112424   1.824   1.637  17.328 -0.0304  0.2410 -1.0897
  845MPD2    H712425   1.776   1.721  17.298 -1.6219 -0.0361  0.7095
  846MPD2     C12426   3.422   2.083  13.941 -0.4204  0.0464  0.4377
  846MPD2    C112427   3.300   2.150  13.958 -0.4663  0.1063 -0.0306
  846MPD2    C212428   3.248   2.179  14.082 -0.3749 -0.4392  0.0893
  846MPD2    C312429   3.311   2.124  14.187 -0.0344  0.2092 -0.3624
  846MPD2    C412430   3.430   2.053  14.174  0.3904  0.4315  0.8168
  846MPD2    C512431   3.486   2.033  14.050  0.3940 -0.5785  0.5802
  846MPD2     H12432   3.157   2.237  14.088 -1.1099 -1.3203 -2.3136
  846MPD2    H112433   3.483   2.000  14.252  0.3575  0.4166  0.8293
  846MPD2    H212434   3.467   2.072  13.843  0.8181 -0.0722  1.0213
  846MPD2    H312435   3.582   1.986  14.035 -0.5377 -1.9767 -0.9538
  846MPD2     N12436   3.255   2.140  14.317 -0.4674 -0.2033 -0.0405
  846MPD2    H512437   3.158   2.171  14.323  0.8189  4.2190 -1.7809
  846MPD2    N112438   3.241   2.205  13.840  0.1063  0.2272  0.0412
  846MPD2    H712439   3.180   2.285  13.846  1.5274  1.2436  0.9013
  847MPD2     C12440   3.929   3.347  13.924  0.2960 -0.0612  0.0966
  847MPD2    C112441   4.027   3.419  13.988 -0.3462  1.2307 -0.2375
  847MPD2    C212442   4.147   3.363  14.013 -0.2653  0.0956  0.0566
  847MPD2    C312443   4.177   3.228  13.983  0.1139  0.6104  1.3764
  847MPD2    C412444   4.090   3.158  13.903 -0.5672 -1.3176  0.0938
  847MPD2    C512445   3.965   3.226  13.867 -0.5808 -0.0572  0.2245
  847MPD2     H12446   4.220   3.414  14.075 -1.5216  1.3998  0.4662
  847MPD2    H112447   4.104   3.060  13.858  0.4309 -0.8731 -0.5820
  847MPD2    H212448   3.836   3.387  13.885  0.0101  1.3795  2.2774
  847MPD2    H312449   3.892   3.177  13.803 -1.3728  0.0467  1.0474
  847MPD2     N12450   4.300   3.177  14.031 -0.6889 -0.1136  0.2195
  847MPD2    H512451   4.352   3.242  14.090  1.7080 -1.4146 -0.4599
  847MPD2    N112452   4.002   3.551  14.039  0.6835  0.5715 -0.2330
  847MPD2    H712453   4.071   3.590  14.102  1.4910 -0.6656 -0.3607
  848MPD2     C12454   1.628   0.981  16.531  0.3507  0.4326  0.1435
  848MPD2    C112455   1.606   1.060  16.642  0.1248  0.1885  0.6931
  848MPD2    C212456   1.609   1.192  16.633 -0.3060  0.3951 -0.6401
  848MPD2    C312457   1.644   1.255  16.511 -0.2400 -0.0171 -0.4551
  848MPD2    C412458   1.665   1.178  16.399  0.1397  0.5508  0.6821
  848MPD2    C512459   1.662   1.045  16.413 -0.3992 -0.3551 -0.0465
  848MPD2     H12460   1.579   1.249  16.720  0.2607 -0.8985  0.3919
  848MPD2    H112461   1.676   1.228  16.304 -2.3508 -2.1130 -0.9843
  848MPD2    H212462   1.636   0.873  16.526  3.1235  0.7022 -1.3661
  848MPD2    H312463   1.689   0.984  16.327 -1.1702 -0.9678  0.1489
  848MPD2     N12464   1.653   1.394  16.501 -0.0130 -0.0709  0.7097
  848MPD2    H512465   1.668   1.438  16.410  0.5605 -2.2962 -0.2539
  848MPD2    N112466   1.594   1.012  16.772  0.1999 -0.3979 -0.1004
  848MPD2    H712467   1.575   1.083  16.843  0.7368 -1.0214  0.6596
  849MPD2     C12468   0.561   1.211  14.543  0.0139  0.1176 -0.0771
  849MPD2    C112469   0.638   1.286  14.456 -0.2283  0.6111  0.3044
  849MPD2    C212470   0.763   1.339  14.491  0.0867  0.4057  0.4000
  849MPD2    C312471   0.815   1.312  14.614  0.1353 -0.2150 -0.5301
  849MPD2    C412472   0.743   1.231  14.704 -0.1884 -0.0872 -0.3477
  849MPD2    C512473   0.616   1.181  14.663  0.0816 -0.1744  1.1143
  849MPD2     H12474   0.813   1.388  14.408 -1.8125 -0.0128 -0.9850
  849MPD2    H112475   0.785   1.206  14.801 -0.5460  0.6807  0.0039
  849MPD2    H212476   0.465   1.170  14.515 -0.0790  1.2070 -1.3595
  849MPD2    H312477   0.561   1.112  14.727 -1.1482  0.0416  0.2966
  849MPD2     N12478   0.946   1.350  14.656  0.1040  0.4242  0.4671
  849MPD2    H512479   0.978   1.301  14.739 -4.0558 -0.9958  1.2560
  849MPD2    N112480   0.595   1.309  14.322  0.0855  0.5010 -0.3030
  849MPD2    H712481   0.648   1.378  14.269 -1.0940  0.0326 -2.0844
  850MPD2     C12482   3.527   3.870  14.727 -0.1358  0.8479 -0.0526
  850MPD2    C112483   3.527   3.861  14.865 -0.8012  0.4001  0.2742
  850MPD2    C212484   3.640   3.891  14.940 -0.3534  0.2227  0.8639
  850MPD2    C312485   3.755   3.928  14.867  0.6322  0.1901 -0.0088
  850MPD2    C412486   3.756   3.922  14.735  0.3118  0.5089  0.4774
  850MPD2    C512487   3.645   3.899  14.662  0.1936 -0.8261 -0.2087
  850MPD2     H12488   3.647   3.901  15.048  1.7834  0.2917  0.7230
  850MPD2    H112489   3.844   3.943  14.676 -0.3655  2.8198  0.2631
  850MPD2    H212490   3.434   3.858  14.673  0.7340 -6.3169 -0.0181
  850MPD2    H312491   3.631   3.907  14.555  0.4547  1.1809 -0.0916
  850MPD2     N12492   3.876   3.973  14.926  0.2139 -0.6061  0.0757
  850MPD2    H512493   3.959   3.987  14.870  0.4502  0.3801  0.6673
  850MPD2    N112494   3.403   3.817  14.927  0.0820 -0.1383  0.9826
  850MPD2    H712495   3.329   3.818  14.857  0.9866 -0.0816  0.0216
  851MPD2     C12496   4.100   3.748  15.396  0.4796  0.9631  0.4735
  851MPD2    C112497   4.008   3.669  15.323  0.2214 -0.8383 -0.4698
  851MPD2    C212498   4.047   3.550  15.271  0.0945  1.2209 -0.4651
  851MPD2    C312499   4.172   3.504  15.301  0.0158 -0.1493 -0.0766
  851MPD2    C412500   4.264   3.582  15.368  0.5015 -0.1748  0.0501
  851MPD2    C512501   4.226   3.704  15.421  0.5699  0.4430  0.1800
  851MPD2     H12502   3.982   3.487  15.212 -0.0657  0.2351  0.7620
  851MPD2    H112503   4.367   3.550  15.380  0.3720 -1.0480 -1.1912
  851MPD2    H212504   4.068   3.846  15.429 -0.5392  1.2360 -1.3203
  851MPD2    H312505   4.294   3.776  15.462  1.3056  0.1230 -0.4711
  851MPD2     N12506   4.213   3.379  15.244 -0.9005 -0.1294  0.3461
  851MPD2    H512507   4.150   3.330  15.182 -1.5594 -0.0272  0.9383
  851MPD2    N112508   3.875   3.719  15.315 -0.6410 -0.0907  0.3224
  851MPD2    H712509   3.842   3.777  15.391  0.7539  0.4684  0.5040
  852MPD2     C12510   2.773   1.655   9.998 -0.1584 -0.2331  0.1038
  852MPD2    C112511   2.774   1.722  10.123 -0.2932  0.7015  0.6671
  852MPD2    C212512   2.900   1.771  10.176 -0.1422 -0.2216 -0.5437
  852MPD2    C312513   3.015   1.751  10.106 -0.0152  0.1689 -0.3702
  852MPD2    C412514   3.007   1.681   9.986  0.4950  0.1190  0.2546
  852MPD2    C512515   2.893   1.630   9.935  0.3500 -0.4699 -0.1074
  852MPD2     H12516   2.902   1.822  10.271  1.7758 -0.3153 -0.5411
  852MPD2    H112517   3.097   1.664   9.928  1.1103 -0.0622  1.2714
  852MPD2    H212518   2.679   1.621   9.956 -1.2577  0.4234  1.9807
  852MPD2    H312519   2.906   1.597   9.832  1.3220  1.3007 -0.5439
  852MPD2     N12520   3.133   1.800  10.172 -0.4217 -0.0975  0.3925
  852MPD2    H512521   3.123   1.843  10.264 -1.7261 -3.3457  1.7945
  852MPD2    N112522   2.654   1.756  10.198 -0.6359  0.1491 -0.1789
  852MPD2    H712523   2.656   1.816  10.280 -1.6177 -0.3968  0.2498
  853MPD2     C12524   0.596   1.968  12.246 -1.1954  0.5466 -0.2782
  853MPD2    C112525   0.494   1.885  12.277 -0.0444 -0.1467 -0.0919
  853MPD2    C212526   0.431   1.812  12.179 -0.2325 -0.4011 -0.1931
  853MPD2    C312527   0.487   1.807  12.050  0.5140 -0.5586 -0.1450
  853MPD2    C412528   0.598   1.882  12.027 -0.4294 -0.5457  0.2297
  853MPD2    C512529   0.653   1.963  12.123  0.1489  0.1200  0.0297
  853MPD2     H12530   0.346   1.754  12.211 -0.2785 -0.3240 -0.1750
  853MPD2    H112531   0.633   1.894  11.926 -1.5676  1.2262  0.0549
  853MPD2    H212532   0.656   2.022  12.319 -3.5588  0.4501  1.7455
  853MPD2    H312533   0.747   2.014  12.105 -0.0096  0.4016 -0.0020
  853MPD2     N12534   0.430   1.739  11.933  0.1514 -0.3938 -0.7503
  853MPD2    H512535   0.483   1.746  11.847  0.0739  1.6141 -0.6215
  853MPD2    N112536   0.463   1.883  12.409  0.1256  0.0561 -0.1058
  853MPD2    H712537   0.497   1.959  12.468  2.9646  0.0301 -1.6898
  854MPD2     C12538   1.957   1.913  13.383  0.1643 -0.5607  0.3477
  854MPD2    C112539   2.001   1.891  13.254  0.3152  0.2473 -0.8187
  854MPD2    C212540   2.073   1.781  13.219  0.1707 -0.5889  0.0184
  854MPD2    C312541   2.105   1.685  13.315  0.0603 -0.4264 -0.5257
  854MPD2    C412542   2.058   1.702  13.446 -0.2303  0.0485 -0.0276
  854MPD2    C512543   1.980   1.811  13.475 -0.4628  0.0864 -1.3054
  854MPD2     H12544   2.125   1.770  13.125  2.5267  0.1572  1.2293
  854MPD2    H112545   2.069   1.632  13.529 -2.5887  0.1618  0.3808
  854MPD2    H212546   1.889   1.993  13.410 -1.4483 -1.9506  0.3742
  854MPD2    H312547   1.935   1.823  13.573  0.4019 -0.3662 -0.8522
  854MPD2     N12548   2.199   1.578  13.289  0.7241  0.2978 -0.6220
  854MPD2    H512549   2.232   1.523  13.367  0.1533  1.5352  0.4931
  854MPD2    N112550   1.968   1.995  13.165 -0.3613  0.1972  0.5126
  854MPD2    H712551   1.930   2.078  13.207 -2.0237 -0.4799  0.3441
  855MPD2     C12552   3.092   1.188  13.576  0.5962 -0.2952 -0.1869
  855MPD2    C112553   2.969   1.178  13.637 -0.6651  0.1048  0.3384
  855MPD2    C212554   2.855   1.206  13.565 -0.3094 -0.5147 -0.1195
  855MPD2    C312555   2.864   1.239  13.434  0.6357  0.3269 -0.3552
  855MPD2    C412556   2.990   1.258  13.373 -0.2586  0.5824 -0.2006
  855MPD2    C512557   3.103   1.221  13.442 -0.3169 -0.1776 -0.2346
  855MPD2     H12558   2.759   1.189  13.612 -1.2766  1.4386 -1.4215
  855MPD2    H112559   3.007   1.280  13.268 -0.6538 -1.2896 -0.6570
  855MPD2    H212560   3.185   1.154  13.620 -0.4614 -0.3543  2.0109
  855MPD2    H312561   3.201   1.233  13.398 -1.6330  1.0152 -2.8497
  855MPD2     N12562   2.759   1.276  13.351 -0.0466  0.1519  0.2805
  855MPD2    H512563   2.779   1.299  13.254  2.6759 -1.1902  0.5187
  855MPD2    N112564   2.946   1.145  13.770  0.3498  0.1073  0.0602
  855MPD2    H712565   2.854   1.157  13.811 -0.8511 -3.0870 -1.6728
  856MPD2     C12566   0.027   2.329  14.487  0.2320  0.3861 -0.3429
  856MPD2    C112567   0.089   2.364  14.374 -0.2148  0.1959  0.2321
  856MPD2    C212568   0.016   2.393  14.262 -0.2668 -0.3349  0.9322
  856MPD2    C312569   4.605   2.373  14.260 -0.3289 -0.5335  1.0186
  856MPD2    C412570   4.539   2.331  14.370  0.4371 -0.0265  0.0040
  856MPD2    C512571   4.616   2.300  14.478 -0.9784  0.2072 -0.1548
  856MPD2     H12572   0.068   2.426  14.173  0.0115  0.6394  1.4543
  856MPD2    H112573   4.432   2.314  14.359  0.5466 -0.7625  0.0791
  856MPD2    H212574   0.075   2.317  14.583  0.3189 -1.4742 -0.6185
  856MPD2    H312575   4.563   2.255  14.561 -1.9267 -0.2441 -0.9955
  856MPD2     N12576   4.528   2.373  14.142  0.1136  1.3423  0.0555
  856MPD2    H512577   4.429   2.352  14.155  0.8285  0.0501  3.4243
  856MPD2    N112578   0.237   2.386  14.377  0.7788  0.5968 -0.0060
  856MPD2    H712579   0.264   2.441  14.296  1.8740 -1.1275 -0.7970
  857MPD2     C12580   0.916   4.396  13.115  0.7536 -0.2798 -0.0766
  857MPD2    C112581   1.055   4.405  13.098  0.1110 -0.2706 -0.1975
  857MPD2    C212582   1.115   4.527  13.116  0.1778 -0.2241  0.0136
  857MPD2    C312583   1.038   4.639  13.135  0.3155  0.7947 -0.4194
  857MPD2    C412584   0.902   4.627  13.138 -0.2924 -0.4790  0.2760
  857MPD2    C512585   0.833   4.505  13.128  0.0021 -0.5803  0.5986
  857MPD2     H12586   1.221   4.550  13.113  0.1405  0.1025  1.2356
  857MPD2    H112587   0.837   4.713  13.151 -1.0034 -0.6327 -2.2374
  857MPD2    H212588   0.868   4.302  13.092 -1.8551  0.6974  1.4463
  857MPD2    H312589   0.725   4.496  13.128 -0.1709  1.5883 -0.6649
  857MPD2     N12590   1.102   0.040  13.138 -0.6534 -0.8751 -0.3139
  857MPD2    H512591   1.203   0.034  13.135 -0.5272  2.2296 -1.7136
  857MPD2    N112592   1.124   4.283  13.074  0.0244  0.0523 -0.1127
  857MPD2    H712593   1.068   4.199  13.073 -1.1696  0.8694 -0.7947
  858MPD2     C12594   1.885   3.893  16.681  1.0102  0.8208 -0.3981
  858MPD2    C112595   1.991   3.815  16.728  0.0793  0.4217  0.7419
  858MPD2    C212596   2.032   3.819  16.858  0.3450 -0.2252  0.3533
  858MPD2    C312597   1.959   3.898  16.944  0.7361  0.1524 -0.1937
  858MPD2    C412598   1.868   3.993  16.892  0.5100 -0.2955 -0.3104
  858MPD2    C512599   1.824   3.990  16.753 -0.3295  0.0193  0.1848
  858MPD2     H12600   2.118   3.764  16.894  1.5278 -0.1373 -2.2976
  858MPD2    H112601   1.830   4.060  16.967  0.0640  0.6080 -1.3370
  858MPD2    H212602   1.847   3.894  16.579  1.2446  0.0735 -0.4928
  858MPD2    H312603   1.754   4.064  16.716  2.5077  1.9658 -1.3041
  858MPD2     N12604   1.991   3.909  17.080 -0.0350 -0.2146  0.2531
  858MPD2    H512605   1.932   3.963  17.142 -0.6338 -0.3090 -0.2403
  858MPD2    N112606   2.047   3.720  16.635 -0.5075  0.2776 -0.0910
  858MPD2    H712607   1.982   3.691  16.563 -0.1762  0.8183 -0.6111
  859MPD2     C12608   1.126   0.966  15.655 -0.1846  0.1748 -0.8707
  859MPD2    C112609   1.113   0.965  15.518  0.4346 -0.2178  0.1445
  859MPD2    C212610   1.124   0.848  15.441 -0.7802  0.5764 -0.2703
  859MPD2    C312611   1.176   0.735  15.507 -0.8424  0.0635  0.1911
  859MPD2    C412612   1.188   0.728  15.645  0.6661 -0.4525  0.2062
  859MPD2    C512613   1.158   0.842  15.716  0.2292 -0.0016  0.2500
  859MPD2     H12614   1.110   0.837  15.334 -1.0389  0.3743 -0.2164
  859MPD2    H112615   1.227   0.644  15.701  1.3054 -0.1815  0.1735
  859MPD2    H212616   1.101   1.053  15.715 -0.8351  1.1852 -2.6142
  859MPD2    H312617   1.172   0.838  15.824  2.5533  0.5406 -0.0255
  859MPD2     N12618   1.217   0.614  15.447  0.4609 -0.0844 -0.3734
  859MPD2    H512619   1.243   0.536  15.506  2.2143 -0.5359 -1.7487
  859MPD2    N112620   1.092   1.087  15.456 -0.0970 -1.0782  0.5965
  859MPD2    H712621   1.104   1.171  15.512 -0.6678 -0.7541  0.2326
  860MPD2     C12622   2.882   1.121  11.623 -0.2043  0.2034 -0.7099
  860MPD2    C112623   2.911   1.173  11.748  0.0566 -0.2747  0.1602
  860MPD2    C212624   2.810   1.192  11.841 -0.3110  0.6162 -1.2269
  860MPD2    C312625   2.678   1.173  11.807  0.3586  0.3003 -0.3321
  860MPD2    C412626   2.651   1.130  11.675 -0.5083 -0.0057  0.0895
  860MPD2    C512627   2.752   1.113  11.585  0.3767 -0.2369 -0.0388
  860MPD2     H12628   2.839   1.224  11.941 -0.5427  1.6866 -1.5098
  860MPD2    H112629   2.548   1.120  11.645  0.1763 -1.4988 -1.7421
  860MPD2    H212630   2.962   1.111  11.550 -2.2096 -1.5340 -2.6566
  860MPD2    H312631   2.730   1.078  11.485  1.8417 -0.1447 -0.3952
  860MPD2     N12632   2.578   1.200  11.899  0.4122 -0.4511 -0.5526
  860MPD2    H512633   2.605   1.247  11.984 -0.9487 -2.0073  0.7327
  860MPD2    N112634   3.043   1.213  11.781  0.1098  0.4014 -0.0651
  860MPD2    H712635   3.062   1.258  11.870  0.0349 -2.0613  1.2058
  861MPD2     C12636   1.146   4.140  11.280  0.3493  0.0787 -0.2033
  861MPD2    C112637   1.204   4.266  11.300 -0.1072 -0.0883 -0.6557
  861MPD2    C212638   1.144   4.372  11.235 -0.2925  0.2550  0.5629
  861MPD2    C312639   1.041   4.349  11.138 -0.6281 -0.2107 -0.0218
  861MPD2    C412640   0.986   4.226  11.127 -0.1289 -0.1675 -0.3947
  861MPD2    C512641   1.036   4.122  11.196 -0.0281 -0.4745  0.2693
  861MPD2     H12642   1.187   4.471  11.248 -0.0221 -0.4433  4.9836
  861MPD2    H112643   0.912   4.202  11.051  0.5914 -3.0497 -0.1985
  861MPD2    H212644   1.178   4.052  11.335  1.1642  0.5707  0.1145
  861MPD2    H312645   1.009   4.019  11.174 -0.4900  0.4138 -3.2728
  861MPD2     N12646   0.994   4.446  11.047 -0.2244  0.2168  0.0720
  861MPD2    H512647   0.914   4.417  10.991 -0.4544  1.5370 -0.2778
  861MPD2    N112648   1.312   4.290  11.391  0.7723 -0.0769  0.2826
  861MPD2    H712649   1.335   4.387  11.408  1.4488 -0.1169 -0.3999
  862MPD2     C12650   1.026   4.583  10.347  0.7225 -0.3860  0.6241
  862MPD2    C112651   1.062   4.531  10.468 -0.5110  0.1433 -0.0978
  862MPD2    C212652   1.131   4.405  10.478  0.4574  0.2953  0.1472
  862MPD2    C312653   1.154   4.330  10.362 -0.2085  1.0777  0.3006
  862MPD2    C412654   1.108   4.378  10.249 -0.4372  0.7022  0.5976
  862MPD2    C512655   1.035   4.492  10.243  0.3749 -0.2192  0.1889
  862MPD2     H12656   1.164   4.374  10.576 -0.9963 -1.0479  0.2129
  862MPD2    H112657   1.117   4.321  10.158 -1.8653  2.3358 -0.5831
  862MPD2    H212658   0.982   4.681  10.332 -2.2634 -1.3550  2.9049
  862MPD2    H312659   0.974   4.520  10.158 -0.5156  0.6777  1.1313
  862MPD2     N12660   1.220   4.208  10.356  0.0834 -0.8120 -0.2673
  862MPD2    H512661   1.243   4.182  10.261 -0.7882 -3.0289  0.1274
  862MPD2    N112662   1.038   4.594  10.591  0.7398  0.0132  0.3252
  862MPD2    H712663   1.055   4.537  10.673 -0.6985  0.5148  0.9699
  863MPD2     C12664   0.525   3.095  17.331  0.3066 -0.0081 -0.9951
  863MPD2    C112665   0.486   3.028  17.219  0.5949 -0.3842  0.2071
  863MPD2    C212666   0.558   2.913  17.178  0.0121  0.1238 -0.3256
  863MPD2    C312667   0.673   2.878  17.249 -1.2458 -0.3803 -0.7452
  863MPD2    C412668   0.726   2.962  17.345 -0.2245  0.1063 -0.4483
  863MPD2    C512669   0.646   3.066  17.386  0.9577  0.1273 -0.7257
  863MPD2     H12670   0.517   2.848  17.101 -2.0620 -0.1556  0.9985
  863MPD2    H112671   0.820   2.941  17.395 -0.0840 -0.8631 -1.1116
  863MPD2    H212672   0.474   3.185  17.366  0.5027  0.4432 -1.8704
  863MPD2    H312673   0.681   3.138  17.459  1.2537  0.3636 -1.0982
  863MPD2     N12674   0.747   2.761  17.222 -0.1289 -0.2184 -0.1173
  863MPD2    H512675   0.826   2.732  17.279 -0.7785 -1.6282  0.0663
  863MPD2    N112676   0.371   3.084  17.158 -0.0296 -0.7832 -0.1095
  863MPD2    H712677   0.329   3.162  17.208  0.2850  0.2403 -1.4535
  864MPD2     C12678   1.486   4.098  17.066 -1.3675 -0.7584  0.2745
  864MPD2    C112679   1.470   4.027  16.952  0.1923  0.3247 -0.3373
  864MPD2    C212680   1.485   4.090  16.827 -0.3933 -0.2553 -0.2738
  864MPD2    C312681   1.513   4.226  16.823  0.3339  0.3524  0.3264
  864MPD2    C412682   1.527   4.294  16.938 -0.4499  0.1010  0.7895
  864MPD2    C512683   1.513   4.231  17.056 -0.1089 -0.0389 -0.1497
  864MPD2     H12684   1.476   4.031  16.736  1.4055  1.1562 -1.3754
  864MPD2    H112685   1.560   4.397  16.939 -1.1789  0.3380  0.9877
  864MPD2    H212686   1.477   4.066  17.170  4.2427  0.1819  1.0495
  864MPD2    H312687   1.525   4.292  17.145  2.3780 -0.4289 -0.2123
  864MPD2     N12688   1.532   4.291  16.704 -0.3415 -0.5084 -0.0772
  864MPD2    H512689   1.544   4.392  16.702  0.6428 -0.6437 -0.8337
  864MPD2    N112690   1.441   3.885  16.967 -0.5773  0.0866  0.7245
  864MPD2    H712691   1.452   3.846  17.061  3.1400 -0.5740  0.0306
  865MPD2     C12692   0.990   4.108  16.307 -0.2493  0.6110  0.1249
  865MPD2    C112693   1.073   4.150  16.202 -0.4825 -0.4209  0.3366
  865MPD2    C212694   1.158   4.256  16.223  0.6469  0.5709 -0.4422
  865MPD2    C312695   1.152   4.334  16.339 -0.1893  0.2842 -0.3975
  865MPD2    C412696   1.069   4.288  16.439 -0.3948  0.1843  0.3290
  865MPD2    C512697   0.985   4.180  16.425  0.6528  0.2337  0.7350
  865MPD2     H12698   1.236   4.271  16.148 -0.1552 -1.6664 -1.7300
  865MPD2    H112699   1.075   4.328  16.539 -1.6047  0.2424  0.3879
  865MPD2    H212700   0.911   4.035  16.293 -0.1618  0.4128  0.6780
  865MPD2    H312701   0.914   4.151  16.502 -2.4838  0.5003 -2.0475
  865MPD2     N12702   1.251   4.430  16.377 -0.3572  0.6486  0.1258
  865MPD2    H512703   1.240   4.463  16.472  1.5235 -1.0546  0.9249
  865MPD2    N112704   1.078   4.070  16.095  0.4387 -0.6509  0.1116
  865MPD2    H712705   1.003   4.003  16.081  1.4082 -1.4441 -1.3235
  866MPD2     C12706   2.027   0.031  11.552 -0.0257 -0.1541  0.0645
  866MPD2    C112707   2.013   0.036  11.417 -0.2426 -0.2510  0.1145
  866MPD2    C212708   1.904   0.102  11.363 -0.0622 -0.5186  0.7710
  866MPD2    C312709   1.794   0.136  11.444 -1.1041  0.7747 -0.5453
  866MPD2    C412710   1.803   0.109  11.576 -0.3622  0.0128 -0.0575
  866MPD2    C512711   1.919   0.057  11.629  0.5063 -0.0496  0.1156
  866MPD2     H12712   1.905   0.118  11.256  0.7358 -0.6691  0.7564
  866MPD2    H112713   1.725   0.125  11.650 -1.0435 -1.3381 -0.4902
  866MPD2    H212714   2.110   4.704  11.599  0.3321 -0.4053 -0.8627
  866MPD2    H312715   1.924   0.030  11.734 -2.1534 -0.6918  0.0778
  866MPD2     N12716   1.680   0.198  11.396  0.6297  0.4050  0.5771
  866MPD2    H512717   1.614   0.229  11.467  1.9812  1.5123  1.3479
  866MPD2    N112718   2.114   4.703  11.337  0.2238 -0.8094 -0.2942
  866MPD2    H712719   2.203   4.672  11.373  0.3247 -0.6673 -0.4221
  867MPD2     C12720   0.737   4.320  17.161 -0.0417 -0.2161  0.0312
  867MPD2    C112721   0.634   4.284  17.245  1.0332  0.2356 -1.1765
  867MPD2    C212722   0.590   4.386  17.332  0.2353 -0.0074  0.4255
  867MPD2    C312723   0.660   4.506  17.346  0.3240 -0.4608  0.0196
  867MPD2    C412724   0.762   4.532  17.258 -1.0131 -0.0180 -0.0584
  867MPD2    C512725   0.797   4.440  17.168  0.2928  1.2410 -0.6924
  867MPD2     H12726   0.507   4.374  17.400 -1.1162 -0.0986 -1.2461
  867MPD2    H112727   0.814   4.626  17.247  1.0695 -0.8051  2.9240
  867MPD2    H212728   0.768   4.264  17.073 -1.6384 -2.9589  1.2365
  867MPD2    H312729   0.881   4.463  17.103 -0.1972 -1.4570 -2.2446
  867MPD2     N12730   0.630   4.610  17.434 -0.4498  0.0926  0.0014
  867MPD2    H512731   0.648   4.703  17.397  1.1764 -0.0664  0.3815
  867MPD2    N112732   0.573   4.153  17.223 -0.2446 -0.2018 -0.0424
  867MPD2    H712733   0.619   4.081  17.169 -1.4779  0.0017 -1.3549
  868MPD2     C12734   2.046   3.310  13.245  0.3961 -0.2478 -0.0573
  868MPD2    C112735   2.002   3.194  13.299 -0.6462 -0.4697 -0.6342
  868MPD2    C212736   1.929   3.197  13.415  0.4173  0.5589  0.0274
  868MPD2    C312737   1.896   3.317  13.473  0.5242  0.7110  0.2853
  868MPD2    C412738   1.944   3.435  13.418  0.4490  0.1883  0.2278
  868MPD2    C512739   2.022   3.434  13.311  0.0735  0.3232 -0.7263
  868MPD2     H12740   1.899   3.103  13.461  0.6967  1.2517  1.6094
  868MPD2    H112741   1.906   3.530  13.454  0.3746 -0.0945  0.9069
  868MPD2    H212742   2.103   3.321  13.154  1.5501  1.2408  0.8441
  868MPD2    H312743   2.058   3.527  13.268 -0.8003  0.8978 -0.2384
  868MPD2     N12744   1.829   3.309  13.599  0.1753 -0.4747  0.0223
  868MPD2    H512745   1.803   3.217  13.634  0.3763 -0.8772 -0.8950
  868MPD2    N112746   2.032   3.076  13.223 -0.3889  0.2242  0.2206
  868MPD2    H712747   2.078   3.086  13.133  1.6458 -0.7215  1.1776
  869MPD2     C12748   3.043   4.617   1.890  0.6745 -0.8339 -0.3792
  869MPD2    C112749   2.925   4.583   1.831  0.6393 -0.1513 -0.8337
  869MPD2    C212750   2.883   4.653   1.720 -0.3182  0.3200  0.4183
  869MPD2    C312751   2.965   0.016   1.657 -0.3666  0.4351  0.0069
  869MPD2    C412752   3.094   0.036   1.717 -0.3240  0.1362  0.2174
  869MPD2    C512753   3.124   4.713   1.836 -0.1836 -0.4870 -0.0875
  869MPD2     H12754   2.795   4.613   1.670  1.3863  0.6041 -2.7729
  869MPD2    H112755   3.168   0.102   1.673 -0.3821 -0.7545 -1.2076
  869MPD2    H212756   3.071   4.574   1.985  0.3271  0.9300  0.5230
  869MPD2    H312757   3.215   0.005   1.892 -0.6672 -0.8600  0.8304
  869MPD2     N12758   2.929   0.084   1.539 -0.0757 -0.1641 -0.2059
  869MPD2    H512759   3.005   0.138   1.497 -0.0647 -1.0426 -1.2758
  869MPD2    N112760   2.855   4.478   1.895  0.3587  0.5870  0.1944
  869MPD2    H712761   2.902   4.425   1.968 -0.9681 -0.0314  0.5865
  870MPD2     C12762   1.851   3.834   1.389  0.5864  0.1332  0.3514
  870MPD2    C112763   1.970   3.843   1.313 -0.1049 -0.1415 -0.2844
  870MPD2    C212764   1.977   3.932   1.204  0.0811 -0.4155  0.4899
  870MPD2    C312765   1.862   3.997   1.164 -0.1962  0.7052 -0.0758
  870MPD2    C412766   1.747   3.996   1.242  0.0362  0.1827 -0.1992
  870MPD2    C512767   1.743   3.915   1.349  0.5599  0.9987  0.3925
  870MPD2     H12768   2.060   3.925   1.134  0.7373 -2.6331  1.4653
  870MPD2    H112769   1.663   4.060   1.217  0.1633  0.1870 -0.6160
  870MPD2    H212770   1.848   3.763   1.470  1.1784 -0.6688 -0.3338
  870MPD2    H312771   1.649   3.915   1.404 -0.8647 -2.3084 -2.0918
  870MPD2     N12772   1.864   4.067   1.039  0.0891 -0.0166 -0.2385
  870MPD2    H512773   1.947   4.050   0.982 -0.6961 -3.4956 -0.3853
  870MPD2    N112774   2.066   3.751   1.347  0.1200 -0.0549 -0.1533
  870MPD2    H712775   2.029   3.684   1.414 -0.9219  2.4491  1.7778
  871MPD2     C12776   3.895   3.631  16.689  0.3571 -0.1891  0.1517
  871MPD2    C112777   3.828   3.659  16.803  1.0339 -0.2988 -0.0179
  871MPD2    C212778   3.739   3.567  16.851 -0.1205  0.0632 -0.9701
  871MPD2    C312779   3.718   3.443  16.790 -0.2394  0.2690 -0.2268
  871MPD2    C412780   3.797   3.412  16.683  0.2927  0.2247  0.1750
  871MPD2    C512781   3.874   3.511  16.623  0.2292  0.7076  0.2200
  871MPD2     H12782   3.694   3.578  16.949  0.8547 -1.5723 -0.3415
  871MPD2    H112783   3.799   3.314  16.636 -1.5269  1.3139 -2.1400
  871MPD2    H212784   3.974   3.695  16.651 -1.4901  1.6537 -0.6294
  871MPD2    H312785   3.920   3.486  16.528  1.6062 -0.3153  1.1573
  871MPD2     N12786   3.622   3.352  16.845 -0.2074 -0.0940 -0.0707
  871MPD2    H512787   3.573   3.390  16.926  0.4867 -0.3162  0.4580
  871MPD2    N112788   3.854   3.784  16.867  0.0710 -0.7484 -0.8445
  871MPD2    H712789   3.926   3.846  16.834  1.1929 -1.6864 -0.1535
  872MPD2     C12790   4.566   1.584  14.483  0.1729 -0.5415 -0.3902
  872MPD2    C112791   4.492   1.689  14.433  0.9796 -0.0631 -0.2152
  872MPD2    C212792   4.365   1.715  14.474 -0.1236 -0.0703  0.1136
  872MPD2    C312793   4.313   1.641  14.577  0.1007 -0.4140  0.0361
  872MPD2    C412794   4.391   1.537  14.636  0.0086 -0.4236 -0.3030
  872MPD2    C512795   4.514   1.513  14.586  0.6211  0.2239 -0.8345
  872MPD2     H12796   4.312   1.805  14.445  1.8833  0.5937 -1.4654
  872MPD2    H112797   4.358   1.475  14.719  1.3036 -1.6623 -0.7022
  872MPD2    H212798   4.670   1.570  14.457 -0.0800 -0.9039 -1.1870
  872MPD2    H312799   4.588   1.442  14.621  1.3814  1.0138 -0.8641
  872MPD2     N12800   4.187   1.672  14.637 -0.1903  0.2507 -0.5869
  872MPD2    H512801   4.143   1.611  14.705  0.4387  2.7253  2.0181
  872MPD2    N112802   4.546   1.777  14.327 -0.0180 -0.2886  0.4276
  872MPD2    H712803   4.477   1.844  14.295 -1.5865 -2.2990 -0.3520
  873MPD2     C12804   0.786   1.127   0.659 -0.7143  0.2909  0.9622
  873MPD2    C112805   0.837   1.107   0.784 -0.3418 -0.6244 -0.6332
  873MPD2    C212806   0.822   0.983   0.833 -0.3715  0.0653  0.7668
  873MPD2    C312807   0.769   0.876   0.758 -0.3258  0.0562  0.0693
  873MPD2    C412808   0.735   0.898   0.625  0.3788  0.1275  0.1072
  873MPD2    C512809   0.738   1.025   0.580 -0.4125 -0.4480  0.2971
  873MPD2     H12810   0.850   0.961   0.936 -2.4251 -1.4046  1.0117
  873MPD2    H112811   0.717   0.822   0.550 -2.3993  0.7185  0.1973
  873MPD2    H212812   0.779   1.227   0.620 -1.2465 -0.3674 -0.6180
  873MPD2    H312813   0.703   1.053   0.481 -1.0928 -2.0552  0.0820
  873MPD2     N12814   0.767   0.747   0.813  0.2980  0.1669 -0.7073
  873MPD2    H512815   0.797   0.732   0.909 -1.1461 -1.7720 -0.5609
  873MPD2    N112816   0.896   1.213   0.855  0.4111 -0.1107  0.0403
  873MPD2    H712817   0.889   1.311   0.828  0.1832  0.4595  2.1340
  874MPD2     C12818   0.891   1.736  16.376  0.1531 -0.2874 -0.2756
  874MPD2    C112819   0.948   1.650  16.469  0.3648  0.6136  0.5092
  874MPD2    C212820   1.079   1.651  16.473  0.0589 -1.2639  0.1649
  874MPD2    C312821   1.161   1.726  16.383  0.5664  0.6425 -0.4177
  874MPD2    C412822   1.097   1.819  16.300 -0.1413 -0.1532 -0.5223
  874MPD2    C512823   0.961   1.823  16.300  0.4963 -0.2636  0.3351
  874MPD2     H12824   1.136   1.582  16.533  1.2937 -1.7204 -1.5346
  874MPD2    H112825   1.141   1.888  16.228  0.0748 -0.1374 -0.3758
  874MPD2    H212826   0.783   1.738  16.365 -0.0921  1.2246  2.3762
  874MPD2    H312827   0.907   1.899  16.245  3.0137  0.6909 -0.7836
  874MPD2     N12828   1.298   1.714  16.404 -0.1140  0.1455  1.3064
  874MPD2    H512829   1.336   1.649  16.472  4.1635  1.3176  0.0280
  874MPD2    N112830   0.867   1.562  16.545  0.2309  0.3447  0.7637
  874MPD2    H712831   0.766   1.574  16.538  0.3004 -0.4777 -1.6744
  875MPD2     C12832   2.305   4.606  14.638 -0.0820  0.4317 -0.6100
  875MPD2    C112833   2.253   0.004  14.601 -0.3381 -0.4556  0.3511
  875MPD2    C212834   2.249   0.105  14.697 -1.2181  0.0661  0.3321
  875MPD2    C312835   2.295   0.089  14.832 -0.8303 -0.1089  0.9761
  875MPD2    C412836   2.353   4.696  14.859  0.2157 -0.1127  0.5250
  875MPD2    C512837   2.368   4.600  14.759  0.0492  0.2435  0.3197
  875MPD2     H12838   2.194   0.194  14.669 -1.1407  0.3236  0.9923
  875MPD2    H112839   2.396   4.685  14.957 -0.6371 -2.7357  0.6043
  875MPD2    H212840   2.325   4.523  14.572 -1.0421  0.1104 -0.4857
  875MPD2    H312841   2.395   4.500  14.791 -0.5320 -0.2891 -0.8734
  875MPD2     N12842   2.266   0.174  14.938  0.0469 -0.1541 -0.5088
  875MPD2    H512843   2.288   0.135  15.029  0.5304 -1.7929 -1.3399
  875MPD2    N112844   2.197   0.032  14.475 -0.2886 -0.6408  0.0270
  875MPD2    H712845   2.162   0.126  14.462 -0.1189 -0.4450  1.0222
  876MPD2     C12846   0.957   1.259  16.386 -0.1239 -0.5829  0.5597
  876MPD2    C112847   1.080   1.270  16.328  0.0361 -0.4436  0.2082
  876MPD2    C212848   1.176   1.168  16.342 -0.2401  0.4134  0.0083
  876MPD2    C312849   1.148   1.058  16.410  0.4721 -0.1158 -0.4782
  876MPD2    C412850   1.023   1.038  16.472 -0.4444 -0.9169  0.0154
  876MPD2    C512851   0.933   1.145  16.456 -0.9889 -0.3287 -0.7497
  876MPD2     H12852   1.268   1.172  16.286 -1.2903  2.4002 -1.5755
  876MPD2    H112853   0.999   0.944  16.520  0.2099  0.0053  2.1082
  876MPD2    H212854   0.886   1.341  16.375 -0.0534 -0.5977  0.0160
  876MPD2    H312855   0.833   1.136  16.496 -0.3678 -0.0520  0.8662
  876MPD2     N12856   1.248   0.956  16.406 -0.0456 -0.0068  0.7711
  876MPD2    H512857   1.324   0.977  16.342 -1.8635  0.2445 -1.3253
  876MPD2    N112858   1.111   1.386  16.251 -0.0391  0.2982 -0.0816
  876MPD2    H712859   1.030   1.439  16.222  0.3407  1.0523  0.2345
  877MPD2     C12860   0.956   1.667  15.524  0.5889  0.0394  0.5153
  877MPD2    C112861   1.051   1.747  15.575  0.0475  0.0518 -0.3262
  877MPD2    C212862   1.108   1.838  15.493  0.1181 -0.4910 -0.3741
  877MPD2    C312863   1.072   1.857  15.365 -0.8384  0.0466  0.5713
  877MPD2    C412864   0.972   1.781  15.315 -0.6438  0.5026 -0.2213
  877MPD2    C512865   0.911   1.688  15.399  0.0240  0.4287 -0.0301
  877MPD2     H12866   1.189   1.896  15.535  0.5682 -1.4002  0.0109
  877MPD2    H112867   0.939   1.781  15.212  0.2938  0.5133 -0.5193
  877MPD2    H212868   0.912   1.586  15.582  0.0941 -0.7270 -0.9436
  877MPD2    H312869   0.829   1.627  15.364 -0.0590  0.3018  0.3973
  877MPD2     N12870   1.135   1.940  15.265  0.3053 -0.4904  0.1771
  877MPD2    H512871   1.096   1.930  15.171  1.7527 -1.1080 -0.3568
  877MPD2    N112872   1.098   1.736  15.710 -0.6491 -0.5841  0.6393
  877MPD2    H712873   1.176   1.797  15.734 -1.2850  1.0242 -1.4293
  878MPD2     C12874   0.656   0.951  13.310 -0.0434  0.7384 -0.1902
  878MPD2    C112875   0.754   1.038  13.348  0.1021  0.2486 -0.5217
  878MPD2    C212876   0.751   1.090  13.479  0.2838 -0.3534  0.1153
  878MPD2    C312877   0.652   1.063  13.568 -0.1384  0.5413 -0.1076
  878MPD2    C412878   0.559   0.968  13.531 -0.3888  0.1939  0.0466
  878MPD2    C512879   0.559   0.919  13.403  0.0072  0.0528 -0.1004
  878MPD2     H12880   0.819   1.172  13.497  0.4049 -0.5707  0.6580
  878MPD2    H112881   0.478   0.937  13.595 -0.7812 -2.4612 -1.7439
  878MPD2    H212882   0.647   0.921  13.206  1.3246  0.5632 -0.2641
  878MPD2    H312883   0.477   0.854  13.374  0.5145  0.3605 -2.2432
  878MPD2     N12884   0.645   1.141  13.682 -0.3072  0.0498 -0.0353
  878MPD2    H512885   0.727   1.196  13.700  0.7863 -0.2526 -4.1609
  878MPD2    N112886   0.840   1.075  13.252 -0.0748  0.3204 -0.1278
  878MPD2    H712887   0.818   1.030  13.163 -0.9259  2.2730 -0.9127
  879MPD2     C12888   1.384   2.210  16.755  0.3094  0.6391  0.2251
  879MPD2    C112889   1.313   2.237  16.869  0.0866 -0.5959 -0.4766
  879MPD2    C212890   1.177   2.234  16.873  0.1284  0.0158  0.3054
  879MPD2    C312891   1.101   2.198  16.763  0.5128  0.3738 -0.2362
  879MPD2    C412892   1.170   2.169  16.649 -0.3141 -0.3237 -0.1684
  879MPD2    C512893   1.310   2.174  16.643 -0.0340  0.1894 -0.2834
  879MPD2     H12894   1.123   2.270  16.961  0.2503 -1.7398  1.0993
  879MPD2    H112895   1.119   2.133  16.560 -0.8431 -1.7243  0.7038
  879MPD2    H212896   1.492   2.205  16.757  0.1565 -1.8710  2.8242
  879MPD2    H312897   1.363   2.132  16.559  1.7236  1.5729  0.1395
  879MPD2     N12898   0.965   2.200  16.768  0.5563  0.3180 -0.0615
  879MPD2    H512899   0.917   2.169  16.684  0.9577  0.5486 -0.3766
  879MPD2    N112900   1.391   2.272  16.981  0.2192  0.5483 -0.8275
  879MPD2    H712901   1.491   2.285  16.969  0.2953  1.4590  0.7989
  880MPD2     C12902   2.573   4.019   0.973  0.3346 -0.1175  0.3127
  880MPD2    C112903   2.686   3.969   0.915 -0.4175  0.1937 -0.0831
  880MPD2    C212904   2.730   3.841   0.940  0.0090  0.0536  0.4168
  880MPD2    C312905   2.656   3.761   1.026 -0.1624 -0.0907  0.4666
  880MPD2    C412906   2.555   3.816   1.099 -0.2095 -0.0154 -0.6608
  880MPD2    C512907   2.515   3.943   1.067  0.0255  0.0562  0.1625
  880MPD2     H12908   2.811   3.798   0.883 -0.2784 -2.9349  2.2236
  880MPD2    H112909   2.494   3.761   1.170 -1.6228  2.1705 -0.1751
  880MPD2    H212910   2.542   4.121   0.952  0.7000  0.4095  2.3353
  880MPD2    H312911   2.425   3.984   1.112 -0.4271  0.5781 -1.2215
  880MPD2     N12912   2.691   3.627   1.037 -0.1241 -0.1413  0.7642
  880MPD2    H512913   2.774   3.594   0.988  0.3384  2.3830 -0.1374
  880MPD2    N112914   2.734   4.042   0.804  0.5301 -0.3428  0.3224
  880MPD2    H712915   2.672   4.112   0.763  0.0507 -0.2595  1.1885
  881MPD2     C12916   3.470   4.546   0.366 -0.1660  0.9669 -0.4112
  881MPD2    C112917   3.390   4.499   0.270  0.2625 -0.1312 -0.6300
  881MPD2    C212918   3.269   4.446   0.302  0.2225 -0.2031 -0.6922
  881MPD2    C312919   3.236   4.417   0.434  0.0683 -0.1680 -0.1848
  881MPD2    C412920   3.330   4.440   0.529 -0.3944 -0.1289  0.0046
  881MPD2    C512921   3.440   4.507   0.489  0.2234  0.1494 -0.1876
  881MPD2     H12922   3.202   4.423   0.219  0.5776  0.5001 -1.1743
  881MPD2    H112923   3.315   4.420   0.635 -0.2439 -1.3244 -0.1986
  881MPD2    H212924   3.569   4.587   0.350  0.4712 -1.2184 -2.0786
  881MPD2    H312925   3.506   4.540   0.569 -0.0784  1.6570 -0.5658
  881MPD2     N12926   3.116   4.365   0.479 -0.1550  0.0170  0.6296
  881MPD2    H512927   3.114   4.347   0.579 -1.2393  1.2817  0.8379
  881MPD2    N112928   3.430   4.534   0.135  0.2115  0.3439  0.2629
  881MPD2    H712929   3.520   4.581   0.138  0.5573 -0.1859 -1.5080
  882MPD2     C12930   1.411   1.882  14.556 -0.0295  0.4555 -0.3468
  882MPD2    C112931   1.311   1.952  14.624 -0.6530 -0.4372 -0.4665
  882MPD2    C212932   1.185   1.946  14.575 -0.4737  0.1139  0.6155
  882MPD2    C312933   1.158   1.856  14.471 -0.0895  0.4088 -0.5783
  882MPD2    C412934   1.257   1.787  14.405  0.1371 -0.2903  0.3589
  882MPD2    C512935   1.383   1.804  14.448 -0.0826 -0.2169  0.2454
  882MPD2     H12936   1.106   2.010  14.613 -0.0155  0.4963  0.9361
  882MPD2    H112937   1.229   1.724  14.321 -2.0944  1.1880 -0.0111
  882MPD2    H212938   1.517   1.875  14.579 -0.1302  0.7753  0.2250
  882MPD2    H312939   1.467   1.748  14.407  0.9514  0.9270  0.8056
  882MPD2     N12940   1.018   1.821  14.443 -0.3403  0.4010  0.2565
  882MPD2    H512941   0.998   1.742  14.382  1.0526  0.8539 -0.7632
  882MPD2    N112942   1.336   2.028  14.745 -0.6238 -0.2096 -0.0333
  882MPD2    H712943   1.431   2.033  14.780 -0.0797 -2.0864 -1.2579
  883MPD2     C12944   2.953   1.636  16.783 -0.7515  0.6223  0.0428
  883MPD2    C112945   2.966   1.644  16.647 -0.6748  0.4218 -0.5480
  883MPD2    C212946   3.092   1.624  16.601  0.1038  0.4048 -0.4475
  883MPD2    C312947   3.196   1.609  16.694  0.7413 -0.9233 -0.0902
  883MPD2    C412948   3.176   1.603  16.830 -0.0126  0.2274 -0.0291
  883MPD2    C512949   3.049   1.623  16.875 -0.6527  0.5935 -0.1801
  883MPD2     H12950   3.114   1.621  16.494  0.6740 -0.4290 -0.3072
  883MPD2    H112951   3.258   1.602  16.900  1.4719 -1.6843 -1.7715
  883MPD2    H212952   2.851   1.665  16.805 -0.8854  0.9024 -0.9557
  883MPD2    H312953   3.028   1.650  16.978  1.5419  0.9659  0.1765
  883MPD2     N12954   3.326   1.594  16.643  0.1888 -0.1204 -0.4380
  883MPD2    H512955   3.329   1.607  16.542  0.3138  0.3363 -0.3757
  883MPD2    N112956   2.870   1.679  16.550 -0.2432  0.7413  0.3085
  883MPD2    H712957   2.905   1.672  16.455  0.0036 -0.0176  0.4550
  884MPD2     C12958   0.566   2.395  15.195 -0.0771  0.0683 -0.4348
  884MPD2    C112959   0.525   2.524  15.212  0.6787  0.0774  0.0497
  884MPD2    C212960   0.411   2.541  15.284  0.3039  0.1603 -0.0199
  884MPD2    C312961   0.344   2.439  15.344 -0.6621 -0.4267  0.1997
  884MPD2    C412962   0.392   2.311  15.331 -0.0862  0.3819  0.9589
  884MPD2    C512963   0.503   2.290  15.258  0.5105  0.1677  0.0686
  884MPD2     H12964   0.370   2.641  15.286 -0.4629 -0.1597  0.4443
  884MPD2    H112965   0.348   2.224  15.378  0.9045 -0.9003 -0.4833
  884MPD2    H212966   0.641   2.370  15.120 -0.6468  1.3020 -1.4036
  884MPD2    H312967   0.534   2.189  15.232  1.1281  0.2286  0.5560
  884MPD2     N12968   0.210   2.474  15.398 -0.1832 -0.1708  0.1960
  884MPD2    H512969   0.177   2.563  15.362 -0.6981  1.1400  3.9430
  884MPD2    N112970   0.579   2.634  15.149  0.9844  0.0094 -0.7190
  884MPD2    H712971   0.537   2.725  15.166 -0.1925 -0.3089 -1.9296
  885MPD2     C12972   3.594   2.919   0.559  0.4110 -0.5376  0.4166
  885MPD2    C112973   3.472   2.880   0.518 -0.5837 -0.6022  0.2940
  885MPD2    C212974   3.446   2.882   0.384  0.1508 -0.0267 -0.0978
  885MPD2    C312975   3.552   2.907   0.294 -0.9311  0.3333 -0.1933
  885MPD2    C412976   3.670   2.959   0.337  0.0757 -0.3010 -0.3270
  885MPD2    C512977   3.687   2.976   0.470  0.0296 -0.0050 -0.3789
  885MPD2     H12978   3.355   2.839   0.345 -0.3565  1.3927 -0.4557
  885MPD2    H112979   3.752   2.996   0.278  0.5088  0.1351  0.5409
  885MPD2    H212980   3.615   2.920   0.666  1.3074 -1.2223  0.2504
  885MPD2    H312981   3.781   3.014   0.510 -0.2768  0.0457  0.3000
  885MPD2     N12982   3.524   2.878   0.157  0.7471  0.1942  0.1453
  885MPD2    H512983   3.434   2.833   0.148  0.8488  0.1101 -0.4555
  885MPD2    N112984   3.392   2.825   0.616  0.3632 -0.4543 -0.4533
  885MPD2    H712985   3.432   2.835   0.709  1.1325 -0.2125 -0.8112
  886MPD2     C12986   4.495   0.944  15.286 -0.2473 -0.0640  0.2923
  886MPD2    C112987   4.615   0.978  15.350 -0.1680 -0.5207 -0.3583
  886MPD2    C212988   4.656   1.102  15.349  0.6097 -0.1554 -0.2598
  886MPD2    C312989   4.574   1.198  15.296 -0.2179  0.2737 -0.6130
  886MPD2    C412990   4.451   1.165  15.241 -0.4948  0.1236  1.3870
  886MPD2    C512991   4.413   1.037  15.234 -0.4064  1.0734  0.0141
  886MPD2     H12992   0.030   1.123  15.388 -0.0575  2.4883  0.0752
  886MPD2    H112993   4.392   1.237  15.186  2.5233  0.5317 -1.3371
  886MPD2    H212994   4.465   0.840  15.282 -4.9077  1.2589  1.1591
  886MPD2    H312995   4.315   1.018  15.191  0.8065  0.7019 -2.5970
  886MPD2     N12996   4.613   1.335  15.297 -0.3977 -0.7516  0.1133
  886MPD2    H512997   4.560   1.396  15.236 -1.9668 -2.0141  0.2100
  886MPD2    N112998   4.700   0.877  15.403 -0.3383 -0.0384 -0.4576
  886MPD2    H712999   0.062   0.910  15.443 -0.3413 -0.6726  0.0658
  887MPD2     C13000   0.656   0.936  15.564  0.4276  0.1346 -0.3315
  887MPD2    C113001   0.527   0.976  15.566  0.3176  0.2085 -0.4730
  887MPD2    C213002   0.490   1.106  15.577  0.4609  0.1161 -1.4681
  887MPD2    C313003   0.588   1.205  15.594 -0.1516 -0.8672  0.6807
  887MPD2    C413004   0.723   1.166  15.594 -0.5189 -0.1450 -1.0793
  887MPD2    C513005   0.753   1.035  15.571  0.4445 -0.1150  0.3041
  887MPD2     H13006   0.384   1.124  15.586  0.9630  2.6352 -0.6995
  887MPD2    H113007   0.804   1.237  15.599 -0.7018  0.0469 -0.7838
  887MPD2    H213008   0.691   0.838  15.536  3.7731  1.2528  0.0333
  887MPD2    H313009   0.857   1.003  15.568  0.1711 -1.2784  3.7649
  887MPD2     N13010   0.548   1.335  15.611  0.6708  0.0430  0.2045
  887MPD2    H513011   0.448   1.353  15.624  0.3967 -1.0890 -0.3824
  887MPD2    N113012   0.412   0.888  15.554 -0.1154 -0.2848 -0.1629
  887MPD2    H713013   0.322   0.934  15.563  0.2117  0.1170  0.9530
  888MPD2     C13014   1.998   1.202  15.492 -0.1040 -0.4287  0.0988
  888MPD2    C113015   1.970   1.308  15.577 -0.1814 -0.2750  0.4171
  888MPD2    C213016   2.036   1.429  15.562 -0.0266  0.1421  0.5311
  888MPD2    C313017   2.105   1.447  15.445  0.8817  0.5434 -1.0241
  888MPD2    C413018   2.123   1.350  15.351 -0.0215 -0.1215 -0.3662
  888MPD2    C513019   2.067   1.228  15.376  0.2274 -0.2254 -0.5634
  888MPD2     H13020   2.015   1.509  15.631  1.3503 -0.8622  2.1078
  888MPD2    H113021   2.170   1.359  15.254 -0.4995 -2.6369 -0.8114
  888MPD2    H213022   1.940   1.110  15.493  1.2080 -1.2336  1.7444
  888MPD2    H313023   2.083   1.157  15.296 -1.5770 -2.4489  1.0651
  888MPD2     N13024   2.144   1.580  15.430  0.2521  0.5270 -0.1679
  888MPD2    H513025   2.129   1.644  15.507  1.2434  1.3728 -0.6782
  888MPD2    N113026   1.899   1.298  15.699 -0.7768  0.1202  0.4405
  888MPD2    H713027   1.885   1.389  15.743 -0.8706  0.3875 -0.1479
  889MPD2     C13028   1.193   0.864  12.874 -0.5415  0.3413  0.4971
  889MPD2    C113029   1.227   0.843  13.011 -0.1814 -0.2377  0.2566
  889MPD2    C213030   1.291   0.947  13.079  1.0217  0.6921  0.0579
  889MPD2    C313031   1.302   1.075  13.021 -0.9336 -0.4794 -0.0644
  889MPD2    C413032   1.275   1.087  12.884  0.5916 -0.3063  0.2535
  889MPD2    C513033   1.227   0.981  12.815  0.9130 -0.0040  0.5430
  889MPD2     H13034   1.316   0.947  13.184  1.8140  2.1264 -0.1300
  889MPD2    H113035   1.294   1.180  12.831 -2.4787  0.7908  1.0599
  889MPD2    H213036   1.170   0.785  12.804  2.0798 -0.8712  0.9893
  889MPD2    H313037   1.219   0.989  12.707 -0.8677 -0.9897  0.5959
  889MPD2     N13038   1.359   1.179  13.100  0.7237 -0.1060  0.0030
  889MPD2    H513039   1.373   1.166  13.200 -2.5077 -0.6002  0.3847
  889MPD2    N113040   1.234   0.719  13.071 -0.5451  0.0743  0.2874
  889MPD2    H713041   1.269   0.708  13.166 -0.9078 -0.0603  0.4022
  890MPD2     C13042   1.114   2.728  14.800 -0.0596 -0.2139  0.6582
  890MPD2    C113043   1.141   2.828  14.894  0.4072  0.6992  0.2693
  890MPD2    C213044   1.145   2.802  15.029  0.1140 -0.8118  0.1296
  890MPD2    C313045   1.145   2.669  15.070 -0.3406  0.1108 -0.3026
  890MPD2    C413046   1.142   2.570  14.978 -0.4868 -0.2725  1.0098
  890MPD2    C513047   1.115   2.596  14.845  0.1946 -0.0388  0.4664
  890MPD2     H13048   1.162   2.876  15.106 -2.3179  2.1789 -2.2274
  890MPD2    H113049   1.145   2.464  15.004  2.6760 -0.2712  0.5898
  890MPD2    H213050   1.089   2.749  14.697 -0.4974 -1.3826  0.5243
  890MPD2    H313051   1.100   2.512  14.778 -0.6691  2.6475 -2.6628
  890MPD2     N13052   1.146   2.639  15.211 -0.1876  0.3638 -0.1015
  890MPD2    H513053   1.155   2.724  15.266 -0.0542  0.9355 -0.9947
  890MPD2    N113054   1.145   2.961  14.837 -0.2483 -0.4193  0.0312
  890MPD2    H713055   1.155   2.967  14.736 -2.3376 -0.5010 -0.1713
  891MPD2     C13056   4.137   0.276  17.184 -1.0970 -0.0557 -0.3473
  891MPD2    C113057   4.060   0.375  17.235  0.0657  0.2586  0.0138
  891MPD2    C213058   4.118   0.497  17.278  0.1007 -0.5625  0.6124
  891MPD2    C313059   4.251   0.518  17.267  0.4649 -0.0892 -0.0326
  891MPD2    C413060   4.323   0.407  17.235 -0.2893 -0.6093  0.4180
  891MPD2    C513061   4.270   0.288  17.193 -0.1826  0.8163  0.7664
  891MPD2     H13062   4.051   0.569  17.324  1.6212  0.3136  1.4609
  891MPD2    H113063   4.429   0.412  17.214 -0.3929  0.1865  0.0826
  891MPD2    H213064   4.095   0.181  17.154 -3.6846  1.1846 -0.6393
  891MPD2    H313065   4.335   0.213  17.149 -0.0264  1.1221  0.4712
  891MPD2     N13066   4.296   0.654  17.284 -0.3432 -0.6105  0.5659
  891MPD2    H513067   4.225   0.718  17.319  0.4387  0.1810  0.6956
  891MPD2    N113068   3.920   0.353  17.225 -0.1437 -0.1686 -0.3635
  891MPD2    H713069   3.886   0.268  17.181  0.7659 -0.7669  0.0877
  892MPD2     C13070   0.359   1.950  15.168  0.5109 -0.1378  0.1718
  892MPD2    C113071   0.287   1.952  15.051  0.6723 -0.7298 -1.2121
  892MPD2    C213072   0.344   1.926  14.925  0.1412 -0.6604 -0.3089
  892MPD2    C313073   0.476   1.892  14.918 -0.2418 -0.5331  0.1390
  892MPD2    C413074   0.548   1.880  15.036 -0.3326  0.3866 -0.6079
  892MPD2    C513075   0.493   1.911  15.161  0.1211  0.1642  0.4104
  892MPD2     H13076   0.286   1.937  14.834  1.2170 -1.7538 -1.1096
  892MPD2    H113077   0.651   1.849  15.027 -1.0764 -1.5700 -2.6369
  892MPD2    H213078   0.314   1.993  15.256  1.6759  1.2632  0.0874
  892MPD2    H313079   0.562   1.907  15.244 -2.1964 -1.8132  2.2367
  892MPD2     N13080   0.545   1.865  14.799 -0.1708  0.4205 -0.2611
  892MPD2    H513081   0.640   1.831  14.813  0.9364  3.6453 -0.0599
  892MPD2    N113082   0.156   1.999  15.046 -0.4415 -0.6304  0.1831
  892MPD2    H713083   0.117   1.999  14.952  0.9769 -1.6393 -0.4127
  893MPD2     C13084   1.736   4.694   1.007  0.3863 -0.5800  0.6135
  893MPD2    C113085   1.754   4.597   1.104  0.6664  0.0503 -0.7672
  893MPD2    C213086   1.638   4.563   1.185  0.0666  0.3053  0.5803
  893MPD2    C313087   1.513   4.617   1.151 -0.6695 -0.0703 -0.4486
  893MPD2    C413088   1.501   4.719   1.057 -0.5031  0.4811 -0.1594
  893MPD2    C513089   1.615   0.031   0.986 -0.9607 -0.1273 -0.8900
  893MPD2     H13090   1.656   4.486   1.259 -0.2597 -0.6423 -0.3302
  893MPD2    H113091   1.409   0.042   1.026 -1.8334 -1.4414  0.7519
  893MPD2    H213092   1.819   0.011   0.953  0.0357 -2.0903 -1.1238
  893MPD2    H313093   1.609   0.105   0.908 -1.6296  1.3037  0.5015
  893MPD2     N13094   1.397   4.580   1.224 -0.3123 -0.0042  0.1722
  893MPD2    H513095   1.307   4.596   1.179 -0.9842  0.0352  1.5523
  893MPD2    N113096   1.882   4.538   1.105 -0.9934 -0.1572  0.0851
  893MPD2    H713097   1.937   4.543   1.019  1.3217 -1.1203  1.5074
  894MPD2     C13098   4.682   2.864   1.018 -0.1182  0.1352  0.4535
  894MPD2    C113099   4.701   2.859   1.154 -0.0115 -0.2703  0.0335
  894MPD2    C213100   0.010   2.978   1.216 -0.0676 -0.4653 -0.1582
  894MPD2    C313101   0.036   3.099   1.142  0.0804 -0.2530 -0.3715
  894MPD2    C413102   0.014   3.097   1.010  0.1619 -0.2142 -0.0291
  894MPD2    C513103   4.696   2.985   0.951  0.0708  0.3786 -0.0680
  894MPD2     H13104   0.021   2.972   1.323  3.4097 -1.2153 -0.5665
  894MPD2    H113105   0.025   3.182   0.944  0.7533  0.1573  0.5421
  894MPD2    H213106   4.657   2.782   0.953  0.1642  0.4671 -0.0711
  894MPD2    H313107   4.666   2.989   0.847  1.4315 -0.1314 -0.4766
  894MPD2     N13108   0.084   3.212   1.212  0.4262 -0.1490  0.6153
  894MPD2    H513109   0.068   3.205   1.312 -1.5427  1.4377  0.4182
  894MPD2    N113110   4.698   2.736   1.225  0.1263 -0.3037 -0.2317
  894MPD2    H713111   4.718   2.749   1.323  3.3244 -0.7179 -0.8043
  895MPD2     C13112   4.524   0.900  13.566  0.1105  1.4513 -0.5198
  895MPD2    C113113   4.437   0.934  13.468  0.3901  0.2777 -0.1573
  895MPD2    C213114   4.387   0.832  13.393  0.2063 -0.4190 -0.4515
  895MPD2    C313115   4.420   0.701  13.425  0.0605 -0.0117  0.6018
  895MPD2    C413116   4.486   0.675  13.542 -0.1614  0.6538 -0.4208
  895MPD2    C513117   4.544   0.772  13.615  0.2290 -0.0307 -0.2068
  895MPD2     H13118   4.307   0.858  13.324 -2.3245  0.7957  2.9180
  895MPD2    H113119   4.504   0.579  13.590  2.4946 -0.8025 -4.3214
  895MPD2    H213120   4.562   0.973  13.638  0.3978  0.1169  0.6853
  895MPD2    H313121   4.609   0.749  13.698  0.7451  1.4901 -0.1807
  895MPD2     N13122   4.364   0.594  13.366  0.4341 -0.1969  0.3898
  895MPD2    H513123   4.360   0.506  13.417  1.2477 -0.5565 -0.1663
  895MPD2    N113124   4.407   1.069  13.437  0.3907  0.1093  0.0820
  895MPD2    H713125   4.360   1.090  13.350  0.5939 -0.3004 -0.1224
  896MPD2     C13126   1.212   2.722   1.357 -0.5680  0.1511 -0.8436
  896MPD2    C113127   1.173   2.847   1.401 -0.3366  0.3496  0.1777
  896MPD2    C213128   1.046   2.892   1.374 -0.8211 -0.0478  0.2481
  896MPD2    C313129   0.963   2.827   1.291 -0.6468  0.4046 -0.3292
  896MPD2    C413130   1.011   2.707   1.237 -0.1917  0.0769 -0.1403
  896MPD2    C513131   1.133   2.656   1.277 -0.0893 -0.1229 -0.1261
  896MPD2     H13132   1.008   2.980   1.425  1.8384  0.4193  1.4088
  896MPD2    H113133   0.951   2.643   1.173  1.8390 -1.6911 -0.2549
  896MPD2    H213134   1.315   2.692   1.377 -0.3657  0.9807 -0.6158
  896MPD2    H313135   1.159   2.553   1.254 -0.5419 -0.2632 -0.0234
  896MPD2     N13136   0.841   2.886   1.246 -0.4499 -0.0692 -0.4311
  896MPD2    H513137   0.820   2.979   1.281  1.2312 -0.3548  1.2648
  896MPD2    N113138   1.265   2.931   1.469  0.5206  0.4672 -0.1310
  896MPD2    H713139   1.362   2.905   1.476  0.6098  0.9465  0.4763
  897MPD2     C13140   2.386   0.252  10.962 -0.8890 -0.7363 -0.4210
  897MPD2    C113141   2.311   0.234  10.848 -0.1658  0.6007 -0.9362
  897MPD2    C213142   2.175   0.214  10.860  0.1325  0.6995  0.1461
  897MPD2    C313143   2.112   0.260  10.975 -0.0728  0.7997  0.1119
  897MPD2    C413144   2.187   0.258  11.086  0.3932  0.2594  0.3862
  897MPD2    C513145   2.328   0.253  11.083  0.5987 -0.3167 -0.4992
  897MPD2     H13146   2.113   0.205  10.772 -0.4399 -0.4800  0.6744
  897MPD2    H113147   2.152   0.278  11.187 -2.0539  1.4077 -0.6989
  897MPD2    H213148   2.488   0.284  10.945 -0.9152 -1.1227 -1.3064
  897MPD2    H313149   2.389   0.287  11.166  1.2034  0.6652 -1.3473
  897MPD2     N13150   1.984   0.318  10.983  0.0643  0.3312 -0.0863
  897MPD2    H513151   1.972   0.363  11.074  1.1991 -1.4224  0.9368
  897MPD2    N113152   2.371   0.252  10.720  0.1911  0.2106  0.0816
  897MPD2    H713153   2.459   0.302  10.728 -0.0980  0.4282  1.9488
  898MPD2     C13154   4.209   1.303   0.183 -0.0587 -0.0730  0.0517
  898MPD2    C113155   4.310   1.322   0.089  0.3635  0.7550  0.4236
  898MPD2    C213156   4.305   1.440   0.021 -0.5778 -0.0116 -0.1515
  898MPD2    C313157   4.208   1.534   0.043 -0.5164 -0.5367 -0.2802
  898MPD2    C413158   4.106   1.510   0.135 -0.6682 -0.7012 -0.3338
  898MPD2    C513159   4.122   1.401   0.215  0.2501  0.0524  0.3335
  898MPD2     H13160   4.377   1.461  17.646  0.3663  0.3084  0.7969
  898MPD2    H113161   4.027   1.583   0.150 -1.2514 -0.5981 -3.7688
  898MPD2    H213162   4.203   1.216   0.248  1.6558  0.4866  0.9580
  898MPD2    H313163   4.036   1.391   0.281  0.1554  2.4547  0.5740
  898MPD2     N13164   4.204   1.650  17.662 -0.1126  0.7456 -0.0767
  898MPD2    H513165   4.284   1.661  17.600 -0.7427  2.1252 -0.6307
  898MPD2    N113166   4.420   1.235   0.075  0.2392 -0.3591 -0.1003
  898MPD2    H713167   4.490   1.259   0.005 -2.3908  1.9129 -1.9406
  899MPD2     C13168   0.881   2.018  17.564 -0.1489  0.2334  0.0323
  899MPD2    C113169   0.789   2.108  17.513 -0.4648  0.1666 -0.9871
  899MPD2    C213170   0.661   2.101  17.557 -0.6842  0.4143  0.8345
  899MPD2    C313171   0.623   2.022  17.665  0.6760 -0.0995 -0.0166
  899MPD2    C413172   0.723   1.941   0.015 -0.8583  0.3290 -0.0989
  899MPD2    C513173   0.845   1.935  17.664 -0.8008  0.7875  0.0722
  899MPD2     H13174   0.583   2.159  17.507 -1.6640 -2.4460 -0.9145
  899MPD2    H113175   0.701   1.885   0.105  1.8195  0.4365  0.6374
  899MPD2    H213176   0.982   2.020  17.524 -0.2184 -2.4863 -0.3080
  899MPD2    H313177   0.916   1.863  17.703  1.6523  2.9111 -0.4748
  899MPD2     N13178   0.498   2.009   0.034  0.2747 -0.0150  0.1311
  899MPD2    H513179   0.491   1.948   0.115 -1.6297  0.1666  0.1116
  899MPD2    N113180   0.828   2.195  17.414  0.5903  0.5153 -0.2513
  899MPD2    H713181   0.927   2.190  17.389  0.8685 -2.5505  1.4950
  900MPD2     C13182   0.201   3.797  12.398  0.3633  0.7160  0.0908
  900MPD2    C113183   0.150   3.672  12.409 -0.7698 -0.2281 -0.5893
  900MPD2    C213184   0.038   3.638  12.336  0.6719  0.4363 -0.3719
  900MPD2    C313185   4.707   3.728  12.250  0.1670 -0.1471  0.1593
  900MPD2    C413186   0.032   3.854  12.242  0.1663 -0.1818 -0.4501
  900MPD2    C513187   0.145   3.883  12.311  0.5095 -0.1417  0.2341
  900MPD2     H13188   4.721   3.538  12.331  1.1379  0.1041  2.0443
  900MPD2    H113189   4.701   3.923  12.180  1.2445 -0.4227 -1.7079
  900MPD2    H213190   0.281   3.824  12.466 -0.1245  0.2790  0.8307
  900MPD2    H313191   0.188   3.981  12.296 -1.6830  0.9204  0.8685
  900MPD2     N13192   4.597   3.684  12.177  0.4488 -0.5593  0.1704
  900MPD2    H513193   4.562   3.590  12.193  0.9663 -0.3979  2.3676
  900MPD2    N113194   0.219   3.582  12.498  0.2009  0.5634 -0.0872
  900MPD2    H713195   0.306   3.613  12.540  0.6369 -0.1931 -0.4360
  901MPD2     C13196   0.277   2.637  13.055  0.5119 -0.3423 -0.4121
  901MPD2    C113197   0.395   2.651  12.987 -0.5217 -0.1288  0.1092
  901MPD2    C213198   0.433   2.774  12.933  0.6030  0.4004 -0.4435
  901MPD2    C313199   0.344   2.878  12.934  0.5017  1.1622 -0.3938
  901MPD2    C413200   0.232   2.872  13.012  0.2610 -0.7657  0.3964
  901MPD2    C513201   0.202   2.748  13.068  0.2976  0.2881  0.2325
  901MPD2     H13202   0.527   2.771  12.877  0.1523  2.0126 -1.3013
  901MPD2    H113203   0.162   2.953  13.031  1.2534  0.4595 -1.2355
  901MPD2    H213204   0.247   2.547  13.106 -1.7942  0.1225 -0.9375
  901MPD2    H313205   0.123   2.750  13.142 -1.9978 -1.2021 -2.1744
  901MPD2     N13206   0.380   3.006  12.871  0.3225  0.3465 -0.3710
  901MPD2    H513207   0.470   3.012  12.825 -0.2156 -1.0632 -1.6072
  901MPD2    N113208   0.479   2.540  12.986 -0.2204  0.2412  0.5796
  901MPD2    H713209   0.439   2.449  13.008 -1.8849  0.7480 -0.3250
  902MPD2     C13210   4.314   1.861  12.732  0.6347  0.5669 -0.3075
  902MPD2    C113211   4.269   1.726  12.727 -0.2616  0.0448 -0.1695
  902MPD2    C213212   4.299   1.648  12.615 -0.0941  0.3374  0.4563
  902MPD2    C313213   4.361   1.711  12.504  0.4661 -0.1273 -0.5888
  902MPD2    C413214   4.405   1.845  12.510 -0.6665 -0.7873 -0.6339
  902MPD2    C513215   4.384   1.916  12.627 -0.0467  0.3080 -0.5172
  902MPD2     H13216   4.259   1.548  12.600 -1.4833  0.9003  0.3750
  902MPD2    H113217   4.452   1.896  12.427  0.6822  0.7204  1.0569
  902MPD2    H213218   4.290   1.921  12.819 -1.1917 -0.9429  0.2339
  902MPD2    H313219   4.402   2.023  12.633 -0.3434  0.3204  0.1910
  902MPD2     N13220   4.378   1.654  12.379 -0.0687  0.2810 -0.4381
  902MPD2    H513221   4.417   1.707  12.301 -1.1703  0.5750 -0.7971
  902MPD2    N113222   4.182   1.685  12.837 -0.1954  0.8918 -0.6911
  902MPD2    H713223   4.173   1.743  12.920 -0.2452 -0.7494  0.4603
  903MPD2     C13224   4.064   1.516  11.574 -0.3301  0.1690 -0.1455
  903MPD2    C113225   4.045   1.521  11.713 -0.0808  0.5186  0.0239
  903MPD2    C213226   3.921   1.499  11.767 -0.4923  0.8136 -0.1564
  903MPD2    C313227   3.817   1.480  11.685 -0.2292  0.2072 -0.7219
  903MPD2    C413228   3.835   1.465  11.553  0.2474  0.3263 -0.1124
  903MPD2    C513229   3.954   1.491  11.497 -0.4085  0.0261  0.5209
  903MPD2     H13230   3.906   1.495  11.875  1.3376  2.5495  0.1569
  903MPD2    H113231   3.753   1.437  11.488  0.8422 -1.6838 -0.0126
  903MPD2    H213232   4.159   1.546  11.531  0.1557  1.1538  1.5891
  903MPD2    H313233   3.969   1.479  11.390  1.8886  0.5301  0.7742
  903MPD2     N13234   3.684   1.470  11.738 -0.2611  0.2953  0.1205
  903MPD2    H513235   3.675   1.478  11.839 -2.0159 -0.1051 -0.0024
  903MPD2    N113236   4.163   1.539  11.787 -0.3648 -0.1266  0.5761
  903MPD2    H713237   4.248   1.564  11.737  0.4615 -0.7698  1.6458
  904MPD2     C13238   4.064   0.331  13.998 -0.1366 -0.1871  0.0418
  904MPD2    C113239   4.057   0.472  14.009  0.3186  0.3637 -0.1590
  904MPD2    C213240   4.156   0.530  14.073  0.1917 -0.2585  0.4213
  904MPD2    C313241   4.262   0.462  14.129 -0.2157 -0.7493  0.2313
  904MPD2    C413242   4.260   0.328  14.126 -0.5057  0.0209  0.1180
  904MPD2    C513243   4.164   0.266  14.061 -0.1468  0.6302 -0.4226
  904MPD2     H13244   4.163   0.638  14.068  2.1674 -0.3940  0.2796
  904MPD2    H113245   4.339   0.264  14.161 -0.1087 -0.4860 -1.7281
  904MPD2    H213246   3.997   0.281  13.929 -0.0545 -2.0788  1.3534
  904MPD2    H313247   4.171   0.158  14.058  0.4487  0.6291  0.7362
  904MPD2     N13248   4.359   0.527  14.217 -0.0536 -0.1507 -0.3607
  904MPD2    H513249   4.352   0.628  14.226  1.1597 -0.0862 -0.1364
  904MPD2    N113250   3.972   0.552  13.931 -0.0098  0.4012  0.4026
  904MPD2    H713251   3.984   0.652  13.917 -0.0338  0.5616  1.4989
  905MPD2     C13252   3.603   0.697  13.109  0.2136  0.2470  0.0381
  905MPD2    C113253   3.677   0.630  13.205  0.1499 -0.2344  0.4739
  905MPD2    C213254   3.783   0.552  13.161 -0.1162 -0.5333 -0.7781
  905MPD2    C313255   3.811   0.558  13.022 -0.1521  0.8519 -0.1260
  905MPD2    C413256   3.746   0.644  12.928 -0.1160  0.9923  0.5253
  905MPD2    C513257   3.636   0.709  12.976 -0.3947  0.1445 -0.1310
  905MPD2     H13258   3.831   0.485  13.231  0.6564  1.3462  0.4848
  905MPD2    H113259   3.778   0.665  12.826  0.1586 -3.4909 -0.3501
  905MPD2    H213260   3.511   0.749  13.132 -0.0785 -0.3433  0.1976
  905MPD2    H313261   3.583   0.774  12.907 -0.2167 -1.2602 -1.6044
  905MPD2     N13262   3.930   0.497  12.974 -0.4725 -0.1184  0.0407
  905MPD2    H513263   3.979   0.537  12.895 -0.3159  2.5536  1.4667
  905MPD2    N113264   3.644   0.645  13.347 -0.2783  0.1546  0.2755
  905MPD2    H713265   3.567   0.707  13.366 -0.1416 -0.4471  2.7124
  906MPD2     C13266   0.944   0.938  11.426 -0.1743 -0.5675  0.0210
  906MPD2    C113267   0.865   0.835  11.371 -0.1660 -0.3706 -0.2338
  906MPD2    C213268   0.791   0.757  11.451  0.2186  0.0719  0.1974
  906MPD2    C313269   0.799   0.763  11.589  0.2533  0.0996 -0.2233
  906MPD2    C413270   0.885   0.854  11.645 -0.4459 -0.3831 -0.0352
  906MPD2    C513271   0.947   0.948  11.564 -0.1085  0.8573  0.4581
  906MPD2     H13272   0.736   0.675  11.407 -0.6282  0.8250 -0.1511
  906MPD2    H113273   0.904   0.869  11.750 -1.8485  0.9245  0.0283
  906MPD2    H213274   0.998   1.012  11.369  1.2224 -1.7397 -0.1957
  906MPD2    H313275   1.014   1.017  11.612  0.9851  0.6171 -0.7188
  906MPD2     N13276   0.738   0.677  11.683 -0.3609  0.0396  0.2255
  906MPD2    H513277   0.784   0.673  11.774 -1.3873  0.6040  0.7672
  906MPD2    N113278   0.853   0.803  11.234 -0.1734 -0.3096  0.1669
  906MPD2    H713279   0.806   0.715  11.218 -1.6915  0.8501 -1.7915
  907MPD2     C13280   0.001   4.519  15.253 -0.4290 -0.0171  0.2736
  907MPD2    C113281   0.027   4.395  15.299 -0.0601 -0.0608 -0.4180
  907MPD2    C213282   0.067   4.373  15.429 -0.2109 -0.5766 -0.4450
  907MPD2    C313283   0.088   4.486  15.516 -0.3235 -0.5438  0.4170
  907MPD2    C413284   0.046   4.606  15.469  0.6822  0.2401 -0.1980
  907MPD2    C513285   0.009   4.624  15.339  0.2351 -0.2501 -0.9257
  907MPD2     H13286   0.088   4.273  15.466  0.1967 -0.1321  0.5271
  907MPD2    H113287   0.050   4.697  15.529  1.5856 -0.4006  0.7019
  907MPD2    H213288   4.700   4.553  15.154  1.9114 -1.6511 -0.8990
  907MPD2    H313289   4.716   4.722  15.297  0.2368  0.1569  0.0151
  907MPD2     N13290   0.146   4.464  15.641  0.0858  0.0259 -0.3454
  907MPD2    H513291   0.168   4.367  15.661 -1.6542 -0.4533 -0.7073
  907MPD2    N113292   0.016   4.272  15.222  0.5571 -0.3489 -0.0302
  907MPD2    H713293   0.032   4.184  15.271  0.2364  0.3008  1.2522
  908MPD2     C13294   2.142   4.641   9.834 -0.6110 -0.4675  0.7838
  908MPD2    C113295   2.262   4.600   9.888  0.2617  0.5426  0.5422
  908MPD2    C213296   2.317   4.690   9.981 -0.0973  0.5237  0.0187
  908MPD2    C313297   2.275   0.098   9.994 -0.5223 -0.0646  0.4748
  908MPD2    C413298   2.168   0.143   9.917 -0.0659  0.4988  0.6709
  908MPD2    C513299   2.095   0.045   9.849 -0.4144  0.2418 -0.6474
  908MPD2     H13300   2.396   4.660  10.049  0.3669 -0.9172 -1.1548
  908MPD2    H113301   2.129   0.242   9.937  1.1186  0.8490  1.2319
  908MPD2    H213302   2.070   4.584   9.777 -0.0877 -0.8226  0.4741
  908MPD2    H313303   2.006   0.079   9.798 -0.3915  0.7298 -0.3558
  908MPD2     N13304   2.336   0.175  10.099 -0.8113 -0.0642 -0.1609
  908MPD2    H513305   2.410   0.129  10.150  0.0561  1.3898 -0.1361
  908MPD2    N113306   2.307   4.462   9.891 -0.0193  0.1099  0.9168
  908MPD2    H713307   2.395   4.452   9.940  1.4489 -1.5226 -2.0732
  909MPD2     C13308   2.656   3.162  11.819  0.4647  0.0967 -0.6756
  909MPD2    C113309   2.585   3.257  11.753 -0.4736  1.0959 -0.0917
  909MPD2    C213310   2.527   3.356  11.823  0.0298  0.3702 -0.3113
  909MPD2    C313311   2.546   3.365  11.956  0.5775  0.0119 -0.0799
  909MPD2    C413312   2.618   3.271  12.034 -0.0835  0.7053 -0.0071
  909MPD2    C513313   2.683   3.176  11.952 -0.7053 -0.0288 -0.0967
  909MPD2     H13314   2.478   3.434  11.767  0.2298  1.5302  1.1316
  909MPD2    H113315   2.621   3.274  12.142 -0.0944  1.6657 -0.0318
  909MPD2    H213316   2.688   3.071  11.770  0.1362 -0.2346 -0.2815
  909MPD2    H313317   2.748   3.103  11.999  0.7801  0.6236 -1.1367
  909MPD2     N13318   2.486   3.474  12.020  0.2610 -0.3131  0.6790
  909MPD2    H513319   2.451   3.552  11.965  1.2848 -2.1459 -2.5297
  909MPD2    N113320   2.567   3.250  11.619 -0.1653 -0.0588 -0.4554
  909MPD2    H713321   2.502   3.314  11.574 -1.1319 -1.2236 -0.7177
  910MPD2     C13322   4.482   0.870  15.760 -1.0317 -0.4385  0.8358
  910MPD2    C113323   4.439   0.750  15.715 -0.0062 -0.3408  0.5554
  910MPD2    C213324   4.348   0.737  15.611 -0.1684 -0.7783  0.5361
  910MPD2    C313325   4.309   0.854  15.545  0.3188  0.0660 -0.2654
  910MPD2    C413326   4.350   0.979  15.600 -0.9241 -0.8578  0.1451
  910MPD2    C513327   4.436   0.985  15.705  0.7343  0.3676 -0.2566
  910MPD2     H13328   4.319   0.640  15.572  1.6658 -0.5981 -1.2654
  910MPD2    H113329   4.311   1.071  15.558 -0.3885 -0.1417  1.2149
  910MPD2    H213330   4.561   0.887  15.832 -0.0264  1.2515 -0.6578
  910MPD2    H313331   4.469   1.081  15.744 -0.9244  0.5735  0.6365
  910MPD2     N13332   4.218   0.860  15.437 -0.0750 -0.5236 -0.1011
  910MPD2    H513333   4.183   0.951  15.410  0.5364  0.0032  0.8801
  910MPD2    N113334   4.468   0.629  15.785  0.6538 -1.0213 -0.4756
  910MPD2    H713335   4.439   0.542  15.741  0.1921 -0.9605 -0.2850
  911MPD2     C13336   2.409   0.766  17.028  0.1469 -0.3282 -0.4729
  911MPD2    C113337   2.470   0.884  16.989 -0.1093  0.1136  0.0318
  911MPD2    C213338   2.391   0.976  16.920  0.3047  0.1997 -0.1228
  911MPD2    C313339   2.268   0.941  16.870  0.4206  0.8196  0.4711
  911MPD2    C413340   2.213   0.819  16.904  0.0880 -0.0773 -0.6494
  911MPD2    C513341   2.279   0.736  16.989  0.8560  0.1921  0.0167
  911MPD2     H13342   2.434   1.073  16.898  0.1004  0.2692 -0.2093
  911MPD2    H113343   2.113   0.799  16.867 -0.5594  2.5135 -0.2814
  911MPD2    H213344   2.460   0.692  17.090 -0.9348 -0.8938 -0.2706
  911MPD2    H313345   2.243   0.638  17.018  1.8977  0.2125  1.3822
  911MPD2     N13346   2.203   1.033  16.784  0.2430  0.0855  0.0869
  911MPD2    H513347   2.144   0.988  16.715  1.5265  0.9339 -1.5462
  911MPD2    N113348   2.607   0.907  17.017  0.5321 -0.1718  0.1388
  911MPD2    H713349   2.656   0.828  17.058  0.3362 -0.2954  0.1309
  912MPD2     C13350   1.927   0.896  16.068  0.3847 -0.7279 -0.1253
  912MPD2    C113351   1.944   0.897  16.207  0.0898  0.0153 -0.4071
  912MPD2    C213352   1.896   0.781  16.276 -0.3669  0.3604  0.3017
  912MPD2    C313353   1.845   0.666  16.209 -0.6012 -0.1711  0.7331
  912MPD2    C413354   1.843   0.671  16.070 -0.0645 -0.2860  0.4479
  912MPD2    C513355   1.881   0.786  16.005 -0.6830 -0.1759  0.3051
  912MPD2     H13356   1.915   0.777  16.383  3.2107 -0.6971 -0.3591
  912MPD2    H113357   1.797   0.589  16.015 -0.9875  0.9194 -0.6000
  912MPD2    H213358   1.954   0.980  16.006 -1.4730 -0.4181 -0.4972
  912MPD2    H313359   1.878   0.807  15.898  0.2202 -0.2838  0.2605
  912MPD2     N13360   1.812   0.551  16.278 -0.6074 -0.1711  0.2356
  912MPD2    H513361   1.820   0.554  16.379  2.6179 -0.7131 -0.0152
  912MPD2    N113362   2.019   1.005  16.272 -0.2608  0.1535 -0.3250
  912MPD2    H713363   2.036   1.084  16.211  0.8329  0.0982 -0.0831
  913MPD2     C13364   2.104   1.797  10.821  0.5691 -0.0562  0.1409
  913MPD2    C113365   2.189   1.852  10.905  0.5423 -0.1094 -0.0769
  913MPD2    C213366   2.222   1.985  10.907 -0.2653  0.1904  0.7768
  913MPD2    C313367   2.148   2.074  10.823  0.1705 -0.0425  0.3877
  913MPD2    C413368   2.061   2.013  10.732 -0.0655  0.0887 -0.0835
  913MPD2    C513369   2.035   1.878  10.737 -0.7360  0.3226  0.7891
  913MPD2     H13370   2.292   2.024  10.980  0.5031 -0.9532  0.6466
  913MPD2    H113371   1.999   2.070  10.665 -1.8260 -0.2447  1.2798
  913MPD2    H213372   2.063   1.698  10.841 -1.2682  0.3581 -1.5075
  913MPD2    H313373   1.959   1.846  10.666  0.8262  1.5412 -1.4444
  913MPD2     N13374   2.161   2.212  10.823 -0.1105  0.0646  0.3110
  913MPD2    H513375   2.103   2.265  10.759  1.0465 -0.7527 -1.4159
  913MPD2    N113376   2.235   1.764  11.008 -0.3717  0.8672  0.1285
  913MPD2    H713377   2.236   1.664  10.987 -0.4213  0.6826  1.0022
  914MPD2     C13378   0.324   2.433  12.164  0.7613  0.4366  0.1458
  914MPD2    C113379   0.360   2.542  12.245  0.3587 -0.2674  0.1292
  914MPD2    C213380   0.436   2.510  12.358  0.2085  0.0121  0.0374
  914MPD2    C313381   0.464   2.381  12.391 -0.9673 -0.4209 -0.5554
  914MPD2    C413382   0.423   2.273  12.313 -0.6581  0.3162  0.4742
  914MPD2    C513383   0.350   2.302  12.201 -0.8296 -0.5836 -0.0713
  914MPD2     H13384   0.465   2.579  12.437  2.3578 -1.9623  0.9767
  914MPD2    H113385   0.455   2.172  12.335  0.8208  0.3516 -1.5067
  914MPD2    H213386   0.258   2.452  12.079 -0.0867  2.0172  1.1604
  914MPD2    H313387   0.305   2.229  12.134  1.5580  0.9267 -3.3005
  914MPD2     N13388   0.529   2.364  12.515  0.4873 -0.5150 -0.5598
  914MPD2    H513389   0.554   2.443  12.573 -1.6543 -0.3847  0.1797
  914MPD2    N113390   0.313   2.674  12.206 -0.0184  1.0296  0.4014
  914MPD2    H713391   0.264   2.692  12.119  0.3047 -1.1696 -0.2391
  915MPD2     C13392   3.333   2.121  15.747 -0.1523  0.2629 -0.3166
  915MPD2    C113393   3.227   2.195  15.707  0.8165  0.1735 -0.2922
  915MPD2    C213394   3.143   2.262  15.797 -0.6818  0.2108 -0.0046
  915MPD2    C313395   3.161   2.233  15.926 -0.0459 -0.1564 -0.3327
  915MPD2    C413396   3.282   2.172  15.973 -0.8825  0.5231 -0.4675
  915MPD2    C513397   3.370   2.131  15.877  0.0539  0.5683 -0.1963
  915MPD2     H13398   3.064   2.331  15.769 -0.9349 -0.8257 -1.8128
  915MPD2    H113399   3.298   2.166  16.080  3.1123  2.2084 -0.9800
  915MPD2    H213400   3.390   2.067  15.672 -1.4084  1.8462 -2.4114
  915MPD2    H313401   3.461   2.081  15.910 -0.7352  1.4952  3.3277
  915MPD2     N13402   3.079   2.304  16.020  0.8046 -0.1188  0.3731
  915MPD2    H513403   3.014   2.374  15.985  0.8646 -0.7837 -1.0826
  915MPD2    N113404   3.218   2.204  15.569 -0.4889  0.4692 -0.1358
  915MPD2    H713405   3.289   2.164  15.510  1.1485  0.2766  1.9566
  916MPD2     C13406   1.562   0.784  15.838  0.0163  0.0492 -0.2770
  916MPD2    C113407   1.511   0.666  15.888 -0.4072 -0.4422  0.0490
  916MPD2    C213408   1.501   0.566  15.805  0.7079 -0.0868 -0.3344
  916MPD2    C313409   1.541   0.564  15.679  0.8586  0.0350 -0.1343
  916MPD2    C413410   1.587   0.682  15.627 -0.6311 -0.0451 -0.4454
  916MPD2    C513411   1.602   0.793  15.708  0.3710  0.1233  0.4259
  916MPD2     H13412   1.451   0.476  15.842  0.6246 -0.5861 -1.6680
  916MPD2    H113413   1.616   0.687  15.523 -2.7105 -0.2454 -1.0222
  916MPD2    H213414   1.557   0.868  15.907  1.6097 -1.3416  1.5256
  916MPD2    H313415   1.641   0.883  15.661  1.9604 -1.9776 -2.2637
  916MPD2     N13416   1.533   0.440  15.603  0.2074  0.3291  0.0699
  916MPD2    H513417   1.507   0.351  15.646 -0.0176  0.1486 -0.4446
  916MPD2    N113418   1.467   0.674  16.023 -0.9471 -0.1878 -0.0796
  916MPD2    H713419   1.469   0.763  16.072  2.7494  0.2983 -1.1112
  917MPD2     C13420   1.673   3.186  11.189 -0.0665 -0.7844  0.0622
  917MPD2    C113421   1.722   3.227  11.312 -0.3711 -0.3730  0.2242
  917MPD2    C213422   1.820   3.330  11.308  0.3141  0.2196 -0.4346
  917MPD2    C313423   1.880   3.369  11.189  0.5013  0.2778  0.6266
  917MPD2    C413424   1.835   3.320  11.069  0.7141 -0.6761  0.2370
  917MPD2    C513425   1.726   3.231  11.070 -0.4046 -1.0680 -0.0869
  917MPD2     H13426   1.871   3.366  11.396 -0.4853  0.0534  0.0907
  917MPD2    H113427   1.880   3.338  10.972 -0.9140 -0.5575 -0.4973
  917MPD2    H213428   1.594   3.113  11.174 -1.2784  0.6054 -0.2665
  917MPD2    H313429   1.688   3.193  10.976 -1.3776  0.4185 -0.3072
  917MPD2     N13430   1.984   3.462  11.181 -0.1490 -0.1704  0.5125
  917MPD2    H513431   2.013   3.494  11.090  0.3321 -0.1795  0.6636
  917MPD2    N113432   1.668   3.173  11.433  0.5960 -0.0956  0.4706
  917MPD2    H713433   1.606   3.095  11.414  0.9300 -0.8128  2.3522
  918MPD2     C13434   1.943   3.313  12.378 -0.4351 -0.8307 -0.2793
  918MPD2    C113435   2.016   3.300  12.256 -0.1862  0.2136 -0.3859
  918MPD2    C213436   1.936   3.281  12.145  0.1827  0.1190  0.2714
  918MPD2    C313437   1.804   3.272  12.158  0.1021 -0.9740 -0.7992
  918MPD2    C413438   1.741   3.278  12.279  0.3211  0.3807  0.1781
  918MPD2    C513439   1.809   3.297  12.387 -0.0037  0.6898  0.3052
  918MPD2     H13440   1.978   3.244  12.051 -0.5364 -2.4547  0.9722
  918MPD2    H113441   1.634   3.264  12.294  0.4292  0.0271  0.6485
  918MPD2    H213442   1.999   3.332  12.469 -3.0074  0.9292  0.9346
  918MPD2    H313443   1.762   3.291  12.485 -1.4042 -1.5356 -0.5000
  918MPD2     N13444   1.740   3.243  12.037 -0.0749  0.0751  0.1388
  918MPD2    H513445   1.783   3.271  11.949  1.0260  1.1806  1.0310
  918MPD2    N113446   2.156   3.292  12.252 -0.0411  0.1618 -0.5615
  918MPD2    H713447   2.192   3.293  12.157 -1.3623  0.3047 -1.0594
  919MPD2     C13448   2.246   1.773  11.994 -0.2088  0.6589  0.5962
  919MPD2    C113449   2.137   1.717  11.934  0.6513 -0.3661 -0.1787
  919MPD2    C213450   2.117   1.732  11.800 -0.1859  0.0983  0.1550
  919MPD2    C313451   2.192   1.820  11.719 -0.1070 -0.3063 -0.7708
  919MPD2    C413452   2.301   1.887  11.782 -0.0308 -0.4437  0.0493
  919MPD2    C513453   2.328   1.853  11.916 -0.5273 -0.0584  0.6140
  919MPD2     H13454   2.040   1.667  11.759  0.5936 -0.3021 -0.6864
  919MPD2    H113455   2.367   1.955  11.728 -0.9004 -0.5658 -1.1668
  919MPD2    H213456   2.269   1.764  12.099  1.5955 -1.9971 -0.0092
  919MPD2    H313457   2.404   1.910  11.968 -1.0289  0.4433  0.7989
  919MPD2     N13458   2.156   1.844  11.581  0.2399 -0.7320  0.7983
  919MPD2    H513459   2.219   1.905  11.530  1.8167 -1.9525  1.2879
  919MPD2    N113460   2.047   1.628  11.994 -0.0665 -0.3399 -0.2889
  919MPD2    H713461   1.981   1.585  11.931 -0.6801  1.3338 -0.7969
  920MPD2     C13462   2.034   2.609  10.985  0.3146 -0.4965 -0.2340
  920MPD2    C113463   1.956   2.532  10.906 -0.5891  0.1599 -0.0593
  920MPD2    C213464   1.927   2.401  10.944  0.9121  0.0067 -0.3409
  920MPD2    C313465   1.979   2.347  11.070  0.1470  0.4051  0.3236
  920MPD2    C413466   2.060   2.432  11.142  0.4510  0.6653  0.0052
  920MPD2    C513467   2.083   2.561  11.099 -0.4265  1.1737 -0.6567
  920MPD2     H13468   1.872   2.327  10.887 -0.8446 -1.1704  2.8347
  920MPD2    H113469   2.109   2.417  11.237  1.4412 -1.7745 -0.8847
  920MPD2    H213470   2.065   2.711  10.963 -0.5299 -0.3485 -0.7578
  920MPD2    H313471   2.137   2.628  11.165  0.0717  3.6912 -3.6535
  920MPD2     N13472   1.947   2.217  11.109  0.3222 -0.2055 -0.2172
  920MPD2    H513473   1.863   2.171  11.074  0.3619 -0.5918  0.1901
  920MPD2    N113474   1.913   2.575  10.778 -0.3499 -0.0044  0.1453
  920MPD2    H713475   1.851   2.511  10.729 -0.5479  0.2848  0.0177
  921MPD2     C13476   3.233   0.629  17.568  0.0214  0.2374  0.2483
  921MPD2    C113477   3.250   0.566  17.442  0.0711  0.2936 -0.5875
  921MPD2    C213478   3.173   0.601  17.335 -0.6276  0.2949  0.2912
  921MPD2    C313479   3.075   0.708  17.345 -0.1157 -0.1136  0.0589
  921MPD2    C413480   3.057   0.772  17.469 -0.3315 -0.5868  0.3334
  921MPD2    C513481   3.139   0.728  17.574 -0.0649 -0.0067 -0.4224
  921MPD2     H13482   3.186   0.554  17.238 -2.8866 -0.1421  0.1820
  921MPD2    H113483   2.981   0.849  17.474 -0.3430 -0.4429 -2.3771
  921MPD2    H213484   3.287   0.581  17.649 -1.1310 -2.5612 -0.6230
  921MPD2    H313485   3.119   0.770  17.672 -0.4002 -2.7206  0.6734
  921MPD2     N13486   2.998   0.756  17.238  0.3376  0.6862 -0.2253
  921MPD2    H513487   2.909   0.800  17.258 -0.0780 -0.2933  0.0818
  921MPD2    N113488   3.357   0.469  17.437  0.4698 -0.0579  0.4214
  921MPD2    H713489   3.436   0.468  17.501 -0.5786  0.1314  1.7065
  922MPD2     C13490   4.161   3.707  17.043 -0.1716  0.5914  0.8427
  922MPD2    C113491   4.209   3.752  17.165 -0.1174 -0.1602  0.5818
  922MPD2    C213492   4.147   3.711  17.285  0.4371 -0.4000  0.7073
  922MPD2    C313493   4.043   3.623  17.282  0.0009  0.1196  0.1513
  922MPD2    C413494   3.996   3.574  17.165  0.0872 -0.4894  0.5867
  922MPD2    C513495   4.056   3.617  17.049  0.2679  0.3296  0.4279
  922MPD2     H13496   4.194   3.742  17.378 -0.8635  0.7853  0.9778
  922MPD2    H113497   3.921   3.496  17.158 -2.2916  1.9916 -1.9523
  922MPD2    H213498   4.204   3.724  16.946 -0.1632  0.3015  0.7952
  922MPD2    H313499   4.022   3.572  16.957 -1.8382  0.8319  0.9513
  922MPD2     N13500   3.987   3.566  17.402  0.3598 -0.0806  0.2608
  922MPD2    H513501   3.894   3.527  17.386  0.8735 -1.5520  0.8367
  922MPD2    N113502   4.330   3.822  17.173 -0.5367  0.0276 -0.4833
  922MPD2    H713503   4.350   3.856  17.266 -1.8286 -0.9838  0.1624
  923MPD2     C13504   0.941   0.522  10.324  0.3729 -0.6328 -0.0390
  923MPD2    C113505   0.812   0.531  10.278 -0.8036  1.0869 -0.2744
  923MPD2    C213506   0.752   0.659  10.279  0.0785  0.0651 -0.1125
  923MPD2    C313507   0.820   0.768  10.327 -0.2470 -0.0303  0.0338
  923MPD2    C413508   0.952   0.751  10.369  0.5412 -0.2404  0.6179
  923MPD2    C513509   1.009   0.632  10.370 -0.3291  0.1646  0.4105
  923MPD2     H13510   0.657   0.678  10.231 -0.2075 -1.7033 -0.2315
  923MPD2    H113511   1.015   0.837  10.389 -0.3273  0.5647 -0.1180
  923MPD2    H213512   0.992   0.428  10.313  1.7903  0.3161 -1.6017
  923MPD2    H313513   1.115   0.625  10.393 -0.5722  0.7137  1.6604
  923MPD2     N13514   0.759   0.892  10.348  0.0719  0.9533 -0.1585
  923MPD2    H513515   0.819   0.964  10.387  0.8040 -0.1101  0.7025
  923MPD2    N113516   0.756   0.419  10.226  0.5494 -0.5444  0.5772
  923MPD2    H713517   0.815   0.337  10.212 -0.3834 -1.2571  0.7862
  924MPD2     C13518   0.118   3.753  15.765  0.3129 -0.1741  0.2556
  924MPD2    C113519   0.121   3.838  15.873 -0.1826 -0.0335 -0.5595
  924MPD2    C213520   0.207   3.944  15.875  0.3196  0.0009 -0.4735
  924MPD2    C313521   0.294   3.976  15.775 -0.4880  0.2485 -0.1187
  924MPD2    C413522   0.281   3.897  15.664  0.2947 -0.3328  0.7562
  924MPD2    C513523   0.207   3.782  15.664 -0.4545  0.0272 -0.4100
  924MPD2     H13524   0.209   4.014  15.957 -1.5806 -0.6540  0.1456
  924MPD2    H113525   0.329   3.911  15.567 -0.3804  1.3982  0.6732
  924MPD2    H213526   0.052   3.667  15.759  1.1800 -0.7983 -0.3243
  924MPD2    H313527   0.231   3.707  15.591 -1.3681  1.0428 -1.7505
  924MPD2     N13528   0.363   4.101  15.776 -0.0282 -0.8242  0.2160
  924MPD2    H513529   0.400   4.132  15.687 -1.3743  0.6236  0.1489
  924MPD2    N113530   0.031   3.807  15.980 -0.2597 -0.7402  0.1061
  924MPD2    H713531   4.672   3.756  15.955  1.2060 -3.0958  0.0404
  925MPD2     C13532   4.058   1.799  15.363  0.1509  0.7780  0.2896
  925MPD2    C113533   3.949   1.752  15.304 -0.0135 -0.5615 -0.3753
  925MPD2    C213534   3.845   1.707  15.384  0.4282  0.1328 -0.4574
  925MPD2    C313535   3.857   1.725  15.519 -0.2601  0.1919  0.4601
  925MPD2    C413536   3.962   1.790  15.582 -0.6772 -0.1572 -0.2199
  925MPD2    C513537   4.063   1.820  15.502  0.1123  0.5042 -0.2884
  925MPD2     H13538   3.758   1.666  15.335 -1.1321  1.9834  0.7819
  925MPD2    H113539   3.974   1.800  15.689  1.6417 -2.9256 -0.2182
  925MPD2    H213540   4.144   1.842  15.311  0.6278 -0.5195  0.0002
  925MPD2    H313541   4.150   1.862  15.550 -1.5341  1.5565  1.7427
  925MPD2     N13542   3.756   1.680  15.604 -0.5889 -0.2595 -0.6353
  925MPD2    H513543   3.777   1.673  15.703  0.7774 -0.0775 -0.9158
  925MPD2    N113544   3.936   1.738  15.167 -0.3599 -0.5129 -0.2410
  925MPD2    H713545   3.841   1.705  15.154 -0.4625 -0.3848  0.1595
  926MPD2     C13546   2.322   0.015  13.254 -0.4562  0.7403 -0.5639
  926MPD2    C113547   2.325   0.144  13.287 -0.5757 -0.0604 -0.2560
  926MPD2    C213548   2.389   0.236  13.214  0.5393 -0.1561  0.0243
  926MPD2    C313549   2.448   0.196  13.097 -1.3481 -0.0823 -0.1275
  926MPD2    C413550   2.441   0.068  13.053 -0.4350  0.0900  0.7116
  926MPD2    C513551   2.383   4.698  13.134 -0.0481 -0.4737  0.3356
  926MPD2     H13552   2.392   0.339  13.247  0.2867 -0.6294  1.5243
  926MPD2    H113553   2.485   0.038  12.959  0.8669 -2.7632  2.2155
  926MPD2    H213554   2.294   4.661  13.321 -2.3099  1.2824 -0.7027
  926MPD2    H313555   2.378   4.594  13.104  2.9241 -0.7980  0.9972
  926MPD2     N13556   2.512   0.286  13.013  0.1954  0.3935  0.2181
  926MPD2    H513557   2.541   0.259  12.920 -1.1509 -0.6738  0.1082
  926MPD2    N113558   2.275   0.187  13.409 -0.2012 -0.0544  0.3569
  926MPD2    H713559   2.289   0.286  13.424  0.7707 -0.3092  1.0458
  927MPD2     C13560   2.049   2.320   0.203 -0.1420  0.1646 -0.1269
  927MPD2    C113561   2.110   2.198   0.200  0.0507 -0.7995 -0.8638
  927MPD2    C213562   2.223   2.181   0.121  0.0398 -0.0684  0.3899
  927MPD2    C313563   2.283   2.286   0.055 -0.4254  0.1309  0.0375
  927MPD2    C413564   2.225   2.408   0.063 -0.3197  0.4129  0.5416
  927MPD2    C513565   2.108   2.426   0.139  0.6249 -0.2141 -0.3143
  927MPD2     H13566   2.262   2.080   0.125 -0.6090 -0.3491 -0.3678
  927MPD2    H113567   2.282   2.490   0.019 -1.2372 -1.6552 -4.4668
  927MPD2    H213568   1.954   2.325   0.255  0.2395  2.3780  0.3444
  927MPD2    H313569   2.059   2.520   0.120 -0.4442  0.0859  3.9661
  927MPD2     N13570   2.390   2.257  17.671  0.0904 -0.4307  0.1024
  927MPD2    H513571   2.418   2.161  17.652 -4.4650 -1.2275 -2.7017
  927MPD2    N113572   2.041   2.097   0.266 -0.1811  0.6700  0.9507
  927MPD2    H713573   1.958   2.126   0.317 -1.6033 -1.8177  0.0531
  928MPD2     C13574   4.722   0.214   0.959 -0.0073 -0.0266 -0.0127
  928MPD2    C113575   4.719   0.334   1.003 -0.2235  0.0343  0.8135
  928MPD2    C213576   0.092   0.431   0.967 -0.5632  0.1112 -0.6235
  928MPD2    C313577   0.166   0.407   0.851 -0.5723  0.2092  0.4500
  928MPD2    C413578   0.142   0.281   0.782 -0.2939  0.2746 -0.3888
  928MPD2    C513579   0.074   0.185   0.848  0.4735 -0.8933  0.2130
  928MPD2     H13580   0.101   0.525   1.021 -0.3002 -0.7642  0.8447
  928MPD2    H113581   0.193   0.262   0.688  0.8545 -0.2482  0.3432
  928MPD2    H213582   4.652   0.142   1.000 -1.8527  2.0123  0.4479
  928MPD2    H313583   0.051   0.086   0.812  1.3432 -1.3286  0.8402
  928MPD2     N13584   0.254   0.498   0.788  0.4259 -1.0536  0.1219
  928MPD2    H513585   0.277   0.477   0.692  3.6153 -1.1689  0.9234
  928MPD2    N113586   4.634   0.360   1.110  0.1710 -0.7325  0.0601
  928MPD2    H713587   4.591   0.275   1.146  2.2090 -1.0895  1.6554
  929MPD2     C13588   0.293   0.676  10.166  0.0030  0.5340  0.0434
  929MPD2    C113589   0.176   0.663  10.241 -0.3484 -0.1523  0.9134
  929MPD2    C213590   0.060   0.715  10.185 -0.2236 -0.6292  0.6749
  929MPD2    C313591   0.051   0.758  10.057  0.3541  0.0321  1.1799
  929MPD2    C413592   0.169   0.786   9.992 -0.5092 -0.0402  0.6150
  929MPD2    C513593   0.286   0.749  10.044 -0.0565 -0.3973  0.1385
  929MPD2     H13594   4.688   0.700  10.231  0.0803 -0.3003  1.4212
  929MPD2    H113595   0.173   0.822   9.890 -0.9250  1.9466  1.3060
  929MPD2    H213596   0.393   0.647  10.196  0.2086 -0.9007 -2.0507
  929MPD2    H313597   0.378   0.769   9.990 -0.9001 -1.1144 -1.5808
  929MPD2     N13598   4.660   0.798   9.989 -0.4619  0.0293 -0.4950
  929MPD2    H513599   4.673   0.842   9.898  4.5620 -0.4688  0.0082
  929MPD2    N113600   0.180   0.597  10.366 -0.4610 -0.4146 -0.1020
  929MPD2    H713601   0.271   0.585  10.409  0.0526  1.2172 -0.7646
  930MPD2     C13602   2.192   2.931  14.143 -0.7218  0.4291 -0.2740
  930MPD2    C113603   2.296   2.954  14.052  0.0461 -0.7348 -0.5616
  930MPD2    C213604   2.346   2.854  13.975 -0.5764  0.3515  0.3361
  930MPD2    C313605   2.276   2.737  13.977 -0.0008  0.2819  0.3664
  930MPD2    C413606   2.159   2.716  14.049 -0.3488  0.0363 -0.7634
  930MPD2    C513607   2.126   2.811  14.144  0.3900  0.4161  0.1969
  930MPD2     H13608   2.429   2.863  13.906  0.1324 -1.4355  0.9417
  930MPD2    H113609   2.099   2.626  14.055  1.0608 -0.8971 -0.6431
  930MPD2    H213610   2.148   3.015  14.196 -1.9644  0.3553 -1.1695
  930MPD2    H313611   2.045   2.786  14.211 -0.0707  0.1452 -0.4577
  930MPD2     N13612   2.303   2.630  13.890  0.8564  0.1425  0.3155
  930MPD2    H513613   2.224   2.567  13.888  1.1114 -0.1480 -0.5063
  930MPD2    N113614   2.342   3.087  14.056  0.3775  0.3974 -1.0349
  930MPD2    H713615   2.302   3.155  14.120 -0.4511 -0.6923 -0.3916
  931MPD2     C13616   2.265   1.387   0.525 -0.2202 -0.6867 -0.2726
  931MPD2    C113617   2.157   1.437   0.597  0.2289 -0.8934  0.0526
  931MPD2    C213618   2.136   1.378   0.724  0.2554 -0.6863  0.7356
  931MPD2    C313619   2.207   1.270   0.770 -0.6359  0.4989 -0.0193
  931MPD2    C413620   2.322   1.235   0.702 -0.4391  0.4258  0.5266
  931MPD2    C513621   2.346   1.292   0.579 -0.0508  0.2975  0.0204
  931MPD2     H13622   2.051   1.413   0.781 -0.3531  0.0802 -0.6354
  931MPD2    H113623   2.399   1.163   0.727 -2.2697 -1.1355  1.6482
  931MPD2    H213624   2.293   1.441   0.435 -2.0980 -0.2891 -0.6196
  931MPD2    H313625   2.438   1.261   0.530 -0.8601 -2.4521  0.2762
  931MPD2     N13626   2.170   1.211   0.895  0.0686 -0.4337  0.1515
  931MPD2    H513627   2.243   1.160   0.943 -1.9000 -2.1918  1.3149
  931MPD2    N113628   2.084   1.546   0.549 -0.2563 -0.3623 -0.0675
  931MPD2    H713629   2.111   1.578   0.457  1.4742 -0.5660  0.3761
  932MPD2     C13630   3.664   1.064  10.629 -0.4771 -0.6755  0.9201
  932MPD2    C113631   3.709   1.152  10.721 -0.7818  0.0229  0.3715
  932MPD2    C213632   3.796   1.105  10.821 -0.3785  0.1041  0.2757
  932MPD2    C313633   3.843   0.978  10.819  0.3387  0.2884  0.1027
  932MPD2    C413634   3.802   0.895  10.725  0.0523  0.0216 -0.4713
  932MPD2    C513635   3.712   0.939  10.632  0.2414 -0.6692  0.6253
  932MPD2     H13636   3.829   1.178  10.894 -2.1522  0.3363  0.8662
  932MPD2    H113637   3.848   0.797  10.719  1.3924  0.6841 -1.0046
  932MPD2    H213638   3.587   1.096  10.560  0.0247 -0.4462  0.4682
  932MPD2    H313639   3.687   0.886  10.541  1.1606 -0.3932  0.2128
  932MPD2     N13640   3.954   0.931  10.900  0.9430  0.1206 -0.2594
  932MPD2    H513641   3.979   0.832  10.895  1.7902  0.3415 -0.3427
  932MPD2    N113642   3.681   1.293  10.713 -0.1860  0.0538 -0.0175
  932MPD2    H713643   3.723   1.356  10.780  0.4512  0.4729 -0.8024
  933MPD2     C13644   4.053   0.700   1.708 -0.0287 -0.2816 -0.2147
  933MPD2    C113645   4.157   0.762   1.637 -0.0570  0.3251 -0.3049
  933MPD2    C213646   4.157   0.898   1.629 -0.1592 -0.1854 -0.7186
  933MPD2    C313647   4.054   0.969   1.673 -0.1103  1.2957  0.2409
  933MPD2    C413648   3.946   0.907   1.737  0.3309  0.7298  0.1882
  933MPD2    C513649   3.950   0.775   1.760  0.1053  0.6450 -1.0032
  933MPD2     H13650   4.232   0.950   1.571 -1.3079  2.6998  0.3981
  933MPD2    H113651   3.868   0.968   1.781  0.6367  2.0506 -1.0860
  933MPD2    H213652   4.050   0.592   1.711 -2.2928 -0.1793  0.9650
  933MPD2    H313653   3.884   0.732   1.834  1.5977 -1.2072 -0.7470
  933MPD2     N13654   4.058   1.110   1.659  0.1207 -0.7103 -0.6547
  933MPD2    H513655   4.140   1.139   1.607  1.0713 -1.3342  0.4867
  933MPD2    N113656   4.268   0.681   1.606 -0.4434  0.5163 -0.0939
  933MPD2    H713657   4.262   0.587   1.646  0.9255  0.4322 -0.0959
  934MPD2     C13658   1.405   3.073   2.066  0.7298  0.0351  0.3479
  934MPD2    C113659   1.424   2.938   2.036  0.9012 -0.5274  0.1352
  934MPD2    C213660   1.337   2.879   1.953  0.6180  0.1089 -0.5627
  934MPD2    C313661   1.218   2.941   1.912 -1.1348 -0.9494 -0.4745
  934MPD2    C413662   1.196   3.074   1.951  0.3092 -0.6182 -0.7258
  934MPD2    C513663   1.295   3.141   2.021  0.6875  0.0728 -0.9581
  934MPD2     H13664   1.360   2.776   1.928 -1.0108 -0.2915 -0.4633
  934MPD2    H113665   1.103   3.124   1.926  0.9491  0.1695 -1.4898
  934MPD2    H213666   1.475   3.128   2.128  0.7150 -0.8874  1.1809
  934MPD2    H313667   1.273   3.242   2.056 -1.9787 -0.6507 -0.5827
  934MPD2     N13668   1.121   2.883   1.827 -0.3527  0.5464 -0.0266
  934MPD2    H513669   1.052   2.952   1.797 -1.3873 -0.1120  0.8428
  934MPD2    N113670   1.532   2.862   2.084  0.3602 -0.3468  0.1081
  934MPD2    H713671   1.529   2.769   2.044 -0.8535  1.1802 -3.4283
  935MPD2     C13672   1.159   2.020   1.402  0.9168 -0.1198  0.0052
  935MPD2    C113673   1.067   2.073   1.319 -0.1913  0.4811 -0.4164
  935MPD2    C213674   1.000   2.189   1.364  0.1887 -0.7961  0.7650
  935MPD2    C313675   1.035   2.246   1.489  0.4703  0.1971 -0.2476
  935MPD2    C413676   1.130   2.186   1.566  0.1317 -1.0226  0.4822
  935MPD2    C513677   1.189   2.073   1.524 -0.4487 -0.0300 -0.0351
  935MPD2     H13678   0.936   2.244   1.297 -0.3585 -2.1423  0.1739
  935MPD2    H113679   1.157   2.241   1.656  0.5187  3.0979 -2.1301
  935MPD2    H213680   1.225   1.943   1.364 -0.9969 -1.7620 -0.0018
  935MPD2    H313681   1.260   2.015   1.581 -0.4193  0.9608  0.9271
  935MPD2     N13682   0.996   2.373   1.527 -0.4950  0.3226 -0.1075
  935MPD2    H513683   1.036   2.418   1.608  0.8611  0.4078 -0.8374
  935MPD2    N113684   1.039   2.022   1.187  0.8207  0.0081  0.5132
  935MPD2    H713685   0.974   2.072   1.126 -1.2480  0.5133  3.1274
  936MPD2     C13686   4.327   4.308  12.740 -0.2385  0.5246  0.2622
  936MPD2    C113687   4.256   4.395  12.659  0.5010  0.1181 -0.4783
  936MPD2    C213688   4.311   4.450  12.547 -0.2090 -0.1586  0.2933
  936MPD2    C313689   4.442   4.430  12.521 -0.1609 -0.3082  0.4835
  936MPD2    C413690   4.514   4.335  12.592 -0.3119  0.3718  0.0299
  936MPD2    C513691   4.457   4.282  12.711  0.6978  0.2888 -0.4814
  936MPD2     H13692   4.250   4.513  12.483  0.7279  2.2731  1.7994
  936MPD2    H113693   4.614   4.306  12.563 -1.9215 -1.3739 -3.8935
  936MPD2    H213694   4.282   4.268  12.830  0.1203  1.9136  1.0479
  936MPD2    H313695   4.527   4.224  12.769  0.7056  0.5382 -0.2411
  936MPD2     N13696   4.493   4.514  12.423  0.2546  0.3033 -0.7247
  936MPD2    H513697   4.431   4.589  12.395 -0.3608 -0.5245 -1.5544
  936MPD2    N113698   4.130   4.442  12.695  0.1429 -0.3766 -0.3028
  936MPD2    H713699   4.090   4.506  12.627 -0.8610 -2.9300 -2.1196
  937MPD2     C13700   1.969   0.941  11.818 -1.0293  0.8306  0.4549
  937MPD2    C113701   2.025   1.064  11.826 -0.1318 -0.6786  0.0992
  937MPD2    C213702   2.102   1.107  11.718 -0.0377 -0.6231 -0.0225
  937MPD2    C313703   2.145   1.018  11.621 -0.5178  0.1114  0.1931
  937MPD2    C413704   2.104   0.886  11.627  0.1716  0.1145 -0.1231
  937MPD2    C513705   2.017   0.852  11.727 -0.1259  0.1710 -0.3841
  937MPD2     H13706   2.139   1.210  11.718 -0.1847 -0.5778 -1.8166
  937MPD2    H113707   2.135   0.810  11.557 -4.3060 -1.4039 -0.4664
  937MPD2    H213708   1.904   0.902  11.895  1.7357 -0.5031  2.1313
  937MPD2    H313709   1.979   0.751  11.729  0.0965  0.1053  0.5838
  937MPD2     N13710   2.231   1.069  11.521  0.1690  0.2952  0.2800
  937MPD2    H513711   2.254   1.168  11.517 -0.4469  0.4530  0.7059
  937MPD2    N113712   1.982   1.170  11.910  0.0275  0.0894 -0.2878
  937MPD2    H713713   2.015   1.264  11.891 -0.3878 -0.1149 -1.9885
  938MPD2     C13714   0.337   1.709   1.255  0.2572  0.3077 -0.0164
  938MPD2    C113715   0.289   1.836   1.271 -0.3914  0.7877 -0.2135
  938MPD2    C213716   0.290   1.898   1.395  0.2168  0.8827  1.0501
  938MPD2    C313717   0.329   1.824   1.504  0.6848 -0.0254 -0.1420
  938MPD2    C413718   0.358   1.689   1.492  0.1982 -0.1894  0.2459
  938MPD2    C513719   0.366   1.640   1.366  0.0234 -0.0612  0.6172
  938MPD2     H13720   0.271   2.004   1.413  3.2773  1.3846  1.3568
  938MPD2    H113721   0.377   1.623   1.576 -0.8392  1.1254  1.5221
  938MPD2    H213722   0.361   1.654   1.165 -1.9681 -0.6735 -0.0029
  938MPD2    H313723   0.390   1.534   1.358 -2.4902 -0.5438 -0.5747
  938MPD2     N13724   0.340   1.870   1.637  0.1291 -0.1427 -0.6803
  938MPD2    H513725   0.387   1.807   1.701 -0.9440 -0.5941 -0.3315
  938MPD2    N113726   0.245   1.909   1.162 -0.2813 -0.8077  0.0878
  938MPD2    H713727   0.227   2.007   1.177  2.0616 -0.4663  0.5609
  939MPD2     C13728   1.263   3.224   1.206  0.0013  0.1386 -0.6000
  939MPD2    C113729   1.224   3.355   1.191 -0.1468 -0.1019  0.2005
  939MPD2    C213730   1.276   3.430   1.085  0.0681 -0.8754 -0.4999
  939MPD2    C313731   1.355   3.373   0.985  0.1640 -0.2400 -0.0122
  939MPD2    C413732   1.390   3.239   1.004  0.8874  0.5142  0.4558
  939MPD2    C513733   1.338   3.166   1.106  0.2705  0.0734  0.0564
  939MPD2     H13734   1.242   3.533   1.074  1.1361 -0.2998  1.5907
  939MPD2    H113735   1.460   3.188   0.940  0.8576  1.1261 -0.0646
  939MPD2    H213736   1.228   3.156   1.283  0.0249  0.5108 -0.2643
  939MPD2    H313737   1.382   3.069   1.123  1.5276  0.4915 -0.7749
  939MPD2     N13738   1.410   3.454   0.883 -0.5046 -0.4722  0.1884
  939MPD2    H513739   1.389   3.553   0.876  0.1446 -0.3631 -0.2092
  939MPD2    N113740   1.133   3.407   1.289  0.0183  0.3511 -0.1445
  939MPD2    H713741   1.120   3.350   1.371  0.1167 -0.3798 -0.6311
  940MPD2     C13742   0.000   0.282  12.986 -0.2532 -0.1719  0.6608
  940MPD2    C113743   0.120   0.288  13.061 -0.6490  0.2225 -0.8534
  940MPD2    C213744   0.233   0.230  13.007  0.0655 -0.7903  0.0600
  940MPD2    C313745   0.236   0.177  12.884  0.1847  0.1975  0.8080
  940MPD2    C413746   0.118   0.167  12.810  0.4501 -0.3388 -0.3364
  940MPD2    C513747   0.001   0.221  12.865 -0.1973 -0.1514  0.7922
  940MPD2     H13748   0.327   0.228  13.061 -0.4234 -2.2486  0.8430
  940MPD2    H113749   0.118   0.123  12.711 -2.1616  0.8468 -0.8724
  940MPD2    H213750   4.633   0.323  13.023 -1.0452 -0.8975 -0.4990
  940MPD2    H313751   4.637   0.200  12.808  1.7608 -0.5767 -2.1769
  940MPD2     N13752   0.352   0.114  12.829  0.0079 -0.0054  0.2170
  940MPD2    H513753   0.337   0.059  12.745 -2.5482 -2.2526  2.1457
  940MPD2    N113754   0.135   0.354  13.187 -0.3465  0.2749  0.7538
  940MPD2    H713755   0.229   0.355  13.225 -0.8105  1.7495  1.8494
  941MPD2     C13756   4.333   3.995   9.480  0.1440  0.6333  0.2698
  941MPD2    C113757   4.450   3.939   9.530 -0.1752  0.2293 -0.3017
  941MPD2    C213758   4.443   3.845   9.630  0.6099 -0.5384 -0.4961
  941MPD2    C313759   4.321   3.802   9.676 -0.1384  0.6284 -0.2651
  941MPD2    C413760   4.205   3.866   9.631 -0.1220  0.0785 -0.3216
  941MPD2    C513761   4.214   3.960   9.534  0.1596 -0.4513  0.1479
  941MPD2     H13762   4.527   3.790   9.670  0.6689  1.1817  1.7377
  941MPD2    H113763   4.112   3.827   9.670 -0.3075 -1.1084 -1.9529
  941MPD2    H213764   4.323   4.071   9.404  1.6219  0.0313 -0.5193
  941MPD2    H313765   4.120   3.999   9.498  0.0983  0.5605  1.3845
  941MPD2     N13766   4.306   3.689   9.756 -0.3926 -0.0325  0.8267
  941MPD2    H513767   4.208   3.669   9.772 -0.2923 -1.3328 -0.2445
  941MPD2    N113768   4.580   3.973   9.481  0.0656 -0.2133 -0.5133
  941MPD2    H713769   4.657   3.945   9.541  0.3598  0.4161 -0.5953
  942MPD2     C13770   3.694   4.654   9.928  0.3961  0.5708  0.0825
  942MPD2    C113771   3.742   4.590   9.817 -0.1034 -0.4959  0.0537
  942MPD2    C213772   3.879   4.576   9.809  0.0353  0.0195 -0.2609
  942MPD2    C313773   3.968   4.619   9.904 -0.0093 -0.4737  0.0379
  942MPD2    C413774   3.923   4.695  10.009 -0.3356 -0.7607  0.1687
  942MPD2    C513775   3.790   4.709  10.012 -0.0324 -0.3684 -1.0969
  942MPD2     H13776   3.907   4.524   9.718  0.7358  0.7493 -0.4595
  942MPD2    H113777   3.995   0.002  10.083  1.2734 -0.7601 -1.3876
  942MPD2    H213778   3.589   4.674   9.951  0.3881 -0.6464  1.0862
  942MPD2    H313779   3.745   0.042  10.092  0.1161 -0.3758 -1.0072
  942MPD2     N13780   4.106   4.611   9.892  0.3651 -0.4980  0.6167
  942MPD2    H513781   4.157   4.683   9.942  0.4566 -0.2754  0.2047
  942MPD2    N113782   3.667   4.550   9.706  0.1966 -0.3883  0.2077
  942MPD2    H713783   3.715   4.489   9.642  0.2811  0.5783 -0.6609
  943MPD2     C13784   3.661   2.549  10.397  0.8874 -0.3970  1.0650
  943MPD2    C113785   3.524   2.569  10.408 -0.6663  0.2126 -0.1923
  943MPD2    C213786   3.457   2.563  10.296 -0.0408 -0.2997 -0.9699
  943MPD2    C313787   3.512   2.533  10.174  0.8497 -0.5409  0.7488
  943MPD2    C413788   3.642   2.507  10.168 -0.6071 -0.0241  0.4862
  943MPD2    C513789   3.723   2.527  10.274  0.1492 -0.9959 -0.2732
  943MPD2     H13790   3.352   2.586  10.303  0.3980  1.4125 -0.0583
  943MPD2    H113791   3.693   2.491  10.073 -2.3329  1.5347 -0.7081
  943MPD2    H213792   3.722   2.562  10.486 -0.3434  2.8657  1.4301
  943MPD2    H313793   3.828   2.503  10.278  0.4610  0.2928 -0.9790
  943MPD2     N13794   3.439   2.537  10.050 -0.4899 -0.0054 -0.7193
  943MPD2    H513795   3.492   2.530   9.964  0.7102  4.2298 -0.2982
  943MPD2    N113796   3.470   2.597  10.537 -0.1081  0.0738 -0.3670
  943MPD2    H713797   3.539   2.592  10.611 -0.1630 -0.0952 -0.3262
  944MPD2     C13798   3.380   2.314  11.191 -0.2655 -0.5373 -0.5764
  944MPD2    C113799   3.289   2.321  11.085  0.6206  0.8072 -0.3379
  944MPD2    C213800   3.159   2.350  11.117 -0.0103  0.3711 -0.3603
  944MPD2    C313801   3.124   2.370  11.251 -0.5605  0.6431 -0.3149
  944MPD2    C413802   3.218   2.349  11.352  0.5683  0.4761  0.0033
  944MPD2    C513803   3.350   2.315  11.323 -0.2522  0.6001 -0.4172
  944MPD2     H13804   3.088   2.371  11.039  0.0957 -2.0382 -1.0858
  944MPD2    H113805   3.191   2.353  11.457  1.3702 -0.2989  0.2404
  944MPD2    H213806   3.487   2.300  11.182 -0.1280 -0.0455  0.2597
  944MPD2    H313807   3.429   2.304  11.396 -0.5551 -0.2652 -0.2275
  944MPD2     N13808   2.989   2.414  11.275  0.0638 -0.3769  0.3286
  944MPD2    H513809   2.930   2.421  11.192 -1.4385 -1.0603  1.3465
  944MPD2    N113810   3.334   2.310  10.956  0.4895 -0.1403  0.0578
  944MPD2    H713811   3.435   2.300  10.945  0.2968 -1.1071 -0.8933
    1TCq1    O113812   0.189   3.964  13.075 -0.2890 -0.6589 -0.3201
    1TCq1    C113813   0.313   3.956  13.133  0.4382  0.3751  0.4836
    1TCq1    O213814   0.409   4.020  13.104 -0.1229  0.7144 -0.4381
    1TCq1    C213815   0.303   3.866  13.250 -0.5833 -0.1998 -0.0815
    1TCq1    C313816   0.241   3.747  13.231  0.0307  0.2873  0.1855
    1TCq1    C413817   0.243   3.657  13.332 -0.1633  0.4000  0.6584
    1TCq1    C513818   0.307   3.687  13.449  0.3250  0.1736 -0.1945
    1TCq1    C613819   0.374   3.807  13.459 -0.6907  0.6041  0.0019
    1TCq1    C713820   0.374   3.902  13.368 -0.1318 -0.0999  0.4866
    1TCq1    C813821   0.458   3.845  13.568 -0.4598  0.7656  0.1836
    1TCq1    O413822   0.454   3.963  13.599 -0.0597  0.3424  0.6339
    1TCq1    C913823   0.179   3.523  13.318  0.3175  0.0160  0.0059
    1TCq1    O513824   0.237   3.426  13.379 -0.1344  0.7138 -0.5473
    1TCq1    O613825   0.076   3.521  13.245  0.3427 -0.4936 -0.0649
    1TCq1    H113826   0.116   3.945  13.138 -0.2335 -1.8658 -0.6191
    1TCq1    H213827   0.210   3.719  13.131 -0.0390  1.3153 -0.0753
    1TCq1    H313828   0.303   3.617  13.533 -0.3558  1.1067  0.5522
    1TCq1    H413829   0.411   4.003  13.372  0.2980 -0.1948 -0.9597
    2MPD2     C13830   0.808   3.757  13.933 -0.2155 -0.1556 -0.2161
    2MPD2    C113831   0.736   3.873  13.915  0.2400 -0.0873 -0.7980
    2MPD2    C213832   0.641   3.859  13.809  0.3428 -0.1276 -0.0899
    2MPD2    C313833   0.625   3.746  13.724  0.0395  0.6079  0.3298
    2MPD2    C413834   0.711   3.640  13.749  0.0511  0.1595  0.5689
    2MPD2    C513835   0.789   3.645  13.861 -0.4044  0.7497 -0.9293
    2MPD2     H13836   0.578   3.947  13.795  0.8375 -0.3254 -3.5757
    2MPD2    H113837   0.713   3.555  13.682 -1.9657  0.1418  0.5141
    2MPD2    H213838   0.885   3.752  14.010 -1.5763 -1.9972  1.0016
    2MPD2    H313839   0.874   3.580  13.876  0.7602  2.2156 -1.1713
    2MPD2     N13840   0.540   3.744  13.609  0.2744  0.3276  0.1893
    2MPD2    H513841   0.537   3.658  13.555 -1.6424  1.3082 -1.2044
    2MPD2    N113842   0.733   3.981  14.002 -0.1703 -0.2668  0.1141
    2MPD2    H713843   0.814   3.978  14.064  0.9781  2.9778 -1.2149
    3TMC2    C113844   0.697   4.195  14.096 -0.7007 -0.3493 -0.2962
    3TMC2    C213845   0.827   4.211  14.102 -0.2624  0.7722 -0.8400
    3TMC2    C313846   0.874   4.328  14.148  0.0115  0.1480 -1.1592
    3TMC2    C413847   0.609   4.287  14.140  0.0698 -0.0331 -0.2212
    3TMC2    C513848   0.653   4.409  14.188 -0.6387  0.5422 -0.4019
    3TMC2    C613849   0.787   4.429  14.193 -0.8644  0.4248 -0.4156
    3TMC2     C13850   0.641   4.083  14.013  0.5408 -0.1598 -0.2576
    3TMC2     O13851   0.541   4.107  13.950  0.0005  0.0997  0.2334
    3TMC2     H13852   0.895   4.148  14.046  1.2175 -1.3583  3.2922
    3TMC2    H113853   0.500   4.283  14.140  0.1762 -2.9478  1.9928
    3TMC2    H213854   0.818   4.522  14.241  1.5575 -0.5262 -0.1434
    3TMC2    C713855   0.563   4.508  14.233  0.0704  0.5427 -1.0187
    3TMC2    C813856   1.021   4.343  14.145  0.1026  0.1643  0.5981
    3TMC2    O113857   0.467   4.469  14.297 -0.0467 -0.0028  0.3549
    3TMC2    O213858   1.102   4.253  14.164  0.1914  0.2776 -0.1158
    3TMC2    O513859   1.050   4.474  14.148  0.2861  0.2086  0.4356
    3TMC2    H513860   0.965   4.521  14.131  0.4120  0.0208 -0.7024
    4MPD2     C13861   0.844   0.623  13.132 -0.0361 -0.3663 -0.7593
    4MPD2    C113862   0.732   0.554  13.164 -0.6555 -0.2618 -0.4356
    4MPD2    C213863   0.701   0.541  13.299 -0.4081  0.3237 -0.6803
    4MPD2    C313864   0.767   0.619  13.392  0.8323  0.7570  0.7770
    4MPD2    C413865   0.891   0.683  13.354 -1.1276  0.0829  0.0931
    4MPD2    C513866   0.921   0.688  13.223  0.4204  0.4478  0.2579
    4MPD2     H13867   0.613   0.482  13.322 -0.2913  0.1965 -0.5637
    4MPD2    H113868   0.961   0.735  13.418 -1.5404 -0.6170  1.1292
    4MPD2    H213869   0.879   0.637  13.031  0.5102  0.6830 -0.4198
    4MPD2    H313870   1.004   0.747  13.186  0.0133 -0.1163 -1.5429
    4MPD2     N13871   0.721   0.619  13.530 -0.3341 -0.7906  0.6780
    4MPD2    H513872   0.625   0.593  13.552 -1.2952  1.5572 -0.7804
    4MPD2    N113873   0.648   0.514  13.057 -0.5665  0.2875 -0.0697
    4MPD2    H713874   0.687   0.541  12.967 -1.9018  0.5864 -0.5582
    5TCq2    C113875   0.788   0.678  13.629  0.2122  0.4526  0.3784
    5TCq2    O213876   0.901   0.716  13.637 -0.4009 -0.2045 -0.0473
    5TCq2    C213877   0.731   0.665  13.763  0.5558  0.3442 -0.2635
    5TCq2    C313878   0.761   0.750  13.867  0.0836 -0.3515  0.0938
    5TCq2    C413879   0.721   0.723  13.997 -0.0896  0.5371 -0.0571
    5TCq2    C513880   0.674   0.602  14.029 -0.2743  0.5746 -0.0864
    5TCq2    C613881   0.635   0.519  13.927  0.0993 -0.5607 -0.5390
    5TCq2    C713882   0.669   0.544  13.794  0.5952 -0.5370 -0.1539
    5TCq2    C813883   0.582   0.389  13.954 -0.1673  0.6453  0.3383
    5TCq2    O413884   0.600   0.298  13.875  0.1928  0.3976  0.3482
    5TCq2    C913885   0.773   0.813  14.096  0.4222 -0.0824 -0.2875
    5TCq2    O513886   0.859   0.897  14.058 -0.0877  0.1763  0.3428
    5TCq2    O613887   0.730   0.801  14.216  0.5387 -0.2925 -0.3947
    5TCq2    H213888   0.830   0.832  13.847 -2.1474  1.7646  1.0898
    5TCq2    H313889   0.642   0.590  14.132  0.8244  0.2499  0.2234
    5TCq2    H413890   0.656   0.465  13.721 -0.9935 -0.8084  0.4231
    6MPD1     C13891   0.043   2.020  12.306 -0.2568 -0.8608  0.3230
    6MPD1    C113892   0.008   2.026  12.436  0.4237 -0.2669  0.4705
    6MPD1    C213893   0.001   1.903  12.501  0.3137 -1.4714  0.2800
    6MPD1    C313894   0.039   1.789  12.441 -0.1940 -0.1577  0.0436
    6MPD1    C413895   0.065   1.789  12.306 -0.2755  0.4876  0.2235
    6MPD1    C513896   0.066   1.907  12.238  0.4661  0.6323  0.3247
    6MPD1     H13897   4.705   1.900  12.607 -0.7275 -0.9988  0.0894
    6MPD1    H113898   0.086   1.699  12.249  1.5378 -0.3517  2.2531
    6MPD1    H213899   0.049   2.113  12.249 -0.6535  0.1806  1.9995
    6MPD1    H313900   0.086   1.915  12.131 -0.0157 -0.8494  0.1282
    6MPD1     N13901   0.051   1.667  12.518  0.0400  0.3879  0.2101
    6MPD1    H513902   0.089   1.589  12.466  0.2452  0.7967 -0.2543
    6MPD1    N113903   0.009   2.145  12.506  0.7805 -0.1918 -0.5168
    6MPD1    H613904   4.691   2.127  12.596 -0.0436 -1.0693 -1.0977
    6MPD1    H713905   4.686   2.223  12.462  0.2976 -0.7186 -0.8988
    7MPD2     C13906   4.656   1.019  13.095 -0.0486 -0.1235  0.1506
    7MPD2    C113907   4.722   1.023  12.976 -0.0511  0.0128 -0.9931
    7MPD2    C213908   0.049   0.906  12.925  0.5948  0.3770 -0.2225
    7MPD2    C313909   0.020   0.781  12.979 -0.1007  0.2318 -0.1743
    7MPD2    C413910   4.671   0.775  13.094  0.3001 -0.5050  0.3926
    7MPD2    C513911   4.631   0.894  13.152  0.4237  0.5283  0.5292
    7MPD2     H13912   0.126   0.911  12.848  1.1086 -2.3233  0.1179
    7MPD2    H113913   4.638   0.680  13.135  1.3321 -0.8952  0.3231
    7MPD2    H213914   4.629   1.113  13.143  1.5683  0.2003  0.4497
    7MPD2    H313915   4.591   0.891  13.252  3.6085 -0.0502  1.7705
    7MPD2     N13916   0.087   0.662  12.936  0.4251  0.0851  0.2184
    7MPD2    H513917   0.069   0.575  12.985 -0.2039  1.0365  1.6773
    7MPD2    N113918   0.047   1.138  12.922  0.2730  0.0436  0.4456
    7MPD2    H713919   0.096   1.120  12.835 -0.6358  1.2098 -0.3077
    8TMC3    C113920   0.249   0.532  12.824 -0.2816  0.4449 -0.0957
    8TMC3    C213921   0.311   0.512  12.937 -0.5778  0.1687 -0.3241
    8TMC3    C313922   0.444   0.480  12.940 -0.4622 -0.8793 -0.0507
    8TMC3    C413923   0.309   0.513  12.706  0.1618 -0.5382  0.5044
    8TMC3    C513924   0.446   0.490  12.711 -0.6642  0.5202  0.2609
    8TMC3    C613925   0.521   0.475  12.827  0.3487  0.3131  0.1987
    8TMC3     C13926   0.158   0.647  12.825  0.8410  0.1956  0.2072
    8TMC3     O13927   0.148   0.706  12.719  0.4886  0.4636  0.1980
    8TMC3     H13928   0.264   0.532  13.033 -0.6913 -3.2132  0.3028
    8TMC3    H113929   0.245   0.512  12.618  3.3694  1.0713 -1.8738
    8TMC3    H213930   0.628   0.463  12.826  0.4103  1.0028 -1.6822
    8TMC3    C713931   0.515   0.583  12.625 -0.1581  0.0365 -0.4591
    8TMC3    C813932   0.513   0.486  13.071  0.3189 -0.1748  0.4695
    8TMC3    O113933   0.639   0.577  12.632 -0.3046 -0.1543  0.4452
    8TMC3    O213934   0.442   0.482  13.171 -0.4790 -0.8122 -0.5708
    9TMC3    C113935   0.052   1.514  12.683  0.4307 -0.7475  0.2145
    9TMC3    C213936   0.152   1.455  12.610  0.4651 -0.4331 -0.2583
    9TMC3    C313937   0.229   1.353  12.673 -0.2962  0.1980 -0.2433
    9TMC3    C413938   0.009   1.465  12.803 -0.1418 -0.2092  0.2437
    9TMC3    C513939   0.082   1.360  12.856 -0.0278 -0.1627 -0.6132
    9TMC3    C613940   0.188   1.298  12.791 -0.1035  0.3044  0.4293
    9TMC3     C13941   4.722   1.639  12.642  0.4612 -0.3930 -0.0986
    9TMC3     O13942   4.681   1.714  12.729  0.4467  0.2052  0.3165
    9TMC3     H13943   0.188   1.476  12.510 -3.4204 -0.0164 -1.5807
    9TMC3    H113944   4.650   1.508  12.856 -0.7442 -0.7097 -0.2927
    9TMC3    H213945   0.251   1.223  12.837 -1.9601 -0.9304  0.9579
    9TMC3    C713946   0.013   1.272  12.949  0.6154  0.7000  0.2805
    9TMC3    C813947   0.327   1.285  12.589 -0.0311 -0.1615  0.4732
    9TMC3    O113948   4.658   1.309  13.037  0.3252 -0.2321 -0.2605
    9TMC3    O213949   0.411   1.356  12.537  0.3916  0.3446  0.1756
   10MPD2     C13950   0.601   0.847  12.520  0.3419 -0.7493  0.3154
   10MPD2    C113951   0.475   0.816  12.569  0.1503 -0.2216 -0.3177
   10MPD2    C213952   0.383   0.924  12.584  0.2669 -0.0427 -0.6177
   10MPD2    C313953   0.414   1.054  12.551  0.1308  0.0226 -0.6001
   10MPD2    C413954   0.546   1.082  12.500  0.4763  0.3083 -0.7694
   10MPD2    C513955   0.633   0.973  12.476  0.7188 -0.4812  0.6156
   10MPD2     H13956   0.287   0.894  12.624  1.8844 -2.1851  1.6424
   10MPD2    H113957   0.576   1.182  12.471  1.8882 -0.6869 -2.7578
   10MPD2    H213958   0.664   0.769  12.481 -2.1261 -1.8099 -1.5557
   10MPD2    H313959   0.732   0.994  12.438  0.4928 -1.3714 -0.4775
   10MPD2     N13960   0.321   1.151  12.591  0.5281  0.4541  0.7290
   10MPD2    H513961   0.235   1.110  12.625  0.5675  0.2694  0.6026
   10MPD2    N113962   0.431   0.689  12.606 -0.0388  0.4698 -0.2616
   10MPD2    H713963   0.332   0.682  12.628  0.7004 -3.2952  1.7333
   11MPD2     C13964   0.438   0.044  14.308  0.4511 -0.0615 -0.1625
   11MPD2    C113965   0.514   0.029  14.195 -0.1500  0.0196  0.1207
   11MPD2    C213966   0.541   0.139  14.118  0.9058  0.5214 -0.1696
   11MPD2    C313967   0.490   0.263  14.146  0.4744 -0.0756 -0.9229
   11MPD2    C413968   0.414   0.280  14.265 -0.4852  0.5975  0.1826
   11MPD2    C513969   0.388   0.172  14.345  0.1528 -0.4023 -0.6281
   11MPD2     H13970   0.604   0.139  14.030 -2.0698  0.9364 -2.3156
   11MPD2    H113971   0.362   0.372  14.288 -3.5719 -0.0189 -4.2372
   11MPD2    H213972   0.413   4.691  14.380  1.0455 -1.0360 -1.0317
   11MPD2    H313973   0.317   0.185  14.426 -2.7670  1.7528 -3.5706
   11MPD2     N13974   0.526   0.382  14.081 -0.3709 -0.0245 -0.1129
   11MPD2    H513975   0.496   0.468  14.124 -2.6300 -1.6716  1.6092
   11MPD2    N113976   0.571   4.623  14.156  0.2769 -0.1832 -0.6780
   11MPD2    H713977   0.625   4.635  14.070  1.6365  3.9724  0.7312
    1MPD1     C13978   2.914   2.245  17.506  0.0794 -0.0279 -0.3834
    1MPD1    C113979   2.928   2.122  17.564  0.1303 -0.7435 -0.1869
    1MPD1    C213980   2.984   2.024  17.484  0.2636 -0.6593 -0.9759
    1MPD1    C313981   3.036   2.048  17.359 -0.8707  0.2435  0.1237
    1MPD1    C413982   3.021   2.181  17.308  0.2810 -0.4535  0.3640
    1MPD1    C513983   2.958   2.277  17.382  0.2593 -0.7103  0.0188
    1MPD1     H13984   2.984   1.925  17.528  1.7027  0.2735  1.0885
    1MPD1    H113985   3.064   2.208  17.212 -1.9062 -0.4413 -0.5945
    1MPD1    H213986   2.864   2.321  17.565  2.0091  0.1971  0.9541
    1MPD1    H313987   2.941   2.376  17.340  3.3249 -0.8835 -1.6216
    1MPD1     N13988   3.093   1.948  17.282  0.4797  0.0437  0.4072
    1MPD1    H513989   3.116   1.980  17.188  0.7648  0.7490  0.7185
    1MPD1    N113990   2.883   2.094  17.693  0.6198  0.5196  0.3615
    1MPD1    H613991   2.904   1.997   0.015 -0.0573  0.2703 -0.0423
    1MPD1    H713992   2.924   2.157   0.058 -0.4968  1.5590  0.0725
    2MPD1     C13993   3.365   2.049  16.467  0.0996  0.5621 -0.1823
    2MPD1    C113994   3.242   2.028  16.529 -0.1120 -0.5713 -1.0190
    2MPD1    C213995   3.242   1.969  16.649  0.4692 -0.5755  0.0352
    2MPD1    C313996   3.357   1.951  16.728  0.2702  0.1241  0.2583
    2MPD1    C413997   3.472   1.996  16.664 -0.3459  0.2248 -0.3551
    2MPD1    C513998   3.483   2.040  16.534 -0.2012 -0.3316  0.2728
    2MPD1     H13999   3.151   1.936  16.698  0.3827 -0.6830 -0.1944
    2MPD1    H114000   3.567   1.992  16.716  0.0059  0.1897 -0.9937
    2MPD1    H214001   3.366   2.089  16.366 -0.4539  2.1814  0.4506
    2MPD1    H314002   3.579   2.054  16.486 -0.4166  1.6212  0.4124
    2MPD1     N14003   3.346   1.907  16.859 -0.4932 -0.5502  0.1757
    2MPD1    H514004   3.257   1.879  16.899 -0.6336 -1.5602 -0.8312
    2MPD1    N114005   3.124   2.019  16.453  0.3275 -0.5114 -0.3535
    2MPD1    H614006   3.037   2.035  16.505 -0.2805  3.0483 -2.4580
    2MPD1    H714007   3.129   2.087  16.378  0.3521  1.0907  1.0933
    3TMC3    C114008   3.404   1.806  17.064 -0.0893 -0.3797  0.2946
    3TMC3    C214009   3.455   1.681  17.080  0.2403  0.1793  0.0345
    3TMC3    C314010   3.393   1.612  17.179  0.1359 -0.4559  0.9368
    3TMC3    C414011   3.290   1.862  17.125 -0.3929  0.5820  0.1388
    3TMC3    C514012   3.254   1.785  17.230 -0.8522 -0.4055 -0.1301
    3TMC3    C614013   3.288   1.656  17.255  0.5409  0.1389 -0.1737
    3TMC3     C14014   3.451   1.878  16.939  0.5397  0.2050  0.0724
    3TMC3     O14015   3.569   1.902  16.923  0.0688  0.0666  0.3407
    3TMC3     H14016   3.541   1.639  17.028 -0.1601 -0.1936 -0.3306
    3TMC3    H114017   3.271   1.969  17.123  1.2176  0.8712  0.0932
    3TMC3    H214018   3.256   1.602  17.344  0.3442  1.3787  0.5001
    3TMC3    C714019   3.157   1.835  17.325 -0.1778  0.4536  0.1452
    3TMC3    C814020   3.424   1.471  17.193  0.7558  0.3820 -0.1324
    3TMC3    O114021   3.158   1.779  17.433 -0.1653 -0.4497  0.2771
    3TMC3    O214022   3.399   1.432  17.305 -0.0475  0.1501  0.0109
    4MPD1     C14023   3.646   1.028  17.050 -0.1539  0.4122  0.0856
    4MPD1    C114024   3.623   1.104  16.934  0.3438  0.3839  1.1165
    4MPD1    C214025   3.562   1.231  16.939 -1.2397 -0.2409 -0.2117
    4MPD1    C314026   3.518   1.277  17.067 -0.2385 -0.1384  0.0597
    4MPD1    C414027   3.540   1.201  17.182  0.1053  0.2444  0.3103
    4MPD1    C514028   3.607   1.082  17.170  0.5262  0.3628 -0.6972
    4MPD1     H14029   3.553   1.283  16.845 -2.8888 -1.5575 -0.7787
    4MPD1    H114030   3.510   1.238  17.279  1.2264  1.0804  0.3334
    4MPD1    H214031   3.701   0.935  17.045 -1.0540 -0.1099  0.0661
    4MPD1    H314032   3.632   1.020  17.256  3.0482  1.5145 -0.5938
    4MPD1     N14033   3.459   1.409  17.077 -0.4240 -0.0293  0.4228
    4MPD1    H514034   3.455   1.462  16.990  1.7748  1.7169  1.3873
    4MPD1    N114035   3.669   1.055  16.810 -0.1144  0.0092 -0.0012
    4MPD1    H614036   3.673   0.954  16.796  0.9375  0.2415 -1.3138
    4MPD1    H714037   3.620   1.094  16.730  1.3421  2.3535  0.2618
    1TCq1    O114038   4.000   1.867  11.325 -0.1655 -0.1996  0.1293
    1TCq1    C114039   4.116   1.802  11.291 -0.0341  0.6265  0.2371
    1TCq1    O214040   4.139   1.686  11.318 -0.8225  0.6530 -0.0557
    1TCq1    C214041   4.219   1.903  11.304 -0.2741  0.9019  0.0659
    1TCq1    C314042   4.217   1.999  11.206  0.3724 -0.1903  0.4505
    1TCq1    C414043   4.290   2.110  11.229 -0.3706  0.2850  0.7712
    1TCq1    C514044   4.345   2.137  11.352 -0.3897 -0.5427 -0.5317
    1TCq1    C614045   4.348   2.048  11.455  0.5714  0.0116 -0.6860
    1TCq1    C714046   4.280   1.931  11.430 -0.7572 -0.8782  0.4690
    1TCq1    C814047   4.387   2.085  11.588 -0.4596  0.3062 -0.0872
    1TCq1    O414048   4.405   2.207  11.593 -0.1810 -0.2851  0.1966
    1TCq1    C914049   4.263   2.223  11.146 -0.0327 -0.3272  0.5294
    1TCq1    O514050   4.169   2.216  11.056 -0.3446 -0.4252  0.4474
    1TCq1    O614051   4.320   2.333  11.171  0.0713  0.6552  0.1663
    1TCq1    H114052   4.008   1.964  11.312  0.4476 -0.0831  1.4094
    1TCq1    H214053   4.175   1.979  11.108  1.1003  1.3389 -0.1731
    1TCq1    H314054   4.373   2.240  11.371 -1.4570 -0.3193 -0.1753
    1TCq1    H414055   4.291   1.851  11.502  0.2897 -1.4581 -0.3359
    2MPD1     C14056   4.414   2.047  12.088 -0.0972 -0.0494 -0.5901
    2MPD1    C114057   4.465   1.926  12.040 -0.2596 -0.1177  0.2529
    2MPD1    C214058   4.458   1.906  11.903  0.4431 -0.0319  0.2990
    2MPD1    C314059   4.423   2.016  11.822 -0.6833 -0.0054  0.2954
    2MPD1    C414060   4.385   2.139  11.868  0.0950 -0.5800 -0.4543
    2MPD1    C514061   4.372   2.150  12.007 -0.7333  0.5003  0.0958
    2MPD1     H14062   4.484   1.810  11.861 -0.3206  0.3365 -1.0044
    2MPD1    H114063   4.351   2.224  11.811 -0.0187  0.2876  0.8933
    2MPD1    H214064   4.399   2.063  12.194  0.6674  3.0655 -0.9329
    2MPD1    H314065   4.332   2.239  12.054  0.0309  0.0183  1.6479
    2MPD1     N14066   4.417   1.988  11.684  0.2857  0.3233 -0.1026
    2MPD1    H514067   4.430   1.890  11.661 -0.0387  0.3435 -0.3726
    2MPD1    N114068   4.501   1.819  12.126  0.0038 -0.0068 -0.0364
    2MPD1    H614069   4.573   1.758  12.087  2.1168  1.3459  1.7094
    2MPD1    H714070   4.536   1.860  12.213  2.5544 -1.0386 -0.5729
    1TCq1    O114071   2.053   3.071   9.474 -0.0660  0.4472 -0.2408
    1TCq1    C114072   2.080   2.968   9.389 -0.7294 -0.4350  0.7918
    1TCq1    O214073   2.006   2.873   9.364 -0.0466  0.8968 -0.1180
    1TCq1    C214074   2.227   2.962   9.402  0.2909  0.2317 -0.5939
    1TCq1    C314075   2.305   3.072   9.397  0.5986  0.1690 -0.6680
    1TCq1    C414076   2.436   3.050   9.414  0.5006  0.0354  0.5020
    1TCq1    C514077   2.493   2.925   9.403  0.1870  0.0227 -0.9249
    1TCq1    C614078   2.413   2.816   9.395 -0.5152 -0.1230 -0.3398
    1TCq1    C714079   2.279   2.837   9.396 -0.2464  0.0397 -0.1028
    1TCq1    C814080   2.474   2.686   9.367  0.3028 -0.4895 -0.2535
    1TCq1    O414081   2.598   2.678   9.374  0.0849  0.5030 -0.2522
    1TCq1    C914082   2.536   3.154   9.392  0.4133  0.2501 -0.4203
    1TCq1    O514083   2.655   3.119   9.377 -0.2606  0.1709 -0.2597
    1TCq1    O614084   2.497   3.272   9.383  0.4697 -0.2529  0.3473
    1TCq1    H114085   2.128   3.115   9.518 -1.2153  2.0657  0.1110
    1TCq1    H214086   2.262   3.171   9.405 -1.6496 -1.0536  2.4469
    1TCq1    H314087   2.600   2.915   9.388 -0.1016 -1.3843 -2.1508
    1TCq1    H414088   2.211   2.752   9.402 -0.1007 -0.0629  0.1020
    2MPD1     C14089   2.440   2.198   9.254  0.3844 -0.3107 -0.8935
    2MPD1    C114090   2.309   2.247   9.256  0.1708 -0.8295  0.2321
    2MPD1    C214091   2.295   2.374   9.288 -0.0242  0.1491 -0.7468
    2MPD1    C314092   2.405   2.456   9.316 -0.3664  0.1608 -0.1424
    2MPD1    C414093   2.532   2.409   9.303  0.0494 -0.4946 -0.1719
    2MPD1    C514094   2.546   2.280   9.270 -0.1684 -0.1273 -0.4468
    2MPD1     H14095   2.196   2.417   9.301  0.3023  0.8995 -0.7356
    2MPD1    H114096   2.621   2.464   9.333 -2.1185  1.6531  2.3377
    2MPD1    H214097   2.468   2.101   9.214  2.5007  0.0840 -0.3680
    2MPD1    H314098   2.649   2.246   9.266 -0.1947 -0.1679 -0.8052
    2MPD1     N14099   2.376   2.588   9.352  0.2492 -0.3045 -0.0266
    2MPD1    H514100   2.283   2.629   9.352  0.1172 -0.6150 -0.9864
    2MPD1    N114101   2.200   2.176   9.214  0.3000 -0.2468 -0.0669
    2MPD1    H614102   2.209   2.074   9.214 -2.3632 -0.4933 -0.2233
    2MPD1    H714103   2.109   2.203   9.251 -0.5544 -1.1812 -1.4806
    1MPD1     C14104   1.093   0.769  12.515 -0.3604 -0.0915 -0.2851
    1MPD1    C114105   1.137   0.749  12.392 -0.4557 -0.1690 -0.4417
    1MPD1    C214106   1.134   0.862  12.310  0.7885  0.3580  0.1351
    1MPD1    C314107   1.065   0.975  12.339  0.6642  0.4965  0.0363
    1MPD1    C414108   0.993   0.984  12.460  0.1562 -0.0194 -0.5915
    1MPD1    C514109   1.021   0.876  12.547  0.3540 -0.1651 -0.1052
    1MPD1     H14110   1.179   0.856  12.212  0.1043  0.5041 -0.1881
    1MPD1    H114111   0.945   1.068  12.508  1.4343 -0.3216  1.2134
    1MPD1    H214112   1.101   0.694  12.593  1.5737  1.5393  1.0764
    1MPD1    H314113   0.994   0.880  12.652 -0.8684  2.7485 -0.5555
    1MPD1     N14114   1.089   1.084  12.251 -0.0275 -0.5329 -0.4357
    1MPD1    H514115   1.156   1.071  12.175 -0.7709  0.1775 -1.2184
    1MPD1    N114116   1.225   0.637  12.359  0.3109 -0.2227  0.0730
    1MPD1    H614117   1.231   0.624  12.259 -3.1268  1.7482 -0.4024
    1MPD1    H714118   1.207   0.550  12.409 -2.3284  1.0770  1.3558
    2MPD1     C14119   0.341   1.888  11.368  0.3636  0.1815 -0.2168
    2MPD1    C114120   0.308   1.847  11.239 -0.2838  0.6602 -0.0743
    2MPD1    C214121   0.382   1.748  11.183 -0.1575 -0.1439 -0.7129
    2MPD1    C314122   0.486   1.678  11.249  0.3482  0.2376 -0.4438
    2MPD1    C414123   0.514   1.716  11.377  0.1495  0.0376  0.0836
    2MPD1    C514124   0.443   1.822  11.426 -0.0885  0.8334  0.3212
    2MPD1     H14125   0.362   1.717  11.080 -0.3983  0.5584 -0.8758
    2MPD1    H114126   0.588   1.668  11.440 -0.4199 -2.4766 -1.1627
    2MPD1    H214127   0.288   1.969  11.416  0.9066  1.2183 -1.3414
    2MPD1    H314128   0.462   1.864  11.524 -3.9281  1.9468  0.5948
    2MPD1     N14129   0.551   1.564  11.201  0.5578 -0.2946  0.0690
    2MPD1    H514130   0.621   1.519  11.258  0.2117 -1.1591 -0.1844
    2MPD1    N114131   0.219   1.928  11.164 -0.1363 -0.3522  0.7865
    2MPD1    H614132   0.155   1.991  11.213 -1.2457  0.2929 -1.4787
    2MPD1    H714133   0.176   1.881  11.085  2.0428  0.1914 -0.7117
    3MPD1     C14134   0.322   0.895  10.479  0.6145  0.3503  0.3144
    3MPD1    C114135   0.273   1.016  10.522  0.1788 -0.8876 -0.3558
    3MPD1    C214136   0.318   1.078  10.636 -0.9384 -0.5468  0.6358
    3MPD1    C314137   0.433   1.028  10.701  0.1959 -0.1467 -0.5516
    3MPD1    C414138   0.482   0.900  10.656  0.3062 -0.3208 -0.3455
    3MPD1    C514139   0.415   0.830  10.555 -0.4290 -0.2153  0.3148
    3MPD1     H14140   0.267   1.166  10.673  0.4634  0.6969 -0.3813
    3MPD1    H114141   0.576   0.855  10.688 -0.3034 -2.1508 -1.1258
    3MPD1    H214142   0.269   0.855  10.393  0.2337  0.3165  0.5674
    3MPD1    H314143   0.468   0.744  10.516 -2.1478 -1.1931  0.1698
    3MPD1     N14144   0.493   1.106  10.801  0.6292 -0.8419  0.1102
    3MPD1    H514145   0.451   1.194  10.829 -1.4749 -1.8534  0.1666
    3MPD1    N114146   0.158   1.064  10.464  0.7794  0.7480 -0.4888
    3MPD1    H614147   0.147   1.164  10.482  1.0784  0.5893  0.5883
    3MPD1    H714148   0.146   1.042  10.365  4.0407 -2.7240 -0.1182
    4MPD2     C14149   1.011   1.710  11.731  0.3945  1.0483 -0.4224
    4MPD2    C114150   1.128   1.695  11.803 -0.8137  1.0742 -0.0240
    4MPD2    C214151   1.248   1.726  11.740  0.9152  0.5607  0.1263
    4MPD2    C314152   1.246   1.763  11.605 -0.0359  0.0055  0.1713
    4MPD2    C414153   1.124   1.787  11.543 -0.0404  0.2191  0.1035
    4MPD2    C514154   1.008   1.756  11.605 -0.5119 -0.4121 -0.2730
    4MPD2     H14155   1.338   1.707  11.797  1.7607 -1.9615 -2.0661
    4MPD2    H114156   1.123   1.835  11.446  0.0931 -3.3811 -1.6842
    4MPD2    H214157   0.919   1.676  11.776  1.8098 -2.6071 -0.2585
    4MPD2    H314158   0.910   1.772  11.561 -0.5948 -2.1353 -0.7082
    4MPD2     N14159   1.359   1.802  11.525  0.4009 -0.2395  0.3153
    4MPD2    H514160   1.340   1.859  11.443 -2.2578 -0.0620  1.0497
    4MPD2    N114161   1.132   1.632  11.932  0.1429 -0.0693 -0.3992
    4MPD2    H714162   1.221   1.603  11.972 -0.8312 -0.3898  1.5256
    5TMC3    C114163   1.064   1.531  12.129  0.4445  0.4969  0.6664
    5TMC3    C214164   1.015   1.407  12.155  0.1343  0.1982  0.1134
    5TMC3    C314165   1.096   1.307  12.184 -0.1299  0.1119 -0.1541
    5TMC3    C414166   1.199   1.550  12.162 -0.2080 -0.1068  0.4713
    5TMC3    C514167   1.284   1.436  12.178 -0.0749 -0.3510  0.5931
    5TMC3    C614168   1.229   1.311  12.187 -0.4334 -0.4003 -0.0945
    5TMC3     C14169   1.019   1.587  12.006  0.4912  0.3473 -0.8217
    5TMC3     O14170   0.903   1.572  11.965  0.1624  0.1294 -0.3891
    5TMC3     H14171   0.909   1.385  12.146  0.5974 -1.6772 -0.7179
    5TMC3    H114172   1.229   1.654  12.170  1.2648 -0.3303 -2.4069
    5TMC3    H214173   1.284   1.221  12.211  2.0565  1.2952  0.5193
    5TMC3    C714174   1.387   1.446  12.069 -0.3192 -0.6094 -0.6179
    5TMC3    C814175   1.035   1.208  12.265 -0.4153  0.1246 -0.2864
    5TMC3    O114176   1.397   1.555  12.016  0.2218 -0.5621 -0.4360
    5TMC3    O214177   0.949   1.247  12.344 -0.0336  0.1229  0.8543
    6TMC3    C114178   0.603   1.392  11.057 -0.0820 -0.4412  0.0631
    6TMC3    C214179   0.557   1.287  10.984  0.5747  0.4683 -0.1048
    6TMC3    C314180   0.654   1.191  10.948  0.3376  0.5768 -0.5256
    6TMC3    C414181   0.732   1.408  11.086  0.4507  0.6587 -0.9618
    6TMC3    C514182   0.820   1.321  11.041 -0.6112  0.5020  0.0456
    6TMC3    C614183   0.783   1.204  10.977  0.7703  0.0865 -1.1534
    6TMC3     C14184   0.517   1.508  11.079 -0.6485  0.0883 -0.6466
    6TMC3     O14185   0.415   1.519  11.012 -0.3390  0.3517 -0.2570
    6TMC3     H14186   0.453   1.286  10.952  1.0793 -1.1355 -1.6667
    6TMC3    H114187   0.779   1.492  11.135  1.9912 -0.3739 -0.6956
    6TMC3    H214188   0.850   1.120  10.960  0.3698 -0.8886  1.9625
    6TMC3    C714189   0.963   1.350  11.059 -0.1247  0.0367  0.2345
    6TMC3    C814190   0.613   1.086  10.856 -0.3492  0.6564 -0.4123
    6TMC3    O114191   0.995   1.442  11.138 -1.1311 -0.3060  0.4986
    6TMC3    O214192   0.698   0.999  10.829 -0.2541  0.0796  0.1420
    7MPD2     C14193   1.698   1.251  11.699 -0.1696  0.2731 -1.2602
    7MPD2    C114194   1.625   1.371  11.701 -0.4956 -0.2608 -0.3768
    7MPD2    C214195   1.542   1.395  11.818  0.0697  0.8714 -0.4190
    7MPD2    C314196   1.525   1.304  11.921 -0.7712  0.4120 -0.3524
    7MPD2    C414197   1.572   1.176  11.892 -0.0470 -0.2238 -0.1893
    7MPD2    C514198   1.662   1.157  11.793 -0.3414 -0.2261  0.4082
    7MPD2     H14199   1.480   1.484  11.818  2.5610  2.5994  1.1432
    7MPD2    H114200   1.564   1.102  11.972  2.5841 -2.9438 -2.4447
    7MPD2    H214201   1.782   1.229  11.634 -0.5018  0.2760 -1.6955
    7MPD2    H314202   1.719   1.064  11.799  1.5244  0.9793  1.3620
    7MPD2     N14203   1.446   1.321  12.039  0.4987 -0.0894 -0.6517
    7MPD2    H514204   1.436   1.245  12.105 -2.6930  0.3246 -0.6588
    7MPD2    N114205   1.645   1.475  11.609  0.0860 -0.1246 -0.0444
    7MPD2    H714206   1.613   1.568  11.635 -1.7941 -0.5850 -0.6856
    8TMC3    C114207   1.701   1.581  11.416  0.3812 -0.2348 -0.2401
    8TMC3    C214208   1.641   1.564  11.296  0.3065  0.3770 -0.3418
    8TMC3    C314209   1.543   1.656  11.265  0.0420 -0.7197 -0.6177
    8TMC3    C414210   1.684   1.695  11.490 -0.5587  0.1632 -0.1638
    8TMC3    C514211   1.583   1.784  11.462  0.7635 -0.0685 -0.0273
    8TMC3    C614212   1.514   1.766  11.344 -0.3228  0.0011  0.6260
    8TMC3     C14213   1.712   1.459  11.490 -0.0585 -0.1968  0.4005
    8TMC3     O14214   1.747   1.363  11.428 -0.1805  0.4433  0.2437
    8TMC3     H14215   1.665   1.475  11.239  0.4183  1.4559 -1.9600
    8TMC3    H114216   1.734   1.703  11.585 -0.7877 -0.9212  0.0485
    8TMC3    H214217   1.449   1.842  11.302  1.4266  0.1833 -1.7808
    8TMC3    C714218   1.489   1.773  11.570 -0.9917  0.0147 -0.1327
    8TMC3    C814219   1.433   1.603  11.192 -0.2016 -0.4154 -0.7780
    8TMC3    O114220   1.525   1.721  11.675 -0.0482 -0.4431  0.3224
    8TMC3    O214221   1.322   1.648  11.213  0.2534 -0.2281  0.7049
    9MPD2     C14222   1.457   1.386  10.902 -0.4732 -0.3204 -0.7554
    9MPD2    C114223   1.392   1.444  11.007  0.2112 -0.1766  0.1254
    9MPD2    C214224   1.258   1.417  11.028 -0.5722 -0.0425  0.5388
    9MPD2    C314225   1.186   1.332  10.944 -0.2403  0.4464  0.1638
    9MPD2    C414226   1.255   1.270  10.847 -0.4404 -0.0516  0.0013
    9MPD2    C514227   1.380   1.306  10.820 -0.1789 -0.1130  0.7564
    9MPD2     H14228   1.212   1.458  11.116 -0.7221 -0.3524  0.6065
    9MPD2    H114229   1.204   1.194  10.789  1.0388 -1.2084  0.2402
    9MPD2    H214230   1.554   1.416  10.864 -0.2032  0.1283  0.2814
    9MPD2    H314231   1.434   1.237  10.756  0.0765  2.2872 -1.5942
    9MPD2     N14232   1.047   1.291  10.971 -0.2649 -0.4489 -0.1678
    9MPD2    H514233   1.006   1.214  10.919 -1.4830 -0.4817  0.8303
    9MPD2    N114234   1.475   1.530  11.086 -0.2815  0.4156 -0.1448
    9MPD2    H714235   1.575   1.519  11.075 -0.0096  0.8833  1.8974
    1MPD1     C14236   0.171   2.709  17.624 -0.1637 -0.3298 -0.3744
    1MPD1    C114237   0.116   2.837  17.606 -0.6283  0.6880  0.0980
    1MPD1    C214238   0.195   2.944  17.643  0.2131 -0.3011 -0.1420
    1MPD1    C314239   0.320   2.941  17.701 -0.4229  0.0921 -0.1558
    1MPD1    C414240   0.372   2.813   0.009  0.5668  0.0209  0.0134
    1MPD1    C514241   0.294   2.704  17.683  0.3432 -0.0002  0.2571
    1MPD1     H14242   0.161   3.042  17.609  0.8448 -0.1579 -0.3613
    1MPD1    H114243   0.476   2.796   0.036  1.1688  1.5991 -1.3157
    1MPD1    H214244   0.121   2.615  17.600 -0.7256 -0.0346 -0.3684
    1MPD1    H314245   0.346   2.611  17.700 -0.2307 -0.2024  0.9230
    1MPD1     N14246   0.403   3.052   0.024  0.2108  0.3637 -0.1496
    1MPD1    H514247   0.496   3.016   0.045  0.0885  0.4743  0.5968
    1MPD1    N114248   0.002   2.849  17.518 -0.2606  0.2323  0.2572
    1MPD1    H614249   4.668   2.931  17.534 -0.1752  0.5395 -0.9676
    1MPD1    H714250   4.658   2.777  17.535  1.9525 -1.8677  0.3853
    2MPD1     C14251   0.702   4.112  17.626 -0.6402  0.4944 -0.1058
    2MPD1    C114252   0.685   4.090   0.060 -0.4582  0.2079 -0.1209
    2MPD1    C214253   0.660   3.959   0.090  0.1045  0.0297  0.7982
    2MPD1    C314254   0.663   3.855   0.002 -0.3761 -0.1369 -0.0703
    2MPD1    C414255   0.686   3.884  17.575  0.3764 -0.1864  0.5750
    2MPD1    C514256   0.706   4.011  17.537 -0.5877  0.3957 -0.4125
    2MPD1     H14257   0.645   3.925   0.192 -0.6919 -0.1991  0.6078
    2MPD1    H114258   0.693   3.808  17.497  2.1867 -0.7263  1.2684
    2MPD1    H214259   0.704   4.214  17.590 -1.1874  0.9153  1.0442
    2MPD1    H314260   0.717   4.027  17.430 -0.2906  1.7330 -0.1764
    2MPD1     N14261   0.640   3.722   0.047  0.7165 -0.1332 -0.9047
    2MPD1    H514262   0.608   3.714   0.143  0.8699  0.7002 -0.7855
    2MPD1    N114263   0.653   4.192   0.152  0.1264 -0.5909 -0.0578
    2MPD1    H614264   0.683   4.165   0.245 -1.8211 -1.6721  0.2369
    2MPD1    H714265   0.689   4.284   0.126  0.4723 -0.8903 -0.6503
    3TCq2    C114266   0.603   3.614  17.670  0.2409 -0.3810  0.7215
    3TCq2    O214267   0.590   3.607  17.553  0.3793 -0.4002 -0.0952
    3TCq2    C214268   0.583   3.493   0.036  0.0875 -0.3287 -0.2680
    3TCq2    C314269   0.667   3.466   0.146 -0.1176 -0.6768  0.0636
    3TCq2    C414270   0.656   3.336   0.193  0.1656  0.1316 -0.3409
    3TCq2    C514271   0.571   3.238   0.141 -0.0262 -0.2280 -0.3118
    3TCq2    C614272   0.500   3.268   0.031 -0.2204 -0.3194  0.2422
    3TCq2    C714273   0.502   3.397  17.679 -0.1632  0.1393 -0.3483
    3TCq2    C814274   0.383   3.185   0.000 -0.7614  0.1155 -0.2494
    3TCq2    O414275   0.278   3.234  17.658 -0.1415 -0.5130  0.4586
    3TCq2    C914276   0.736   3.301   0.316 -0.2042 -0.5499  0.6558
    3TCq2    O514277   0.762   3.177   0.326 -0.0914 -0.0085 -0.3190
    3TCq2    O614278   0.788   3.391   0.389 -0.3715  0.3024  0.1632
    3TCq2    H214279   0.740   3.531   0.193  0.6895 -1.2331 -0.4352
    3TCq2    H314280   0.550   3.150   0.201 -0.8924  0.6456  0.6734
    3TCq2    H414281   0.443   3.415  17.590  0.7832  0.1405 -0.9746
    1TCq1    O114282   4.002   4.054  11.610 -0.4741 -0.2974  0.0552
    1TCq1    C114283   4.059   4.071  11.737  0.5569  0.3572  0.0706
    1TCq1    O214284   4.163   4.133  11.764 -0.1700 -0.3364 -0.0827
    1TCq1    C214285   3.987   4.008  11.840 -0.4314  0.5607  0.6774
    1TCq1    C314286   3.961   3.875  11.828 -0.4925 -0.1906  0.1506
    1TCq1    C414287   3.938   3.808  11.947  0.0100  0.1491 -0.0964
    1TCq1    C514288   3.923   3.869  12.069 -0.9387  1.1301  0.3074
    1TCq1    C614289   3.944   4.004  12.069  0.5588  0.2947  0.2026
    1TCq1    C714290   3.987   4.073  11.954  0.0932  0.1879  0.2283
    1TCq1    C814291   3.918   4.082  12.186 -0.3756  0.0002  0.0268
    1TCq1    O414292   3.913   4.205  12.178  0.2800 -0.5286 -0.6764
    1TCq1    C914293   3.921   3.661  11.940 -1.4813 -0.0921 -0.2317
    1TCq1    O514294   3.904   3.604  11.825 -0.2656 -0.2968 -0.0782
    1TCq1    O614295   3.939   3.600  12.049  0.0522 -1.2901  0.0822
    1TCq1    H114296   3.913   4.013  11.611 -0.6476  0.0383 -1.4197
    1TCq1    H214297   3.958   3.816  11.737 -0.0286  0.4765 -0.2876
    1TCq1    H314298   3.880   3.813  12.152 -1.3740 -0.1813 -0.8134
    1TCq1    H414299   4.017   4.177  11.956 -0.3849  0.2419  3.7074
    2MPD2     C14300   3.774   4.185  12.422  0.0528 -0.2695 -0.5873
    2MPD2    C114301   3.852   4.071  12.421 -0.1458  0.2340 -0.3010
    2MPD2    C214302   3.871   3.998  12.529 -0.1716 -0.1530  0.4365
    2MPD2    C314303   3.810   4.036  12.649 -0.2841 -0.3338  0.0377
    2MPD2    C414304   3.720   4.138  12.646  0.4660 -0.4007 -0.1691
    2MPD2    C514305   3.709   4.223  12.537  0.0632  0.3110  0.0185
    2MPD2     H14306   3.937   3.912  12.527  1.6094  1.2632 -0.4819
    2MPD2    H114307   3.657   4.171  12.727  0.8140 -1.3405  0.4836
    2MPD2    H214308   3.743   4.241  12.334 -0.5999  0.4574  0.1042
    2MPD2    H314309   3.639   4.304  12.553  0.3592  0.9392 -1.7938
    2MPD2     N14310   3.852   3.967  12.762 -0.2413 -0.4880  0.0561
    2MPD2    H514311   3.913   3.886  12.756 -1.0611 -1.0061 -1.3447
    2MPD2    N114312   3.920   4.022  12.308  0.5375 -0.9752 -0.2216
    2MPD2    H714313   3.948   3.925  12.311 -1.0426 -1.4220  0.4094
    3TCq1    O114314   4.065   3.876  13.399 -0.3277 -0.5455 -0.4874
    3TCq1    C114315   3.978   3.952  13.333  0.3470 -0.3257  0.2468
    3TCq1    O214316   3.899   4.033  13.378  0.0979  0.3908 -1.1598
    3TCq1    C214317   3.977   3.893  13.196 -0.0911  0.0738  0.1518
    3TCq1    C314318   4.038   3.766  13.172  0.1024 -0.2655  0.1601
    3TCq1    C414319   4.020   3.723  13.044  0.1249 -0.3182  0.1787
    3TCq1    C514320   3.955   3.800  12.945  0.9262 -0.1826 -0.1760
    3TCq1    C614321   3.897   3.916  12.987 -0.4354 -0.6188  0.3731
    3TCq1    C714322   3.896   3.960  13.110 -0.1855 -0.5576 -0.9986
    3TCq1    C814323   3.830   4.004  12.891 -0.4669 -0.4272  0.1268
    3TCq1    O414324   3.777   4.104  12.934 -0.3579  0.2084 -0.2388
    3TCq1    C914325   4.081   3.592  13.012 -0.0996  0.6104  0.2912
    3TCq1    O514326   4.066   3.548  12.893  0.2891 -0.1669 -0.3563
    3TCq1    O614327   4.174   3.555  13.094 -0.3704 -0.1260 -1.0195
    3TCq1    H114328   4.124   3.813  13.353  0.8201 -1.7101  2.5498
    3TCq1    H214329   4.086   3.699  13.242  0.0603 -1.6666 -1.1335
    3TCq1    H314330   3.945   3.754  12.847 -0.2285  0.7784 -0.5194
    3TCq1    H414331   3.859   4.057  13.140  1.1160 -0.5269  0.5072
    1MPD2     C14332   3.817   0.616  14.928 -0.0036 -0.7229  0.3329
    1MPD2    C114333   3.890   0.540  15.019  0.7292  0.1947  0.3960
    1MPD2    C214334   3.995   0.469  14.963 -0.6599  0.3508  0.1930
    1MPD2    C314335   4.008   0.460  14.823 -0.3382  0.5853  0.1056
    1MPD2    C414336   3.928   0.530  14.737 -0.3628  0.1530  0.7937
    1MPD2    C514337   3.836   0.610  14.794 -0.3702 -0.0336  0.0569
    1MPD2     H14338   4.058   0.409  15.026 -0.5214  1.4466  1.0903
    1MPD2    H114339   3.921   0.516  14.630 -0.9371 -1.2004  1.0026
    1MPD2    H214340   3.737   0.678  14.968 -1.0997 -2.3696  0.6726
    1MPD2    H314341   3.768   0.669  14.734  0.1841 -0.6055 -1.1257
    1MPD2     N14342   4.098   0.367  14.775  0.7962 -0.4897  0.2503
    1MPD2    H514343   4.153   0.308  14.837 -2.4050 -2.8618  0.7902
    1MPD2    N114344   3.857   0.551  15.157  0.1776 -0.1530 -0.6183
    1MPD2    H714345   3.771   0.599  15.181  0.3443 -0.8512  1.3784
    2TMC3    C114346   3.861   0.462  15.370  0.0875  0.3969  0.5021
    2TMC3    C214347   3.932   0.362  15.450 -0.4492 -0.5637 -0.3074
    2TMC3    C314348   3.850   0.275  15.514  0.7814 -0.3925  0.3340
    2TMC3    C414349   3.728   0.484  15.377  0.2726 -0.3164 -0.2971
    2TMC3    C514350   3.658   0.391  15.451  0.5003 -1.0474  0.9138
    2TMC3    C614351   3.714   0.284  15.518  0.5008 -0.0153 -0.3009
    2TMC3     C14352   3.929   0.484  15.252 -0.0788  0.2563  0.3821
    2TMC3     O14353   4.026   0.412  15.238  0.0350  0.5062  0.4442
    2TMC3     H14354   4.041   0.367  15.451 -0.3066 -3.0645 -2.7313
    2TMC3    H114355   3.681   0.546  15.302 -1.3151  0.4453  1.3450
    2TMC3    H214356   3.651   0.217  15.575  1.1312 -0.4963 -0.1750
    2TMC3    C714357   3.519   0.398  15.476 -0.2616 -0.1552 -0.3422
    2TMC3    C814358   3.876   0.137  15.474 -0.0289 -0.0039 -0.8513
    2TMC3    O114359   3.464   0.318  15.548  0.1112  0.9913  0.7969
    2TMC3    O214360   3.810   0.045  15.520 -0.7924  0.0893  0.4886
    3TCq1    O114361   2.814   1.456  15.342  0.0180  0.3558 -0.3374
    3TCq1    C114362   2.825   1.367  15.445 -0.4614  0.0869  0.3595
    3TCq1    O214363   2.735   1.327  15.515  0.1797  0.4684 -0.5399
    3TCq1    C214364   2.939   1.289  15.421 -0.4394  0.0683 -0.0019
    3TCq1    C314365   3.055   1.356  15.372  0.7331  0.4131  0.0480
    3TCq1    C414366   3.169   1.279  15.364 -0.6141 -0.6029  0.4427
    3TCq1    C514367   3.173   1.145  15.408  0.6531 -0.4484 -0.0576
    3TCq1    C614368   3.054   1.083  15.437 -0.4343 -0.2803  0.1989
    3TCq1    C714369   2.938   1.158  15.450  0.0193 -0.4134  0.5276
    3TCq1    C814370   3.038   0.943  15.454  0.4534  0.2282  0.4406
    3TCq1    O414371   2.927   0.897  15.487 -0.4142  0.1362 -0.2008
    3TCq1    C914372   3.290   1.351  15.328 -0.5903  0.2903 -0.6062
    3TCq1    O514373   3.401   1.286  15.346 -0.4541  0.3253 -0.1771
    3TCq1    O614374   3.266   1.473  15.307  0.1824  0.5670 -0.1807
    3TCq1    H114375   2.889   1.459  15.280  0.4869 -0.7771  0.1645
    3TCq1    H214376   3.057   1.462  15.346 -0.8252  0.3230 -0.4506
    3TCq1    H314377   3.271   1.101  15.421  0.0010 -2.2393 -1.1114
    3TCq1    H414378   2.848   1.107  15.483 -1.4264  2.5380  1.0915
    4MPD2     C14379   3.071   0.640  15.442 -0.3181  0.0996 -0.1019
    4MPD2    C114380   3.167   0.734  15.422 -0.0294 -0.5346  0.5318
    4MPD2    C214381   3.298   0.688  15.409  0.0828  0.1725  0.4797
    4MPD2    C314382   3.328   0.551  15.432  0.5607 -0.7114  0.2606
    4MPD2    C414383   3.230   0.460  15.455 -0.5823 -0.2102  0.5838
    4MPD2    C514384   3.099   0.506  15.464  0.2013  0.2065 -0.5034
    4MPD2     H14385   3.372   0.767  15.396 -0.9287  1.0547  0.1020
    4MPD2    H114386   3.243   0.353  15.472 -2.4402 -0.6097 -0.4709
    4MPD2    H214387   2.966   0.665  15.448  0.0090  1.4432 -0.1260
    4MPD2    H314388   3.022   0.431  15.481 -0.2755  0.9590  0.6164
    4MPD2     N14389   3.464   0.515  15.424 -0.1377  0.6090  0.0049
    4MPD2    H514390   3.522   0.592  15.390 -0.0467  0.6995  0.3692
    4MPD2    N114391   3.148   0.875  15.423 -0.4896  0.0818 -0.2508
    4MPD2    H714392   3.225   0.932  15.392 -0.9423  0.9913  0.3093
    5TMC2    C114393   4.177   4.705  14.733 -0.2725  0.0813 -0.4373
    5TMC2    C214394   4.249   4.657  14.628  0.0896 -0.0292  0.2579
    5TMC2    C314395   4.292   0.017  14.528 -0.2033 -0.1983  0.7110
    5TMC2    C414396   4.138   0.107  14.749  0.3614  0.0288  0.3421
    5TMC2    C514397   4.170   0.192  14.640 -0.1070  0.2233 -0.0519
    5TMC2    C614398   4.227   0.142  14.522  0.1078 -0.9791  0.0461
    5TMC2     C14399   4.155   4.616  14.856  0.1801  0.2607  0.5159
    5TMC2     O14400   4.148   4.493  14.836 -0.0456  0.4272 -0.3325
    5TMC2     H14401   4.286   4.556  14.630 -1.0896 -0.4395  1.6978
    5TMC2    H114402   4.076   0.142  14.830 -1.5873 -0.0737 -1.0879
    5TMC2    H214403   4.231   0.210  14.438  0.3690 -2.5876 -1.2570
    5TMC2    C714404   4.105   0.324  14.646  0.2275 -1.1488 -0.1176
    5TMC2    C814405   4.324   4.678  14.404 -0.5273  0.2974 -0.3869
    5TMC2    O114406   4.092   0.389  14.541 -0.6012 -0.1314  0.0283
    5TMC2    O214407   4.296   4.565  14.364 -0.0452 -0.2443 -0.2549
    5TMC2    O514408   4.381   0.048  14.325  0.3907  0.7200 -0.1106
    5TMC2    H514409   4.410   0.132  14.366  1.5271 -0.8510  2.3136
    6MPD2     C14410   3.931   4.616  15.310 -0.1225  0.2244  0.2829
    6MPD2    C114411   3.989   0.016  15.295  1.0775 -0.4014  0.8450
    6MPD2    C214412   4.068   0.032  15.185 -0.4175 -0.5604  0.0546
    6MPD2    C314413   4.081   4.660  15.088 -0.2760 -0.4224  0.1139
    6MPD2    C414414   4.001   4.539  15.097 -0.6458 -0.2883 -0.3169
    6MPD2    C514415   3.937   4.518  15.212  0.0919  0.0727 -0.4674
    6MPD2     H14416   4.116   0.128  15.178 -0.9203 -0.3157 -0.0238
    6MPD2    H114417   4.004   4.453  15.031 -1.0461  0.2061 -0.9698
    6MPD2    H214418   3.849   4.599  15.379 -1.4035  1.3706 -0.9532
    6MPD2    H314419   3.884   4.428  15.239  1.0334 -0.5246 -0.6426
    6MPD2     N14420   4.155   4.688  14.968  0.1421  0.4327  0.0566
    6MPD2    H514421   4.197   0.054  14.959 -0.6945  0.7851 -0.2284
    6MPD2    N114422   3.964   0.133  15.373 -0.6046  0.2324 -0.2203
    6MPD2    H714423   3.993   0.220  15.330  0.6228  0.6096  1.3517
  945NH4     N114424   2.407   3.817  14.075  0.4046  0.5672  0.1514
  945NH4     H214425   2.438   3.911  14.042  0.6400 -0.9258 -3.8952
  945NH4     H314426   2.346   3.766  14.008  0.9452 -0.5319  0.4949
  945NH4     H414427   2.364   3.831  14.169 -0.7455 -0.0728 -0.2711
  945NH4     H514428   2.497   3.770  14.093  0.1249 -0.1612 -0.3394
  946SOD     NA14429   2.513   3.659   9.571 -0.1200 -0.1091 -0.5797
  947SOD     NA14430   2.766   0.257   0.549  0.2838 -0.2617  0.0565
  948SOD     NA14431   3.645   1.258   1.727 -0.0437  0.1881  0.5474
  949SOD     NA14432   1.531   4.586  14.998 -0.4373  0.0061  0.0371
  950SOD     NA14433   2.908   1.489   1.648  0.1765  0.4372 -0.0161
  951SOD     NA14434   1.761   1.887   1.171  0.0113  0.5392 -0.4295
  952SOD     NA14435   2.828   0.342   2.364 -0.6760 -0.2019 -0.4419
  953SOD     NA14436   0.784   4.144  11.780 -0.0244  0.6252 -0.2935
  954SOD     NA14437   3.453   3.688  12.958 -0.2182  0.2902 -0.0316
  955SOD     NA14438   1.488   3.927   0.924 -0.4972  0.2513 -0.0365
  956SOD     NA14439   3.516   4.343  10.209 -0.2860  0.2249 -0.6487
  957SOD     NA14440   0.552   1.297  12.086 -0.1434 -0.0417 -0.2735
  958SOD     NA14441   3.136   1.681  16.084  0.1692  0.1879  0.2258
  959SOD     NA14442   4.706   3.667  11.153  0.5916  0.4145  0.1851
  960SOD     NA14443   3.993   3.510  11.653  0.1142  0.0741 -0.2443
  961SOD     NA14444   3.777   3.167   9.738 -0.0234  0.4948 -0.0114
  962SOD     NA14445   3.527   3.796  15.839 -0.3084  0.6627 -0.1212
  963SOD     NA14446   1.627   0.034  15.891  0.1820 -0.1217 -0.0684
  964SOD     NA14447   4.214   3.699  11.452  0.3696  0.2435  0.2916
  965SOD     NA14448   2.332   2.142  11.217 -0.1941  0.0296  0.6172
  966SOD     NA14449   2.729   4.337   3.648  0.0458  0.4624  0.0457
  967SOD     NA14450   3.310   2.118   1.357 -0.0550 -0.3782 -0.3635
  968SOD     NA14451   0.963   3.230   0.443 -1.0111  0.2821 -0.0207
  969SOD     NA14452   1.136   2.767  12.861 -0.2148  0.0163  0.5086
  970SOD     NA14453   0.069   1.460   0.390 -0.3040  0.1659  0.0188
  971SOD     NA14454   3.516   3.717  11.352 -0.3138 -0.5731  0.4486
  972SOD     NA14455   4.442   0.502  15.317  0.3616  0.2760 -0.0114
  973SOD     NA14456   2.986   2.857   9.639  0.2010 -0.0616  0.4649
  974SOD     NA14457   0.486   2.496   4.311  0.3820  0.0636  0.3796
  975SOD     NA14458   4.474   4.311   9.275 -0.1357 -0.3280  0.0725
  976SOD     NA14459   4.566   3.349  12.595 -0.0224  0.4029 -0.1799
  977SOD     NA14460   1.642   0.111  14.831 -0.1361  0.2795 -0.1112
  978SOD     NA14461   3.590   3.463  11.882 -0.5756 -0.1986  0.1869
  979SOD     NA14462   4.414   1.372   7.173 -0.1879 -0.0179  0.1034
  980SOD     NA14463   1.716   4.709  13.708  0.1453  0.2279  0.0365
  981SOD     NA14464   3.486   3.574  10.530  0.3906  0.0363 -0.4382
  982SOD     NA14465   4.445   3.586   5.991  0.4646  0.0062 -0.1968
  983SOD     NA14466   3.738   2.914  10.854  0.0346 -0.0597 -0.1105
  984SOD     NA14467   3.360   3.041  11.510  0.0781  0.2453  0.0937
  985SOD     NA14468   4.235   2.423  10.981  0.1327 -0.3505 -0.0740
  986SOD     NA14469   3.773   1.247  15.411 -0.2019  0.5310  0.0882
  987SOD     NA14470   4.694   4.669  13.461 -0.1318  0.1405  0.3148
  988SOD     NA14471   0.010   1.411   0.748 -0.2027  0.1570 -0.6908
  989SOD     NA14472   0.282   4.635  13.875 -0.1078 -0.4742 -0.0027
  990SOD     NA14473   4.469   2.528  17.373  0.2509  0.0875  0.2708
  991SOD     NA14474   2.843   0.283   9.369  0.1704  0.1669  0.2639
  992SOD     NA14475   2.002   2.463   2.940  0.0886  0.5516  0.4005
  993SOD     NA14476   4.368   3.609  13.195  0.3913  0.4075  0.1223
  994SOD     NA14477   3.694   2.900  14.566  0.0283  0.2024  0.3288
  995SOD     NA14478   1.817   4.520   2.143  0.0101 -0.0847  0.3274
  996SOD     NA14479   1.402   0.259  12.817 -0.4200  0.1199  0.3720
  997SOD     NA14480   0.655   0.776   3.125  0.2709 -0.0715 -0.2249
  998SOD     NA14481   2.601   3.231  12.752 -0.4286 -0.3989  0.4632
  999SOD     NA14482   4.224   0.850   2.901  0.1882 -0.3167 -0.2352
 1000SOD     NA14483   3.952   2.207  11.110 -0.0061  0.2920 -0.2997
 1001SOD     NA14484   0.909   2.183  14.721  0.0554  0.2842 -0.0921
 1002SOD     NA14485   3.791   0.502  11.784 -0.4208  0.9293  0.1782
 1003SOD     NA14486   4.504   4.594   9.088  0.2219 -0.0255  0.2031
 1004SOD     NA14487   1.548   1.043  13.493 -0.7687  0.2196  0.0678
 1005SOD     NA14488   0.338   2.568  16.687 -0.0209  0.1879  0.3785
 1006SOD     NA14489   0.545   0.150  15.634 -0.2474  0.0439  0.3030
 1007SOD     NA14490   1.412   3.591   9.222  0.6106  0.3144  0.0594
 1008SOD     NA14491   2.777   4.694  11.384 -0.4165  0.2608 -0.3091
 1009SOD     NA14492   0.400   0.418  11.069 -0.0098  0.3614 -0.0958
 1010SOD     NA14493   2.620   3.586   9.951 -0.4729 -0.0485  0.3653
 1011SOL     OW14494   2.594   4.154   1.551  0.1031  0.0597  0.5232
 1011SOL    HW114495   2.620   4.087   1.487 -1.1610 -0.9249  1.0473
 1011SOL    HW214496   2.686   4.172   1.570 -0.0514  0.6261  0.7456
 1012SOL     OW14497   3.753   1.183   4.852  0.2147  0.0536  0.2083
 1012SOL    HW114498   3.747   1.249   4.922 -0.6585  0.9849 -0.7487
 1012SOL    HW214499   3.847   1.167   4.847  0.0886  0.5004 -3.2254
 1013SOL     OW14500   1.086   3.930   8.939 -0.1310 -0.0157 -0.0655
 1013SOL    HW114501   1.003   3.976   8.952  0.5876  1.6639 -1.3582
 1013SOL    HW214502   1.124   3.952   9.024  0.2602 -1.8745  0.2395
 1014SOL     OW14503   3.032   2.642   3.583  0.1338 -0.2201 -0.1605
 1014SOL    HW114504   2.962   2.582   3.559 -1.0581 -0.0958  2.9770
 1014SOL    HW214505   3.020   2.708   3.515  1.8574 -0.9974 -1.2103
 1015SOL     OW14506   0.233   3.019   4.580  0.1642  0.2628  0.2148
 1015SOL    HW114507   0.245   3.094   4.522  0.6135  0.7439  0.9302
 1015SOL    HW214508   0.307   2.965   4.553 -0.1004  0.0881 -0.1709
 1016SOL     OW14509   0.507   3.681   0.353 -0.1887 -0.0931  0.8087
 1016SOL    HW114510   0.473   3.606   0.400  0.1656 -0.6086  0.2464
 1016SOL    HW214511   0.432   3.708   0.300  1.8640  2.1988 -0.9634
 1017SOL     OW14512   1.171   4.294   5.303 -0.4066  0.0604 -0.3958
 1017SOL    HW114513   1.220   4.251   5.232  0.3019  1.7679 -0.9286
 1017SOL    HW214514   1.098   4.232   5.297  2.3197 -3.1838 -0.4523
 1018SOL     OW14515   1.636   0.541   6.346  0.3737  0.2953 -0.5425
 1018SOL    HW114516   1.724   0.574   6.326 -1.1964  2.4364 -3.8161
 1018SOL    HW214517   1.598   0.551   6.259 -1.8938 -1.9925  0.1978
 1019SOL     OW14518   0.644   3.206   5.081 -0.1225 -0.3797  0.6935
 1019SOL    HW114519   0.710   3.259   5.127  1.9126 -1.9638 -0.4497
 1019SOL    HW214520   0.628   3.258   5.002  0.0470 -1.4206 -0.0268
 1020SOL     OW14521   3.159   0.946   6.481  0.4061  0.1540 -0.3467
 1020SOL    HW114522   3.155   0.931   6.386 -1.1647  2.1600 -0.6069
 1020SOL    HW214523   3.072   0.978   6.506  1.0398  1.0583  0.6865
 1021SOL     OW14524   2.867   2.247   5.772  0.6944  0.6514 -0.3927
 1021SOL    HW114525   2.805   2.284   5.711 -1.2650  3.0242  3.0518
 1021SOL    HW214526   2.819   2.168   5.798  1.1211  0.8429  1.0194
 1022SOL     OW14527   2.575   3.874   4.454  0.0090 -0.8341 -0.4995
 1022SOL    HW114528   2.640   3.867   4.524  0.1989  1.0941 -0.4826
 1022SOL    HW214529   2.581   3.789   4.411 -2.4314 -1.3685  0.2170
 1023SOL     OW14530   0.597   1.068   8.116  0.0482  0.6315  0.4698
 1023SOL    HW114531   0.668   1.004   8.123 -0.5736 -0.5123 -3.7270
 1023SOL    HW214532   0.531   1.020   8.166  0.6739 -0.5495  0.1475
 1024SOL     OW14533   0.747   4.007   2.793 -0.2292  0.2256 -0.1590
 1024SOL    HW114534   0.730   4.101   2.795 -0.0291  0.2584 -0.0465
 1024SOL    HW214535   0.828   4.008   2.844 -0.2418  0.2239 -0.1392
 1025SOL     OW14536   3.829   0.359   9.275  0.3715  0.0195 -0.1421
 1025SOL    HW114537   3.743   0.384   9.308 -0.5345  1.1007 -3.3438
 1025SOL    HW214538   3.824   0.264   9.288  3.3364  0.0648  1.1857
 1026SOL     OW14539   4.008   2.168   2.086 -0.0594 -0.2151  0.3258
 1026SOL    HW114540   3.913   2.154   2.094 -0.1867 -0.8711 -2.2209
 1026SOL    HW214541   4.043   2.087   2.122 -2.0791  0.4375  3.7044
 1027SOL     OW14542   2.386   1.796   1.263  0.3518 -0.3617  0.1566
 1027SOL    HW114543   2.312   1.831   1.313 -0.1354 -0.8611 -0.2155
 1027SOL    HW214544   2.400   1.721   1.321 -1.7466 -0.4474  0.5527
 1028SOL     OW14545   3.731   0.326   5.923 -0.6458 -0.0718 -0.7600
 1028SOL    HW114546   3.763   0.243   5.889 -0.3403  0.4093 -1.6612
 1028SOL    HW214547   3.646   0.312   5.963 -0.5371  1.7495  0.1029
 1029SOL     OW14548   3.674   0.054   7.382 -0.2406  0.5069 -0.5055
 1029SOL    HW114549   3.756   0.039   7.429 -0.7872  1.8759  0.8625
 1029SOL    HW214550   3.700   0.054   7.290 -2.5192 -0.4536 -1.1485
 1030SOL     OW14551   3.753   0.292   5.179  0.0222 -0.2709 -0.3634
 1030SOL    HW114552   3.779   0.241   5.256 -0.7672 -0.7773 -0.4314
 1030SOL    HW214553   3.661   0.305   5.205  0.4544 -1.7720  1.8976
 1031SOL     OW14554   2.036   0.352   9.315 -0.1854 -0.2386 -0.0020
 1031SOL    HW114555   2.086   0.306   9.383  0.3742  1.2601  0.6217
 1031SOL    HW214556   1.979   0.284   9.282 -1.0647  1.1202 -1.2934
 1032SOL     OW14557   2.448   4.372  15.832 -0.4165 -0.6583 -0.6178
 1032SOL    HW114558   2.398   4.372  15.913  1.0204 -0.6112  0.2636
 1032SOL    HW214559   2.422   4.452  15.787  2.1446 -0.2817 -1.4703
 1033SOL     OW14560   1.827   2.603   8.622  0.0900 -0.2547 -0.1959
 1033SOL    HW114561   1.757   2.575   8.564 -1.7423  1.4595  1.2035
 1033SOL    HW214562   1.894   2.631   8.558  0.1662 -0.6029 -0.2647
 1034SOL     OW14563   4.359   1.847   7.095  0.1016  0.4729  0.3936
 1034SOL    HW114564   4.412   1.810   7.167 -2.1383 -0.1830  1.6910
 1034SOL    HW214565   4.337   1.931   7.134 -0.2793 -0.1515  1.5263
 1035SOL     OW14566   1.856   1.609   1.516 -0.0556  0.4914  0.4143
 1035SOL    HW114567   1.814   1.636   1.598  3.5169 -0.5391  2.6111
 1035SOL    HW214568   1.805   1.662   1.455 -1.6905 -1.2654  0.2762
 1036SOL     OW14569   0.113   1.585   9.236  0.7471  0.3346  0.4800
 1036SOL    HW114570   0.093   1.671   9.273  1.5682  0.7125  0.0537
 1036SOL    HW214571   0.199   1.564   9.273  1.1341  0.0395 -0.5868
 1037SOL     OW14572   1.924   2.842  13.882 -0.3526  0.1660  0.4029
 1037SOL    HW114573   1.880   2.902  13.941 -0.0062  0.8903 -0.0699
 1037SOL    HW214574   2.000   2.899  13.868 -0.7167  0.1540 -1.6910
 1038SOL     OW14575   1.426   3.776   1.917 -0.3370  0.2429 -0.1620
 1038SOL    HW114576   1.474   3.792   1.836  0.0818 -0.9642 -0.1474
 1038SOL    HW214577   1.374   3.698   1.897  0.3819 -0.2681 -0.0541
 1039SOL     OW14578   2.450   2.057   1.133  0.3516 -0.0009  0.5113
 1039SOL    HW114579   2.424   1.972   1.168  2.0569  0.1365  2.0984
 1039SOL    HW214580   2.516   2.078   1.199  0.0162 -1.4112  1.2922
 1040SOL     OW14581   4.391   2.779   6.080 -0.4289 -0.3120 -0.5872
 1040SOL    HW114582   4.371   2.730   6.159  0.5982  0.5955  0.2226
 1040SOL    HW214583   4.330   2.736   6.020 -1.1278 -2.0261  1.3811
 1041SOL     OW14584   3.318   1.882  13.470  0.7295  0.6501 -0.8172
 1041SOL    HW114585   3.333   1.952  13.534 -1.1210 -1.0081  1.3890
 1041SOL    HW214586   3.351   1.812  13.526 -2.9196 -1.2763 -1.0885
 1042SOL     OW14587   2.926   0.587  11.030  0.5744 -0.4361 -0.4259
 1042SOL    HW114588   2.997   0.540  11.074  1.2658  0.3278 -0.7337
 1042SOL    HW214589   2.968   0.672  11.039  0.6986 -0.3085 -2.3817
 1043SOL     OW14590   3.634   2.756   5.347 -0.3064 -0.0152  0.0295
 1043SOL    HW114591   3.645   2.761   5.442  1.6749 -3.2378 -0.0264
 1043SOL    HW214592   3.573   2.829   5.338  0.8072  0.8188 -0.7227
 1044SOL     OW14593   0.637   1.659  12.725 -0.7689  0.5173  0.1337
 1044SOL    HW114594   0.709   1.624  12.778  0.1084  3.2727  0.8211
 1044SOL    HW214595   0.620   1.581  12.673 -1.0373  0.8603 -0.2877
 1045SOL     OW14596   0.710   2.118  14.382 -0.4933  0.2864 -0.6946
 1045SOL    HW114597   0.764   2.095  14.457  1.0137  0.0671 -1.8354
 1045SOL    HW214598   0.624   2.095  14.417  0.1272  0.4429  0.9305
 1046SOL     OW14599   1.267   0.427  12.743 -0.0650  0.5386 -0.0205
 1046SOL    HW114600   1.235   0.473  12.820 -1.3166  0.2652 -0.3696
 1046SOL    HW214601   1.206   0.456  12.675  0.6114  1.8624 -0.0467
 1047SOL     OW14602   0.331   2.841   8.249  0.3711  0.3019  0.3586
 1047SOL    HW114603   0.260   2.788   8.284  2.6197 -3.2483 -0.4107
 1047SOL    HW214604   0.345   2.904   8.320 -2.0015  0.3680  0.7582
 1048SOL     OW14605   2.528   4.486   4.241 -0.3784  0.1881  0.0186
 1048SOL    HW114606   2.501   4.560   4.187 -1.7767 -0.6651 -0.4306
 1048SOL    HW214607   2.444   4.462   4.281 -0.6626 -0.1928 -0.8224
 1049SOL     OW14608   4.692   3.864  16.611  0.5061 -0.5662  0.4661
 1049SOL    HW114609   4.625   3.800  16.636 -0.4484  0.8499  1.5583
 1049SOL    HW214610   0.043   3.838  16.661  0.8681  0.2989  0.3616
 1050SOL     OW14611   0.081   2.276   5.402 -0.4472  0.2329  0.9313
 1050SOL    HW114612   4.725   2.231   5.379 -0.6159 -0.4023  2.8003
 1050SOL    HW214613   0.127   2.195   5.425 -2.2496 -1.4748 -1.3550
 1051SOL     OW14614   2.701   1.035   6.865  0.5209  0.4502 -0.4994
 1051SOL    HW114615   2.684   0.945   6.840 -2.3182  0.6206  0.8264
 1051SOL    HW214616   2.746   1.034   6.949 -1.6912  1.4341  0.7058
 1052SOL     OW14617   2.212   2.354  12.059  0.4516  0.3492 -0.1562
 1052SOL    HW114618   2.135   2.412  12.057  0.6552  0.5962 -0.7835
 1052SOL    HW214619   2.265   2.396  12.127  0.5245 -0.4731  0.2871
 1053SOL     OW14620   2.995   3.447  16.084 -0.2722  0.0736 -0.4485
 1053SOL    HW114621   2.985   3.426  16.177  0.4499 -1.8123 -0.8024
 1053SOL    HW214622   3.015   3.541  16.083 -1.6392  0.3713 -0.7405
 1054SOL     OW14623   4.032   0.590  14.363  0.2735  0.4098  0.2741
 1054SOL    HW114624   4.051   0.511  14.414  1.5278 -0.0505 -0.8934
 1054SOL    HW214625   4.010   0.545  14.281 -0.8897  1.3490  0.0809
 1055SOL     OW14626   0.503   4.075   6.782 -0.0599 -0.3589 -0.0971
 1055SOL    HW114627   0.496   3.998   6.726 -1.1358  0.7776 -1.5439
 1055SOL    HW214628   0.529   4.144   6.721 -0.4733  1.2708  1.5643
 1056SOL     OW14629   2.971   3.358   5.589 -0.4360  0.1864  0.3577
 1056SOL    HW114630   2.964   3.452   5.606 -0.7635 -0.0070  1.2674
 1056SOL    HW214631   3.066   3.354   5.603 -0.5031  0.8360  0.9945
 1057SOL     OW14632   0.174   3.022   3.890 -0.0161  0.0636  0.0189
 1057SOL    HW114633   0.146   3.070   3.813 -1.5845 -1.3365 -0.2808
 1057SOL    HW214634   0.093   2.992   3.933  0.1260 -2.2476 -1.3332
 1058SOL     OW14635   2.772   1.714   5.339  0.5717 -0.0115 -0.8456
 1058SOL    HW114636   2.756   1.798   5.384 -1.0520  0.6406 -2.6212
 1058SOL    HW214637   2.682   1.683   5.347  1.0275 -1.2451 -0.5433
 1059SOL     OW14638   3.257   3.476  16.336  0.6626 -0.0058  0.3678
 1059SOL    HW114639   3.338   3.431  16.361  0.9204  1.4019  2.0860
 1059SOL    HW214640   3.275   3.567  16.360  2.6661 -0.1563 -0.4913
 1060SOL     OW14641   4.552   0.102  11.955  0.1761  0.3766 -0.4878
 1060SOL    HW114642   4.555   0.141  11.868  0.5782  2.2265  0.3615
 1060SOL    HW214643   4.555   0.186  12.002 -0.0460  0.2392 -0.2279
 1061SOL     OW14644   1.028   1.316   2.695  0.3631 -0.8608  0.4162
 1061SOL    HW114645   0.939   1.347   2.679  0.4145 -1.0820 -0.3038
 1061SOL    HW214646   1.037   1.257   2.621 -1.8978  0.1568 -0.6812
 1062SOL     OW14647   0.512   0.373   9.305  0.7170 -0.2134  0.4769
 1062SOL    HW114648   0.592   0.330   9.272  1.0355 -0.1010  1.0971
 1062SOL    HW214649   0.490   0.325   9.385 -0.6617 -1.5622 -0.7198
 1063SOL     OW14650   1.658   4.590   6.546  0.1517  0.1220  0.5087
 1063SOL    HW114651   1.702   4.601   6.631  0.4557  1.1317  0.2260
 1063SOL    HW214652   1.702   4.508   6.521 -3.3425 -2.1085  1.7310
 1064SOL     OW14653   2.176   3.095   7.270 -0.1044  0.0676 -0.2357
 1064SOL    HW114654   2.249   3.110   7.210 -0.1158 -2.4132 -0.8968
 1064SOL    HW214655   2.098   3.084   7.217  1.6528 -1.9031 -2.4466
 1065SOL     OW14656   2.633   0.485   7.096  0.1247 -0.2072  0.3403
 1065SOL    HW114657   2.601   0.395   7.106 -1.6422  0.4297  0.4880
 1065SOL    HW214658   2.643   0.481   7.000 -3.0162  0.0737  0.0003
 1066SOL     OW14659   2.434   1.080   9.818  0.3574  0.0463  0.0832
 1066SOL    HW114660   2.473   1.107   9.735 -2.0961  0.3288 -0.9704
 1066SOL    HW214661   2.498   1.110   9.883  0.9865 -1.0562 -0.0268
 1067SOL     OW14662   2.928   4.289   8.778 -0.1277 -0.6071 -0.0928
 1067SOL    HW114663   2.882   4.227   8.722 -0.5027  0.1869 -0.6623
 1067SOL    HW214664   3.011   4.242   8.791  0.1014 -0.6056 -1.5134
 1068SOL     OW14665   4.413   4.656   8.410  0.8965  0.0748  0.0201
 1068SOL    HW114666   4.493   4.677   8.361  0.2326  2.0558 -0.2043
 1068SOL    HW214667   4.351   4.645   8.338  1.1406  1.7640 -0.4493
 1069SOL     OW14668   1.204   0.407   3.931 -0.2400 -0.1278  0.5077
 1069SOL    HW114669   1.120   0.383   3.970 -0.9017  1.6589  0.2190
 1069SOL    HW214670   1.186   0.500   3.913  1.7841 -0.3661 -2.6773
 1070SOL     OW14671   0.719   1.914   4.168 -0.1338  0.3719  0.3244
 1070SOL    HW114672   0.792   1.975   4.182  0.8854  0.1249 -3.8321
 1070SOL    HW214673   0.766   1.831   4.165  1.0336  0.9930  1.3448
 1071SOL     OW14674   1.738   3.723   4.525 -0.4174  0.1400 -0.0209
 1071SOL    HW114675   1.761   3.776   4.602  2.0240  1.0771 -1.4014
 1071SOL    HW214676   1.806   3.752   4.464 -0.2096  0.6956  0.4734
 1072SOL     OW14677   3.410   0.624  16.340 -0.1991  0.2156 -0.4464
 1072SOL    HW114678   3.334   0.573  16.312 -0.5134  0.6756 -0.4304
 1072SOL    HW214679   3.361   0.671  16.408 -0.8530 -2.0112  0.6175
 1073SOL     OW14680   2.081   0.248  16.445 -0.0794  0.2060 -0.0365
 1073SOL    HW114681   2.037   0.293  16.517 -0.3734 -0.4486  0.1943
 1073SOL    HW214682   2.091   0.316  16.379  1.0394  0.2419  0.1709
 1074SOL     OW14683   3.867   4.455  10.996 -0.6895  0.0728 -0.4541
 1074SOL    HW114684   3.814   4.534  11.009  1.1226  1.4078 -1.1797
 1074SOL    HW214685   3.958   4.482  10.982 -0.6691  0.0446 -0.3744
 1075SOL     OW14686   0.947   4.551   6.962  0.3453  0.2175 -0.5250
 1075SOL    HW114687   0.948   4.471   7.013  3.0926  0.4943 -0.1208
 1075SOL    HW214688   0.994   4.524   6.883 -0.6686  1.8339 -1.6925
 1076SOL     OW14689   0.250   3.135   9.510 -0.2159  0.0894 -0.5113
 1076SOL    HW114690   0.233   3.048   9.548 -0.1140  0.3922  0.2230
 1076SOL    HW214691   0.252   3.111   9.417 -0.5995 -1.7736 -0.0395
 1077SOL     OW14692   0.798   1.351  15.308  0.4139 -0.0796 -0.3434
 1077SOL    HW114693   0.786   1.398  15.391 -1.0405  2.8059 -2.1682
 1077SOL    HW214694   0.707   1.324  15.297 -0.1038  1.5666 -0.1403
 1078SOL     OW14695   3.296   4.150   4.012 -0.2610 -0.3907  0.4228
 1078SOL    HW114696   3.283   4.210   3.938  1.4121  2.3712  2.4003
 1078SOL    HW214697   3.217   4.177   4.058 -0.0442 -1.2023  1.2793
 1079SOL     OW14698   1.894   2.042  11.670 -0.7971  0.0827  0.6714
 1079SOL    HW114699   1.848   2.110  11.620  1.2319  2.7123  2.3555
 1079SOL    HW214700   1.965   2.096  11.705  0.5042 -2.6585  2.1981
 1080SOL     OW14701   3.574   1.453   9.596 -0.2738 -0.0503  0.3433
 1080SOL    HW114702   3.595   1.458   9.689  1.3938 -1.8175  0.0684
 1080SOL    HW214703   3.540   1.540   9.577 -0.1859 -0.2405 -0.6789
 1081SOL     OW14704   0.912   4.606   2.746  0.1705 -0.2596 -0.0162
 1081SOL    HW114705   0.970   4.573   2.815 -0.2850 -0.3331  0.3280
 1081SOL    HW214706   0.902   4.534   2.683  1.3310  0.2578 -0.8011
 1082SOL     OW14707   2.574   4.440   7.059 -0.1282  0.2525  0.6166
 1082SOL    HW114708   2.527   4.410   7.137 -1.3681  0.1935 -0.1664
 1082SOL    HW214709   2.656   4.390   7.065  0.4065  1.1781  1.0078
 1083SOL     OW14710   1.285   4.181   5.085  0.1883  0.4022  0.2253
 1083SOL    HW114711   1.257   4.182   4.993  1.7350 -1.3411 -0.2524
 1083SOL    HW214712   1.342   4.104   5.087  1.0860  1.0426 -1.1940
 1084SOL     OW14713   0.522   3.619  15.422  0.1212  0.4138 -0.1148
 1084SOL    HW114714   0.451   3.629  15.359  1.4652 -1.6449 -1.9635
 1084SOL    HW214715   0.584   3.569  15.369 -0.9376 -1.1082  0.0593
 1085SOL     OW14716   1.031   2.903   4.705 -0.6288  0.1238 -0.4588
 1085SOL    HW114717   1.075   2.979   4.667  1.1285 -0.8592 -0.4322
 1085SOL    HW214718   0.949   2.894   4.657 -0.7228  0.4051 -0.3482
 1086SOL     OW14719   2.019   4.449   4.125  0.6585  0.2272  0.3927
 1086SOL    HW114720   2.068   4.512   4.074  0.0868 -0.7313 -1.3302
 1086SOL    HW214721   2.054   4.366   4.093  0.0795 -0.5216  1.7062
 1087SOL     OW14722   2.805   2.361   6.774  0.2574 -0.4621  0.2461
 1087SOL    HW114723   2.856   2.397   6.847 -0.8128 -0.7626  1.1472
 1087SOL    HW214724   2.777   2.277   6.811  0.9324 -0.8559 -0.1222
 1088SOL     OW14725   3.813   1.710  15.906 -0.7823  0.1349  0.1613
 1088SOL    HW114726   3.908   1.703  15.914 -0.7175  0.2429 -0.4498
 1088SOL    HW214727   3.777   1.659  15.979  1.1016 -0.1772  0.8697
 1089SOL     OW14728   1.186   0.512  14.027  0.3277 -0.2067 -0.4700
 1089SOL    HW114729   1.186   0.420  14.000  0.4980 -0.2812 -0.2199
 1089SOL    HW214730   1.168   0.551  13.942  0.9342 -0.1329 -0.5594
 1090SOL     OW14731   3.320   1.070   0.922  0.3117 -0.2287 -0.4815
 1090SOL    HW114732   3.324   0.978   0.949 -1.4143 -0.0249  0.4528
 1090SOL    HW214733   3.363   1.058   0.837  0.3645 -0.3306 -0.4402
 1091SOL     OW14734   2.924   1.115  10.194  0.0537 -0.1043 -0.2554
 1091SOL    HW114735   2.838   1.102  10.233 -0.2702  0.2653 -0.8370
 1091SOL    HW214736   2.954   1.200  10.228  0.5169 -0.2961 -0.1755
 1092SOL     OW14737   1.458   0.047   4.571 -0.4112  0.7586  0.1919
 1092SOL    HW114738   1.525   0.024   4.635 -2.0728 -0.0091  1.6581
 1092SOL    HW214739   1.382   0.071   4.623 -0.3573 -0.7242  0.9601
 1093SOL     OW14740   0.998   4.184   6.567 -0.1994  0.3750  0.3875
 1093SOL    HW114741   0.949   4.103   6.577 -1.2298  1.0289  0.6534
 1093SOL    HW214742   1.074   4.148   6.521 -1.7511 -2.1811 -0.1761
 1094SOL     OW14743   2.541   0.121  13.551  0.7177  0.0819 -0.6142
 1094SOL    HW114744   2.526   0.036  13.509  3.0308 -0.6160 -0.0553
 1094SOL    HW214745   2.576   0.175  13.481 -3.9423  1.5231 -1.8073
 1095SOL     OW14746   4.533   3.549   5.144 -0.0760 -0.7953 -0.0962
 1095SOL    HW114747   4.514   3.485   5.075 -2.1631  1.0423 -1.2013
 1095SOL    HW214748   4.510   3.626   5.093  0.0192  0.7253  2.1661
 1096SOL     OW14749   3.253   0.904  16.500 -0.0487  0.2019  0.3870
 1096SOL    HW114750   3.337   0.930  16.462  0.8335  0.0926  2.2291
 1096SOL    HW214751   3.185   0.958  16.460 -2.1682 -1.0020  2.3857
 1097SOL     OW14752   2.833   4.317   5.668  0.2864 -0.3469  0.3351
 1097SOL    HW114753   2.801   4.372   5.740  0.8867  0.7327 -0.2198
 1097SOL    HW214754   2.864   4.382   5.606 -1.0433 -0.2301 -0.2099
 1098SOL     OW14755   1.994   0.576   3.211 -0.4009 -0.4039  0.2163
 1098SOL    HW114756   2.051   0.621   3.274 -3.3575  2.0870  1.1089
 1098SOL    HW214757   1.991   0.483   3.234 -1.7280 -0.2313  0.7258
 1099SOL     OW14758   3.843   3.532   5.013  0.0566  0.4633 -0.4547
 1099SOL    HW114759   3.830   3.474   5.089 -0.0704  0.5114 -0.4397
 1099SOL    HW214760   3.863   3.461   4.952 -2.7803 -0.4582 -0.3158
 1100SOL     OW14761   2.138   0.222   5.641 -0.1825 -0.0926 -0.1099
 1100SOL    HW114762   2.229   0.253   5.638 -0.3417  0.3500 -0.3490
 1100SOL    HW214763   2.096   0.293   5.594  1.3954  2.0653  1.7733
 1101SOL     OW14764   1.525   1.987   8.589 -0.2330  0.1279  0.4931
 1101SOL    HW114765   1.598   1.983   8.650  1.0102 -1.6158 -1.1258
 1101SOL    HW214766   1.459   2.040   8.635  0.7053 -1.0740  3.2446
 1102SOL     OW14767   1.766   3.633   2.796 -0.0945 -0.4796 -0.1139
 1102SOL    HW114768   1.692   3.651   2.738  0.4723  1.0759 -0.3447
 1102SOL    HW214769   1.735   3.549   2.831 -0.3940 -0.2479  0.1757
 1103SOL     OW14770   2.795   0.234  11.034 -0.3849  0.8137  0.0812
 1103SOL    HW114771   2.766   0.151  10.997 -2.3916  1.9876 -0.9970
 1103SOL    HW214772   2.834   0.284  10.963  0.7974  2.5175  1.8970
 1104SOL     OW14773   2.060   1.872  10.382 -0.8171 -0.0823 -0.1498
 1104SOL    HW114774   2.051   1.968  10.380 -1.4604 -0.1569 -0.8547
 1104SOL    HW214775   2.105   1.849  10.301 -1.3779  1.4778 -0.9085
 1105SOL     OW14776   2.559   3.361   1.862 -0.2175 -0.4242 -0.2389
 1105SOL    HW114777   2.654   3.355   1.855 -0.3376 -0.9946 -1.2935
 1105SOL    HW214778   2.550   3.453   1.839 -0.4019 -0.3802  0.0118
 1106SOL     OW14779   1.617   0.433   7.468 -0.4216 -0.1231 -0.5954
 1106SOL    HW114780   1.689   0.450   7.408  1.2830  1.2928  1.8380
 1106SOL    HW214781   1.540   0.451   7.414  1.0635 -0.6053 -2.8479
 1107SOL     OW14782   2.934   4.349  15.949  0.0142 -0.1032  0.5626
 1107SOL    HW114783   2.967   4.261  15.929  0.4949  0.1580  0.2066
 1107SOL    HW214784   3.004   4.394  15.901  0.8356 -0.3117  1.5571
 1108SOL     OW14785   2.099   4.720   8.618  0.1471 -0.1661  0.2201
 1108SOL    HW114786   2.140   4.672   8.690 -1.6654 -1.9887  0.0659
 1108SOL    HW214787   2.153   4.695   8.543  0.9350 -1.8582  1.3444
 1109SOL     OW14788   0.615   1.716  13.504 -0.4438  0.1504  0.6882
 1109SOL    HW114789   0.567   1.788  13.545  2.3836  1.5931  1.4427
 1109SOL    HW214790   0.542   1.672  13.459  0.4389  0.6299 -1.1966
 1110SOL     OW14791   3.293   1.934   2.147  0.1540 -0.9109 -0.3372
 1110SOL    HW114792   3.230   1.887   2.202 -0.0042  1.1576  1.2710
 1110SOL    HW214793   3.373   1.900   2.187  0.1718 -0.2234  0.2175
 1111SOL     OW14794   3.644   4.117   7.130 -0.2335  0.1696  0.0017
 1111SOL    HW114795   3.554   4.094   7.151 -0.7174  1.6934 -0.3481
 1111SOL    HW214796   3.683   4.030   7.132  0.8688  0.6624  0.1739
 1112SOL     OW14797   2.859   1.619  13.997 -0.6886 -0.5670  0.1602
 1112SOL    HW114798   2.835   1.622  14.090  1.4418 -3.0213  0.8032
 1112SOL    HW214799   2.772   1.634  13.961 -0.8382 -1.6502  0.0747
 1113SOL     OW14800   1.737   4.645  17.049  0.5213  0.2205 -0.8685
 1113SOL    HW114801   1.808   4.657  17.112 -0.0238 -2.6659  0.2766
 1113SOL    HW214802   1.783   4.592  16.983  4.1548 -0.0170  1.8481
 1114SOL     OW14803   2.617   1.355  10.240 -0.7446  0.5634  0.3222
 1114SOL    HW114804   2.566   1.401  10.172 -0.9724 -0.4767 -0.2182
 1114SOL    HW214805   2.659   1.428  10.285  0.8525  0.0561 -0.3598
 1115SOL     OW14806   1.134   2.030  10.346 -0.7538  0.0233  0.0301
 1115SOL    HW114807   1.206   2.022  10.285 -0.9983  0.6591 -0.3494
 1115SOL    HW214808   1.097   1.942  10.345  2.8201 -1.4981  1.4491
 1116SOL     OW14809   0.804   0.837   9.127 -0.0461  0.2701 -0.3387
 1116SOL    HW114810   0.834   0.754   9.166  1.7010 -0.4913 -3.3266
 1116SOL    HW214811   0.750   0.811   9.052  0.8384  0.5906 -1.0885
 1117SOL     OW14812   1.530   3.385   5.476 -0.1084  0.0043  0.1042
 1117SOL    HW114813   1.437   3.400   5.497 -0.2942 -0.8417 -0.1039
 1117SOL    HW214814   1.564   3.455   5.421  0.2871 -1.3019 -1.3166
 1118SOL     OW14815   3.477   3.198   6.217 -0.1042 -0.0629 -0.0640
 1118SOL    HW114816   3.392   3.239   6.200 -0.0898  0.1325  0.3326
 1118SOL    HW214817   3.539   3.269   6.238 -0.3124  0.5483 -1.5071
 1119SOL     OW14818   1.369   3.560   4.754 -0.1451  0.1734 -0.2767
 1119SOL    HW114819   1.452   3.550   4.801  0.0516 -0.3371 -0.7354
 1119SOL    HW214820   1.366   3.656   4.749 -0.5105 -0.0132 -3.6253
 1120SOL     OW14821   3.532   0.324   4.256 -0.2506  0.3025  0.0285
 1120SOL    HW114822   3.515   0.388   4.325 -1.7367 -1.1276  0.9781
 1120SOL    HW214823   3.554   0.389   4.190 -1.3629 -0.5660 -1.1868
 1121SOL     OW14824   0.992   1.533   3.437 -0.3767  0.3545 -0.6358
 1121SOL    HW114825   1.048   1.595   3.482 -1.1716  0.5210  0.1375
 1121SOL    HW214826   1.015   1.549   3.346  0.1503  1.8547 -0.2334
 1122SOL     OW14827   0.196   4.268   5.252 -0.0447 -0.0729  0.6617
 1122SOL    HW114828   0.150   4.209   5.312  2.6054 -1.4412  1.3745
 1122SOL    HW214829   0.283   4.227   5.248  0.4696  1.1922 -0.8534
 1123SOL     OW14830   3.137   4.283   4.226  0.1005  0.4023 -0.4280
 1123SOL    HW114831   3.176   4.363   4.191  1.8113  0.4491  1.5588
 1123SOL    HW214832   3.054   4.313   4.262 -0.6923 -0.9314 -1.1687
 1124SOL     OW14833   2.950   0.894   7.873  0.1211 -0.0670 -0.4386
 1124SOL    HW114834   3.043   0.895   7.896 -0.4037  0.6105  1.6057
 1124SOL    HW214835   2.914   0.962   7.930  0.0710 -1.9739  1.7850
 1125SOL     OW14836   2.088   0.575   2.568  0.4018  0.3095  0.3037
 1125SOL    HW114837   2.038   0.504   2.607 -1.0473 -0.3168 -2.6330
 1125SOL    HW214838   2.022   0.643   2.549  0.1550  0.0668  0.2961
 1126SOL     OW14839   1.625   0.425   1.962  0.5010 -0.1003  0.0543
 1126SOL    HW114840   1.533   0.408   1.980  0.5676 -0.0785  0.4222
 1126SOL    HW214841   1.647   0.484   2.034  0.4613 -1.3718  1.1031
 1127SOL     OW14842   3.445   4.212  16.073  0.0498 -0.1737  0.8648
 1127SOL    HW114843   3.429   4.149  16.143 -2.4093 -1.2908 -0.7086
 1127SOL    HW214844   3.438   4.167  15.989 -0.5161  1.3146  0.1197
 1128SOL     OW14845   1.368   3.423   8.237 -0.3068  0.2664 -0.1570
 1128SOL    HW114846   1.278   3.457   8.239 -0.6247 -0.5836 -0.0626
 1128SOL    HW214847   1.404   3.456   8.154 -3.2464 -0.2207 -1.6375
 1129SOL     OW14848   3.413   3.587   5.257  0.7431 -1.0185 -0.5121
 1129SOL    HW114849   3.447   3.675   5.275 -0.1450 -0.4912 -1.4349
 1129SOL    HW214850   3.398   3.588   5.162  0.4788 -0.4281 -0.4652
 1130SOL     OW14851   0.689   2.191   2.470 -0.0519 -0.2061  0.3319
 1130SOL    HW114852   0.767   2.188   2.413 -1.2350 -1.3236 -1.2410
 1130SOL    HW214853   0.670   2.097   2.463  1.0570 -0.5379  1.6762
 1131SOL     OW14854   0.936   4.610   0.847  0.0781  0.3724 -0.6582
 1131SOL    HW114855   0.867   4.547   0.869 -0.0927  1.2767  1.3998
 1131SOL    HW214856   0.906   4.687   0.895  0.7457 -0.6125  1.3493
 1132SOL     OW14857   0.852   2.471  13.685  0.4013  0.2650 -0.0591
 1132SOL    HW114858   0.835   2.429  13.601  1.8817 -0.5544  0.0448
 1132SOL    HW214859   0.781   2.534  13.694 -0.9302 -1.0877 -0.9563
 1133SOL     OW14860   2.615   1.370   3.992  0.1986  0.2286 -0.3817
 1133SOL    HW114861   2.523   1.346   4.001  0.4558  0.2834  2.3097
 1133SOL    HW214862   2.628   1.450   4.041 -0.2586 -0.0223  0.1449
 1134SOL     OW14863   0.602   4.642   8.794 -0.5140 -0.3972 -0.1648
 1134SOL    HW114864   0.547   4.719   8.782  2.0296  1.3549 -0.6134
 1134SOL    HW214865   0.544   4.591   8.851 -1.3503 -0.2901 -0.9293
 1135SOL     OW14866   2.214   0.567  17.520 -0.1525  0.4105 -0.1698
 1135SOL    HW114867   2.281   0.499  17.524  0.0617  0.5879 -0.8102
 1135SOL    HW214868   2.259   0.641  17.478 -1.0015  0.7394 -0.4990
 1136SOL     OW14869   1.423   4.682  13.134 -0.5627  0.5208  0.3078
 1136SOL    HW114870   1.451   0.047  13.120  0.7557  0.2632  1.3064
 1136SOL    HW214871   1.471   4.672  13.216 -2.8857  0.5543  1.6590
 1137SOL     OW14872   4.544   0.936   3.326  0.2687 -1.4355  0.4286
 1137SOL    HW114873   4.628   0.970   3.296 -0.3722 -1.1757 -1.1149
 1137SOL    HW214874   4.501   1.021   3.311  0.7727 -1.5133 -1.5108
 1138SOL     OW14875   2.851   4.110   2.607 -1.0978  0.1785 -0.2590
 1138SOL    HW114876   2.774   4.053   2.611 -1.4123  0.5719 -0.7445
 1138SOL    HW214877   2.840   4.135   2.515 -1.0732 -0.0077 -0.3132
 1139SOL     OW14878   1.232   0.268  12.262 -0.3871  0.3263 -0.3684
 1139SOL    HW114879   1.244   0.177  12.289  2.4975  0.5152 -1.0207
 1139SOL    HW214880   1.217   0.265  12.167  1.9970  0.4895 -0.7674
 1140SOL     OW14881   1.699   1.858  10.432  0.3178  0.0662  0.0331
 1140SOL    HW114882   1.761   1.786  10.436  0.4869  0.1154 -1.4827
 1140SOL    HW214883   1.642   1.838  10.506 -0.6190 -1.0920 -1.0089
 1141SOL     OW14884   2.577   3.985   2.479  0.3827 -0.1665 -0.2627
 1141SOL    HW114885   2.641   4.046   2.443  1.4601 -1.1326  0.0254
 1141SOL    HW214886   2.550   4.033   2.557 -0.6192 -2.2375  0.6691
 1142SOL     OW14887   4.597   1.825   8.013  0.2057  0.2920 -0.4270
 1142SOL    HW114888   4.551   1.746   8.038 -0.7847  0.9410 -0.2280
 1142SOL    HW214889   4.522   1.881   8.030 -0.0961 -0.8828  2.0754
 1143SOL     OW14890   2.163   2.812  17.118 -0.4039 -0.2036 -0.0478
 1143SOL    HW114891   2.168   2.908  17.112  2.1445 -0.3508 -0.1272
 1143SOL    HW214892   2.242   2.787  17.070  1.4269 -0.6971  3.2121
 1144SOL     OW14893   0.093   3.889   9.768 -0.5364  0.2857  0.4577
 1144SOL    HW114894   0.058   3.947   9.835 -0.7404  0.1612  0.4570
 1144SOL    HW214895   0.184   3.918   9.768 -0.3765 -0.2159  0.1538
 1145SOL     OW14896   0.160   0.662  13.924  0.5832 -0.0761  0.6761
 1145SOL    HW114897   0.143   0.717  13.847 -1.1807 -1.0510  0.3810
 1145SOL    HW214898   0.235   0.705  13.966  1.6141 -1.0116 -0.2332
 1146SOL     OW14899   1.028   2.521   8.913 -0.2759  0.7050 -0.7148
 1146SOL    HW114900   1.025   2.586   8.983 -1.4927 -1.1127  0.9417
 1146SOL    HW214901   0.956   2.461   8.935  0.5633  0.5085  1.4749
 1147SOL     OW14902   2.825   1.390  12.182 -0.0197 -0.2081 -0.2907
 1147SOL    HW114903   2.751   1.449  12.180 -2.0133 -2.6351  2.3338
 1147SOL    HW214904   2.793   1.333  12.252  1.5853 -1.3450 -0.4698
 1148SOL     OW14905   4.072   3.781   2.509 -0.0726  0.0472  0.6085
 1148SOL    HW114906   4.129   3.739   2.444 -1.6880 -2.6833  0.9965
 1148SOL    HW214907   3.993   3.768   2.456  0.2808 -1.6838  0.5142
 1149SOL     OW14908   2.379   4.404   2.704 -0.3750  0.1510 -0.1067
 1149SOL    HW114909   2.284   4.405   2.716  0.0360  2.0321  2.8540
 1149SOL    HW214910   2.386   4.426   2.611 -0.2456  0.5211 -0.0115
 1150SOL     OW14911   3.435   0.327   1.317 -0.2123 -0.5470  0.2284
 1150SOL    HW114912   3.346   0.297   1.332 -0.5259  2.1189  3.7781
 1150SOL    HW214913   3.432   0.375   1.235  1.0405 -0.8641 -0.0141
 1151SOL     OW14914   3.166   0.960   5.483 -0.2342  0.6658 -0.4848
 1151SOL    HW114915   3.220   1.034   5.512  0.0535  0.1628  0.2473
 1151SOL    HW214916   3.076   0.992   5.478 -0.7062 -0.8411 -1.7048
 1152SOL     OW14917   4.356   0.583  16.919 -0.3639  0.6074 -0.4279
 1152SOL    HW114918   4.364   0.576  17.015  0.9556  2.1053 -0.4406
 1152SOL    HW214919   4.434   0.533  16.897 -1.8315 -1.6152 -0.5974
 1153SOL     OW14920   4.590   1.657   4.266 -0.1622 -0.2758  0.3830
 1153SOL    HW114921   4.540   1.681   4.344  0.8968  0.6637  0.7807
 1153SOL    HW214922   4.515   1.649   4.207 -1.0694 -0.0040  1.5113
 1154SOL     OW14923   0.241   1.640  14.532  0.0103 -0.1005 -0.5900
 1154SOL    HW114924   0.274   1.719  14.573  1.9359 -0.6710 -1.0582
 1154SOL    HW214925   0.167   1.681  14.488  0.7319  1.5497 -0.2328
 1155SOL     OW14926   2.971   3.065  11.475 -0.3790 -0.4314  0.2617
 1155SOL    HW114927   2.895   3.036  11.525 -0.2094 -1.8336 -0.3149
 1155SOL    HW214928   2.991   3.148  11.519  3.6402 -0.4631 -1.5293
 1156SOL     OW14929   1.507   2.697   1.544  0.0258  0.0519  0.1171
 1156SOL    HW114930   1.572   2.761   1.572 -2.1784  1.8667  1.0601
 1156SOL    HW214931   1.547   2.669   1.462 -0.4647 -0.1664 -0.0464
 1157SOL     OW14932   3.875   1.442   8.444  0.0264 -0.2395  0.1185
 1157SOL    HW114933   3.918   1.525   8.463 -2.2533  0.8614  0.5261
 1157SOL    HW214934   3.934   1.371   8.468  0.8073  0.6974  0.9403
 1158SOL     OW14935   3.103   0.572   7.966 -0.4908 -0.3049 -0.7632
 1158SOL    HW114936   3.012   0.596   7.950 -0.4335 -0.9066 -2.0376
 1158SOL    HW214937   3.138   0.654   7.999 -0.0804 -0.2339 -1.3610
 1159SOL     OW14938   2.443   3.986   8.723  0.1483 -0.6286 -0.3017
 1159SOL    HW114939   2.432   3.975   8.817  2.1627  0.1040  0.0129
 1159SOL    HW214940   2.490   3.904   8.702 -1.8361 -1.1590 -2.6409
 1160SOL     OW14941   0.888   3.604   4.124  0.6714  0.5446  0.0631
 1160SOL    HW114942   0.908   3.560   4.207 -1.6117  0.6046  0.6217
 1160SOL    HW214943   0.797   3.582   4.106  1.3148 -3.0292  1.1146
 1161SOL     OW14944   3.090   4.316  14.028  0.0345 -0.5030  0.2014
 1161SOL    HW114945   3.149   4.299  14.101  0.4748 -1.3559 -0.3522
 1161SOL    HW214946   3.012   4.268  14.058  0.9103 -2.4622 -0.6032
 1162SOL     OW14947   1.374   1.247   5.953  0.2569  0.0648  0.3611
 1162SOL    HW114948   1.450   1.211   6.000  3.4171  3.4675 -2.1137
 1162SOL    HW214949   1.334   1.292   6.027  1.1563  2.5828 -0.6895
 1163SOL     OW14950   0.068   4.082  13.958  0.4260 -0.0276  0.3072
 1163SOL    HW114951   0.045   3.994  13.927 -1.0879 -0.0563  1.5043
 1163SOL    HW214952   0.146   4.094  13.904 -1.1776  1.0086 -1.7947
 1164SOL     OW14953   3.842   0.449   2.265 -0.1832 -0.3980 -0.5802
 1164SOL    HW114954   3.794   0.472   2.345  0.8386  1.6632 -0.5545
 1164SOL    HW214955   3.926   0.423   2.305  0.0342  0.0261 -0.7659
 1165SOL     OW14956   3.629   4.291   4.549 -0.3195  0.3370  0.0535
 1165SOL    HW114957   3.667   4.327   4.629 -0.7086  0.4157  0.1992
 1165SOL    HW214958   3.715   4.290   4.507 -0.6675  0.3221 -0.6577
 1166SOL     OW14959   3.095   0.534   1.274  0.0664 -0.4195 -0.0473
 1166SOL    HW114960   3.113   0.599   1.206  1.3832  0.5845  1.2672
 1166SOL    HW214961   3.006   0.565   1.294  0.3305 -0.8985  1.8676
 1167SOL     OW14962   2.319   3.719   8.125 -0.4465  0.3583  0.3791
 1167SOL    HW114963   2.286   3.806   8.148  0.0908  0.3815  1.0969
 1167SOL    HW214964   2.378   3.715   8.201 -1.4155  0.9753  1.1620
 1168SOL     OW14965   0.433   4.562   7.320 -0.3424 -0.2167 -0.6980
 1168SOL    HW114966   0.487   4.488   7.345 -2.2654 -1.4502 -0.1404
 1168SOL    HW214967   0.491   4.629   7.355 -0.5816 -0.3386 -0.0685
 1169SOL     OW14968   3.525   1.740   6.185  0.1377 -0.0182  0.0104
 1169SOL    HW114969   3.504   1.832   6.168  0.7233 -0.1167 -1.2131
 1169SOL    HW214970   3.620   1.731   6.175 -0.0677 -0.5680 -1.4283
 1170SOL     OW14971   1.931   2.154  10.060 -0.2834 -0.0257 -0.5853
 1170SOL    HW114972   1.911   2.187   9.972 -0.4972 -0.6738 -0.7791
 1170SOL    HW214973   1.882   2.072  10.051 -0.3776 -0.2357  1.9163
 1171SOL     OW14974   3.468   0.804   1.707 -0.3024  0.4808  0.2993
 1171SOL    HW114975   3.548   0.787   1.658 -0.0264 -1.7854  1.5915
 1171SOL    HW214976   3.488   0.778   1.796  1.6077 -2.0276 -0.8843
 1172SOL     OW14977   1.602   3.498   3.461 -0.0872  0.6363  0.3824
 1172SOL    HW114978   1.604   3.594   3.459 -1.5221  0.7033  2.4871
 1172SOL    HW214979   1.661   3.499   3.536  1.0928 -1.6299 -0.5320
 1173SOL     OW14980   4.218   0.023   4.546  0.9099 -0.1022  0.3478
 1173SOL    HW114981   4.267   0.104   4.563  0.0206  0.7803 -1.2040
 1173SOL    HW214982   4.275   4.688   4.594 -0.4197 -1.0329  0.7438
 1174SOL     OW14983   0.415   3.673  13.933 -0.3462 -0.1186  0.5327
 1174SOL    HW114984   0.425   3.747  13.993  0.1583 -0.5873  1.0357
 1174SOL    HW214985   0.483   3.706  13.874  2.3998 -1.1116  3.1373
 1175SOL     OW14986   2.910   1.053   5.494 -0.1225 -0.0430  0.3805
 1175SOL    HW114987   2.845   1.060   5.564  0.2947  2.4392  0.5295
 1175SOL    HW214988   2.913   1.136   5.446  1.5813 -0.2150  0.1932
 1176SOL     OW14989   4.078   3.457   1.217 -0.2043  0.7721  0.0996
 1176SOL    HW114990   4.133   3.441   1.294  0.5539 -0.4784 -0.6916
 1176SOL    HW214991   4.154   3.467   1.159  0.6844  1.5221  1.3980
 1177SOL     OW14992   4.145   3.000  16.006  0.8218  0.3634 -0.2204
 1177SOL    HW114993   4.095   2.999  16.088 -1.4665 -1.1704 -1.6261
 1177SOL    HW214994   4.084   2.982  15.934  1.1872 -1.2656 -0.1111
 1178SOL     OW14995   4.029   1.362   3.844  0.7269  0.2700 -0.2388
 1178SOL    HW114996   4.005   1.415   3.768  0.9918  0.1130 -0.4294
 1178SOL    HW214997   4.120   1.344   3.822  0.3598 -1.7765 -0.1018
 1179SOL     OW14998   3.236   1.568  10.550 -0.1049  0.2864 -0.1860
 1179SOL    HW114999   3.156   1.621  10.552  0.1703  0.6373  1.2427
 1179SOL    HW215000   3.285   1.602  10.624  1.4019  0.2965 -1.1866
 1180SOL     OW15001   0.067   2.734   8.320 -0.2070  0.4938  0.0731
 1180SOL    HW115002   0.021   2.653   8.342  1.7725 -0.4268  0.8565
 1180SOL    HW215003   4.723   2.794   8.293  1.4825  2.4025  0.0028
 1181SOL     OW15004   2.661   0.242   5.349 -0.0956  0.4990  0.2437
 1181SOL    HW115005   2.594   0.310   5.345  0.5466  1.0190 -1.4827
 1181SOL    HW215006   2.691   0.256   5.259 -0.6696  0.3514  0.0227
 1182SOL     OW15007   0.738   3.367   8.166  0.2951  0.1973  0.1840
 1182SOL    HW115008   0.703   3.378   8.077  1.6585  1.4283 -0.2134
 1182SOL    HW215009   0.773   3.456   8.177 -2.5091  1.3960 -0.4532
 1183SOL     OW15010   3.842   3.899  15.541 -0.0762  0.2314 -0.5926
 1183SOL    HW115011   3.804   3.866  15.623  2.3027  1.3385  0.9667
 1183SOL    HW215012   3.915   3.958  15.564 -0.4055 -0.2826  1.8182
 1184SOL     OW15013   1.770   2.980  14.729 -0.2498 -0.3790  0.2665
 1184SOL    HW115014   1.773   2.885  14.725 -1.2710 -0.3935 -0.0783
 1184SOL    HW215015   1.690   2.983  14.781 -0.0315  0.2511  0.5719
 1185SOL     OW15016   3.153   1.616   8.261 -0.2532 -0.5157  0.7002
 1185SOL    HW115017   3.208   1.543   8.233  0.5212  0.2242  0.2949
 1185SOL    HW215018   3.071   1.566   8.263  1.0062 -2.6257 -0.2634
 1186SOL     OW15019   3.390   0.486   2.239 -0.4124  0.1714  0.0676
 1186SOL    HW115020   3.302   0.520   2.257  0.3689  3.2736 -1.8741
 1186SOL    HW215021   3.405   0.523   2.152 -2.5002 -0.1410 -0.4254
 1187SOL     OW15022   3.271   3.026   3.277  0.4595  0.1669 -0.4586
 1187SOL    HW115023   3.279   2.987   3.189 -0.7196 -2.0904  0.4364
 1187SOL    HW215024   3.203   3.090   3.258  1.2198  1.0308 -0.2586
 1188SOL     OW15025   3.355   0.132   0.241  0.0672  0.6370  0.0300
 1188SOL    HW115026   3.376   0.109   0.150  0.5432  0.5023  0.1731
 1188SOL    HW215027   3.443   0.157   0.271 -0.3260  0.1441  1.5298
 1189SOL     OW15028   0.080   1.252   3.125  0.1386 -0.2140 -0.4629
 1189SOL    HW115029   0.110   1.321   3.185  0.4476 -0.5469 -0.2383
 1189SOL    HW215030   0.157   1.258   3.069 -0.3443  2.9868 -0.7806
 1190SOL     OW15031   1.407   1.669   1.181  0.2402 -0.3020  0.9350
 1190SOL    HW115032   1.349   1.745   1.174  0.4749 -0.0546  1.6805
 1190SOL    HW215033   1.441   1.660   1.092  2.9844 -1.3881  2.0999
 1191SOL     OW15034   1.760   1.384   2.813  0.3591 -0.2062  0.5018
 1191SOL    HW115035   1.702   1.347   2.748  0.9281  1.4971 -0.9916
 1191SOL    HW215036   1.850   1.370   2.783 -0.0702 -1.1764 -0.2945
 1192SOL     OW15037   2.280   2.542  17.157  0.7150  0.8078 -0.3784
 1192SOL    HW115038   2.333   2.610  17.114  1.5966  0.6530  0.4752
 1192SOL    HW215039   2.261   2.582  17.241  2.5114  0.4957  0.1786
 1193SOL     OW15040   1.017   4.219   7.340  0.4427  0.0470  0.6311
 1193SOL    HW115041   1.052   4.303   7.371 -3.2477  1.3114  1.3764
 1193SOL    HW215042   0.978   4.178   7.417  2.1182  0.2568  1.5864
 1194SOL     OW15043   4.550   4.566   3.747 -0.5031 -0.0931 -0.0191
 1194SOL    HW115044   4.563   4.606   3.661 -0.1350 -0.2240 -0.0244
 1194SOL    HW215045   4.577   4.476   3.732  0.2309  0.4674 -2.0771
 1195SOL     OW15046   3.543   1.067  14.985 -0.0301 -0.0237 -0.2246
 1195SOL    HW115047   3.539   1.160  14.964 -0.2682  0.2445  1.0513
 1195SOL    HW215048   3.634   1.052  15.011  0.1738 -0.2205 -1.0421
 1196SOL     OW15049   4.436   0.214  12.685  0.0120  0.1278 -0.4791
 1196SOL    HW115050   4.456   0.135  12.734 -0.6708 -0.2390 -0.7905
 1196SOL    HW215051   4.385   0.173  12.615 -0.7501 -0.2250  0.2938
 1197SOL     OW15052   3.424   0.750   3.979  0.1602 -0.0235 -0.0629
 1197SOL    HW115053   3.496   0.789   4.029 -1.4474  1.4823  1.1011
 1197SOL    HW215054   3.399   0.689   4.049 -0.5643 -1.6031 -1.7251
 1198SOL     OW15055   4.385   3.155   5.600 -0.1336  0.2166 -0.6638
 1198SOL    HW115056   4.343   3.241   5.593 -1.4794 -0.2693  1.5018
 1198SOL    HW215057   4.416   3.129   5.513  3.2580  1.7246  0.0817
 1199SOL     OW15058   1.041   1.540  10.289 -0.2893  0.3144 -0.0717
 1199SOL    HW115059   0.969   1.575  10.341  0.3090  1.1431  0.1996
 1199SOL    HW215060   1.116   1.558  10.346  0.8888 -2.0215 -0.8716
 1200SOL     OW15061   0.342   4.371   2.639  0.0388 -0.3261  0.0780
 1200SOL    HW115062   0.348   4.444   2.701 -2.4125  0.3220 -0.4230
 1200SOL    HW215063   0.377   4.408   2.558 -1.9198 -1.3801 -1.2653
 1201SOL     OW15064   1.841   2.357  15.204 -0.1299 -0.0754  0.1962
 1201SOL    HW115065   1.887   2.310  15.135 -1.7767 -1.9397  0.3495
 1201SOL    HW215066   1.866   2.445  15.177 -0.2159  0.1759  0.9336
 1202SOL     OW15067   3.930   0.619   4.473  0.0240  0.3672 -0.6122
 1202SOL    HW115068   4.022   0.628   4.451  1.1139 -2.2473  2.8147
 1202SOL    HW215069   3.933   0.544   4.533 -0.8287  1.8442  1.2736
 1203SOL     OW15070   2.843   4.277  10.305 -0.1820 -0.1737  0.3449
 1203SOL    HW115071   2.927   4.277  10.351 -1.4057 -3.4009  2.5643
 1203SOL    HW215072   2.870   4.302  10.216 -0.4243 -3.4022 -0.6453
 1204SOL     OW15073   0.221   1.581  14.808  0.2178 -0.0301  0.3629
 1204SOL    HW115074   0.167   1.502  14.808 -0.5797  0.5242  0.4702
 1204SOL    HW215075   0.258   1.579  14.719 -0.6137 -0.6625  0.0362
 1205SOL     OW15076   1.936   0.413   5.197 -0.3591  0.3710 -0.7136
 1205SOL    HW115077   1.928   0.506   5.219  0.2948  0.7723 -2.1687
 1205SOL    HW215078   1.848   0.374   5.199  1.0892 -2.8452 -0.6953
 1206SOL     OW15079   3.322   2.358   5.833 -0.4953  0.1635 -0.1282
 1206SOL    HW115080   3.238   2.404   5.827  0.3420  2.0556  2.7385
 1206SOL    HW215081   3.302   2.307   5.911 -0.2613  3.9750  2.4357
 1207SOL     OW15082   0.024   2.189   3.384 -0.1219  0.3624  0.1461
 1207SOL    HW115083   0.074   2.153   3.457 -1.1794  0.5402  0.9527
 1207SOL    HW215084   0.071   2.268   3.358  1.4184 -0.9616 -1.1472
 1208SOL     OW15085   2.361   1.922  16.503  0.1149 -0.4909  0.1160
 1208SOL    HW115086   2.351   1.860  16.575  1.5665  0.4461  1.1230
 1208SOL    HW215087   2.424   1.974  16.552 -0.4758 -0.4604  0.8499
 1209SOL     OW15088   3.509   4.519   6.814 -0.4903 -0.0329 -0.1174
 1209SOL    HW115089   3.427   4.564   6.835 -0.0555  0.5608  0.2884
 1209SOL    HW215090   3.500   4.505   6.720 -1.0647 -0.8004  0.0541
 1210SOL     OW15091   4.680   1.108   8.767  0.0429 -0.3384 -0.1891
 1210SOL    HW115092   4.698   1.058   8.847 -2.3962 -0.1985  0.4609
 1210SOL    HW215093   4.590   1.131   8.791 -0.5589 -1.4808 -1.3058
 1211SOL     OW15094   2.619   1.775  17.647  0.4407 -0.2670 -0.8848
 1211SOL    HW115095   2.637   1.711   0.011  0.6210  0.6735 -0.0385
 1211SOL    HW215096   2.595   1.713  17.578  1.3011  0.4756 -1.8716
 1212SOL     OW15097   2.820   2.694   8.176  0.3162  0.7470  0.0838
 1212SOL    HW115098   2.787   2.634   8.243  0.6314 -0.4163 -0.8055
 1212SOL    HW215099   2.786   2.642   8.104 -0.8126  1.7935 -0.1276
 1213SOL     OW15100   4.221   1.824  15.804  0.5801  0.0608  0.0131
 1213SOL    HW115101   4.273   1.891  15.759  0.6543  0.9008  1.3421
 1213SOL    HW215102   4.253   1.745  15.761 -0.9971 -0.1567 -0.7206
 1214SOL     OW15103   0.477   1.540   2.627 -0.9735  0.2723  0.3381
 1214SOL    HW115104   0.483   1.582   2.712 -0.3543 -0.9523  0.9087
 1214SOL    HW215105   0.396   1.581   2.595 -2.0022 -1.6943  0.3961
 1215SOL     OW15106   1.131   0.378   8.616  0.3248  0.0589  0.0962
 1215SOL    HW115107   1.151   0.346   8.528  1.4365  0.9482  0.0189
 1215SOL    HW215108   1.216   0.352   8.652  0.3029  0.9887  0.8260
 1216SOL     OW15109   1.031   4.182   8.228 -0.3596  0.6476 -0.6547
 1216SOL    HW115110   1.090   4.109   8.242 -1.6244  0.0718  1.6492
 1216SOL    HW215111   0.974   4.174   8.305  0.7976  2.6490  0.4301
 1217SOL     OW15112   0.917   0.267  15.816  0.3459 -0.0040  0.3426
 1217SOL    HW115113   1.006   0.250  15.783  0.9063  0.5633  1.5416
 1217SOL    HW215114   0.875   0.291  15.734 -1.7725 -0.8075  1.1981
 1218SOL     OW15115   1.300   0.449   7.914  0.3205 -0.3435  1.0380
 1218SOL    HW115116   1.274   0.464   8.005  1.0810  1.4401  0.9566
 1218SOL    HW215117   1.388   0.486   7.915  0.3525 -0.3960 -0.2109
 1219SOL     OW15118   1.154   3.662   8.195 -0.3955  0.0936 -0.1479
 1219SOL    HW115119   1.145   3.697   8.283 -1.1771 -0.8402  0.1471
 1219SOL    HW215120   1.123   3.741   8.151 -0.8733  0.5365  1.0010
 1220SOL     OW15121   0.626   0.069   8.415 -0.2719 -0.4949  0.3588
 1220SOL    HW115122   0.666   0.033   8.495  1.3410 -1.7035 -1.0103
 1220SOL    HW215123   0.691   0.119   8.366 -0.1288 -1.1620 -0.1225
 1221SOL     OW15124   4.248   1.778   7.850 -0.2933  0.3657 -0.0381
 1221SOL    HW115125   4.272   1.804   7.939 -0.5794  0.6698 -0.0518
 1221SOL    HW215126   4.279   1.688   7.860 -0.8067  0.0973 -0.9584
 1222SOL     OW15127   0.983   0.970   6.091 -0.0690  0.0072  0.0934
 1222SOL    HW115128   1.002   0.975   6.185 -0.9484 -1.4675  0.3385
 1222SOL    HW215129   0.965   0.876   6.096  0.0357  0.0843  1.9574
 1223SOL     OW15130   3.945   0.370  10.005  0.0394  0.2470 -0.4012
 1223SOL    HW115131   3.856   0.379  10.038 -0.3052 -3.3632 -0.4176
 1223SOL    HW215132   3.988   0.359  10.090 -2.8796 -0.1408  1.0204
 1224SOL     OW15133   0.486   0.091   5.109  0.1369 -0.2273 -0.1431
 1224SOL    HW115134   0.400   0.060   5.079  0.5373 -0.1655 -1.3568
 1224SOL    HW215135   0.472   0.183   5.089  1.0089 -0.8049 -3.4361
 1225SOL     OW15136   4.689   4.085   4.361  0.1608 -0.7219 -0.2168
 1225SOL    HW115137   4.633   4.008   4.375 -2.1241  0.7211 -1.4610
 1225SOL    HW215138   4.628   4.151   4.394  1.9249  0.7545  0.1073
 1226SOL     OW15139   1.782   1.906  10.164  0.2468  0.4078  0.4701
 1226SOL    HW115140   1.709   1.960  10.195 -1.5755 -2.2317  0.8190
 1226SOL    HW215141   1.780   1.835  10.228 -0.7384 -0.5505 -0.6127
 1227SOL     OW15142   3.701   2.256   4.103 -0.4193 -0.1883  0.1695
 1227SOL    HW115143   3.654   2.232   4.182 -1.2376  1.3382  0.1469
 1227SOL    HW215144   3.687   2.172   4.059  1.2838  0.0045 -0.7294
 1228SOL     OW15145   1.987   2.729  14.451  0.1122 -0.3033 -0.1600
 1228SOL    HW115146   2.044   2.669  14.402 -0.3473  0.1163 -1.1933
 1228SOL    HW215147   1.901   2.690  14.436 -1.4061  1.1071  4.9745
 1229SOL     OW15148   1.089   4.201   2.704 -0.5089 -0.1621 -0.0534
 1229SOL    HW115149   1.152   4.273   2.708 -0.1808 -0.3915 -1.3624
 1229SOL    HW215150   1.048   4.202   2.791 -1.5351 -0.6766 -0.5333
 1230SOL     OW15151   3.860   3.022   9.562 -0.1941  0.7524  0.5453
 1230SOL    HW115152   3.943   2.977   9.580 -0.1902 -0.3234 -2.1625
 1230SOL    HW215153   3.808   2.943   9.549 -1.6855  1.7995  0.2558
 1231SOL     OW15154   0.467   1.070   1.383  0.0221  0.5956 -0.0262
 1231SOL    HW115155   0.438   1.108   1.465  1.0982  1.2421  0.0468
 1231SOL    HW215156   0.545   1.122   1.366  0.0764  0.6076  0.2601
 1232SOL     OW15157   0.136   2.967  14.447  0.5779 -0.6041  0.0292
 1232SOL    HW115158   0.173   3.026  14.381  1.0828  0.0362  0.8825
 1232SOL    HW215159   0.118   2.892  14.390  1.2987  1.8685 -3.4724
 1233SOL     OW15160   2.885   3.816   3.723  0.3483  0.1610  0.2638
 1233SOL    HW115161   2.976   3.826   3.749  1.0045  1.3399 -2.4807
 1233SOL    HW215162   2.876   3.867   3.642  2.4903  1.6282  0.9770
 1234SOL     OW15163   1.925   1.376  10.351  0.0775  0.1006  1.0377
 1234SOL    HW115164   1.909   1.288  10.383  0.0061 -0.1195  0.3888
 1234SOL    HW215165   1.974   1.364  10.269 -2.3446 -0.6665 -0.2772
 1235SOL     OW15166   4.096   4.095  14.711 -0.2197  0.0387 -0.9830
 1235SOL    HW115167   4.104   4.153  14.635  2.2021 -0.3191 -1.0270
 1235SOL    HW215168   4.078   4.018  14.658  0.5838  1.2434 -3.0116
 1236SOL     OW15169   1.091   1.881   6.205  0.1863 -0.5284  0.1144
 1236SOL    HW115170   1.085   1.825   6.283 -0.3967 -0.4342  0.1376
 1236SOL    HW215171   1.007   1.927   6.200  0.4433 -0.2217 -1.2526
 1237SOL     OW15172   0.540   4.692   2.699  0.9187 -0.4069  0.2330
 1237SOL    HW115173   0.600   4.662   2.631 -0.8620 -0.1229 -1.4668
 1237SOL    HW215174   0.592   0.025   2.754 -0.6541  0.3501  0.9083
 1238SOL     OW15175   2.108   0.552   2.935 -0.5168 -0.6772 -0.2916
 1238SOL    HW115176   2.044   0.611   2.898  1.2016  1.9189  0.9013
 1238SOL    HW215177   2.052   0.488   2.979  1.5742 -1.1569  1.7086
 1239SOL     OW15178   0.246   4.528   2.056 -0.0702 -0.3183 -0.1993
 1239SOL    HW115179   0.227   4.443   2.016 -1.3567 -0.3856  0.5438
 1239SOL    HW215180   0.161   4.543   2.099 -0.8800 -1.9366 -1.2351
 1240SOL     OW15181   1.309   4.577   9.354 -0.2709 -0.6520  0.9585
 1240SOL    HW115182   1.309   4.615   9.266 -2.3535 -1.8474  0.4121
 1240SOL    HW215183   1.371   4.636   9.396 -1.5131  1.4061 -0.0690
 1241SOL     OW15184   3.956   4.342   4.714 -0.4817  0.4276 -0.4121
 1241SOL    HW115185   3.989   4.431   4.701 -0.1228  0.5176  1.0589
 1241SOL    HW215186   3.874   4.353   4.763 -1.5249 -1.7505 -1.6775
 1242SOL     OW15187   2.848   3.365  10.733 -0.3306 -0.6210 -0.4676
 1242SOL    HW115188   2.866   3.324  10.649 -2.2894 -1.1724 -0.6110
 1242SOL    HW215189   2.833   3.292  10.793  1.8767  0.3338  1.2577
 1243SOL     OW15190   2.891   2.412   2.057  0.2164 -0.1369  0.2404
 1243SOL    HW115191   2.803   2.391   2.028  0.4245  0.3560 -0.7394
 1243SOL    HW215192   2.875   2.462   2.138  0.2525  0.1133  0.0919
 1244SOL     OW15193   0.703   0.154   6.553 -0.5859 -0.5478 -0.3177
 1244SOL    HW115194   0.784   0.118   6.588 -1.3241 -1.1824  0.7189
 1244SOL    HW215195   0.698   0.222   6.620 -0.0618  1.4977 -2.3319
 1245SOL     OW15196   3.108   0.236   4.029 -0.3158 -0.3093  0.4045
 1245SOL    HW115197   3.098   0.202   3.940 -0.1845 -0.8980  0.6158
 1245SOL    HW215198   3.088   0.329   4.032  0.4794 -0.1258 -0.0072
 1246SOL     OW15199   2.745   1.854   3.161 -0.0744 -0.0513 -0.1755
 1246SOL    HW115200   2.744   1.782   3.098  0.6499 -0.2548  0.0455
 1246SOL    HW215201   2.655   1.881   3.146 -0.7763 -1.8604  0.8503
 1247SOL     OW15202   1.314   4.426   3.359 -0.5699 -0.1650 -0.4068
 1247SOL    HW115203   1.342   4.340   3.392 -2.2046 -0.1278  1.1111
 1247SOL    HW215204   1.384   4.485   3.386 -0.0130 -1.2962  0.6388
 1248SOL     OW15205   2.433   1.769   3.510 -0.5165  0.0939  0.4369
 1248SOL    HW115206   2.490   1.788   3.435 -0.8340  0.6348  0.3309
 1248SOL    HW215207   2.348   1.795   3.476  0.0998 -0.0364 -1.2100
 1249SOL     OW15208   4.629   1.948   6.027 -0.2562  0.2336 -0.1467
 1249SOL    HW115209   4.619   1.854   6.043  0.2255  0.1657 -0.2449
 1249SOL    HW215210   4.584   1.978   6.106 -1.0657 -0.2165 -0.4355
 1250SOL     OW15211   4.047   2.510   3.705 -0.4826  0.5802 -0.1756
 1250SOL    HW115212   4.134   2.471   3.696 -0.8157  0.3748 -2.3578
 1250SOL    HW215213   4.060   2.574   3.635  1.8896  2.6463  2.0988
 1251SOL     OW15214   2.887   3.850   7.782 -0.5112  0.2003  0.0031
 1251SOL    HW115215   2.883   3.829   7.689  0.0187 -0.4640  0.1325
 1251SOL    HW215216   2.975   3.818   7.803 -1.1717 -2.4418 -1.2784
 1252SOL     OW15217   2.541   4.201  14.353 -0.1776 -0.2310 -0.4876
 1252SOL    HW115218   2.562   4.223  14.262  0.1607 -0.5133 -0.4754
 1252SOL    HW215219   2.529   4.107  14.336 -1.8831  0.2525 -2.0616
 1253SOL     OW15220   3.445   1.137  13.681 -0.1356 -0.1873 -0.2335
 1253SOL    HW115221   3.445   1.134  13.777  1.4255  1.0408 -0.1934
 1253SOL    HW215222   3.541   1.137  13.674 -0.0894 -0.4754  0.4149
 1254SOL     OW15223   3.038   4.333   5.132  0.1303 -0.1223  0.5980
 1254SOL    HW115224   3.097   4.404   5.156  0.1582 -0.6798  2.1724
 1254SOL    HW215225   2.999   4.366   5.051 -0.7927  1.1010  1.5493
 1255SOL     OW15226   2.014   0.698   1.376 -0.2380 -0.0403 -0.0350
 1255SOL    HW115227   1.928   0.690   1.334  0.0838 -0.1920 -0.6584
 1255SOL    HW215228   2.057   0.615   1.358  0.5213  0.1381  0.9944
 1256SOL     OW15229   0.840   0.943  17.090 -0.0712 -0.2260  0.7814
 1256SOL    HW115230   0.808   0.924  17.001 -0.5225 -1.1832  1.1497
 1256SOL    HW215231   0.835   1.039  17.091  1.1752 -0.1511 -0.1857
 1257SOL     OW15232   4.492   3.315  14.872 -0.0824 -0.2313 -0.3458
 1257SOL    HW115233   4.438   3.282  14.801 -0.7547 -0.6991  0.3848
 1257SOL    HW215234   4.451   3.399  14.891 -0.2999 -0.2335 -0.8003
 1258SOL     OW15235   2.640   4.505   7.913  0.1377  0.9709  0.3232
 1258SOL    HW115236   2.591   4.559   7.851 -0.6478 -0.8879 -0.6891
 1258SOL    HW215237   2.570   4.460   7.961 -0.1955  0.2788 -0.7989
 1259SOL     OW15238   4.122   1.487   2.992  0.3442  0.3988 -0.3011
 1259SOL    HW115239   4.076   1.429   3.053  1.4841  0.0488  0.2224
 1259SOL    HW215240   4.142   1.561   3.049  1.5548 -0.4911  0.4143
 1260SOL     OW15241   0.854   1.901   9.317 -0.3460  0.1567  0.0440
 1260SOL    HW115242   0.926   1.965   9.317 -0.9085  0.7733  1.3546
 1260SOL    HW215243   0.877   1.844   9.390 -0.5498 -1.1646 -0.9313
 1261SOL     OW15244   1.015   4.231   3.521  0.1056  0.2102  0.2340
 1261SOL    HW115245   1.047   4.302   3.576  3.2556 -2.0270  1.2409
 1261SOL    HW215246   1.078   4.163   3.540  0.6727  0.4230 -0.8969
 1262SOL     OW15247   3.406   4.590   5.771 -0.4845  0.2975 -0.1212
 1262SOL    HW115248   3.472   4.552   5.714  0.1089 -0.3153  0.9783
 1262SOL    HW215249   3.443   4.674   5.800  0.1088 -0.3696  1.0210
 1263SOL     OW15250   0.805   1.242   9.602 -0.0665 -0.3492  0.2833
 1263SOL    HW115251   0.883   1.202   9.640  1.4997  1.0207 -1.5311
 1263SOL    HW215252   0.745   1.168   9.596 -1.0908  0.5406 -0.4401
 1264SOL     OW15253   3.415   4.670   8.563 -0.0318  0.4266  0.1528
 1264SOL    HW115254   3.320   4.668   8.578 -0.0131  1.4921  0.4054
 1264SOL    HW215255   3.430   0.036   8.539  1.1701  0.6076  1.5714
 1265SOL     OW15256   2.083   1.020  14.506 -0.2688  0.8750 -0.0396
 1265SOL    HW115257   2.127   0.989  14.585 -0.1371 -0.4576 -0.6428
 1265SOL    HW215258   1.994   1.035  14.539 -0.3202  2.1380 -0.7716
 1266SOL     OW15259   4.307   3.818   6.486 -0.3717 -0.1259  0.4936
 1266SOL    HW115260   4.338   3.906   6.504  0.9650 -0.3535 -0.6577
 1266SOL    HW215261   4.382   3.765   6.514 -1.0032 -0.2441  1.9416
 1267SOL     OW15262   3.729   4.499  13.839  0.2289 -0.2780 -0.3206
 1267SOL    HW115263   3.699   4.458  13.920  0.7021 -1.2926 -0.6540
 1267SOL    HW215264   3.758   4.427  13.782 -0.1619 -0.4048 -0.3617
 1268SOL     OW15265   1.159   1.890   9.293 -0.2199 -0.1726 -0.3170
 1268SOL    HW115266   1.223   1.838   9.246  0.3618 -0.1661  0.4650
 1268SOL    HW215267   1.106   1.819   9.329  0.6664 -0.0637  1.1976
 1269SOL     OW15268   2.834   1.956   8.400 -0.0039 -0.0264  0.4304
 1269SOL    HW115269   2.775   1.889   8.436  0.0279 -0.1143  0.3183
 1269SOL    HW215270   2.782   2.035   8.391 -1.4231 -0.9282  0.6673
 1270SOL     OW15271   2.311   3.250  16.883  0.4309  0.4331 -0.6128
 1270SOL    HW115272   2.260   3.331  16.878 -0.4017 -0.1058 -0.8416
 1270SOL    HW215273   2.346   3.239  16.795  2.0803 -2.8823  0.4596
 1271SOL     OW15274   4.552   0.431   7.451  0.4504 -0.2010 -0.1969
 1271SOL    HW115275   4.481   0.396   7.398  1.4793  0.1541 -1.8019
 1271SOL    HW215276   4.582   0.350   7.493 -0.7884  0.0922  1.2402
 1272SOL     OW15277   1.787   0.821   6.519  0.3480  0.7733  0.4668
 1272SOL    HW115278   1.696   0.798   6.501  0.7761 -0.7534  0.2849
 1272SOL    HW215279   1.811   0.742   6.568  0.8632  0.3908 -0.4136
 1273SOL     OW15280   2.410   0.917  12.080 -0.2481  0.4560  0.2120
 1273SOL    HW115281   2.369   0.982  12.137 -0.2463 -1.3084  2.2258
 1273SOL    HW215282   2.440   0.853  12.144 -0.4475  1.2394  1.0859
 1274SOL     OW15283   1.988   4.395   6.708  0.2762 -0.2137 -0.2243
 1274SOL    HW115284   1.943   4.328   6.759 -0.9807  2.2569  1.8984
 1274SOL    HW215285   1.939   4.393   6.626 -0.1155 -1.4058  0.0365
 1275SOL     OW15286   1.643   0.424   5.161  0.0710  0.0564  0.6881
 1275SOL    HW115287   1.648   0.391   5.251  1.6260  2.1173  1.3504
 1275SOL    HW215288   1.630   0.518   5.170 -1.5930 -0.0311 -0.8478
 1276SOL     OW15289   4.664   2.349   2.879  0.3409  0.6229 -0.2547
 1276SOL    HW115290   4.633   2.436   2.903 -0.2761  0.7079 -1.3318
 1276SOL    HW215291   4.711   2.371   2.798  1.8577 -3.1156 -0.3980
 1277SOL     OW15292   3.150   0.568   0.510  0.5602  0.2649 -0.0487
 1277SOL    HW115293   3.133   0.475   0.496 -1.1227  0.3326  1.4699
 1277SOL    HW215294   3.180   0.592   0.422  1.2082 -2.4469 -0.5580
 1278SOL     OW15295   1.070   1.069   5.249 -0.5797 -0.1657 -0.3047
 1278SOL    HW115296   1.070   1.099   5.158  1.4698 -0.7942 -0.5190
 1278SOL    HW215297   1.102   1.143   5.301  0.0448  0.0491 -0.9904
 1279SOL     OW15298   0.099   3.620  17.056 -0.6785 -0.3014  0.6249
 1279SOL    HW115299   0.064   3.636  16.969  1.7340 -1.8293 -0.6241
 1279SOL    HW215300   0.035   3.559  17.092 -1.3613 -0.1380 -0.3278
 1280SOL     OW15301   4.584   2.549   1.809  0.2143  0.9000 -0.2168
 1280SOL    HW115302   4.646   2.597   1.864  3.0194 -1.3932 -1.3599
 1280SOL    HW215303   4.647   2.494   1.762 -0.1051  0.0927  0.3041
 1281SOL     OW15304   3.995   2.210   7.421  0.2586 -0.0623  0.0363
 1281SOL    HW115305   3.983   2.223   7.515 -2.1714  2.8490 -0.7005
 1281SOL    HW215306   4.079   2.163   7.421  0.0484 -0.4493  2.1989
 1282SOL     OW15307   3.379   4.510  13.595  0.2740  0.2222 -0.5832
 1282SOL    HW115308   3.440   4.547  13.658  0.7778  0.1475 -1.0337
 1282SOL    HW215309   3.441   4.465  13.538  0.1369 -2.0782  1.0507
 1283SOL     OW15310   3.557   1.658   1.133  0.3743  0.3833  0.2516
 1283SOL    HW115311   3.535   1.729   1.073  0.5881  1.2349  1.1696
 1283SOL    HW215312   3.547   1.585   1.072 -1.2626  0.6061  0.2452
 1284SOL     OW15313   2.763   0.070   8.976  0.3028  0.2964  0.2164
 1284SOL    HW115314   2.824   0.049   8.905  0.9090  0.0998  0.7872
 1284SOL    HW215315   2.701   0.130   8.934  0.3024 -1.1890 -1.9212
 1285SOL     OW15316   3.595   1.657  14.202 -0.3614 -0.3414 -0.4152
 1285SOL    HW115317   3.627   1.575  14.165  0.8423 -0.0717  0.0401
 1285SOL    HW215318   3.585   1.633  14.294 -2.9108  0.0831 -0.5695
 1286SOL     OW15319   1.062   1.921  11.119  0.4731 -0.3186  0.0753
 1286SOL    HW115320   0.992   1.942  11.182  0.4608 -1.4605  0.4455
 1286SOL    HW215321   1.063   1.830  11.147  0.0800 -0.7555 -1.3522
 1287SOL     OW15322   2.606   1.055   6.193 -0.3597  0.0007 -0.3240
 1287SOL    HW115323   2.541   1.071   6.261  0.5743 -1.1214  0.8349
 1287SOL    HW215324   2.643   0.967   6.200  0.7041  0.6144  1.8468
 1288SOL     OW15325   3.075   3.263  16.387  0.3088 -0.5319 -0.4292
 1288SOL    HW115326   3.102   3.186  16.338  1.6396 -0.0854 -0.3981
 1288SOL    HW215327   3.143   3.325  16.361 -0.2592  0.2430 -0.0771
 1289SOL     OW15328   0.284   2.127   9.208 -0.4000 -0.2553  0.2998
 1289SOL    HW115329   0.305   2.159   9.120  1.8703 -1.2229  0.4925
 1289SOL    HW215330   0.367   2.142   9.252  0.1127 -3.2439  0.3338
 1290SOL     OW15331   1.159   1.451   9.069  0.9208 -0.0605  0.3278
 1290SOL    HW115332   1.205   1.494   9.142 -2.1966  1.0885  1.6247
 1290SOL    HW215333   1.098   1.523   9.055 -1.8440 -2.1101  1.9854
 1291SOL     OW15334   2.181   0.210   2.098 -0.1347  0.1347 -0.9044
 1291SOL    HW115335   2.131   0.252   2.028 -0.2687  0.6765 -0.4815
 1291SOL    HW215336   2.223   0.140   2.049 -0.3064  1.2745 -2.7028
 1292SOL     OW15337   1.586   3.738  16.548 -0.4305 -0.3592 -0.4368
 1292SOL    HW115338   1.518   3.698  16.494  0.4314 -0.9746 -1.0838
 1292SOL    HW215339   1.541   3.761  16.629  0.5590  1.5981 -0.4292
 1293SOL     OW15340   2.632   0.744   9.735 -0.1618 -0.2806  0.5374
 1293SOL    HW115341   2.598   0.802   9.667 -0.1051 -3.6932 -2.4230
 1293SOL    HW215342   2.554   0.743   9.790  0.3730 -1.1363  1.2764
 1294SOL     OW15343   4.266   4.464   4.991 -0.9086 -0.3510 -0.2733
 1294SOL    HW115344   4.205   4.424   5.053  0.7751 -1.7626  0.4629
 1294SOL    HW215345   4.269   4.387   4.935  0.0433  1.6019 -2.8910
 1295SOL     OW15346   0.342   0.380  15.276  0.2496 -0.0154 -0.2021
 1295SOL    HW115347   0.414   0.380  15.213  0.4237  1.0259  0.0051
 1295SOL    HW215348   0.267   0.429  15.242 -0.9757 -1.5217  0.3189
 1296SOL     OW15349   2.724   3.671   9.217 -0.2280 -0.0188  0.1093
 1296SOL    HW115350   2.772   3.646   9.295 -1.4889 -2.3928  0.1133
 1296SOL    HW215351   2.731   3.591   9.165 -0.5130  0.6173 -0.9079
 1297SOL     OW15352   2.301   3.439   9.434 -0.0722 -0.0021  0.2510
 1297SOL    HW115353   2.312   3.433   9.529  1.1098  2.2933  0.2452
 1297SOL    HW215354   2.380   3.390   9.411 -1.6285 -2.7547  0.7605
 1298SOL     OW15355   3.911   4.103   3.259 -0.1558  0.0503 -0.0592
 1298SOL    HW115356   3.821   4.135   3.253 -1.0037 -1.9398  2.3513
 1298SOL    HW215357   3.887   4.011   3.248  1.3401 -0.0383 -2.4751
 1299SOL     OW15358   4.087   4.295   3.156 -0.3323 -0.2439  0.4111
 1299SOL    HW115359   4.049   4.210   3.177  2.2206 -1.1513  1.4970
 1299SOL    HW215360   4.180   4.281   3.177  0.1881 -0.8152 -2.3634
 1300SOL     OW15361   2.944   1.057  10.709  0.4749 -0.3374  0.2804
 1300SOL    HW115362   3.010   1.092  10.769 -0.4209 -0.3585  1.2929
 1300SOL    HW215363   2.949   1.128  10.646  3.4031  0.2942  1.2149
 1301SOL     OW15364   3.985   3.911  13.874 -0.1641 -0.7069  0.5187
 1301SOL    HW115365   3.995   3.928  13.781  1.1983 -1.0353  0.6136
 1301SOL    HW215366   3.897   3.946  13.889  0.8010  1.2611  1.6389
 1302SOL     OW15367   1.010   3.506  10.401 -0.2345  0.6645 -0.4268
 1302SOL    HW115368   1.002   3.497  10.306 -0.4993 -0.7969 -0.2686
 1302SOL    HW215369   1.058   3.425  10.421 -0.6771  0.5157  0.0289
 1303SOL     OW15370   2.224   3.020  12.620 -0.2343  0.0172  0.3104
 1303SOL    HW115371   2.273   3.027  12.702  1.1449  2.4800 -0.7339
 1303SOL    HW215372   2.233   3.106  12.579 -2.6279 -0.4676 -1.1998
 1304SOL     OW15373   1.848   1.317  13.078 -0.3644 -0.7370 -0.0154
 1304SOL    HW115374   1.930   1.301  13.126  0.5450  2.6737 -0.4146
 1304SOL    HW215375   1.856   1.410  13.060 -1.5955 -0.5804  0.2559
 1305SOL     OW15376   1.782   1.334   0.699 -0.4840  0.2842 -0.4939
 1305SOL    HW115377   1.801   1.277   0.773 -1.2142  0.2874 -0.3073
 1305SOL    HW215378   1.853   1.397   0.712  0.9732 -1.0399 -1.9777
 1306SOL     OW15379   4.603   0.196   8.319  0.5804  0.2930  0.1683
 1306SOL    HW115380   4.507   0.204   8.314  0.5373  0.6527  1.5290
 1306SOL    HW215381   4.618   0.236   8.405 -0.1956 -0.8890  0.8582
 1307SOL     OW15382   2.806   1.744   0.431 -0.2702 -0.3393  0.0041
 1307SOL    HW115383   2.814   1.659   0.389  1.2357  0.0689 -0.5166
 1307SOL    HW215384   2.770   1.713   0.514 -1.8437 -0.0572 -0.5655
 1308SOL     OW15385   3.145   2.899   0.070 -0.2288 -0.5831  0.5166
 1308SOL    HW115386   3.136   2.855   0.155 -3.3181 -0.4602  0.2650
 1308SOL    HW215387   3.058   2.938   0.057  1.6797  2.2162 -3.8830
 1309SOL     OW15388   1.278   0.012   2.643 -0.3201  0.0287 -0.8384
 1309SOL    HW115389   1.201   4.724   2.588 -1.8095 -0.3285  1.3049
 1309SOL    HW215390   1.342   4.684   2.596 -0.7923 -1.9528  0.7512
 1310SOL     OW15391   3.733   0.865   7.845  0.5669  0.5595  0.3716
 1310SOL    HW115392   3.678   0.854   7.768  1.4353  0.8076 -0.2811
 1310SOL    HW215393   3.754   0.958   7.836  1.2695  0.6966  3.3658
 1311SOL     OW15394   1.662   0.812   5.423 -0.2926 -0.4013 -0.5703
 1311SOL    HW115395   1.712   0.885   5.385  0.7381 -1.2459 -0.8337
 1311SOL    HW215396   1.594   0.857   5.474 -1.8978 -0.9587 -2.1991
 1312SOL     OW15397   2.555   2.626   3.090  0.5561  0.0861  0.1265
 1312SOL    HW115398   2.492   2.680   3.041  0.6228  0.0079 -0.0451
 1312SOL    HW215399   2.525   2.537   3.072  0.2497  0.4183 -0.9833
 1313SOL     OW15400   1.794   4.642  15.966 -0.1306 -0.4788 -0.5977
 1313SOL    HW115401   1.788   4.553  16.001 -1.0105  0.4880  1.7502
 1313SOL    HW215402   1.827   4.690  16.043 -0.9506 -0.1089 -0.4842
 1314SOL     OW15403   1.907   1.928   8.279  0.0858 -0.0805  0.0403
 1314SOL    HW115404   1.971   1.860   8.299  3.9086  3.2187 -0.8156
 1314SOL    HW215405   1.942   1.965   8.198  1.6401  0.1056  0.7836
 1315SOL     OW15406   2.768   1.398  13.056  0.3511  0.1116 -0.3112
 1315SOL    HW115407   2.847   1.442  13.024  0.8985  0.4297  1.5012
 1315SOL    HW215408   2.706   1.441  12.996  0.5243  1.7571  0.6802
 1316SOL     OW15409   2.366   0.081   5.407  0.1625 -0.4536 -0.0220
 1316SOL    HW115410   2.387   0.149   5.472 -0.6346  1.5989 -1.8893
 1316SOL    HW215411   2.355   0.134   5.328  0.0204  0.9416  0.9307
 1317SOL     OW15412   0.360   4.554  10.684  0.1218  0.3445 -0.0974
 1317SOL    HW115413   0.411   4.514  10.755 -1.0635 -1.2807 -0.1656
 1317SOL    HW215414   0.413   4.542  10.605  1.8133 -0.0447  1.1033
 1318SOL     OW15415   1.762   2.019  13.622 -0.4955  0.0557  0.3598
 1318SOL    HW115416   1.825   2.090  13.633 -0.5761 -0.0360  1.3732
 1318SOL    HW215417   1.703   2.053  13.689 -1.2621  1.9831 -1.2878
 1319SOL     OW15418   1.413   1.043  12.140 -0.0291 -0.0036 -0.1250
 1319SOL    HW115419   1.421   0.986  12.216  0.4576  1.7368  1.1325
 1319SOL    HW215420   1.391   0.983  12.069  2.8463  0.3006 -1.2747
 1320SOL     OW15421   3.490   0.796   3.418 -0.0153 -0.6454  0.1320
 1320SOL    HW115422   3.406   0.828   3.449  1.2581  1.7071  1.1861
 1320SOL    HW215423   3.550   0.854   3.466 -0.2112  0.6311 -1.1521
 1321SOL     OW15424   1.099   0.015   2.444 -0.4709  0.3718  0.2354
 1321SOL    HW115425   1.126   0.036   2.354  0.5474  2.7425  1.1108
 1321SOL    HW215426   1.034   4.671   2.434  0.1163 -0.3535  1.5395
 1322SOL     OW15427   0.053   3.304  14.475  0.3602  0.1297  0.0422
 1322SOL    HW115428   0.059   3.396  14.448 -0.7400  0.8533  2.2775
 1322SOL    HW215429   0.144   3.273  14.472  0.3534  0.0847  0.2683
 1323SOL     OW15430   4.027   1.380   2.680  0.3359 -0.1487  0.3096
 1323SOL    HW115431   4.001   1.433   2.755 -0.0742  2.2494 -1.5093
 1323SOL    HW215432   4.062   1.445   2.619  3.5533  0.2131  2.6063
 1324SOL     OW15433   4.685   3.289  10.958 -0.1732 -0.1867 -1.2141
 1324SOL    HW115434   4.685   3.379  10.991 -0.0052 -0.5507 -0.2278
 1324SOL    HW215435   4.604   3.262  11.002 -0.9123 -0.7714 -2.9399
 1325SOL     OW15436   1.140   3.417   2.864 -0.2213  0.2935  0.0108
 1325SOL    HW115437   1.221   3.469   2.866  1.8056 -2.8556 -1.2950
 1325SOL    HW215438   1.072   3.484   2.871  1.9445  2.2869  2.0507
 1326SOL     OW15439   1.022   0.177  14.159 -0.3851  0.2424 -0.2687
 1326SOL    HW115440   1.061   0.227  14.088  0.6123  0.6350  0.5673
 1326SOL    HW215441   0.979   0.101  14.118  1.1303 -1.3511  1.0980
 1327SOL     OW15442   4.089   1.035   3.558  0.2707  0.5049  0.2638
 1327SOL    HW115443   4.153   0.984   3.609 -1.4664 -0.5316  1.4002
 1327SOL    HW215444   4.010   0.984   3.574 -0.0759  0.6231 -1.1372
 1328SOL     OW15445   0.470   0.179   4.513  0.4687 -0.4535 -0.0107
 1328SOL    HW115446   0.416   0.209   4.439  0.6225  1.4062  0.6331
 1328SOL    HW215447   0.456   0.255   4.570 -0.1159 -0.2092 -0.4746
 1329SOL     OW15448   2.634   3.911   2.775  0.7235 -0.0973 -0.3162
 1329SOL    HW115449   2.580   3.961   2.836  1.2313 -1.2662  1.0765
 1329SOL    HW215450   2.702   3.978   2.771 -0.1898  0.8582  0.2338
 1330SOL     OW15451   3.278   2.075   3.823 -0.3307  0.4982 -0.3626
 1330SOL    HW115452   3.351   2.016   3.843  0.2266 -0.1090 -4.1539
 1330SOL    HW215453   3.229   2.019   3.762 -0.1096 -0.5116  0.3749
 1331SOL     OW15454   3.079   1.658  17.690 -0.5467 -0.0028 -0.3467
 1331SOL    HW115455   3.079   1.699  17.603 -0.3699  1.0254  0.1440
 1331SOL    HW215456   3.072   1.738   0.039 -1.6155 -0.1003 -0.3264
 1332SOL     OW15457   3.534   3.573  15.914 -0.7175 -0.2428 -0.3475
 1332SOL    HW115458   3.472   3.579  15.987  0.4119  1.1021  0.5140
 1332SOL    HW215459   3.557   3.482  15.934 -0.0461  0.0111  0.0242
 1333SOL     OW15460   0.711   4.615   7.188  0.4969  0.2793  0.1507
 1333SOL    HW115461   0.758   4.578   7.114 -0.8245 -3.7755  1.3517
 1333SOL    HW215462   0.644   4.659   7.136  1.5704  1.3289 -0.3448
 1334SOL     OW15463   2.859   0.097   3.203  0.1047  0.5143  0.0430
 1334SOL    HW115464   2.791   0.045   3.160  0.5379 -0.3356  0.3805
 1334SOL    HW215465   2.890   0.147   3.128  3.0120  0.4284  1.1707
 1335SOL     OW15466   2.313   4.324  17.673 -0.1067 -0.0707 -0.0932
 1335SOL    HW115467   2.312   4.357  17.583 -1.3811  1.3400  0.4304
 1335SOL    HW215468   2.355   4.402   0.007 -0.5588  0.0625  0.1428
 1336SOL     OW15469   3.219   4.524  14.356 -0.3191 -0.0708  0.1349
 1336SOL    HW115470   3.277   4.572  14.416  0.4939 -0.3789 -0.4191
 1336SOL    HW215471   3.275   4.524  14.279  1.4930  1.7076  1.4466
 1337SOL     OW15472   2.573   2.640  10.351  0.4217  0.1050 -0.1786
 1337SOL    HW115473   2.504   2.662  10.415  1.3397 -2.2164  1.6076
 1337SOL    HW215474   2.640   2.688  10.401 -0.1092  0.0807  0.5668
 1338SOL     OW15475   1.825   1.668   1.759 -0.0116  0.0827 -0.1044
 1338SOL    HW115476   1.846   1.730   1.829  0.8488  0.8031 -1.0050
 1338SOL    HW215477   1.749   1.628   1.800 -0.0610 -0.4623 -0.7393
 1339SOL     OW15478   4.553   0.669   1.833 -0.0989 -0.0564  0.1763
 1339SOL    HW115479   4.563   0.664   1.928  2.2696 -1.7534 -0.1575
 1339SOL    HW215480   4.604   0.750   1.828 -1.4922  0.8338  0.4055
 1340SOL     OW15481   1.358   2.312   8.987  0.0822 -0.1129  0.1803
 1340SOL    HW115482   1.423   2.382   8.976  0.6593 -0.7886 -0.7098
 1340SOL    HW215483   1.279   2.366   8.985  0.7187  0.8672  1.1511
 1341SOL     OW15484   0.760   0.792   1.858 -0.2847  0.2687  0.3656
 1341SOL    HW115485   0.747   0.706   1.817 -0.9141  0.6770 -0.2917
 1341SOL    HW215486   0.854   0.784   1.872 -0.3306  0.8971  1.0034
 1342SOL     OW15487   1.374   2.068   9.778  0.0633  0.0120 -0.1117
 1342SOL    HW115488   1.446   2.095   9.722 -0.5340  1.7089 -0.0400
 1342SOL    HW215489   1.422   2.044   9.857  0.2236  0.7957  0.0247
 1343SOL     OW15490   2.427   0.588   0.276  0.8448 -0.0959  0.0159
 1343SOL    HW115491   2.372   0.617   0.203 -0.5080 -0.3056  0.9623
 1343SOL    HW215492   2.418   0.498   0.244  1.3037 -0.8272  1.9325
 1344SOL     OW15493   3.817   4.100   4.903  0.3817  0.3101 -0.6164
 1344SOL    HW115494   3.832   4.017   4.947  0.3082 -0.1584 -1.4633
 1344SOL    HW215495   3.853   4.093   4.815  1.6984 -2.7495  0.1789
 1345SOL     OW15496   2.250   1.776   3.824 -0.2059 -0.1498 -0.2948
 1345SOL    HW115497   2.241   1.718   3.749  0.1101 -1.5742  0.7705
 1345SOL    HW215498   2.342   1.795   3.843 -0.5396  0.9435  0.2089
 1346SOL     OW15499   4.195   2.104   0.658 -0.6921 -0.6423 -0.0885
 1346SOL    HW115500   4.156   2.061   0.582 -0.3060 -1.0434 -0.0613
 1346SOL    HW215501   4.286   2.111   0.629 -0.3306 -0.0078  1.1999
 1347SOL     OW15502   2.839   4.107   7.909  0.1135  0.0626  0.1974
 1347SOL    HW115503   2.844   4.020   7.869  1.9747  0.8345 -1.2857
 1347SOL    HW215504   2.918   4.107   7.963  1.3265  1.1889 -1.5659
 1348SOL     OW15505   2.100   3.318   1.168  0.0119 -0.2670  0.2634
 1348SOL    HW115506   2.160   3.378   1.124 -1.7037  0.8232 -0.6122
 1348SOL    HW215507   2.116   3.232   1.130 -2.5664  0.6221 -2.8766
 1349SOL     OW15508   2.528   4.293   7.285  0.3561  0.0914 -0.4264
 1349SOL    HW115509   2.465   4.225   7.307  1.6061 -0.3484  1.8504
 1349SOL    HW215510   2.608   4.247   7.310 -0.7373 -1.9689 -0.7794
 1350SOL     OW15511   4.721   1.280   7.797 -0.2558 -0.4723 -0.4423
 1350SOL    HW115512   0.009   1.329   7.877  2.5139 -0.9128 -0.6323
 1350SOL    HW215513   4.707   1.351   7.735  2.5539 -0.5640 -1.1920
 1351SOL     OW15514   2.975   0.129  17.066 -0.1429 -0.1235 -0.0338
 1351SOL    HW115515   2.935   0.207  17.105  1.6872  0.0387  1.5008
 1351SOL    HW215516   3.036   0.161  17.000  0.0211 -1.7803 -0.6829
 1352SOL     OW15517   0.480   2.975   3.107  0.9388 -0.0501 -0.3281
 1352SOL    HW115518   0.440   2.977   3.020  1.2119  1.6789 -0.4108
 1352SOL    HW215519   0.536   2.898   3.104  1.6131  0.4525 -0.5102
 1353SOL     OW15520   3.568   3.415   5.398  0.0659 -0.7457  0.4100
 1353SOL    HW115521   3.513   3.484   5.360  1.1280 -0.5939 -0.8626
 1353SOL    HW215522   3.658   3.448   5.393 -0.0853 -0.4236 -0.2744
 1354SOL     OW15523   1.852   2.556   7.272 -0.4475 -0.1360 -0.3022
 1354SOL    HW115524   1.770   2.536   7.319 -0.5581  1.7308  0.3130
 1354SOL    HW215525   1.888   2.469   7.261  1.6251  0.5786  0.9044
 1355SOL     OW15526   1.077   4.079   6.866  0.3289  0.2998 -0.3319
 1355SOL    HW115527   1.086   4.118   6.952 -1.1409  1.2988 -0.6340
 1355SOL    HW215528   0.990   4.109   6.840 -0.2994 -0.5758  0.7962
 1356SOL     OW15529   1.670   3.555   8.704  0.6105  0.3629 -0.8583
 1356SOL    HW115530   1.609   3.484   8.684 -0.1736  0.8500 -0.1771
 1356SOL    HW215531   1.735   3.509   8.757  0.7050 -0.9352 -2.0909
 1357SOL     OW15532   2.263   1.809   3.261 -0.0781 -0.0510  0.7341
 1357SOL    HW115533   2.221   1.728   3.232 -0.6070  0.8789 -1.0890
 1357SOL    HW215534   2.203   1.879   3.236  0.0308 -0.7039 -1.3976
 1358SOL     OW15535   1.710   4.317   2.093 -0.3060  0.3813 -0.1340
 1358SOL    HW115536   1.677   4.364   2.016  1.2251 -0.8128 -1.5098
 1358SOL    HW215537   1.753   4.242   2.053 -1.4823 -0.0641 -0.5622
 1359SOL     OW15538   1.171   4.331  12.724 -0.1533  0.1091  0.5427
 1359SOL    HW115539   1.246   4.391  12.718  0.5325 -0.9097 -0.9566
 1359SOL    HW215540   1.114   4.400  12.757  1.3537  0.9681  1.3902
 1360SOL     OW15541   2.292   2.151  10.379 -0.1737 -0.6500  0.0164
 1360SOL    HW115542   2.208   2.192  10.357  1.7547  1.7688 -2.8768
 1360SOL    HW215543   2.311   2.109  10.295 -0.1857  0.0566 -0.3455
 1361SOL     OW15544   2.500   3.737   8.684 -0.4237 -0.0406  0.3432
 1361SOL    HW115545   2.575   3.684   8.710 -0.4878 -1.4569 -2.4212
 1361SOL    HW215546   2.535   3.755   8.597 -2.2806  0.0323 -0.3866
 1362SOL     OW15547   0.853   3.932  11.790  0.3312  0.2104 -0.1065
 1362SOL    HW115548   0.935   3.910  11.745  1.1402  2.3864  0.3202
 1362SOL    HW215549   0.876   3.894  11.874  1.6106 -0.9055 -0.9568
 1363SOL     OW15550   1.715   0.850   3.478 -0.1767 -0.3569  0.2352
 1363SOL    HW115551   1.701   0.926   3.535 -1.4110 -0.6611  0.3397
 1363SOL    HW215552   1.625   0.827   3.454 -0.8383  0.4566  1.9176
 1364SOL     OW15553   4.629   1.083   3.776 -0.1560 -0.2366  0.3845
 1364SOL    HW115554   4.618   1.133   3.857 -0.8307 -0.0669  0.1864
 1364SOL    HW215555   4.570   1.128   3.716 -1.4676  1.2818  2.7823
 1365SOL     OW15556   2.447   3.285  10.339 -0.0241 -0.2310 -0.7112
 1365SOL    HW115557   2.445   3.376  10.368 -3.1891 -0.3717 -0.5233
 1365SOL    HW215558   2.530   3.257  10.377  0.5533  0.9947 -1.0521
 1366SOL     OW15559   0.834   0.864   3.268 -0.2522  0.8532 -0.0726
 1366SOL    HW115560   0.847   0.846   3.362  1.4878  0.2369 -0.4370
 1366SOL    HW215561   0.926   0.882   3.251 -0.5277  0.7748 -1.5785
 1367SOL     OW15562   1.060   3.021   6.395 -0.1917 -0.3619 -0.1782
 1367SOL    HW115563   1.153   2.997   6.390  0.1039  1.5919 -3.8869
 1367SOL    HW215564   1.022   2.938   6.366 -2.3281  0.5313  0.0638
 1368SOL     OW15565   0.534   1.035   5.392  0.5457 -0.1333  0.1490
 1368SOL    HW115566   0.519   1.098   5.321 -4.6381 -3.1678 -1.3973
 1368SOL    HW215567   0.628   1.046   5.408  0.9050 -2.2296 -0.5103
 1369SOL     OW15568   3.131   4.548   8.687 -0.3359  0.8588  0.7768
 1369SOL    HW115569   3.168   4.472   8.731  2.2043  0.9312 -1.2908
 1369SOL    HW215570   3.100   4.508   8.606  2.1418  1.1826 -0.3094
 1370SOL     OW15571   3.316   1.333   4.260 -0.1221 -0.1842 -0.0214
 1370SOL    HW115572   3.391   1.381   4.225 -0.1979 -0.3359 -0.3980
 1370SOL    HW215573   3.332   1.242   4.236  1.5545  0.6895 -2.2294
 1371SOL     OW15574   3.955   2.129  14.958  0.1490 -0.4636  0.0050
 1371SOL    HW115575   3.925   2.219  14.946  2.1972  0.0664 -1.0107
 1371SOL    HW215576   3.868   2.093  14.978 -0.8340  1.2647 -1.1859
 1372SOL     OW15577   0.249   2.761  10.767  0.1427 -0.4850  0.1168
 1372SOL    HW115578   0.290   2.837  10.809 -0.2041 -0.4240  0.3379
 1372SOL    HW215579   0.266   2.697  10.837  1.8465 -0.3659 -0.1797
 1373SOL     OW15580   4.682   2.701   7.975  0.0547 -0.4104 -0.0419
 1373SOL    HW115581   4.645   2.747   7.899  0.2695 -0.1871 -0.0130
 1373SOL    HW215582   0.007   2.776   8.008 -0.2082  0.3679 -1.3928
 1374SOL     OW15583   3.646   3.424  10.586 -0.1399 -0.1973  0.3344
 1374SOL    HW115584   3.733   3.451  10.555  0.0290  0.4319  1.3720
 1374SOL    HW215585   3.670   3.376  10.664  0.6442 -0.3600 -0.0039
 1375SOL     OW15586   2.987   3.604  13.347  0.0492 -0.0138 -0.2961
 1375SOL    HW115587   2.962   3.513  13.359 -2.3814  0.8286  1.1542
 1375SOL    HW215588   3.080   3.583  13.350 -0.3773 -1.6898  1.0220
 1376SOL     OW15589   1.401   2.873   9.442 -0.0474 -0.6362 -0.1876
 1376SOL    HW115590   1.347   2.855   9.518  1.4971 -3.0656  0.3543
 1376SOL    HW215591   1.482   2.896   9.488  0.3743 -1.2808 -0.6010
 1377SOL     OW15592   0.118   1.192   0.716 -0.2475  0.3414  0.3987
 1377SOL    HW115593   0.213   1.183   0.718 -0.4037 -1.5488  0.1807
 1377SOL    HW215594   0.087   1.107   0.750  1.2698 -0.0982  0.6628
 1378SOL     OW15595   3.045   0.172   0.034 -1.1064 -0.2824 -0.3108
 1378SOL    HW115596   3.086   0.086   0.050 -1.2851 -0.6013 -1.5326
 1378SOL    HW215597   3.060   0.220   0.114 -2.4479  0.4703 -0.5208
 1379SOL     OW15598   2.845   1.943   4.067 -0.5964 -0.2119 -0.2620
 1379SOL    HW115599   2.867   1.866   4.013  0.2816 -0.8333  0.9897
 1379SOL    HW215600   2.915   2.006   4.050  2.3892 -3.9791 -2.1235
 1380SOL     OW15601   4.553   1.718   2.737 -0.4770 -0.1611  0.4555
 1380SOL    HW115602   4.510   1.801   2.758 -1.6367 -0.5701 -0.3367
 1380SOL    HW215603   4.485   1.652   2.749 -0.4989  0.3222  2.8480
 1381SOL     OW15604   1.015   3.026  12.002  0.9538  0.5439 -0.1532
 1381SOL    HW115605   1.006   2.987  12.089  0.6552  0.6386 -0.1417
 1381SOL    HW215606   1.099   3.072  12.007  1.6320 -0.7838  0.7282
 1382SOL     OW15607   3.358   2.111   3.518  0.6187 -0.3024  0.1831
 1382SOL    HW115608   3.308   2.090   3.597 -2.0486  0.9985 -1.1850
 1382SOL    HW215609   3.433   2.156   3.558  1.3767  0.6224 -2.2858
 1383SOL     OW15610   0.232   1.587   6.944  0.0846  0.0651 -0.2109
 1383SOL    HW115611   0.231   1.659   6.881  1.8793  1.4772  1.3658
 1383SOL    HW215612   0.317   1.597   6.988  1.0813 -1.4533 -1.8034
 1384SOL     OW15613   3.778   2.829  15.275 -0.4484  0.6926  0.2407
 1384SOL    HW115614   3.871   2.853  15.278 -0.3525  0.4223 -0.5751
 1384SOL    HW215615   3.771   2.786  15.361  5.1453 -2.5454 -0.9147
 1385SOL     OW15616   3.561   3.504   7.046  0.1897  0.0095  0.4022
 1385SOL    HW115617   3.609   3.481   7.126 -1.5242 -1.0400  1.1544
 1385SOL    HW215618   3.477   3.530   7.085  0.4563 -1.0866  1.7293
 1386SOL     OW15619   0.675   2.494   5.604 -0.1917 -0.4055  0.3819
 1386SOL    HW115620   0.595   2.440   5.604  0.0306 -0.7344  0.7584
 1386SOL    HW215621   0.669   2.536   5.518 -3.2265 -3.8401 -1.0980
 1387SOL     OW15622   0.646   1.492   8.873 -0.4130  0.3240  0.5926
 1387SOL    HW115623   0.570   1.520   8.924 -1.4478 -1.1268 -0.1477
 1387SOL    HW215624   0.676   1.575   8.837  0.6268 -1.0080 -1.6135
 1388SOL     OW15625   2.670   2.371   5.280  0.4924 -0.0441 -0.2168
 1388SOL    HW115626   2.577   2.378   5.258  0.8449 -0.9073 -2.0241
 1388SOL    HW215627   2.706   2.361   5.192 -0.6364  0.5847 -0.7471
 1389SOL     OW15628   3.228   2.213   2.692 -0.0620  0.1037 -0.5391
 1389SOL    HW115629   3.195   2.258   2.614 -0.1381 -1.2245 -1.2693
 1389SOL    HW215630   3.213   2.120   2.678 -1.9105  0.6382 -2.0616
 1390SOL     OW15631   1.190   2.098   5.491  0.8240  0.1284 -0.8490
 1390SOL    HW115632   1.226   2.186   5.503 -1.6159  1.0321 -0.1903
 1390SOL    HW215633   1.099   2.114   5.468  0.4866 -0.4691  0.0578
 1391SOL     OW15634   2.743   1.939  13.031  0.6306 -0.9726 -0.2024
 1391SOL    HW115635   2.758   1.910  12.941  1.1942 -0.3871 -0.3010
 1391SOL    HW215636   2.777   1.871  13.088  0.0770 -0.2875  0.9391
 1392SOL     OW15637   0.528   1.463   6.795 -0.9881 -0.3678 -0.4107
 1392SOL    HW115638   0.617   1.493   6.779 -1.2724  0.2600 -0.8085
 1392SOL    HW215639   0.525   1.504   6.882 -1.3951 -0.7806 -0.2256
 1393SOL     OW15640   3.036   1.480   8.630 -0.6778 -0.0567 -0.6712
 1393SOL    HW115641   3.088   1.416   8.582 -2.3346 -1.2632 -0.8686
 1393SOL    HW215642   3.109   1.528   8.670 -0.0735 -0.8622 -0.8095
 1394SOL     OW15643   0.703   3.717   2.528 -0.0599  0.3674  0.0342
 1394SOL    HW115644   0.645   3.773   2.477 -0.0909 -0.0262 -0.3573
 1394SOL    HW215645   0.781   3.705   2.473  0.2315 -1.3106  0.8047
 1395SOL     OW15646   0.783   1.752   8.240 -0.2201  0.3203  1.1581
 1395SOL    HW115647   0.796   1.801   8.322  0.3830 -1.7076  2.2705
 1395SOL    HW215648   0.846   1.804   8.191  2.1923 -1.5152  2.3124
 1396SOL     OW15649   1.879   2.897   1.236 -0.5477 -0.1478 -0.1778
 1396SOL    HW115650   1.800   2.937   1.202 -0.5555 -1.2515 -1.4932
 1396SOL    HW215651   1.926   2.972   1.272 -0.0044 -0.3239 -0.5109
 1397SOL     OW15652   2.346   4.149   3.766 -0.4311  0.4865  0.0298
 1397SOL    HW115653   2.318   4.151   3.674  0.7711  0.5790 -0.3345
 1397SOL    HW215654   2.321   4.064   3.802 -2.7697  0.3213 -1.9724
 1398SOL     OW15655   2.759   4.182   7.323  0.0483 -0.6186  0.1922
 1398SOL    HW115656   2.725   4.093   7.311 -2.7485  0.9029 -3.0796
 1398SOL    HW215657   2.842   4.164   7.368  2.1946  0.1484 -3.4661
 1399SOL     OW15658   1.126   2.494   4.866  0.1047 -0.0421  0.3992
 1399SOL    HW115659   1.078   2.576   4.859 -0.0203 -0.1320  0.2214
 1399SOL    HW215660   1.121   2.480   4.772  1.3842 -0.2510  0.3644
 1400SOL     OW15661   0.551   4.554  16.630  0.2905  0.0699 -0.3647
 1400SOL    HW115662   0.476   4.573  16.574  0.1511  2.5184  0.6367
 1400SOL    HW215663   0.534   4.474  16.680  0.4620  0.1361 -0.2012
 1401SOL     OW15664   1.228   2.068   7.429 -0.0450 -0.2364  0.1442
 1401SOL    HW115665   1.186   1.983   7.411 -1.2681  0.9475 -2.5625
 1401SOL    HW215666   1.196   2.118   7.354 -0.8067  0.3098  0.8280
 1402SOL     OW15667   2.459   0.425   5.370 -0.4048  0.1126  0.4928
 1402SOL    HW115668   2.478   0.506   5.323  0.9197 -1.0334 -0.9162
 1402SOL    HW215669   2.399   0.373   5.316  2.0954 -3.3293  1.0158
 1403SOL     OW15670   1.398   3.486   6.616  0.1550  0.6146 -0.0948
 1403SOL    HW115671   1.386   3.450   6.528 -2.2319  2.1207 -0.3926
 1403SOL    HW215672   1.493   3.495   6.615  0.2117 -0.3807 -3.8547
 1404SOL     OW15673   3.856   3.260   7.644  0.3477 -0.2169 -0.1678
 1404SOL    HW115674   3.915   3.225   7.711 -0.7999 -1.6066  0.1029
 1404SOL    HW215675   3.864   3.201   7.570  2.0535  0.6380 -0.6752
 1405SOL     OW15676   2.442   2.176   3.093 -0.6596  0.0906 -0.1454
 1405SOL    HW115677   2.417   2.248   3.150  2.3180  2.2575 -1.5888
 1405SOL    HW215678   2.523   2.213   3.058 -0.1934  0.8932  1.7692
 1406SOL     OW15679   2.692   0.897  11.009 -0.6370  0.0087  0.4535
 1406SOL    HW115680   2.743   0.973  11.036 -0.1228 -0.2356  0.1715
 1406SOL    HW215681   2.668   0.854  11.091  0.4676 -1.5454 -0.0438
 1407SOL     OW15682   0.681   0.344   8.104 -0.1077  0.7445 -0.0641
 1407SOL    HW115683   0.703   0.364   8.013  0.0297  0.5565 -0.0730
 1407SOL    HW215684   0.619   0.274   8.084 -0.3113  0.7781  0.4518
 1408SOL     OW15685   1.423   1.662  15.087  0.1609  0.2822 -0.6478
 1408SOL    HW115686   1.488   1.732  15.082  2.4823 -1.6709  1.6098
 1408SOL    HW215687   1.406   1.653  14.994  0.2012 -0.0871 -0.6211
 1409SOL     OW15688   3.317   2.262   3.251 -0.5208 -0.6670  0.1508
 1409SOL    HW115689   3.245   2.325   3.251  1.0050  1.0777 -0.7462
 1409SOL    HW215690   3.322   2.232   3.342  0.5762 -1.1484 -0.0683
 1410SOL     OW15691   1.867   0.794  13.180  0.5856  0.0594 -0.6980
 1410SOL    HW115692   1.858   0.889  13.191 -0.0131  0.1249 -1.8125
 1410SOL    HW215693   1.835   0.774  13.268  1.7714  0.2027 -0.2284
 1411SOL     OW15694   2.664   1.520   0.957  0.5332  0.1131  0.2804
 1411SOL    HW115695   2.644   1.611   0.980  1.0110  0.5647 -1.1234
 1411SOL    HW215696   2.578   1.481   0.973  1.3651 -1.9452 -0.2909
 1412SOL     OW15697   1.071   0.282   5.946 -0.6317 -0.4333 -0.5104
 1412SOL    HW115698   1.098   0.287   5.855  0.3311 -2.7944 -0.3520
 1412SOL    HW215699   1.109   0.202   5.983  1.3489  0.6620 -0.1773
 1413SOL     OW15700   0.363   3.265  11.953 -0.0497  0.3745  0.0423
 1413SOL    HW115701   0.434   3.203  11.971 -0.1420 -0.0270 -0.9785
 1413SOL    HW215702   0.350   3.306  12.039 -2.5564 -4.1793  1.9078
 1414SOL     OW15703   3.460   2.681   6.794 -0.5603  0.8233 -0.5237
 1414SOL    HW115704   3.414   2.732   6.861 -0.0928 -0.4165  0.7525
 1414SOL    HW215705   3.547   2.698   6.829 -0.8621 -0.1759  0.7240
 1415SOL     OW15706   2.019   2.408  11.776  0.2582 -0.0687 -0.1428
 1415SOL    HW115707   2.046   2.318  11.795 -0.1596 -0.0922  0.3284
 1415SOL    HW215708   1.930   2.409  11.810 -0.2491 -1.1094 -1.4358
 1416SOL     OW15709   2.926   4.465   4.051 -0.5192 -0.4027  0.3325
 1416SOL    HW115710   2.989   4.528   4.016 -0.6448 -0.2323  0.4156
 1416SOL    HW215711   2.890   4.525   4.117 -0.5000 -1.4985  1.3483
 1417SOL     OW15712   3.340   2.066   2.384  0.0174  0.7209 -0.1268
 1417SOL    HW115713   3.294   2.109   2.312  2.5784 -0.3701 -2.4095
 1417SOL    HW215714   3.432   2.091   2.377  0.5098 -0.9621  0.1504
 1418SOL     OW15715   3.931   3.332   3.292 -0.3692 -0.3910 -0.4026
 1418SOL    HW115716   3.971   3.270   3.353 -0.8839  0.4047  0.7411
 1418SOL    HW215717   3.843   3.296   3.301 -0.5626  0.3237  0.5930
 1419SOL     OW15718   2.882   0.739  11.507  0.0392  0.2099 -0.1324
 1419SOL    HW115719   2.915   0.651  11.492  1.8421  0.8248  0.2916
 1419SOL    HW215720   2.931   0.784  11.575  0.3857  1.1213 -0.9847
 1420SOL     OW15721   3.920   0.279   3.511 -0.1454  0.2047  0.2687
 1420SOL    HW115722   3.994   0.293   3.453  2.3220 -1.8167  2.9763
 1420SOL    HW215723   3.862   0.350   3.484 -1.0002 -0.3869  0.5300
 1421SOL     OW15724   1.785   1.696  12.545  0.0142 -0.3814 -0.4321
 1421SOL    HW115725   1.738   1.628  12.497  2.1608 -1.8804 -0.4304
 1421SOL    HW215726   1.783   1.662  12.634 -1.3963  1.2395  0.1394
 1422SOL     OW15727   0.964   0.607   9.016  0.2117 -0.3250 -0.0156
 1422SOL    HW115728   1.051   0.633   9.046  0.7571 -1.2763 -0.7865
 1422SOL    HW215729   0.960   0.656   8.933  0.0523  2.7136  1.7854
 1423SOL     OW15730   3.095   1.245   5.319 -0.9356 -0.1627  0.1686
 1423SOL    HW115731   3.155   1.241   5.393  0.0814  0.3677 -0.6299
 1423SOL    HW215732   3.110   1.166   5.267  0.0918 -1.5058  2.4827
 1424SOL     OW15733   1.646   2.002   0.129 -0.4538 -0.0869  0.0609
 1424SOL    HW115734   1.630   2.065   0.200  0.8362 -0.0061  0.2828
 1424SOL    HW215735   1.565   2.009   0.078 -1.5997 -0.5546  1.7954
 1425SOL     OW15736   0.611   4.485   5.482 -0.1110 -0.4373  0.2334
 1425SOL    HW115737   0.574   4.551   5.424  0.2495 -1.6229 -1.3474
 1425SOL    HW215738   0.680   4.531   5.530  0.6728  0.2097 -1.5374
 1426SOL     OW15739   2.259   2.219   4.391 -0.3370 -0.2286  0.4229
 1426SOL    HW115740   2.339   2.185   4.431 -1.2157 -1.3364  1.2073
 1426SOL    HW215741   2.306   2.279   4.333 -0.5947 -0.5234 -0.0940
 1427SOL     OW15742   1.980   3.085  14.807  0.4072 -0.3248 -0.2983
 1427SOL    HW115743   1.955   3.176  14.825  0.5961  0.2262 -2.7610
 1427SOL    HW215744   1.896   3.048  14.782  0.0362  0.3924 -0.1075
 1428SOL     OW15745   1.523   2.958   1.330 -0.4614  0.3529  0.2398
 1428SOL    HW115746   1.490   2.914   1.251  3.5861  1.3515 -2.0295
 1428SOL    HW215747   1.589   3.017   1.294  0.1885 -0.3320  0.3090
 1429SOL     OW15748   3.534   1.027   6.333  0.2387  0.7563  0.0230
 1429SOL    HW115749   3.481   1.104   6.311  0.8524  1.1157 -0.2263
 1429SOL    HW215750   3.472   0.963   6.366  0.6135 -0.4393 -1.5951
 1430SOL     OW15751   1.163   4.520   7.788  0.1587 -0.2268  0.4435
 1430SOL    HW115752   1.187   4.603   7.746 -0.8518 -0.4323 -0.5415
 1430SOL    HW215753   1.195   4.531   7.878  1.5441 -0.2749 -0.0553
 1431SOL     OW15754   4.607   1.435  13.812 -0.0072  0.8486 -0.6568
 1431SOL    HW115755   4.532   1.478  13.771 -0.7847 -1.0796 -1.2666
 1431SOL    HW215756   4.659   1.418  13.733 -0.6297 -0.6034 -0.7561
 1432SOL     OW15757   1.544   4.657  11.472  0.3051 -0.3241 -0.1455
 1432SOL    HW115758   1.634   4.641  11.445  0.7624 -3.3042  3.0314
 1432SOL    HW215759   1.490   4.603  11.414 -0.3962  2.0382 -1.6561
 1433SOL     OW15760   3.245   2.605   1.729  0.5960  0.1645 -0.8961
 1433SOL    HW115761   3.288   2.541   1.786  0.6900  1.1045  0.0807
 1433SOL    HW215762   3.152   2.580   1.731  0.2541  1.5751 -0.0159
 1434SOL     OW15763   2.076   2.137   8.896 -0.2545  0.4417 -0.1427
 1434SOL    HW115764   2.121   2.165   8.816  0.4540 -0.1864  0.0276
 1434SOL    HW215765   2.144   2.119   8.961  0.6411  1.6452 -0.7463
 1435SOL     OW15766   2.328   0.587   4.337 -0.0241  0.3115 -0.9345
 1435SOL    HW115767   2.313   0.501   4.376 -3.3817  0.5188 -1.7708
 1435SOL    HW215768   2.402   0.610   4.394 -0.3016  1.0118 -0.8640
 1436SOL     OW15769   2.242   2.004   4.674  0.1900  0.1252 -0.0983
 1436SOL    HW115770   2.256   2.062   4.749  0.8868  2.3669 -1.9843
 1436SOL    HW215771   2.291   2.043   4.603 -0.9315  0.8365 -0.4792
 1437SOL     OW15772   2.967   0.458   2.214 -0.5983 -0.1978 -0.4321
 1437SOL    HW115773   3.035   0.429   2.153 -1.5933 -2.0097 -0.6832
 1437SOL    HW215774   2.956   0.551   2.194  0.9687  0.2544  0.8002
 1438SOL     OW15775   2.190   3.104   4.130 -0.1540 -0.0043  0.4864
 1438SOL    HW115776   2.214   3.020   4.171 -5.4326 -1.3747  0.7238
 1438SOL    HW215777   2.243   3.170   4.174 -1.0570 -0.9386  2.9633
 1439SOL     OW15778   4.626   1.501   3.524  0.0609  0.3104  0.1046
 1439SOL    HW115779   4.661   1.590   3.516  3.3089 -0.8134  1.4135
 1439SOL    HW215780   4.655   1.484   3.614  0.9276 -0.6169 -0.3462
 1440SOL     OW15781   2.908   3.058  15.068  0.0647  0.3267 -0.0827
 1440SOL    HW115782   2.939   2.971  15.042 -2.4724 -0.9237  1.1082
 1440SOL    HW215783   2.964   3.102  15.004  1.6426  1.1681  1.8805
 1441SOL     OW15784   0.357   1.594   0.731 -0.0316 -0.2295 -0.3810
 1441SOL    HW115785   0.333   1.579   0.822 -1.4907  0.7630 -0.5905
 1441SOL    HW215786   0.447   1.628   0.730 -0.7151  1.6291  1.2140
 1442SOL     OW15787   1.991   4.553   8.185 -0.3261  0.4082 -0.0657
 1442SOL    HW115788   2.054   4.571   8.255 -1.5621 -1.1051  1.4432
 1442SOL    HW215789   1.908   4.593   8.211  1.1986  3.0816  0.7936
 1443SOL     OW15790   4.363   1.452  10.457 -0.0598  0.5303 -0.0533
 1443SOL    HW115791   4.448   1.429  10.420 -0.3260 -0.4413 -0.0836
 1443SOL    HW215792   4.347   1.537  10.417  0.3955  0.8212  0.3790
 1444SOL     OW15793   2.570   4.565   7.376 -0.2384 -0.2651  0.5775
 1444SOL    HW115794   2.482   4.561   7.413 -0.2860  0.0212  0.4996
 1444SOL    HW215795   2.574   4.477   7.338  1.4540  0.7898 -1.7388
 1445SOL     OW15796   1.034   1.219   3.759 -0.1954  0.0549  0.0006
 1445SOL    HW115797   1.020   1.131   3.795 -2.0451 -0.1933 -1.2942
 1445SOL    HW215798   1.129   1.211   3.765 -0.2380 -0.2227  0.2925
 1446SOL     OW15799   0.867   1.297   5.655  0.0599 -0.0934  0.1323
 1446SOL    HW115800   0.778   1.330   5.648 -0.0469 -0.1103  1.4377
 1446SOL    HW215801   0.861   1.203   5.669 -2.4520 -0.1063 -0.9929
 1447SOL     OW15802   4.094   0.074   2.409 -0.2945  0.2840 -0.0142
 1447SOL    HW115803   4.139   0.019   2.345 -0.2180  0.5976 -0.2305
 1447SOL    HW215804   4.009   0.095   2.369 -0.0666  0.6178 -0.3213
 1448SOL     OW15805   4.175   3.636   8.539 -0.1682  0.0107  0.4708
 1448SOL    HW115806   4.136   3.552   8.564 -0.1836  0.0773  0.6771
 1448SOL    HW215807   4.095   3.686   8.521  0.1539  0.4827  0.3575
 1449SOL     OW15808   3.843   3.910   1.456 -0.8446 -0.2632 -0.0370
 1449SOL    HW115809   3.911   3.906   1.524  1.3328 -0.3554 -2.2059
 1449SOL    HW215810   3.876   3.860   1.382  0.8795 -0.5312  0.9148
 1450SOL     OW15811   2.844   1.135  12.994  0.2090  0.1746  0.3719
 1450SOL    HW115812   2.807   1.223  13.001  2.9846  1.3593  0.0802
 1450SOL    HW215813   2.935   1.163  12.994  0.0651  0.6257 -2.3004
 1451SOL     OW15814   0.285   1.664   8.405 -0.0461 -0.4856  0.2447
 1451SOL    HW115815   0.315   1.593   8.349  3.7646 -0.3335  2.0992
 1451SOL    HW215816   0.367   1.695   8.444 -0.8080 -0.3961  1.7854
 1452SOL     OW15817   3.152   2.657   6.745 -0.3963  0.0593 -0.5606
 1452SOL    HW115818   3.186   2.713   6.676  0.3568 -1.0900 -1.1352
 1452SOL    HW215819   3.107   2.586   6.699  0.6543 -0.8674 -0.1548
 1453SOL     OW15820   3.065   0.851  10.258  0.7826 -0.2786 -0.3448
 1453SOL    HW115821   3.006   0.921  10.230  0.6074 -0.3774 -0.2220
 1453SOL    HW215822   3.025   0.824  10.340  0.2141 -0.7417 -0.7726
 1454SOL     OW15823   4.248   0.428   0.541  0.1829 -0.8421 -0.3264
 1454SOL    HW115824   4.188   0.414   0.467  1.1636  1.4936 -1.5782
 1454SOL    HW215825   4.278   0.518   0.529 -2.3423 -0.1353 -1.3944
 1455SOL     OW15826   4.529   3.185  13.033  0.2709  0.5657 -0.0078
 1455SOL    HW115827   4.506   3.111  12.978  0.4841  0.6802 -0.2482
 1455SOL    HW215828   4.453   3.199  13.089 -0.0898  0.4968 -0.4897
 1456SOL     OW15829   2.256   2.555  11.717 -0.3779 -0.3784 -0.3315
 1456SOL    HW115830   2.287   2.610  11.789  0.7010  1.0253 -1.8722
 1456SOL    HW215831   2.202   2.493  11.765  0.2215 -0.1627  0.6169
 1457SOL     OW15832   0.792   3.207   2.549 -0.1977 -0.1681 -0.0304
 1457SOL    HW115833   0.881   3.206   2.513 -0.2419  1.1069 -0.1683
 1457SOL    HW215834   0.787   3.292   2.592 -2.0172  0.0130 -0.5937
 1458SOL     OW15835   4.153   2.830   2.508 -0.5337 -0.0860 -0.4805
 1458SOL    HW115836   4.108   2.767   2.563 -1.3668  0.8330 -0.1002
 1458SOL    HW215837   4.172   2.773   2.434 -5.7783 -3.7234  0.9586
 1459SOL     OW15838   4.203   0.488   6.843  0.2844  0.1013 -0.4579
 1459SOL    HW115839   4.192   0.583   6.847  2.3194  0.2347  1.7726
 1459SOL    HW215840   4.147   0.451   6.911 -0.6029 -0.8804 -1.7143
 1460SOL     OW15841   3.742   2.534   6.519 -0.1189 -0.4715 -0.0264
 1460SOL    HW115842   3.823   2.493   6.548  0.2611 -0.2061 -0.6956
 1460SOL    HW215843   3.710   2.474   6.452 -2.1739 -1.0622  1.4821
 1461SOL     OW15844   2.562   3.802  12.049  0.0643 -0.0478  0.0093
 1461SOL    HW115845   2.549   3.781  11.957  1.2157 -0.3811 -0.0710
 1461SOL    HW215846   2.559   3.898  12.051 -2.3481 -0.1565  0.8813
 1462SOL     OW15847   1.091   2.448   8.540 -0.1228  0.1390  0.4394
 1462SOL    HW115848   1.044   2.531   8.547  0.9085  0.6859  0.7995
 1462SOL    HW215849   1.075   2.427   8.448 -1.9908  1.0945  0.5288
 1463SOL     OW15850   0.123   2.249  16.145 -0.0847 -0.2383 -0.0876
 1463SOL    HW115851   0.137   2.243  16.239  1.1282  1.6231 -0.1462
 1463SOL    HW215852   0.056   2.183  16.126  2.3986 -2.9777  0.9015
 1464SOL     OW15853   2.399   1.108   4.746 -0.9086 -0.1948  0.4195
 1464SOL    HW115854   2.449   1.066   4.817 -0.4976 -0.1973  0.1266
 1464SOL    HW215855   2.324   1.050   4.735 -1.0390 -0.0384  0.4945
 1465SOL     OW15856   0.431   3.143   2.621  0.5887  0.3998  0.0794
 1465SOL    HW115857   0.492   3.080   2.582 -0.3352 -0.4488  0.0215
 1465SOL    HW215858   0.497   3.201   2.659 -0.7297  0.9944  1.4128
 1466SOL     OW15859   2.987   0.443   7.628 -0.1990  0.2041 -0.1553
 1466SOL    HW115860   2.916   0.408   7.575 -0.6169 -0.5566  0.9098
 1466SOL    HW215861   2.940   0.420   7.708  1.2960  1.2550  1.0318
 1467SOL     OW15862   2.974   0.054   4.662  0.4128 -0.1397  0.0176
 1467SOL    HW115863   2.989   0.065   4.756  0.7631  0.0968 -0.0638
 1467SOL    HW215864   3.060   0.081   4.629 -0.7047  3.8135  0.2886
 1468SOL     OW15865   1.752   1.407   6.500  0.5081 -0.3699  0.0510
 1468SOL    HW115866   1.779   1.340   6.564 -0.4137 -0.4701  0.3363
 1468SOL    HW215867   1.799   1.478   6.544  1.4071 -1.3123  0.6275
 1469SOL     OW15868   1.574   2.616  15.364  0.3277 -0.1410  0.0238
 1469SOL    HW115869   1.633   2.627  15.439  0.6572  3.5596 -0.7414
 1469SOL    HW215870   1.512   2.687  15.382  1.4185  0.6849  0.5909
 1470SOL     OW15871   1.071   3.796   7.519  0.3002  0.2465  0.0206
 1470SOL    HW115872   1.164   3.804   7.537  1.0581 -2.7341 -2.5299
 1470SOL    HW215873   1.052   3.704   7.504  0.0515  0.0289  1.7036
 1471SOL     OW15874   1.451   0.857   6.257  0.0108  0.0555  0.0386
 1471SOL    HW115875   1.410   0.911   6.325  0.0978  0.4770 -0.2451
 1471SOL    HW215876   1.536   0.900   6.248  1.6048 -2.6137  2.3961
 1472SOL     OW15877   2.489   3.885   8.972 -0.3151 -0.2788 -0.3317
 1472SOL    HW115878   2.562   3.884   9.035 -1.9839 -0.0473  1.6092
 1472SOL    HW215879   2.463   3.793   8.979 -0.8851  0.0138  1.4114
 1473SOL     OW15880   4.525   2.764  14.958 -0.2265 -0.3412  0.1851
 1473SOL    HW115881   4.524   2.705  14.883 -1.8435  0.2102 -0.2439
 1473SOL    HW215882   4.539   2.852  14.921  2.5094 -0.3122  1.3160
 1474SOL     OW15883   3.917   4.209   6.851 -0.0336  0.3643  0.1445
 1474SOL    HW115884   3.947   4.197   6.941  2.3697 -0.8141 -0.8024
 1474SOL    HW215885   3.936   4.122   6.816 -0.3054  0.6981 -0.8438
 1475SOL     OW15886   3.835   4.382   3.328  0.6597 -0.3892 -0.2743
 1475SOL    HW115887   3.907   4.356   3.271  0.4668  0.1937 -0.7893
 1475SOL    HW215888   3.871   4.450   3.385  0.4938  0.5800 -1.3250
 1476SOL     OW15889   0.274   3.280   6.750 -0.0884  0.2381  0.2089
 1476SOL    HW115890   0.298   3.373   6.758 -1.3051  0.5661  0.0057
 1476SOL    HW215891   0.293   3.243   6.836  0.5292 -1.2509 -0.5714
 1477SOL     OW15892   3.233   4.637  11.139  0.4374  0.2325 -0.0351
 1477SOL    HW115893   3.210   4.604  11.052  1.0932 -1.8869  0.6184
 1477SOL    HW215894   3.199   0.001  11.151 -2.7812 -1.1728  1.4256
 1478SOL     OW15895   1.474   4.128   7.850  0.4543 -0.0837  0.0397
 1478SOL    HW115896   1.536   4.169   7.910 -0.3708 -1.1394  1.6186
 1478SOL    HW215897   1.475   4.040   7.889 -0.6741 -0.2664 -0.3343
 1479SOL     OW15898   2.516   4.409   3.678  0.4713 -0.1356  0.4255
 1479SOL    HW115899   2.501   4.492   3.722  1.6430  0.7478 -0.8331
 1479SOL    HW215900   2.432   4.379   3.643 -0.3803  2.1215  0.5682
 1480SOL     OW15901   0.888   0.464   2.785  0.1301  0.7238  0.6595
 1480SOL    HW115902   0.975   0.461   2.825  0.5938  0.6179 -0.3623
 1480SOL    HW215903   0.837   0.394   2.827  2.2102 -0.2582  1.5658
 1481SOL     OW15904   2.519   2.695  14.928  0.4016 -0.4971 -0.0012
 1481SOL    HW115905   2.426   2.675  14.921  0.2757 -0.0289  0.3684
 1481SOL    HW215906   2.528   2.717  15.021  2.1096 -1.4930  0.0810
 1482SOL     OW15907   1.135   2.834  10.974  0.1413  0.2959 -0.3775
 1482SOL    HW115908   1.067   2.896  10.948  0.1051 -0.0893 -1.2127
 1482SOL    HW215909   1.077   2.772  11.018  0.9339 -0.6640 -0.6792
 1483SOL     OW15910   3.039   2.926  10.469 -0.1454  0.1071  0.7250
 1483SOL    HW115911   3.105   2.902  10.404  0.3794 -0.1195  1.3498
 1483SOL    HW215912   3.022   2.835  10.492 -0.8146 -0.3114 -1.3714
 1484SOL     OW15913   2.644   0.114   5.734 -0.0843 -0.1688  0.2978
 1484SOL    HW115914   2.693   0.166   5.798 -0.4684 -2.2956  2.3156
 1484SOL    HW215915   2.705   0.050   5.697 -0.5353 -0.5798  0.2684
 1485SOL     OW15916   1.880   2.521   6.852  0.3034 -0.7473 -1.0194
 1485SOL    HW115917   1.797   2.568   6.855  1.1852  0.5102  3.6479
 1485SOL    HW215918   1.860   2.461   6.780  0.0909 -2.0828  0.1515
 1486SOL     OW15919   0.396   1.191   7.580  0.0065 -0.3705  0.0557
 1486SOL    HW115920   0.385   1.199   7.675  0.9784  1.5503 -0.0001
 1486SOL    HW215921   0.341   1.114   7.565  0.5498 -1.1898  2.2689
 1487SOL     OW15922   2.278   4.376  12.600 -0.3761  0.8762  0.5312
 1487SOL    HW115923   2.293   4.462  12.559 -1.3652  0.0305 -1.6242
 1487SOL    HW215924   2.335   4.384  12.676  0.1212  1.6659  0.0842
 1488SOL     OW15925   2.023   0.545   8.561 -0.0823  0.0138 -0.5663
 1488SOL    HW115926   2.023   0.490   8.640 -0.4194  0.9033  0.0565
 1488SOL    HW215927   1.961   0.496   8.507 -1.5444 -0.5865  1.6191
 1489SOL     OW15928   1.573   2.785   3.878  0.4259  0.4604 -0.0137
 1489SOL    HW115929   1.631   2.723   3.833  0.8637  0.6799  0.2496
 1489SOL    HW215930   1.602   2.873   3.854  1.0219  0.9330  2.4381
 1490SOL     OW15931   0.063   1.634   4.862 -0.4669 -0.1374  0.3335
 1490SOL    HW115932   0.074   1.544   4.831 -0.0414 -0.4302  1.3393
 1490SOL    HW215933   0.100   1.628   4.950  0.5742  0.0784 -0.0918
 1491SOL     OW15934   3.543   3.842   0.707  0.6584 -0.2856  0.5976
 1491SOL    HW115935   3.530   3.887   0.791  2.3193  1.9587 -0.3509
 1491SOL    HW215936   3.604   3.772   0.731  0.2699 -0.4659  1.0467
 1492SOL     OW15937   0.412   3.667   8.846  0.0530  0.6449 -0.2760
 1492SOL    HW115938   0.457   3.660   8.930  0.8562  0.9027 -0.6831
 1492SOL    HW215939   0.320   3.668   8.872 -0.5256 -2.2312 -2.1167
 1493SOL     OW15940   2.552   1.055   8.164  0.1238  0.3906  0.8034
 1493SOL    HW115941   2.475   1.022   8.209  0.7115 -1.2851  0.5829
 1493SOL    HW215942   2.521   1.140   8.133  2.2002  0.3875 -1.2706
 1494SOL     OW15943   1.025   4.349   9.043 -0.7106  0.5560 -0.4490
 1494SOL    HW115944   1.069   4.346   8.958 -0.7763  1.2650 -0.5055
 1494SOL    HW215945   0.938   4.319   9.017 -0.2871 -1.0753  0.0286
 1495SOL     OW15946   0.179   4.693  14.701 -0.4736  0.3515  0.0164
 1495SOL    HW115947   0.152   4.652  14.784  0.6024  0.3853  0.3793
 1495SOL    HW215948   0.130   0.050  14.698  0.0895  0.5719 -3.2084
 1496SOL     OW15949   4.407   3.051   1.570 -0.5179  0.0107 -0.0743
 1496SOL    HW115950   4.441   3.140   1.584 -3.1359  1.1626 -0.9991
 1496SOL    HW215951   4.345   3.067   1.499 -0.3660  2.5235  0.3485
 1497SOL     OW15952   2.431   0.025   9.484  0.1183  0.1373  0.4281
 1497SOL    HW115953   2.389   0.016   9.399  1.0451  0.9685 -0.1265
 1497SOL    HW215954   2.385   0.093   9.533 -0.7608  0.6432 -1.1045
 1498SOL     OW15955   1.033   3.327   4.612  0.6274  0.5623  0.3468
 1498SOL    HW115956   1.059   3.368   4.530 -0.2404  0.9040  0.2465
 1498SOL    HW215957   1.039   3.399   4.674 -2.7260  1.7653 -0.7400
 1499SOL     OW15958   3.597   0.551   4.105  0.3221 -0.5276 -0.6876
 1499SOL    HW115959   3.666   0.602   4.147 -0.2410  0.4360 -0.9318
 1499SOL    HW215960   3.629   0.547   4.015  0.0556 -0.2665 -0.7936
 1500SOL     OW15961   4.284   3.389   8.912  0.2789  0.1883  0.2896
 1500SOL    HW115962   4.207   3.334   8.922 -0.0711  0.8048  1.0022
 1500SOL    HW215963   4.349   3.322   8.890 -0.2952 -0.3533  0.2399
 1501SOL     OW15964   2.888   2.052   2.888  0.1833 -0.1690  0.3695
 1501SOL    HW115965   2.831   2.071   2.962  0.8628 -0.2352  0.9052
 1501SOL    HW215966   2.970   2.073   2.933  0.6209 -2.8184  0.8097
 1502SOL     OW15967   0.290   3.580   5.388  0.2679  0.7046 -0.0769
 1502SOL    HW115968   0.197   3.604   5.382  0.2964  0.1081 -2.8289
 1502SOL    HW215969   0.326   3.647   5.446 -0.5982  1.6468 -0.6219
 1503SOL     OW15970   2.072   3.843   9.072 -0.3854 -0.3753 -0.0906
 1503SOL    HW115971   2.117   3.909   9.126  3.8990 -1.3416 -2.4809
 1503SOL    HW215972   2.124   3.772   9.109  1.9669  0.4711 -1.8023
 1504SOL     OW15973   1.940   2.703   8.157 -0.6545  0.3202 -0.1425
 1504SOL    HW115974   2.007   2.671   8.097 -0.2589  0.3831  0.2653
 1504SOL    HW215975   1.866   2.721   8.099 -0.0672 -1.0915 -1.3390
 1505SOL     OW15976   3.756   0.703   6.393  0.2685 -0.2153 -0.0500
 1505SOL    HW115977   3.783   0.613   6.412 -1.8789 -0.8378  0.0096
 1505SOL    HW215978   3.787   0.709   6.303  0.4138 -0.8559 -0.0426
 1506SOL     OW15979   2.653   1.798  14.553 -0.8481 -0.6013 -0.1414
 1506SOL    HW115980   2.566   1.757  14.547 -0.9580 -0.4183  0.2214
 1506SOL    HW215981   2.644   1.869  14.489 -0.0985  0.3838  0.8497
 1507SOL     OW15982   3.098   1.729   9.262  0.1067 -0.1060 -0.1627
 1507SOL    HW115983   3.031   1.719   9.330 -0.6495  2.5947 -0.5475
 1507SOL    HW215984   3.044   1.706   9.186  1.8206 -1.2332 -1.0487
 1508SOL     OW15985   3.805   1.582   7.550 -0.7660  0.6853  0.2730
 1508SOL    HW115986   3.766   1.620   7.629  1.5299 -0.5044  1.9897
 1508SOL    HW215987   3.724   1.550   7.510 -0.3235  0.3087 -0.3194
 1509SOL     OW15988   2.259   1.573   7.161  0.6394 -0.0458 -0.6444
 1509SOL    HW115989   2.337   1.562   7.107  1.7821 -0.2538  1.0603
 1509SOL    HW215990   2.291   1.540   7.245 -0.7711 -0.9852 -0.4622
 1510SOL     OW15991   2.938   4.725   8.744  0.6365  0.0880 -0.3352
 1510SOL    HW115992   3.014   4.680   8.707  1.0244 -0.4245  1.1175
 1510SOL    HW215993   2.966   0.091   8.741  1.2714 -0.0856  0.4376
 1511SOL     OW15994   2.401   4.630  15.740 -0.0260  0.1948 -0.2138
 1511SOL    HW115995   2.312   4.619  15.705  0.8657 -0.5496 -2.2523
 1511SOL    HW215996   2.453   4.627  15.660  2.1131  0.5599  1.1784
 1512SOL     OW15997   0.019   1.747   3.945  0.3289 -0.5154  0.5354
 1512SOL    HW115998   0.061   1.816   3.894 -0.7074 -0.4061 -0.1913
 1512SOL    HW215999   0.004   1.790   4.029 -3.9857  1.2058 -1.1121
 1513SOL     OW16000   1.980   3.484   7.425  0.0490 -0.0403  0.2875
 1513SOL    HW116001   2.071   3.454   7.434 -0.4964 -1.9324 -0.5514
 1513SOL    HW216002   1.963   3.479   7.331 -0.1597  1.0036  0.2670
 1514SOL     OW16003   2.434   0.032   2.473 -0.4256  0.0883  0.1963
 1514SOL    HW116004   2.470   0.109   2.428 -0.8751  0.5871  0.6904
 1514SOL    HW216005   2.374   4.722   2.407 -1.7991 -0.7868  1.9396
 1515SOL     OW16006   1.043   3.778   8.721 -0.6953  0.0487  0.0535
 1515SOL    HW116007   0.976   3.828   8.674 -0.5200 -0.0875 -0.3387
 1515SOL    HW216008   1.071   3.832   8.795 -1.3801 -1.1946  1.2414
 1516SOL     OW16009   1.913   3.618   3.885  0.2295  0.2603  0.6431
 1516SOL    HW116010   1.929   3.683   3.954  0.6544  1.9728 -1.0352
 1516SOL    HW216011   2.001   3.620   3.847 -0.7038  1.4726 -1.4734
 1517SOL     OW16012   2.091   3.499   8.686  0.0651 -0.5102  0.6775
 1517SOL    HW116013   2.063   3.490   8.595 -0.7591 -2.3983  1.1304
 1517SOL    HW216014   2.037   3.566   8.728 -0.6205 -1.0175  0.5935
 1518SOL     OW16015   2.829   3.102  12.771 -0.4969 -0.0323  0.2657
 1518SOL    HW116016   2.859   3.193  12.779  0.7069 -0.2352 -2.1517
 1518SOL    HW216017   2.863   3.052  12.846  2.9011 -1.4331 -2.2197
 1519SOL     OW16018   2.994   2.755   4.525 -0.1071  0.1733  0.2956
 1519SOL    HW116019   3.079   2.744   4.483 -0.3869  2.8946 -0.9469
 1519SOL    HW216020   2.970   2.842   4.495  0.2130  0.1794  0.0647
 1520SOL     OW16021   4.115   4.545   6.351 -0.3300 -0.5447 -0.2224
 1520SOL    HW116022   4.185   4.505   6.299  0.0493 -0.4880  0.2362
 1520SOL    HW216023   4.167   4.578   6.425 -1.2574  0.2599  0.0728
 1521SOL     OW16024   4.138   4.274   6.367  0.4374 -0.3092  0.2812
 1521SOL    HW116025   4.058   4.262   6.316 -1.8266  2.4373  3.1622
 1521SOL    HW216026   4.109   4.207   6.429 -0.8655  1.5256  1.6455
 1522SOL     OW16027   2.811   2.245  13.749  0.3750 -0.2840  0.4054
 1522SOL    HW116028   2.891   2.295  13.733 -0.7982  1.5782  0.2724
 1522SOL    HW216029   2.850   2.160  13.766  3.1689  0.2399 -3.2464
 1523SOL     OW16030   1.951   2.555  15.031  0.2661 -0.2955 -0.3049
 1523SOL    HW116031   1.913   2.534  14.946  0.7078 -1.1634 -0.2906
 1523SOL    HW216032   1.944   2.650  15.037 -0.5719 -0.4590  1.0968
 1524SOL     OW16033   3.969   0.461   6.040 -0.4770 -0.0422 -0.3298
 1524SOL    HW116034   4.004   0.464   5.951  2.2175 -0.2541  0.7322
 1524SOL    HW216035   3.890   0.413   6.014  1.1379 -1.9384 -1.7668
 1525SOL     OW16036   0.496   0.174   7.909  0.3488 -0.4955 -0.0896
 1525SOL    HW116037   0.407   0.176   7.944  0.0967  0.5441 -0.7899
 1525SOL    HW216038   0.468   0.198   7.820  0.9040 -0.0244 -0.1393
 1526SOL     OW16039   0.959   3.986  14.745 -0.4577  0.2301 -0.7028
 1526SOL    HW116040   0.893   4.055  14.743 -0.3195  0.3766 -0.2163
 1526SOL    HW216041   1.009   3.993  14.663  0.4109 -1.1937 -0.2936
 1527SOL     OW16042   3.212   4.637   7.330  0.1378 -0.5282  0.3267
 1527SOL    HW116043   3.195   4.558   7.280  3.4765 -0.0037 -1.6272
 1527SOL    HW216044   3.281   4.601   7.386  1.7023  1.1107 -0.5240
 1528SOL     OW16045   1.241   2.957   3.867 -0.2887 -0.0385 -0.5119
 1528SOL    HW116046   1.203   2.973   3.953 -0.2052 -1.6615 -0.1739
 1528SOL    HW216047   1.320   3.011   3.872  0.2769 -0.9365  0.1158
 1529SOL     OW16048   3.936   2.595   4.150 -0.2765  0.6051  0.7667
 1529SOL    HW116049   3.968   2.511   4.117 -1.2104 -0.6184  2.9987
 1529SOL    HW216050   3.847   2.567   4.173  0.3809 -2.2933 -0.3334
 1530SOL     OW16051   3.884   1.103   7.782  0.8596 -0.3168 -0.0718
 1530SOL    HW116052   3.966   1.055   7.787  0.4847 -0.9842 -0.4271
 1530SOL    HW216053   3.872   1.134   7.692  0.6870 -0.9177 -0.2547
 1531SOL     OW16054   0.994   0.590  15.056 -0.1489  0.3605 -0.0670
 1531SOL    HW116055   1.058   0.586  15.126  0.0210 -1.3826 -0.3206
 1531SOL    HW216056   0.998   0.683  15.031  0.1364  0.6341  0.9919
 1532SOL     OW16057   1.301   0.432   5.287 -0.0195 -1.0276 -0.2830
 1532SOL    HW116058   1.221   0.483   5.301 -0.8173 -2.2444 -0.3495
 1532SOL    HW216059   1.362   0.474   5.347 -0.4787 -0.5120 -0.1759
 1533SOL     OW16060   0.038   0.263   6.824 -0.7029 -0.7416  0.4958
 1533SOL    HW116061   0.006   0.333   6.880  1.6801 -0.7049  1.8358
 1533SOL    HW216062   4.701   0.278   6.753  0.3728 -1.5117 -0.6285
 1534SOL     OW16063   0.948   3.102   6.627  0.0241  0.3951  0.4136
 1534SOL    HW116064   0.934   3.191   6.594  1.7311  0.4520 -0.1779
 1534SOL    HW216065   0.983   3.054   6.552  0.4124 -1.7973  1.9947
 1535SOL     OW16066   2.872   3.823   2.562 -0.2560  0.4062 -0.1371
 1535SOL    HW116067   2.891   3.871   2.482 -0.8914 -0.7321 -0.9781
 1535SOL    HW216068   2.852   3.735   2.529 -0.2516  1.1400 -2.0626
 1536SOL     OW16069   0.396   2.980  10.919  0.3612  0.0658  0.1283
 1536SOL    HW116070   0.439   3.046  10.973  0.4162 -0.7981  1.1448
 1536SOL    HW216071   0.370   3.039  10.849  1.0107  1.7892  1.3238
 1537SOL     OW16072   3.595   1.655   3.097  0.3163  0.1123 -0.3664
 1537SOL    HW116073   3.644   1.620   3.023  0.2799 -0.2115 -0.2365
 1537SOL    HW216074   3.619   1.588   3.161  0.5463  1.8007  1.3101
 1538SOL     OW16075   0.939   1.985   8.969 -0.2881 -0.6117 -0.3113
 1538SOL    HW116076   0.946   1.946   9.056 -0.1433 -1.4093 -0.6753
 1538SOL    HW216077   1.031   1.999   8.947 -0.1215  1.0301  1.5044
 1539SOL     OW16078   3.579   2.281   3.170 -0.6127 -0.0775  0.0008
 1539SOL    HW116079   3.487   2.267   3.192 -0.4969 -0.5382  0.1891
 1539SOL    HW216080   3.591   2.375   3.182 -1.7341 -0.1072  1.2286
 1540SOL     OW16081   4.025   3.961   3.946 -0.1262 -0.3392 -0.2395
 1540SOL    HW116082   4.037   3.977   4.040 -0.2064 -1.8721  0.0278
 1540SOL    HW216083   4.068   3.877   3.933  0.3540  0.1429 -1.8040
 1541SOL     OW16084   1.119   3.084   3.336 -0.0964 -0.7615 -0.0864
 1541SOL    HW116085   1.145   2.994   3.353  0.9088 -0.1169  1.8409
 1541SOL    HW216086   1.198   3.123   3.299  1.1693 -0.3561  3.0641
 1542SOL     OW16087   1.522   0.683   2.335 -0.6131 -0.1859  0.0070
 1542SOL    HW116088   1.479   0.616   2.388  0.1682 -0.7604 -0.0925
 1542SOL    HW216089   1.443   0.704   2.285  1.2909 -1.7692 -3.6655
 1543SOL     OW16090   0.821   1.718  13.291  0.0567 -0.1191 -0.0702
 1543SOL    HW116091   0.777   1.728  13.376 -0.0000 -0.8553 -0.0119
 1543SOL    HW216092   0.833   1.807  13.259  2.5716 -0.1410  0.7785
 1544SOL     OW16093   1.353   2.769  16.040 -0.3397 -0.1686 -1.1837
 1544SOL    HW116094   1.391   2.857  16.035  0.2802 -0.3134  1.2349
 1544SOL    HW216095   1.333   2.744  15.950  1.3778  1.1756 -1.9393
 1545SOL     OW16096   2.098   3.752   4.334 -0.2920  0.0769  0.1219
 1545SOL    HW116097   2.172   3.813   4.332  1.5921 -2.2550 -0.9868
 1545SOL    HW216098   2.042   3.790   4.402  0.3767  0.3800  0.5049
 1546SOL     OW16099   1.558   0.297   5.846  0.0655 -0.1538  0.0867
 1546SOL    HW116100   1.535   0.311   5.938 -4.2543 -0.3779 -0.9719
 1546SOL    HW216101   1.490   0.355   5.813 -1.7633 -2.1566  0.2771
 1547SOL     OW16102   2.688   3.303  13.297  0.0959 -0.1586 -0.5668
 1547SOL    HW116103   2.683   3.234  13.364  1.3247  1.3512  1.0741
 1547SOL    HW216104   2.736   3.259  13.227 -1.1834 -1.2441 -0.7492
 1548SOL     OW16105   2.907   3.020   2.165 -0.0991  0.0727 -0.0381
 1548SOL    HW116106   2.822   3.059   2.146 -0.0106  1.2895  2.0337
 1548SOL    HW216107   2.966   3.091   2.138 -1.8542  1.4814 -0.1495
 1549SOL     OW16108   2.599   0.414  10.767  0.0393 -0.0290 -0.9071
 1549SOL    HW116109   2.634   0.471  10.698  0.5623  1.7652  0.8279
 1549SOL    HW216110   2.641   0.329  10.759  1.8678  1.0157 -2.4469
 1550SOL     OW16111   1.767   3.998  17.233  0.0977 -0.1015  0.3203
 1550SOL    HW116112   1.743   4.013  17.325 -2.4662 -2.4858  0.0355
 1550SOL    HW216113   1.695   3.938  17.212 -0.5405  0.9686 -0.5345
 1551SOL     OW16114   3.654   0.223   2.119  0.5176  0.1645 -0.2556
 1551SOL    HW116115   3.674   0.152   2.059  0.6819  1.7376 -2.0743
 1551SOL    HW216116   3.559   0.226   2.107  0.7048 -1.3474 -2.0035
 1552SOL     OW16117   0.168   3.672   2.254 -0.4555 -0.1501  0.1210
 1552SOL    HW116118   0.137   3.583   2.233  0.2038 -0.6353  1.1926
 1552SOL    HW216119   0.087   3.714   2.282 -1.1113 -2.0271  1.0839
 1553SOL     OW16120   0.160   3.374   4.798  0.4709  0.0638  0.2415
 1553SOL    HW116121   0.130   3.293   4.759 -2.3526  0.4770  1.5647
 1553SOL    HW216122   0.150   3.358   4.892  0.5194 -0.8670  0.0863
 1554SOL     OW16123   2.374   1.647   8.138 -0.2499 -0.4659 -0.1627
 1554SOL    HW116124   2.421   1.707   8.195 -0.8924  0.5115 -0.6635
 1554SOL    HW216125   2.442   1.608   8.083 -0.4027 -1.4513  0.3444
 1555SOL     OW16126   2.735   0.092   4.445 -0.3094 -0.4576  0.3069
 1555SOL    HW116127   2.765   0.180   4.469 -0.1020 -1.0654  2.3171
 1555SOL    HW216128   2.666   0.087   4.511  0.3144  1.7725  1.1537
 1556SOL     OW16129   0.347   1.854   2.307  0.4251  0.2011  0.0380
 1556SOL    HW116130   0.326   1.795   2.379  1.4487 -2.5702 -1.9532
 1556SOL    HW216131   0.260   1.895   2.301 -0.6009 -2.1682 -1.1835
 1557SOL     OW16132   2.615   0.763   6.807 -0.3290 -0.4394  0.4375
 1557SOL    HW116133   2.588   0.768   6.715 -0.3247  0.0463  0.4638
 1557SOL    HW216134   2.672   0.686   6.801  1.7110  1.1219 -0.1764
 1558SOL     OW16135   4.187   0.181   8.122 -0.5204  0.0612 -0.5722
 1558SOL    HW116136   4.236   0.259   8.095  0.3278  0.5076  2.2635
 1558SOL    HW216137   4.144   0.149   8.043 -0.4666  1.0153 -0.9940
 1559SOL     OW16138   1.496   2.101  11.104  0.1479  0.3663 -0.5216
 1559SOL    HW116139   1.401   2.110  11.109  0.2852  0.2741  1.9969
 1559SOL    HW216140   1.519   2.173  11.163 -1.4911 -0.1004  0.6681
 1560SOL     OW16141   1.021   1.201   4.212  0.2339 -0.5011 -0.1329
 1560SOL    HW116142   1.048   1.265   4.146 -2.8272  2.2209  1.2978
 1560SOL    HW216143   0.938   1.159   4.191  1.1342 -2.3709  0.0551
 1561SOL     OW16144   4.162   0.229   5.725  0.1545 -0.0932  0.4608
 1561SOL    HW116145   4.255   0.244   5.709 -0.0689 -1.3124 -1.9069
 1561SOL    HW216146   4.124   0.316   5.737 -0.7554 -0.4905  0.4925
 1562SOL     OW16147   3.554   2.841  10.151 -0.2747  0.0157  0.6407
 1562SOL    HW116148   3.627   2.794  10.193  1.7795  0.3623 -2.5781
 1562SOL    HW216149   3.518   2.893  10.223  1.3273 -0.6415  1.9353
 1563SOL     OW16150   3.592   0.063   0.687  0.2931  0.4564  0.0635
 1563SOL    HW116151   3.654   0.097   0.623 -1.7626  0.3774 -1.9827
 1563SOL    HW216152   3.658   0.017   0.739  0.4174  0.5277 -0.0317
 1564SOL     OW16153   1.027   3.609   6.630  0.3050  0.5193 -0.4750
 1564SOL    HW116154   1.021   3.647   6.718 -1.9748 -1.1332  0.1044
 1564SOL    HW216155   1.071   3.527   6.652  0.9204  1.0178  0.1415
 1565SOL     OW16156   3.082   3.997   2.186 -0.7510  0.5098  0.2903
 1565SOL    HW116157   3.170   4.033   2.175  0.2564 -2.0350 -0.0097
 1565SOL    HW216158   3.090   3.918   2.241  1.8242  1.3272  1.0576
 1566SOL     OW16159   0.983   1.244   7.888 -0.2878  0.2124 -0.2451
 1566SOL    HW116160   0.946   1.156   7.900  0.0309  0.3974  2.0416
 1566SOL    HW216161   0.939   1.275   7.809  2.1611 -0.4056 -1.8588
 1567SOL     OW16162   2.155   3.091   5.608 -0.1863 -0.0801  0.1303
 1567SOL    HW116163   2.209   3.170   5.597 -0.4985  0.1415  0.2160
 1567SOL    HW216164   2.082   3.110   5.550 -1.1376 -0.4984  1.2073
 1568SOL     OW16165   1.478   2.591   8.617 -0.0666  0.5268 -0.3940
 1568SOL    HW116166   1.515   2.675   8.645  0.2372  0.7035 -1.3437
 1568SOL    HW216167   1.386   2.598   8.643 -0.6430 -0.3062 -2.2321
 1569SOL     OW16168   4.228   2.193   2.519 -0.3032 -0.3598 -0.3568
 1569SOL    HW116169   4.284   2.256   2.564 -2.0981  0.6992  0.4295
 1569SOL    HW216170   4.213   2.120   2.580 -1.8449 -1.7713 -2.4071
 1570SOL     OW16171   3.010   3.003   1.261 -0.0535  0.2882  0.0367
 1570SOL    HW116172   3.013   3.099   1.253  0.6869  0.0939 -2.2084
 1570SOL    HW216173   2.918   2.978   1.267  0.2451 -0.9335 -0.4220
 1571SOL     OW16174   0.478   0.661   8.348 -0.4738 -0.7955  0.6646
 1571SOL    HW116175   0.442   0.736   8.301 -0.1183 -0.6020  0.7032
 1571SOL    HW216176   0.470   0.685   8.440  1.4628  2.9364 -0.1565
 1572SOL     OW16177   2.607   3.682   4.099 -0.1206  0.0992 -0.1905
 1572SOL    HW116178   2.684   3.664   4.046  0.3005  3.4295 -0.7472
 1572SOL    HW216179   2.604   3.777   4.085 -1.6942  0.0502 -0.2062
 1573SOL     OW16180   0.816   4.073   5.584  0.1917 -0.2926 -0.0808
 1573SOL    HW116181   0.863   4.146   5.624 -0.5680  1.5908 -2.7051
 1573SOL    HW216182   0.856   3.999   5.631  1.0644  0.7307  0.7666
 1574SOL     OW16183   2.794   2.487   2.308  0.0254 -0.4171  0.0854
 1574SOL    HW116184   2.777   2.405   2.354  0.1847 -0.2008  0.5250
 1574SOL    HW216185   2.807   2.553   2.376 -0.6152 -2.0589  1.8056
 1575SOL     OW16186   2.566   0.596   4.537 -0.0393 -0.5874 -0.2479
 1575SOL    HW116187   2.652   0.611   4.578 -0.9824 -1.1872  1.9659
 1575SOL    HW216188   2.512   0.591   4.616 -0.5034  0.2758 -0.5104
 1576SOL     OW16189   2.072   0.185   2.357 -0.1221  0.4776 -0.3397
 1576SOL    HW116190   2.101   0.186   2.266 -0.2563  2.0221 -0.3644
 1576SOL    HW216191   2.026   0.269   2.356 -0.8331  0.0909 -0.3127
 1577SOL     OW16192   0.686   2.504  17.581  0.1981  0.1546  0.4165
 1577SOL    HW116193   0.732   2.436  17.629 -0.4312 -2.0109 -2.0623
 1577SOL    HW216194   0.633   2.451  17.522 -0.2975  0.1401  0.8783
 1578SOL     OW16195   1.496   2.217   3.276 -0.1912  0.4178 -0.0210
 1578SOL    HW116196   1.544   2.233   3.358 -2.7166  0.1705  1.4965
 1578SOL    HW216197   1.502   2.306   3.241 -1.0547  0.1949 -0.7130
 1579SOL     OW16198   3.563   2.032   7.228  0.0348  0.4268  0.3807
 1579SOL    HW116199   3.484   1.983   7.252 -0.4722 -0.8869 -3.9671
 1579SOL    HW216200   3.542   2.119   7.261  0.8563  0.4405  0.8745
 1580SOL     OW16201   0.134   3.207   5.396  0.1839 -0.3247 -0.2889
 1580SOL    HW116202   0.055   3.238   5.352  0.2921  0.9133  0.3633
 1580SOL    HW216203   0.100   3.151   5.466  0.1745  0.0876  0.0408
 1581SOL     OW16204   4.335   3.994   8.565  0.6752 -0.3710  0.6281
 1581SOL    HW116205   4.352   4.073   8.616 -0.8903 -0.5252  1.4079
 1581SOL    HW216206   4.299   3.945   8.640 -0.4037  0.8764  0.9214
 1582SOL     OW16207   1.401   1.864   1.709 -0.2527  0.2014  0.5942
 1582SOL    HW116208   1.455   1.927   1.660  1.1278 -0.8364  0.7669
 1582SOL    HW216209   1.430   1.785   1.664  0.0097  1.7781 -2.0171
 1583SOL     OW16210   1.498   2.873  14.005 -0.2778  0.3284  0.1313
 1583SOL    HW116211   1.516   2.861  13.912  0.4969 -1.1961  0.4812
 1583SOL    HW216212   1.449   2.956  14.012  1.4834  1.4366 -0.6456
 1584SOL     OW16213   0.530   4.650   9.351  0.1921  0.3523 -0.1025
 1584SOL    HW116214   0.449   4.697   9.332 -0.2373 -1.3906 -2.5497
 1584SOL    HW216215   0.499   4.578   9.405  0.4144  1.2181  1.1718
 1585SOL     OW16216   2.201   3.183   6.827 -0.1652  0.0724  0.4175
 1585SOL    HW116217   2.218   3.171   6.920  2.2437 -1.7093 -0.2484
 1585SOL    HW216218   2.209   3.092   6.800 -0.2609  1.3796 -4.0366
 1586SOL     OW16219   3.846   4.207   7.701  0.1054  0.1134 -0.1478
 1586SOL    HW116220   3.849   4.189   7.607  2.2342 -0.2590 -0.0050
 1586SOL    HW216221   3.836   4.302   7.703 -1.4589  0.0251 -3.3877
 1587SOL     OW16222   2.294   0.699   0.074 -0.1584  0.1870  0.4524
 1587SOL    HW116223   2.374   0.739   0.041  0.4762  0.2046  2.0333
 1587SOL    HW216224   2.267   0.647  17.701 -0.7468  0.9000  0.1679
 1588SOL     OW16225   1.951   0.440  17.484 -0.1196  0.4325  0.0197
 1588SOL    HW116226   1.910   0.494  17.416 -2.3926 -0.9547  0.2785
 1588SOL    HW216227   2.025   0.500  17.494 -0.3676  0.6923  0.2611
 1589SOL     OW16228   1.300   3.527   2.523  0.2594  0.0769  0.0939
 1589SOL    HW116229   1.253   3.534   2.606  1.1395  2.9910  0.3784
 1589SOL    HW216230   1.232   3.553   2.461 -0.5896 -0.7908  0.6705
 1590SOL     OW16231   1.615   0.924   4.057  0.0579 -0.0552  0.1184
 1590SOL    HW116232   1.553   0.889   4.121 -1.1663  0.7987 -0.6224
 1590SOL    HW216233   1.605   0.862   3.985 -0.2929  0.9318 -0.6755
 1591SOL     OW16234   4.332   1.105   6.945  0.1080  0.3570  0.2498
 1591SOL    HW116235   4.410   1.135   6.990 -0.4888 -0.0190  1.5275
 1591SOL    HW216236   4.344   1.109   6.850  0.8753 -0.5820  0.3084
 1592SOL     OW16237   4.246   2.432   4.116  0.3173  0.0193 -0.4738
 1592SOL    HW116238   4.205   2.458   4.199  0.0269  1.3670 -1.0359
 1592SOL    HW216239   4.177   2.413   4.053 -1.1924  0.9380  0.8885
 1593SOL     OW16240   0.252   0.406   6.401  0.0264  0.2859  0.5616
 1593SOL    HW116241   0.346   0.393   6.413 -0.2140 -1.1498  0.8226
 1593SOL    HW216242   0.264   0.457   6.321 -0.9379  1.2264  1.0239
 1594SOL     OW16243   1.374   3.482   7.940 -0.0882 -0.1601  0.5268
 1594SOL    HW116244   1.321   3.559   7.917  1.2308  0.4706 -0.4180
 1594SOL    HW216245   1.365   3.440   7.855 -1.9068 -0.3622  0.8066
 1595SOL     OW16246   2.203   1.290  14.858 -0.2391 -0.0463 -0.0842
 1595SOL    HW116247   2.151   1.370  14.860  0.1892  0.2654 -1.3473
 1595SOL    HW216248   2.140   1.219  14.872  2.4035 -2.2195  0.8555
 1596SOL     OW16249   4.577   2.057   3.931  0.4752 -0.1437  0.6731
 1596SOL    HW116250   4.655   2.009   3.905  0.6315 -0.5891  1.9864
 1596SOL    HW216251   4.612   2.125   3.988 -0.8836  1.0738  0.0827
 1597SOL     OW16252   1.302   2.028  11.349 -0.1079 -0.5398  0.7689
 1597SOL    HW116253   1.212   2.058  11.365 -0.2979  0.6703 -2.5349
 1597SOL    HW216254   1.348   2.094  11.402 -2.0360  0.7515  0.8528
 1598SOL     OW16255   3.184   4.085  15.019 -0.2994 -0.2855  0.2885
 1598SOL    HW116256   3.157   3.993  15.014 -0.0838 -0.2770 -1.0598
 1598SOL    HW216257   3.268   4.090  15.066 -0.2828 -2.5338  0.5336
 1599SOL     OW16258   2.166   0.633  10.067 -0.9981 -0.5919  0.4239
 1599SOL    HW116259   2.092   0.647  10.127 -1.5399 -1.2298 -0.1014
 1599SOL    HW216260   2.171   0.539  10.081 -0.7320 -0.8603 -1.4845
 1600SOL     OW16261   2.028   3.921   5.204  0.0877 -0.1429  0.5084
 1600SOL    HW116262   2.099   3.867   5.169  0.9813  0.3079  1.5959
 1600SOL    HW216263   2.049   4.010   5.178 -1.9845  0.2947  0.3297
 1601SOL     OW16264   1.649   3.344  13.213 -0.0527 -0.0353 -0.5364
 1601SOL    HW116265   1.701   3.345  13.293  1.4535 -0.5185 -1.5102
 1601SOL    HW216266   1.632   3.252  13.193 -1.7628  0.1524  0.0444
 1602SOL     OW16267   1.648   0.082   3.673  0.1098  0.6849  0.1414
 1602SOL    HW116268   1.571   0.109   3.723 -1.0125 -0.7227 -0.8542
 1602SOL    HW216269   1.698   0.023   3.730 -1.8025 -1.0486 -0.0043
 1603SOL     OW16270   0.343   4.505   2.419  0.6571 -0.2462  0.0924
 1603SOL    HW116271   0.401   4.508   2.343  1.5305 -1.6593  0.7041
 1603SOL    HW216272   0.333   4.593   2.456 -0.1202  0.3219 -1.4310
 1604SOL     OW16273   1.523   1.343  14.980  0.1826  0.7307  0.1184
 1604SOL    HW116274   1.444   1.290  14.964  0.2286  1.4634 -2.5215
 1604SOL    HW216275   1.491   1.427  15.012 -0.7576 -0.0812  1.3059
 1605SOL     OW16276   1.739   1.213   7.299  0.0040  0.3137  0.1600
 1605SOL    HW116277   1.752   1.118   7.299  1.1160  0.4685 -0.6573
 1605SOL    HW216278   1.755   1.239   7.208  0.5972  1.1484  0.5071
 1606SOL     OW16279   1.302   4.125   3.549  0.3480 -0.0807 -0.1133
 1606SOL    HW116280   1.297   4.030   3.561  0.7424  0.1906  2.3128
 1606SOL    HW216281   1.342   4.123   3.463  1.3897  3.3659  0.2960
 1607SOL     OW16282   0.454   1.086   3.295  0.4102  0.1383 -0.3002
 1607SOL    HW116283   0.528   1.124   3.342 -0.8506  1.2307  0.8274
 1607SOL    HW216284   0.378   1.123   3.340  0.4734 -0.9268  0.6847
 1608SOL     OW16285   3.522   0.411   1.558 -0.1893  0.1380 -0.2470
 1608SOL    HW116286   3.515   0.354   1.482  0.8284  0.1268 -0.3250
 1608SOL    HW216287   3.474   0.484   1.518 -1.1797  0.2659  1.1934
 1609SOL     OW16288   4.180   4.044   1.253 -0.0034 -0.1446  0.2564
 1609SOL    HW116289   4.219   4.052   1.340  1.4841  0.8195 -0.4930
 1609SOL    HW216290   4.255   4.014   1.202  1.0565 -0.1907  1.8489
 1610SOL     OW16291   0.488   3.496   3.726 -0.1443 -0.1202 -0.7448
 1610SOL    HW116292   0.402   3.471   3.757 -1.0240  1.7879 -1.6128
 1610SOL    HW216293   0.536   3.418   3.755  0.0990  0.7590  1.1885
 1611SOL     OW16294   4.097   0.391   3.039 -0.7445 -0.4391  0.7374
 1611SOL    HW116295   4.190   0.380   3.019 -0.4452 -1.5914  2.8278
 1611SOL    HW216296   4.063   0.358   2.955  0.7779  2.3311 -0.9731
 1612SOL     OW16297   3.661   1.983   9.797 -0.0047  0.1036  0.1226
 1612SOL    HW116298   3.656   1.993   9.892 -0.1990 -0.6315  0.1926
 1612SOL    HW216299   3.581   1.936   9.773  0.9401 -0.4886 -1.8721
 1613SOL     OW16300   2.562   4.642  16.777 -0.4307  0.3857  0.6080
 1613SOL    HW116301   2.469   4.620  16.769 -0.0131  0.0164 -2.9036
 1613SOL    HW216302   2.595   4.553  16.792  1.9900  0.8217 -2.2649
 1614SOL     OW16303   4.231   1.392   7.569 -0.1409  0.5016  0.3351
 1614SOL    HW116304   4.203   1.357   7.485  1.7552  0.9655 -0.4745
 1614SOL    HW216305   4.148   1.435   7.591  0.1155  2.4825 -2.6636
 1615SOL     OW16306   2.929   1.175   1.936  0.0355 -0.3663  0.7010
 1615SOL    HW116307   3.011   1.182   1.886 -0.1826  0.9072  0.5230
 1615SOL    HW216308   2.883   1.113   1.879 -1.8921  2.0829 -0.4441
 1616SOL     OW16309   2.467   2.836   1.807 -0.1177  0.0104 -0.0717
 1616SOL    HW116310   2.509   2.920   1.792  1.9702 -0.8544  0.9344
 1616SOL    HW216311   2.378   2.871   1.809  0.8191  2.3091  0.4787
 1617SOL     OW16312   2.719   4.658   2.315 -0.2644 -0.0575 -0.2805
 1617SOL    HW116313   2.655   4.643   2.245 -0.1705 -1.0047 -0.1616
 1617SOL    HW216314   2.745   0.021   2.290 -1.7200  0.4658  0.0894
 1618SOL     OW16315   2.610   0.945   4.877 -0.5102 -0.2431 -0.0456
 1618SOL    HW116316   2.545   0.887   4.916  0.6976 -2.0897 -0.7800
 1618SOL    HW216317   2.678   0.957   4.944 -1.2612 -0.1111  0.6868
 1619SOL     OW16318   2.160   2.581   8.049  0.6109  0.4436  0.3731
 1619SOL    HW116319   2.136   2.494   8.081 -0.6280  1.6120  2.6566
 1619SOL    HW216320   2.192   2.562   7.961  1.6494  1.1802  0.5970
 1620SOL     OW16321   0.111   4.251  16.046  0.3246  0.2282  0.0277
 1620SOL    HW116322   0.136   4.338  16.077  0.0582  1.0318 -1.9974
 1620SOL    HW216323   0.163   4.193  16.101  0.8892 -0.1636 -0.9277
 1621SOL     OW16324   0.968   2.981   0.479 -0.2454 -0.3727 -0.1441
 1621SOL    HW116325   0.997   2.907   0.532  0.9710  1.8714  2.3351
 1621SOL    HW216326   0.905   3.017   0.543  0.9396 -0.7247  1.2203
 1622SOL     OW16327   2.184   2.654   8.920  0.0166  0.0016  0.4709
 1622SOL    HW116328   2.223   2.741   8.906 -0.0629  0.0008  0.2438
 1622SOL    HW216329   2.221   2.602   8.848 -0.1918  0.1564  0.2533
 1623SOL     OW16330   4.090   4.427   7.417 -0.1596 -0.6355  0.4083
 1623SOL    HW116331   4.117   4.507   7.372  0.3536 -0.2379  1.4231
 1623SOL    HW216332   3.997   4.435   7.394  0.7541  1.5418 -2.5554
 1624SOL     OW16333   3.553   2.230   2.279  0.0691 -0.0091  0.9213
 1624SOL    HW116334   3.540   2.267   2.191 -0.9404 -1.1139  0.5892
 1624SOL    HW216335   3.541   2.308   2.333 -0.4368 -0.1066  0.9525
 1625SOL     OW16336   3.763   1.407  12.255 -0.5218  0.2484 -0.2667
 1625SOL    HW116337   3.681   1.361  12.237 -0.7745 -0.1129  1.8591
 1625SOL    HW216338   3.776   1.408  12.350 -0.5922  0.2613 -0.2572
 1626SOL     OW16339   2.903   2.670   6.438  0.4899 -0.2466 -0.4894
 1626SOL    HW116340   2.990   2.706   6.418 -0.1969  1.7946  0.1598
 1626SOL    HW216341   2.941   2.603   6.495  1.0739 -0.2704 -0.8987
 1627SOL     OW16342   2.605   0.305   2.625  0.7109  0.1166 -0.0014
 1627SOL    HW116343   2.626   0.393   2.658  1.4332  0.0438 -0.2744
 1627SOL    HW216344   2.515   0.320   2.597  0.0852 -0.5714  1.6840
 1628SOL     OW16345   2.898   2.724   8.868 -0.2424  0.4039  0.0799
 1628SOL    HW116346   2.819   2.669   8.877  0.4954 -0.9981 -1.9197
 1628SOL    HW216347   2.951   2.650   8.898  0.6627  1.5929  1.3758
 1629SOL     OW16348   1.928   1.937   5.007 -0.3977 -0.3360 -0.3343
 1629SOL    HW116349   2.006   1.992   4.995 -0.0135 -0.2607  2.3438
 1629SOL    HW216350   1.890   1.980   5.084  1.7762 -0.9829  1.1241
 1630SOL     OW16351   1.839   0.894  14.872  0.0928 -0.1537 -0.4100
 1630SOL    HW116352   1.876   0.855  14.951  1.0873  0.1894 -0.6997
 1630SOL    HW216353   1.749   0.912  14.898 -1.0016 -5.7327 -0.3809
 1631SOL     OW16354   2.638   2.819   3.560 -0.2918 -0.0944 -0.0622
 1631SOL    HW116355   2.719   2.868   3.543 -0.9891  0.4639 -1.7982
 1631SOL    HW216356   2.621   2.847   3.651  1.1832  1.7126 -0.3445
 1632SOL     OW16357   1.179   2.323   2.019 -0.0232 -0.2281  0.1518
 1632SOL    HW116358   1.155   2.230   2.013 -1.5504  0.1824 -0.1303
 1632SOL    HW216359   1.130   2.362   1.947  2.3907  1.5974 -0.4957
 1633SOL     OW16360   0.077   3.846   4.860  0.4694  0.6141  0.7474
 1633SOL    HW116361   0.153   3.798   4.827  0.0935 -0.3200  1.2434
 1633SOL    HW216362   0.069   3.889   4.775 -1.0086 -0.9190  0.1108
 1634SOL     OW16363   3.107   2.132   4.055  0.3119  0.5860  0.6668
 1634SOL    HW116364   3.054   2.155   3.979  0.6933  2.8522  1.0839
 1634SOL    HW216365   3.195   2.125   4.018 -0.0565 -2.4600  0.3885
 1635SOL     OW16366   2.977   3.799   6.576  0.4977 -0.4963 -0.2888
 1635SOL    HW116367   2.926   3.840   6.646  0.8915 -0.8704  0.2233
 1635SOL    HW216368   2.978   3.705   6.597  0.7202 -1.0592 -2.8409
 1636SOL     OW16369   1.938   1.938   1.662 -0.1222 -0.3442  0.2481
 1636SOL    HW116370   1.937   1.989   1.743  1.6958  2.3807 -1.4756
 1636SOL    HW216371   1.949   1.849   1.697 -1.3356  0.6829  3.2135
 1637SOL     OW16372   1.629   3.177   2.450 -0.1184 -0.4975 -0.0658
 1637SOL    HW116373   1.653   3.121   2.376 -0.6510  0.1266 -0.6975
 1637SOL    HW216374   1.690   3.135   2.511 -1.4611 -1.7706  0.3855
 1638SOL     OW16375   1.810   1.219   3.156 -0.3480 -0.5367  0.3469
 1638SOL    HW116376   1.743   1.185   3.097 -1.6647  1.2497  0.7691
 1638SOL    HW216377   1.866   1.143   3.167  0.0713 -0.4381 -1.2197
 1639SOL     OW16378   1.851   0.122   6.242  0.6087 -0.4633 -0.3026
 1639SOL    HW116379   1.942   0.094   6.235  0.6979 -0.3968  0.7104
 1639SOL    HW216380   1.847   0.184   6.169 -0.8171 -1.3970 -1.0182
 1640SOL     OW16381   3.783   0.707   8.085  0.3335 -0.1347 -0.2047
 1640SOL    HW116382   3.803   0.791   8.127 -0.5393  0.2803 -0.6210
 1640SOL    HW216383   3.772   0.729   7.992  0.3276  1.7641  0.2469
 1641SOL     OW16384   0.279   1.622   7.929 -1.0834 -0.4580 -0.2954
 1641SOL    HW116385   0.284   1.573   8.011 -1.4231 -1.5379 -0.9265
 1641SOL    HW216386   0.235   1.702   7.959 -2.1124 -1.4244  0.7729
 1642SOL     OW16387   3.569   4.524   8.725 -0.1665 -0.0077  0.2924
 1642SOL    HW116388   3.609   4.602   8.763 -0.7758  0.2303  0.4415
 1642SOL    HW216389   3.519   4.567   8.655  0.7980  0.1627 -0.2882
 1643SOL     OW16390   4.380   1.786   3.070  0.2752 -0.3344 -0.8513
 1643SOL    HW116391   4.294   1.826   3.087  0.5312  0.0410 -0.4496
 1643SOL    HW216392   4.410   1.750   3.153 -1.4996 -1.5986 -0.7487
 1644SOL     OW16393   3.276   1.947   0.830 -0.4371 -0.2611  0.0688
 1644SOL    HW116394   3.308   2.028   0.792 -1.1225 -1.0308 -2.1130
 1644SOL    HW216395   3.203   1.993   0.872 -1.2737  1.0461 -2.8762
 1645SOL     OW16396   3.525   0.783   8.180  0.6762  0.3009 -0.0920
 1645SOL    HW116397   3.535   0.733   8.099  1.2643  0.1457  0.0743
 1645SOL    HW216398   3.515   0.722   8.253  0.1097  0.7989  0.2352
 1646SOL     OW16399   3.002   4.017  15.278 -0.1772  0.6446 -0.1483
 1646SOL    HW116400   2.978   4.016  15.186  0.9103 -0.0801 -0.4098
 1646SOL    HW216401   2.915   4.007  15.318 -0.5551  2.1648 -0.5862
 1647SOL     OW16402   1.552   0.725   4.842  0.4030 -0.0754 -0.0968
 1647SOL    HW116403   1.473   0.778   4.852  0.2468 -0.6269  1.4363
 1647SOL    HW216404   1.539   0.672   4.920 -2.4743  2.1749  0.9729
 1648SOL     OW16405   2.863   1.308   9.110 -0.5304 -0.8316  0.2070
 1648SOL    HW116406   2.908   1.349   9.184 -3.4121  0.6184  1.1252
 1648SOL    HW216407   2.866   1.214   9.128 -2.2201 -0.3660  2.9026
 1649SOL     OW16408   1.287   2.280  11.646  0.0676 -0.4196 -0.1644
 1649SOL    HW116409   1.270   2.344  11.715  0.5336 -0.2183 -0.2373
 1649SOL    HW216410   1.197   2.258  11.622 -0.2049 -1.2042  1.5926
 1650SOL     OW16411   0.993   4.154   9.318 -0.3471  0.1916 -0.2149
 1650SOL    HW116412   1.043   4.231   9.289 -0.1594 -0.0854 -0.6190
 1650SOL    HW216413   1.063   4.110   9.366 -0.6307  0.1408  0.1528
 1651SOL     OW16414   3.256   1.165   1.478  0.1759 -0.6777 -0.1245
 1651SOL    HW116415   3.265   1.169   1.383  2.7580 -0.6063  0.1266
 1651SOL    HW216416   3.189   1.097   1.492  0.3722 -1.0509 -0.9865
 1652SOL     OW16417   2.801   4.507  16.328 -0.1853  0.4552 -0.1520
 1652SOL    HW116418   2.731   4.541  16.383 -1.0627  1.3085 -1.8033
 1652SOL    HW216419   2.763   4.505  16.241  1.2224 -1.0733 -0.7376
 1653SOL     OW16420   2.095   3.384   5.976 -0.1484  0.3724  0.2114
 1653SOL    HW116421   2.135   3.429   5.901  0.6900 -0.6904  0.0168
 1653SOL    HW216422   2.101   3.294   5.945  3.1085  1.0569 -1.1469
 1654SOL     OW16423   4.061   3.279   8.953  0.1310 -0.2236 -0.4187
 1654SOL    HW116424   4.013   3.286   9.036 -1.0510 -0.9905 -1.0457
 1654SOL    HW216425   3.989   3.234   8.909  1.4382 -1.8285 -0.8752
 1655SOL     OW16426   1.181   4.546   3.171 -0.2849 -0.9314 -0.2764
 1655SOL    HW116427   1.167   4.638   3.192  0.6916 -0.1250 -3.0575
 1655SOL    HW216428   1.232   4.522   3.248  0.7264  1.4999 -0.1914
 1656SOL     OW16429   2.820   0.015   5.150 -0.4627  0.5769  0.0206
 1656SOL    HW116430   2.753   4.696   5.201 -0.1439  1.4200  1.1659
 1656SOL    HW216431   2.767   0.045   5.075  0.1679 -0.4178 -0.8172
 1657SOL     OW16432   2.664   2.120  11.929  0.1646  0.1414  0.4750
 1657SOL    HW116433   2.617   2.085  12.005  2.5759  0.5923  2.1685
 1657SOL    HW216434   2.678   2.212  11.950  0.8194  0.3594 -0.9085
 1658SOL     OW16435   3.502   4.707  11.242  0.7294  0.0070  0.7260
 1658SOL    HW116436   3.424   4.653  11.230 -0.4459  1.7189  0.5525
 1658SOL    HW216437   3.571   4.649  11.210 -1.1358 -0.6269 -2.1442
 1659SOL     OW16438   1.510   2.346  15.792  0.2144 -0.0014 -0.2426
 1659SOL    HW116439   1.424   2.368  15.829  0.0827  1.6639 -1.5279
 1659SOL    HW216440   1.491   2.294  15.715 -3.0952  1.3001 -0.3114
 1660SOL     OW16441   3.529   1.688   8.074 -0.8044  0.0012  0.2743
 1660SOL    HW116442   3.611   1.719   8.114 -0.8856  1.6470 -0.8590
 1660SOL    HW216443   3.478   1.668   8.153  0.0931  0.0141  0.8680
 1661SOL     OW16444   1.283   2.744   4.346  0.5613 -0.1428 -0.3095
 1661SOL    HW116445   1.310   2.733   4.254  2.6072 -3.5986  0.7046
 1661SOL    HW216446   1.188   2.729   4.343  0.4406  0.0147  3.2550
 1662SOL     OW16447   2.832   0.580   3.680  0.0363 -0.2927 -0.3438
 1662SOL    HW116448   2.836   0.489   3.651  0.8260 -0.1172 -0.7748
 1662SOL    HW216449   2.915   0.576   3.727  1.0411  2.0834 -1.9398
 1663SOL     OW16450   0.008   3.810   3.424  0.3015 -0.4331  0.4436
 1663SOL    HW116451   4.697   3.723   3.443 -1.2714 -0.0449 -0.7896
 1663SOL    HW216452   0.011   3.805   3.329  1.5518  0.5333  0.4340
 1664SOL     OW16453   3.981   3.819   1.212 -0.1430  0.3607  0.6509
 1664SOL    HW116454   4.042   3.763   1.260  0.5100 -0.4851 -1.1620
 1664SOL    HW216455   4.043   3.891   1.198 -2.7772  2.5640  0.4045
 1665SOL     OW16456   1.828   2.459   1.509  0.3511 -0.2305 -0.5578
 1665SOL    HW116457   1.863   2.464   1.421  0.5303  2.0603 -0.3649
 1665SOL    HW216458   1.737   2.484   1.493  0.4462  0.3672 -0.1905
 1666SOL     OW16459   3.696   0.766  12.098 -0.0320  0.7253  0.1279
 1666SOL    HW116460   3.776   0.761  12.151 -0.4116  1.3670  0.7647
 1666SOL    HW216461   3.622   0.730  12.147  0.9318  0.2833  1.2625
 1667SOL     OW16462   4.422   0.539  10.324  0.2827  0.6717 -0.7620
 1667SOL    HW116463   4.515   0.554  10.342 -0.0559  1.3444  0.4896
 1667SOL    HW216464   4.419   0.575  10.236 -0.0694 -0.1832 -1.0992
 1668SOL     OW16465   1.565   3.080   8.861 -0.3937 -0.1576  0.5868
 1668SOL    HW116466   1.511   3.118   8.931 -0.2665  1.7316 -0.3254
 1668SOL    HW216467   1.622   3.023   8.913  0.4215  2.5310  2.6891
 1669SOL     OW16468   1.724   2.726  10.001  0.0290 -0.3895  0.5989
 1669SOL    HW116469   1.675   2.804  10.026  1.2066 -0.0744  1.8708
 1669SOL    HW216470   1.696   2.719   9.910 -0.5243  2.0029  0.5928
 1670SOL     OW16471   0.233   1.012   5.998  0.4033 -0.7569 -0.2423
 1670SOL    HW116472   0.285   0.996   6.077  1.1708  0.1468 -0.5729
 1670SOL    HW216473   0.190   0.927   5.982  0.4130 -1.1645  1.8779
 1671SOL     OW16474   2.204   0.139   3.036 -0.2906  0.4451 -0.5904
 1671SOL    HW116475   2.154   0.196   2.978 -0.8857  1.7276  1.1888
 1671SOL    HW216476   2.219   0.198   3.110  1.3867  0.9128 -1.2917
 1672SOL     OW16477   3.208   4.473   7.763 -0.0915 -0.1232  0.2824
 1672SOL    HW116478   3.297   4.455   7.793  0.1102 -0.7852 -0.6812
 1672SOL    HW216479   3.179   4.532   7.832 -0.7717  1.1241 -1.0694
 1673SOL     OW16480   3.357   2.712   8.892 -0.0188  0.3053  0.1420
 1673SOL    HW116481   3.374   2.635   8.838 -0.0432 -0.0858  0.6912
 1673SOL    HW216482   3.417   2.773   8.849  0.4223  0.5264  1.0569
 1674SOL     OW16483   4.565   2.017   6.544 -0.1464 -0.0542  0.3418
 1674SOL    HW116484   4.594   1.932   6.575 -0.1039  0.3924  1.5237
 1674SOL    HW216485   4.537   2.058   6.626  1.1473 -0.1237  0.8188
 1675SOL     OW16486   0.771   0.916   6.353  0.8236 -0.7563  0.0615
 1675SOL    HW116487   0.852   0.866   6.344  0.8268 -0.8858  0.8006
 1675SOL    HW216488   0.713   0.843   6.376 -1.1170  0.7550  0.0005
 1676SOL     OW16489   3.010   3.557   7.290 -0.0668 -0.7040 -0.3415
 1676SOL    HW116490   3.011   3.462   7.281 -1.6783 -0.5675 -1.9072
 1676SOL    HW216491   2.954   3.587   7.219  2.1471  0.7558 -1.4535
 1677SOL     OW16492   0.580   0.026  15.196  0.4673 -0.4475 -0.6788
 1677SOL    HW116493   0.509   4.717  15.142  2.0631 -3.9850 -0.5278
 1677SOL    HW216494   0.623   4.666  15.206 -0.6612 -1.1371 -1.7869
 1678SOL     OW16495   3.123   2.769   9.478 -0.3817  0.1430  0.3952
 1678SOL    HW116496   3.189   2.829   9.445 -0.7211 -0.1135 -0.7477
 1678SOL    HW216497   3.116   2.715   9.399 -1.1885  0.9217 -0.0644
 1679SOL     OW16498   3.768   2.044  15.239  0.3031  0.3611  0.2276
 1679SOL    HW116499   3.831   1.994  15.292  1.6451  1.5551 -0.2427
 1679SOL    HW216500   3.700   2.058  15.305 -2.3942  1.2457 -2.7948
 1680SOL     OW16501   2.181   4.669   5.575 -0.0473  0.0666  0.0626
 1680SOL    HW116502   2.231   0.000   5.516  0.1854 -0.0554  0.1425
 1680SOL    HW216503   2.159   0.009   5.642 -1.9987 -0.9307  0.4069
 1681SOL     OW16504   0.601   0.412   6.706  0.1273  0.4330 -0.9832
 1681SOL    HW116505   0.537   0.371   6.765  0.6430 -0.3155 -0.9432
 1681SOL    HW216506   0.536   0.444   6.643 -2.3253  0.2971  1.4851
 1682SOL     OW16507   3.902   0.895   4.893 -0.5552  0.2047 -0.0846
 1682SOL    HW116508   3.852   0.924   4.969 -0.9022 -0.7593  0.0529
 1682SOL    HW216509   3.844   0.840   4.840  2.6266 -4.0182  0.7758
 1683SOL     OW16510   3.542   1.058  11.526 -0.3117  0.0468  0.3798
 1683SOL    HW116511   3.535   1.122  11.455 -0.2188  0.3988  0.6843
 1683SOL    HW216512   3.630   1.084  11.553  0.7751 -0.7798 -2.3578
 1684SOL     OW16513   1.624   1.591   9.385 -0.4670 -1.0439  0.5535
 1684SOL    HW116514   1.588   1.670   9.424  0.8325 -0.8801  1.4011
 1684SOL    HW216515   1.596   1.515   9.435  0.1230 -0.3557  1.9410
 1685SOL     OW16516   1.324   2.393   3.617 -0.1468 -0.4324  0.0959
 1685SOL    HW116517   1.313   2.371   3.524 -3.0195 -1.4902  0.6769
 1685SOL    HW216518   1.368   2.477   3.622 -2.0647  0.6937 -1.8876
 1686SOL     OW16519   0.363   2.482   1.184 -0.5865  0.6131 -0.2714
 1686SOL    HW116520   0.341   2.431   1.107 -0.1094 -0.4982  0.3309
 1686SOL    HW216521   0.449   2.451   1.210 -0.6624  0.2522 -0.4616
 1687SOL     OW16522   3.474   4.220   8.538 -0.2693  0.2347  0.4141
 1687SOL    HW116523   3.550   4.167   8.512  0.5892  1.7971 -0.3042
 1687SOL    HW216524   3.498   4.258   8.623  2.9147  0.3422 -0.5046
 1688SOL     OW16525   2.214   3.941  11.940 -0.3432 -0.5565 -0.5403
 1688SOL    HW116526   2.269   3.955  11.863 -1.5565  0.0273 -1.2898
 1688SOL    HW216527   2.259   4.002  11.998  0.7898 -2.2412  0.3774
 1689SOL     OW16528   0.098   1.565   4.130  0.1927  0.4912 -0.2561
 1689SOL    HW116529   0.020   1.591   4.178  0.1798 -0.3167  0.1602
 1689SOL    HW216530   0.072   1.612   4.051  0.9423  2.5885  0.7443
 1690SOL     OW16531   0.233   2.758   6.542 -0.2001 -0.8817 -0.4872
 1690SOL    HW116532   0.230   2.822   6.613  1.0397 -1.2282 -0.1177
 1690SOL    HW216533   0.317   2.772   6.498  0.1712 -0.7219  0.2744
 1691SOL     OW16534   0.717   3.432   0.637 -0.5380 -0.2057 -0.0096
 1691SOL    HW116535   0.722   3.410   0.544 -0.6281 -0.3417  0.0176
 1691SOL    HW216536   0.667   3.513   0.639 -0.3042 -0.0551 -0.3665
 1692SOL     OW16537   0.895   1.682  16.983  0.0454 -0.0118 -0.1328
 1692SOL    HW116538   0.897   1.751  17.049 -2.3298 -1.1659  1.1291
 1692SOL    HW216539   0.857   1.610  17.034  2.3689 -0.1823  1.3626
 1693SOL     OW16540   2.126   2.870  12.237 -0.2597 -0.3247  0.2929
 1693SOL    HW116541   2.192   2.843  12.301  0.4364 -0.9294 -0.6718
 1693SOL    HW216542   2.061   2.911  12.294 -2.0474 -1.0223 -1.2400
 1694SOL     OW16543   3.530   2.047   7.898  0.2262 -0.0160 -0.1653
 1694SOL    HW116544   3.516   2.034   7.805  1.5104  0.9750 -0.4898
 1694SOL    HW216545   3.606   1.989   7.904 -0.3522 -0.8823 -1.2876
 1695SOL     OW16546   2.931   4.506   5.491  0.2887 -0.9389 -0.4876
 1695SOL    HW116547   2.891   4.593   5.484  2.4446  0.2279  1.6788
 1695SOL    HW216548   3.014   4.528   5.449 -1.5741  1.1430 -3.0460
 1696SOL     OW16549   2.480   4.546   6.818  0.6664 -1.0251  0.3024
 1696SOL    HW116550   2.387   4.568   6.813  1.0273  0.7057  1.2850
 1696SOL    HW216551   2.498   4.525   6.909 -1.4631 -0.4137  0.8608
 1697SOL     OW16552   0.740   4.448  14.673 -0.1122  0.0335  1.1661
 1697SOL    HW116553   0.757   4.542  14.680 -0.1772 -0.0005  1.7269
 1697SOL    HW216554   0.652   4.441  14.634 -0.1823 -1.2769  1.5611
 1698SOL     OW16555   0.565   1.254   4.569 -0.5387  0.7746  0.2008
 1698SOL    HW116556   0.471   1.238   4.570 -0.1207 -1.6024  1.8743
 1698SOL    HW216557   0.599   1.251   4.658  0.4237 -0.1906 -0.1785
 1699SOL     OW16558   1.670   1.093  13.029  0.1423 -0.5846 -0.3347
 1699SOL    HW116559   1.719   1.175  13.041 -0.2177  0.3791 -5.1185
 1699SOL    HW216560   1.654   1.093  12.934 -0.1567  1.2800 -0.2802
 1700SOL     OW16561   1.951   2.290   9.453 -0.2631  0.0833  0.4356
 1700SOL    HW116562   1.965   2.302   9.547  3.0463  0.7153 -0.1207
 1700SOL    HW216563   1.967   2.377   9.417  0.3346 -0.5093 -0.7325
 1701SOL     OW16564   1.440   1.540  10.187 -0.1797 -0.0030 -0.2184
 1701SOL    HW116565   1.505   1.473  10.164 -0.5829  0.0873 -1.6472
 1701SOL    HW216566   1.423   1.580  10.102 -1.0941  1.2717  0.5689
 1702SOL     OW16567   0.833   1.635   9.135 -0.1547  0.3908  0.2379
 1702SOL    HW116568   0.876   1.641   9.049 -1.0603  2.6458 -0.0615
 1702SOL    HW216569   0.756   1.681   9.102  1.9089  3.2889 -0.5628
 1703SOL     OW16570   3.974   3.084   3.494 -0.7424  0.1361 -0.0171
 1703SOL    HW116571   3.879   3.077   3.485 -0.7979 -0.4951  1.1011
 1703SOL    HW216572   3.996   3.001   3.451 -0.5781  0.1965 -0.0468
 1704SOL     OW16573   3.418   1.625   6.627  0.2588 -0.1899 -0.0835
 1704SOL    HW116574   3.357   1.616   6.701 -0.7686  1.0407 -0.7847
 1704SOL    HW216575   3.391   1.546   6.579 -2.1319 -0.8537  2.3586
 1705SOL     OW16576   3.248   1.330   9.015 -0.3849 -0.3100  0.5509
 1705SOL    HW116577   3.316   1.265   9.034  0.1604  0.5761  1.5734
 1705SOL    HW216578   3.170   1.274   9.021  1.5017 -2.7955  1.7893
 1706SOL     OW16579   0.810   2.865   8.694 -0.0025 -0.6311  0.3860
 1706SOL    HW116580   0.901   2.847   8.720  0.9572  2.5187 -0.7348
 1706SOL    HW216581   0.811   2.960   8.683  0.6438 -0.7145 -0.2611
 1707SOL     OW16582   4.035   1.103   3.910 -0.2484 -0.0379  0.5775
 1707SOL    HW116583   4.009   1.195   3.906  1.7695  0.5286  0.7055
 1707SOL    HW216584   3.958   1.058   3.944 -0.6318 -0.1045 -0.3702
 1708SOL     OW16585   3.438   0.033   6.563  0.3297  0.4012 -0.5520
 1708SOL    HW116586   3.526   0.005   6.537  0.5374 -0.6982  1.3601
 1708SOL    HW216587   3.466   0.094   6.631  1.7531 -2.2791  1.2641
 1709SOL     OW16588   3.628   4.099   6.797  0.2013  0.4290  0.2375
 1709SOL    HW116589   3.556   4.122   6.857 -0.2316  1.1796 -0.5562
 1709SOL    HW216590   3.705   4.144   6.832  0.6804  1.1056 -1.7081
 1710SOL     OW16591   1.205   1.291   4.403 -0.7043 -0.5874 -0.3030
 1710SOL    HW116592   1.157   1.256   4.328 -0.5114 -0.7213 -0.3620
 1710SOL    HW216593   1.277   1.329   4.353  1.1723 -0.9168  2.1592
 1711SOL     OW16594   4.420   3.034  11.945  0.0143 -0.0328 -0.2277
 1711SOL    HW116595   4.482   3.045  12.018 -0.5527  0.9465  0.1079
 1711SOL    HW216596   4.364   2.960  11.965  0.1620  0.3693  1.6986
 1712SOL     OW16597   4.233   4.387  11.630 -0.1152  0.2534  0.3367
 1712SOL    HW116598   4.241   4.322  11.700  2.0088  0.9949  0.7734
 1712SOL    HW216599   4.315   4.435  11.639 -0.4262  0.9726 -0.5660
 1713SOL     OW16600   3.523   0.472   6.924  0.2687 -0.3737 -0.4983
 1713SOL    HW116601   3.447   0.525   6.946  0.7948  0.1217  0.1326
 1713SOL    HW216602   3.515   0.470   6.829 -0.7964 -0.4116 -0.4060
 1714SOL     OW16603   3.488   1.379   3.598 -0.6376 -0.1653  0.2138
 1714SOL    HW116604   3.411   1.404   3.547  1.5257  1.7854 -2.1187
 1714SOL    HW216605   3.536   1.327   3.533 -0.6381  0.6190 -0.4178
 1715SOL     OW16606   0.073   2.725   7.175 -0.1599 -0.5878 -0.6267
 1715SOL    HW116607   0.137   2.715   7.245 -0.1962 -3.5545 -1.0320
 1715SOL    HW216608   0.124   2.762   7.103 -0.2334 -0.1243 -0.4440
 1716SOL     OW16609   4.568   3.525   8.395  0.3988  0.0095  0.5670
 1716SOL    HW116610   4.541   3.615   8.412 -0.7925 -0.1857 -0.2628
 1716SOL    HW216611   4.660   3.517   8.420  0.1316  1.4433  1.9600
 1717SOL     OW16612   0.947   2.995   6.056  0.0083 -0.0881 -0.2456
 1717SOL    HW116613   0.854   3.011   6.075  0.5625  0.1296  2.2653
 1717SOL    HW216614   0.996   3.015   6.136 -2.2182  1.6197  0.7250
 1718SOL     OW16615   3.237   2.466   6.359  0.7893 -0.0940  0.0082
 1718SOL    HW116616   3.296   2.453   6.432 -0.6643  1.7126  1.4979
 1718SOL    HW216617   3.288   2.527   6.307 -1.6125  1.2494 -0.7943
 1719SOL     OW16618   3.519   2.709  13.372 -0.4825 -0.1060  0.3388
 1719SOL    HW116619   3.609   2.738  13.358 -0.8726  0.0914 -1.8066
 1719SOL    HW216620   3.522   2.704  13.467 -0.5600 -1.7401  0.2502
 1720SOL     OW16621   2.127   0.584   1.600  0.1075  0.0232  0.0191
 1720SOL    HW116622   2.171   0.503   1.629  1.3964  0.2729 -1.2416
 1720SOL    HW216623   2.196   0.649   1.597  0.1775  0.0578  1.8760
 1721SOL     OW16624   3.992   4.159   7.108 -0.4896 -0.0815  1.4441
 1721SOL    HW116625   3.910   4.144   7.156 -0.9885  2.2095  1.2911
 1721SOL    HW216626   4.056   4.188   7.174 -0.0204  0.7189  0.6352
 1722SOL     OW16627   1.243   1.373   6.161  0.3155 -0.2388 -0.6522
 1722SOL    HW116628   1.270   1.462   6.186  1.4704 -0.9341  0.6139
 1722SOL    HW216629   1.164   1.360   6.215  0.6684 -1.6547 -0.4964
 1723SOL     OW16630   3.817   0.960   5.142  0.1491 -0.3785 -0.2646
 1723SOL    HW116631   3.812   1.055   5.154 -1.2092 -0.6924  1.6137
 1723SOL    HW216632   3.723   0.947   5.135 -0.2143  1.3286  1.6107
 1724SOL     OW16633   1.499   1.181   6.357  0.4307 -0.0948 -0.1158
 1724SOL    HW116634   1.571   1.158   6.298  1.0806  2.7183 -0.4024
 1724SOL    HW216635   1.505   1.122   6.432 -1.6017 -1.8678 -1.3568
 1725SOL     OW16636   1.571   0.785   4.308 -0.5978  0.7925 -0.1482
 1725SOL    HW116637   1.663   0.788   4.283 -0.8683 -0.4381 -1.3633
 1725SOL    HW216638   1.585   0.766   4.400 -0.3010  2.0140  0.0568
 1726SOL     OW16639   2.931   1.838   0.159 -0.1062  0.4703  0.2022
 1726SOL    HW116640   2.889   1.864   0.241 -0.1913  3.2476 -0.7286
 1726SOL    HW216641   2.873   1.766   0.132  0.5214 -0.6509  1.8376
 1727SOL     OW16642   2.843   2.404  14.114 -0.4764 -0.1486  0.5558
 1727SOL    HW116643   2.831   2.479  14.172 -0.3658  1.0814 -0.9989
 1727SOL    HW216644   2.751   2.387  14.091 -0.5065 -0.3294  0.8174
 1728SOL     OW16645   0.671   1.568   4.599 -0.0149 -0.0670  0.0490
 1728SOL    HW116646   0.699   1.569   4.691 -0.7074 -0.1706  0.2596
 1728SOL    HW216647   0.644   1.660   4.596 -3.1242 -0.9800 -0.0432
 1729SOL     OW16648   1.842   2.431  12.062  0.2484  0.1305 -0.7211
 1729SOL    HW116649   1.881   2.514  12.090 -0.2963 -0.1458  0.8622
 1729SOL    HW216650   1.856   2.382  12.143  0.0772 -0.6566 -1.1653
 1730SOL     OW16651   2.313   2.404   1.601 -0.8143 -0.1502 -0.5012
 1730SOL    HW116652   2.323   2.469   1.531  0.3788 -0.6387 -0.7897
 1730SOL    HW216653   2.393   2.415   1.653 -1.3907 -1.3458  0.6450
 1731SOL     OW16654   3.237   4.138  11.173 -0.4795  0.0292 -0.3593
 1731SOL    HW116655   3.183   4.208  11.137 -0.8147  1.1100  2.2534
 1731SOL    HW216656   3.169   4.087  11.216  0.8946  0.7818  2.6475
 1732SOL     OW16657   1.889   1.394   9.212 -0.3274 -0.3085  0.3673
 1732SOL    HW116658   1.816   1.343   9.178 -0.3913 -0.6165  0.9753
 1732SOL    HW216659   1.917   1.430   9.127 -2.0802 -2.5694 -1.1788
 1733SOL     OW16660   0.462   1.461   5.444  0.0748 -0.4976 -0.2679
 1733SOL    HW116661   0.514   1.441   5.366  0.9135 -0.1681  0.2072
 1733SOL    HW216662   0.399   1.522   5.404  2.5917  1.7963 -0.7048
 1734SOL     OW16663   0.332   1.647  13.412 -0.2311  0.1508  0.2635
 1734SOL    HW116664   0.353   1.678  13.324 -0.8657 -2.3440 -0.7689
 1734SOL    HW216665   0.254   1.695  13.439  0.4884  1.0362  0.7800
 1735SOL     OW16666   0.915   4.283   5.740  0.7367 -0.1856  0.1296
 1735SOL    HW116667   0.912   4.344   5.666 -0.7385 -1.0259 -0.4990
 1735SOL    HW216668   0.864   4.326   5.808  1.1042  1.9479 -0.9042
 1736SOL     OW16669   1.566   4.154   5.738 -0.4243  0.4955  0.0931
 1736SOL    HW116670   1.594   4.067   5.709  0.5135  1.0735 -0.7265
 1736SOL    HW216671   1.630   4.210   5.694  1.9912 -0.8539  1.8610
 1737SOL     OW16672   2.893   1.646  14.451  0.1553 -0.1481 -0.2732
 1737SOL    HW116673   2.803   1.677  14.445  0.6699  1.3560 -0.3299
 1737SOL    HW216674   2.928   1.669  14.365  0.5491 -1.2786 -0.4049
 1738SOL     OW16675   4.424   3.588   8.665  0.0083  0.0236  0.5319
 1738SOL    HW116676   4.395   3.519   8.605 -0.8340 -0.6581  1.7308
 1738SOL    HW216677   4.429   3.657   8.599 -0.6273  0.2043  0.6761
 1739SOL     OW16678   0.202   2.449  13.956  0.2893 -0.1951 -0.0541
 1739SOL    HW116679   0.228   2.535  13.922  2.3834 -0.6791  0.2906
 1739SOL    HW216680   0.108   2.447  13.969  0.5575 -3.1570  1.3890
 1740SOL     OW16681   3.244   1.596   6.850 -0.3993  0.0911 -0.7032
 1740SOL    HW116682   3.285   1.628   6.931 -2.7741  1.2293  0.0528
 1740SOL    HW216683   3.171   1.658   6.850 -0.4927 -0.0131  0.4471
 1741SOL     OW16684   1.662   1.409  10.086 -0.3596 -0.4109 -0.0040
 1741SOL    HW116685   1.688   1.439   9.999 -1.2732  0.1186 -0.1018
 1741SOL    HW216686   1.728   1.345  10.112  1.6891  1.3496 -0.8940
 1742SOL     OW16687   4.561   4.112   8.112 -0.4058 -0.2039  0.2004
 1742SOL    HW116688   4.472   4.077   8.121  0.0979 -0.9475  2.4290
 1742SOL    HW216689   4.615   4.033   8.120 -0.0722 -0.0025 -0.0640
 1743SOL     OW16690   3.769   0.462   2.000  0.5959 -0.1314  0.2745
 1743SOL    HW116691   3.681   0.435   1.972  0.8238  0.2533 -0.7841
 1743SOL    HW216692   3.780   0.430   2.090  1.8569 -2.2261 -0.6427
 1744SOL     OW16693   4.416   3.960   5.971 -0.1204 -0.1161  0.3374
 1744SOL    HW116694   4.347   4.020   6.001 -0.4929 -1.0143  1.2542
 1744SOL    HW216695   4.441   3.917   6.052 -1.6315  0.1352  0.9387
 1745SOL     OW16696   4.530   0.473   4.557  0.2909  0.2103 -0.3945
 1745SOL    HW116697   4.550   0.380   4.541  0.0792  0.4478 -2.0055
 1745SOL    HW216698   4.591   0.514   4.496 -0.4527  1.8215 -0.0501
 1746SOL     OW16699   2.430   1.583  14.248 -0.5022  1.0424 -0.4020
 1746SOL    HW116700   2.368   1.655  14.257  0.8118  1.8359  2.2650
 1746SOL    HW216701   2.369   1.510  14.259  0.5724  0.2675  0.3903
 1747SOL     OW16702   2.021   1.501   3.990  0.1504  0.4161  0.1743
 1747SOL    HW116703   2.000   1.433   4.054  2.0191 -0.9524 -0.6629
 1747SOL    HW216704   2.080   1.560   4.037  0.4338  0.5581 -0.3623
 1748SOL     OW16705   1.731   3.123   4.005 -0.4293  0.8841 -0.3653
 1748SOL    HW116706   1.794   3.195   4.000  0.7716 -0.0134  1.6777
 1748SOL    HW216707   1.775   3.042   3.979  0.0569  1.1245 -0.2842
 1749SOL     OW16708   4.529   4.225   4.567 -0.1054  0.2133  0.3431
 1749SOL    HW116709   4.578   4.307   4.578 -1.2987  0.8560  0.9188
 1749SOL    HW216710   4.494   4.216   4.656  0.7010 -1.6184  0.4778
 1750SOL     OW16711   3.009   1.951   3.681 -0.4612  0.4615 -0.0977
 1750SOL    HW116712   2.935   1.948   3.620 -0.7025  1.5450  0.1276
 1750SOL    HW216713   3.007   1.861   3.713  1.1567 -0.1052 -1.5558
 1751SOL     OW16714   1.841   2.448   4.678  0.2760  0.0654  0.1224
 1751SOL    HW116715   1.769   2.407   4.726 -0.2949  0.7198 -0.1849
 1751SOL    HW216716   1.902   2.377   4.659 -0.5234 -1.1308  2.0713
 1752SOL     OW16717   2.597   3.208   3.696  0.5064  0.9227 -0.1948
 1752SOL    HW116718   2.674   3.165   3.731  0.1720  1.1855  0.8649
 1752SOL    HW216719   2.536   3.217   3.769  0.5818 -0.5776  0.0478
 1753SOL     OW16720   0.148   3.215  11.330 -0.1288  0.1265 -0.0317
 1753SOL    HW116721   0.055   3.238  11.338  0.0001  0.2432  1.1663
 1753SOL    HW216722   0.174   3.169  11.410  0.8444  0.5650 -0.0928
 1754SOL     OW16723   2.732   4.670  15.485  0.0731 -0.3266 -0.3799
 1754SOL    HW116724   2.796   4.681  15.414  1.0628 -4.2709 -0.0863
 1754SOL    HW216725   2.779   4.615  15.548 -1.0129 -0.9824 -0.1423
 1755SOL     OW16726   0.289   0.025   9.274  0.2993  0.1259 -0.3938
 1755SOL    HW116727   0.290   0.106   9.223 -0.7748  1.2890  1.3969
 1755SOL    HW216728   0.193   0.014   9.272 -0.0428  2.5541  2.1218
 1756SOL     OW16729   2.774   2.937  14.104  0.1824 -0.1264 -0.3027
 1756SOL    HW116730   2.769   2.879  14.180  0.4940  0.5907  0.2639
 1756SOL    HW216731   2.820   3.015  14.137  0.4972 -0.9779  1.2668
 1757SOL     OW16732   4.372   2.570  10.211 -0.3428 -0.1884  0.6272
 1757SOL    HW116733   4.314   2.618  10.269 -0.9940  2.1710 -1.9873
 1757SOL    HW216734   4.433   2.641  10.190 -2.4194  1.7912  1.3798
 1758SOL     OW16735   0.516   2.237   7.115 -0.1687 -0.5110  0.5016
 1758SOL    HW116736   0.561   2.312   7.156 -0.4370  1.2123 -2.3652
 1758SOL    HW216737   0.588   2.177   7.095 -0.2294 -0.5105  0.2822
 1759SOL     OW16738   2.960   3.338   2.333  0.2165 -0.3384 -0.2775
 1759SOL    HW116739   2.981   3.254   2.294 -0.9436 -0.0268 -1.5650
 1759SOL    HW216740   2.880   3.313   2.379  0.9747 -1.0968  0.6344
 1760SOL     OW16741   2.324   0.573   1.101 -0.2637  0.1148 -0.0046
 1760SOL    HW116742   2.415   0.545   1.099 -0.5820 -0.8893 -0.5001
 1760SOL    HW216743   2.318   0.665   1.127  1.0784 -0.4809  2.3545
 1761SOL     OW16744   0.872   2.976   8.397  0.1773 -0.1763 -0.0462
 1761SOL    HW116745   0.796   3.030   8.377 -0.5645 -0.8639  0.8654
 1761SOL    HW216746   0.854   2.956   8.489 -0.9707 -1.8601 -0.6287
 1762SOL     OW16747   2.591   0.779   4.014 -0.9466  0.1069 -0.0164
 1762SOL    HW116748   2.514   0.830   3.988  0.5890  1.3332 -2.1453
 1762SOL    HW216749   2.606   0.810   4.104 -0.8374 -3.3568  1.1333
 1763SOL     OW16750   1.893   0.552   1.916 -0.4122  0.5090  0.5190
 1763SOL    HW116751   1.855   0.548   1.828  0.5655 -1.3235  0.1676
 1763SOL    HW216752   1.815   0.531   1.968 -0.4696 -1.1919 -0.2375
 1764SOL     OW16753   1.670   2.996   1.122  0.3433  0.1779  0.3309
 1764SOL    HW116754   1.593   2.942   1.103 -0.0551  1.1713 -0.8879
 1764SOL    HW216755   1.683   3.040   1.038  1.3184 -0.1900  0.3029
 1765SOL     OW16756   4.647   1.683   6.913 -0.5407  0.7136  0.0385
 1765SOL    HW116757   4.720   1.622   6.925  0.4547  2.1807  1.4003
 1765SOL    HW216758   4.685   1.764   6.947  1.4715 -1.2036  2.3587
 1766SOL     OW16759   0.778   0.908   4.455  0.4253  0.0125  0.1059
 1766SOL    HW116760   0.849   0.941   4.399 -0.7212 -0.3171 -1.5660
 1766SOL    HW216761   0.817   0.826   4.486  0.4632  0.2186  0.5962
 1767SOL     OW16762   1.090   4.144   8.736  0.0464  0.5266 -0.2364
 1767SOL    HW116763   1.152   4.085   8.778 -0.4702 -0.6144 -1.0763
 1767SOL    HW216764   1.006   4.128   8.781 -0.7344 -0.0034 -1.8955
 1768SOL     OW16765   0.172   1.373   2.754  0.2086  0.4914 -0.2138
 1768SOL    HW116766   0.094   1.323   2.729  1.3298  0.2304 -3.1298
 1768SOL    HW216767   0.162   1.466   2.736  1.5778  0.9224  1.2156
 1769SOL     OW16768   0.447   3.583   7.609  0.9912  0.2594 -0.2659
 1769SOL    HW116769   0.362   3.569   7.649  0.5578  1.7344 -0.6874
 1769SOL    HW216770   0.503   3.550   7.680  0.2743 -1.3055 -0.4202
 1770SOL     OW16771   4.708   0.668   2.724  0.0529  0.1136  0.2880
 1770SOL    HW116772   4.661   0.586   2.710 -0.5281  0.6178 -0.6585
 1770SOL    HW216773   0.021   0.677   2.637  1.7590  0.7651  1.0998
 1771SOL     OW16774   0.350   4.161   4.143  0.3313  0.4571 -0.6653
 1771SOL    HW116775   0.361   4.088   4.083 -1.4157 -0.2968 -0.0856
 1771SOL    HW216776   0.266   4.189   4.105  0.3185 -0.1655 -1.0758
 1772SOL     OW16777   2.497   4.434   5.722  0.2805  0.0424  0.0059
 1772SOL    HW116778   2.461   4.483   5.795 -0.3413 -1.5590  0.7723
 1772SOL    HW216779   2.502   4.500   5.653  1.5731  1.0915  1.1053
 1773SOL     OW16780   3.586   2.333   7.023 -0.3406 -0.0117 -0.0499
 1773SOL    HW116781   3.572   2.336   7.118  2.6061 -0.6353  0.3940
 1773SOL    HW216782   3.516   2.276   6.990  1.0957 -1.0634 -1.2396
 1774SOL     OW16783   2.013   1.222   2.703  0.2669  0.4159  0.2992
 1774SOL    HW116784   2.044   1.133   2.721 -0.4317 -0.2773 -2.0453
 1774SOL    HW216785   2.088   1.276   2.729  0.7394 -0.0508 -0.0919
 1775SOL     OW16786   4.471   3.379   7.071 -0.2951 -0.1540 -0.3984
 1775SOL    HW116787   4.500   3.292   7.096 -0.6302 -0.0084  0.4848
 1775SOL    HW216788   4.383   3.350   7.046 -1.0274  2.2686 -0.6729
 1776SOL     OW16789   1.851   0.499   7.320  0.0603 -0.2395 -0.0290
 1776SOL    HW116790   1.927   0.540   7.279  1.5031 -0.5558  2.3451
 1776SOL    HW216791   1.850   0.412   7.281  2.2564 -0.1443 -0.2638
 1777SOL     OW16792   3.621   3.186   4.742 -0.3355  0.1935  0.1160
 1777SOL    HW116793   3.626   3.189   4.838 -0.8786  2.8748  0.0692
 1777SOL    HW216794   3.587   3.274   4.725 -1.3095 -0.3096 -0.5027
 1778SOL     OW16795   3.010   2.443   6.960 -0.2370  0.2907 -0.4174
 1778SOL    HW116796   3.076   2.506   6.932 -1.8434  0.8337 -2.8949
 1778SOL    HW216797   2.985   2.504   7.030  1.5647 -0.3025  0.7526
 1779SOL     OW16798   3.636   2.913   2.365 -0.1266 -0.1670  0.0335
 1779SOL    HW116799   3.578   2.907   2.289  0.7209 -0.9382 -0.5600
 1779SOL    HW216800   3.659   2.823   2.387 -1.5478 -0.1066  1.6808
 1780SOL     OW16801   3.226   0.586   6.626 -0.3001 -0.0165 -0.3981
 1780SOL    HW116802   3.160   0.626   6.569 -0.2248  0.3864 -0.2034
 1780SOL    HW216803   3.173   0.528   6.681 -0.1419 -0.6953 -0.9584
 1781SOL     OW16804   3.623   2.060   1.703 -0.6911 -0.6742 -0.1259
 1781SOL    HW116805   3.664   2.011   1.774  0.5732  1.1928  0.4320
 1781SOL    HW216806   3.700   2.089   1.655 -0.3873  0.4237  1.0101
 1782SOL     OW16807   2.228   3.186   3.852 -0.3476  0.1702 -0.1258
 1782SOL    HW116808   2.319   3.183   3.881 -0.7462 -2.3191  0.8529
 1782SOL    HW216809   2.192   3.191   3.940  1.0030  0.4139  0.4051
 1783SOL     OW16810   1.698   4.075   7.162 -0.4615 -0.2100  0.4185
 1783SOL    HW116811   1.632   4.086   7.230 -3.3956 -0.7420 -2.3440
 1783SOL    HW216812   1.758   4.026   7.218 -0.4423 -0.6742 -0.0026
 1784SOL     OW16813   4.513   1.694  16.650 -0.0268  0.3049 -0.0205
 1784SOL    HW116814   4.470   1.777  16.671  1.1849  0.3649  2.2457
 1784SOL    HW216815   4.451   1.623  16.667 -1.9890  1.9825 -0.1495
 1785SOL     OW16816   3.493   0.739   3.131 -0.2147 -0.3621 -0.1146
 1785SOL    HW116817   3.560   0.670   3.134 -1.5326 -1.7407 -1.7758
 1785SOL    HW216818   3.478   0.755   3.224 -0.2847  0.2771 -0.2360
 1786SOL     OW16819   0.554   3.780   8.632  0.0474  0.2912  0.1277
 1786SOL    HW116820   0.634   3.727   8.628  1.7372  2.9045 -0.1178
 1786SOL    HW216821   0.516   3.740   8.711 -2.3683  0.3678 -1.0044
 1787SOL     OW16822   1.808   0.185  14.412  0.0673 -0.2696 -0.9451
 1787SOL    HW116823   1.768   0.264  14.375  0.7310  0.7048  0.4258
 1787SOL    HW216824   1.759   0.112  14.375  0.3426 -0.6229 -0.6103
 1788SOL     OW16825   2.575   2.007   7.111  0.1590  0.2978  0.2337
 1788SOL    HW116826   2.542   1.977   7.195  0.9912  0.3504  0.5762
 1788SOL    HW216827   2.549   2.099   7.117  0.2096  0.3188  0.1268
 1789SOL     OW16828   2.431   0.672  11.081 -0.0478 -0.0262 -0.0765
 1789SOL    HW116829   2.511   0.659  11.030 -1.1059 -0.7581 -1.5541
 1789SOL    HW216830   2.467   0.689  11.168 -0.0413  0.3845 -0.1587
 1790SOL     OW16831   4.473   0.069   4.930  0.3208 -0.5685 -0.1416
 1790SOL    HW116832   4.552   0.111   4.897 -0.3708  0.8475 -0.0106
 1790SOL    HW216833   4.506   0.024   5.007  2.5856  0.1577 -0.6942
 1791SOL     OW16834   1.516   4.700   1.750  0.3915 -0.1330  0.5342
 1791SOL    HW116835   1.580   0.035   1.789  1.0638 -1.1586  1.0249
 1791SOL    HW216836   1.564   4.618   1.760  2.5115  1.0972  0.5747
 1792SOL     OW16837   1.324   3.934  13.448  0.4912  0.2819 -0.0769
 1792SOL    HW116838   1.386   4.003  13.421 -0.3766  2.5801  3.8820
 1792SOL    HW216839   1.364   3.901  13.528  5.2686  3.3413 -1.1427
 1793SOL     OW16840   2.176   0.822   6.256  0.7198  0.9046 -0.1695
 1793SOL    HW116841   2.128   0.758   6.308 -0.2176  0.5817 -1.4320
 1793SOL    HW216842   2.112   0.873   6.206 -1.3757 -0.6664  0.9076
 1794SOL     OW16843   2.726   4.431   2.991 -0.0819  0.4287  0.1984
 1794SOL    HW116844   2.696   4.375   2.920  0.0711 -1.6399  1.7796
 1794SOL    HW216845   2.780   4.493   2.941  1.8331  0.7988  2.7449
 1795SOL     OW16846   4.183   0.438  10.414 -0.0011  0.7940  0.3125
 1795SOL    HW116847   4.230   0.385  10.478 -0.1719  1.0777  0.6715
 1795SOL    HW216848   4.259   0.481  10.375 -1.6109  2.5194 -0.9538
 1796SOL     OW16849   0.981   1.602   1.597  0.2483  0.2636 -0.0355
 1796SOL    HW116850   1.051   1.592   1.533 -0.6465  3.4285 -1.5245
 1796SOL    HW216851   1.030   1.571   1.673 -0.3822  2.2254  1.1923
 1797SOL     OW16852   2.718   0.962  12.786  0.3913  0.3541 -0.4200
 1797SOL    HW116853   2.637   0.988  12.829 -0.6131 -1.0767 -1.4221
 1797SOL    HW216854   2.776   0.963  12.861 -1.9512  0.6872  1.3854
 1798SOL     OW16855   3.674   2.524   9.823  0.0808 -0.4016 -0.1617
 1798SOL    HW116856   3.623   2.456   9.779  1.2830 -1.0009 -0.6015
 1798SOL    HW216857   3.658   2.598   9.764  0.0619  0.1147  0.4958
 1799SOL     OW16858   3.622   1.328   2.965  0.1599 -0.0946  0.1151
 1799SOL    HW116859   3.661   1.241   2.955  0.7776 -0.0550  2.2686
 1799SOL    HW216860   3.695   1.385   2.942  0.2079 -0.2771 -0.1941
 1800SOL     OW16861   2.181   4.277  13.650  0.2947 -0.4825  0.2300
 1800SOL    HW116862   2.258   4.300  13.598 -0.8832  0.5286 -1.0868
 1800SOL    HW216863   2.138   4.362  13.663  0.7174 -0.3314  0.6183
 1801SOL     OW16864   4.621   3.283  11.266  0.0295 -0.4121  0.5381
 1801SOL    HW116865   4.546   3.235  11.230  1.8649 -1.2545 -2.2006
 1801SOL    HW216866   4.592   3.370  11.238  1.1594 -0.0335  0.5420
 1802SOL     OW16867   2.298   0.375   2.830 -0.4497 -0.0098 -0.2442
 1802SOL    HW116868   2.352   0.358   2.907 -1.6947 -1.1705  0.3599
 1802SOL    HW216869   2.244   0.450   2.856  0.3501  1.9575 -4.2710
 1803SOL     OW16870   0.315   1.656   0.041 -0.0437 -0.0214  0.0009
 1803SOL    HW116871   0.344   1.565   0.034 -0.1092  0.1613 -2.8943
 1803SOL    HW216872   0.335   1.676   0.132  2.4428 -3.8401  0.3033
 1804SOL     OW16873   3.796   3.947   7.742  0.0924  0.0415  0.2621
 1804SOL    HW116874   3.883   3.933   7.705  0.4596  0.6900  0.8709
 1804SOL    HW216875   3.790   4.040   7.723 -1.5870  0.0064  0.6770
 1805SOL     OW16876   1.496   4.280   3.083 -0.4723  0.0217  0.7140
 1805SOL    HW116877   1.501   4.223   3.160  0.0825 -0.6054  0.1989
 1805SOL    HW216878   1.403   4.286   3.059 -1.2115 -1.4296  3.1816
 1806SOL     OW16879   1.649   4.503   8.679  0.9066 -0.4085  0.2390
 1806SOL    HW116880   1.583   4.552   8.727  0.4756  0.6098 -1.3726
 1806SOL    HW216881   1.588   4.436   8.649  1.0143  0.5517 -2.1986
 1807SOL     OW16882   0.702   3.833  12.194 -0.0146 -0.8217  0.1197
 1807SOL    HW116883   0.780   3.828  12.139 -1.0939  0.0377 -1.4810
 1807SOL    HW216884   0.634   3.875  12.142  1.3880  0.4877 -0.6725
 1808SOL     OW16885   0.822   0.447   6.485 -0.1611 -0.2192 -0.2080
 1808SOL    HW116886   0.829   0.504   6.562  0.2296 -2.2696  1.2733
 1808SOL    HW216887   0.906   0.404   6.500 -0.2579  0.4833  2.3256
 1809SOL     OW16888   3.693   3.616  14.435  0.1328 -0.0757  0.0295
 1809SOL    HW116889   3.683   3.522  14.426 -1.8346  0.2926 -1.6986
 1809SOL    HW216890   3.626   3.631  14.502 -0.7041 -1.3106 -0.5352
 1810SOL     OW16891   2.094   0.246   5.925  0.1262  0.2704 -0.3006
 1810SOL    HW116892   2.116   0.214   5.838  0.7470 -0.0228 -0.0356
 1810SOL    HW216893   2.148   0.190   5.981  0.2940 -0.4588 -1.2033
 1811SOL     OW16894   1.032   1.527   7.726  0.3722 -0.1424 -0.0082
 1811SOL    HW116895   0.945   1.550   7.756  0.2465 -1.2888  0.4874
 1811SOL    HW216896   1.084   1.564   7.798 -0.7600  2.2714 -0.4283
 1812SOL     OW16897   0.585   2.893   5.468 -0.1895  0.1871 -0.1630
 1812SOL    HW116898   0.579   2.949   5.545  1.0004  0.2032 -0.0861
 1812SOL    HW216899   0.574   2.962   5.402  3.8425  0.5976 -0.3814
 1813SOL     OW16900   2.522   0.466  13.540  0.4824 -0.2320 -0.5180
 1813SOL    HW116901   2.488   0.376  13.542 -0.5178  0.1601 -0.3117
 1813SOL    HW216902   2.612   0.447  13.568  0.7160  2.0748  0.2555
 1814SOL     OW16903   0.550   3.383   8.934 -0.2529  0.4427 -0.1996
 1814SOL    HW116904   0.636   3.394   8.974 -0.4995 -0.9594  0.7167
 1814SOL    HW216905   0.495   3.387   9.012 -0.2553  2.2238 -0.2937
 1815SOL     OW16906   2.025   3.035   8.139 -0.1372 -0.5662  0.6586
 1815SOL    HW116907   2.015   3.106   8.203  1.3634  1.3191 -1.1894
 1815SOL    HW216908   1.933   3.019   8.121  0.4594 -3.1817 -0.1076
 1816SOL     OW16909   3.750   1.806   3.448 -0.0214  0.4035  0.2359
 1816SOL    HW116910   3.657   1.822   3.430 -0.1396  0.3104  0.7594
 1816SOL    HW216911   3.790   1.882   3.406  0.9212 -0.2227  0.0070
 1817SOL     OW16912   4.577   3.813  12.961  0.5948 -0.2347  0.9309
 1817SOL    HW116913   4.549   3.726  12.988 -0.6681  0.2703  1.2269
 1817SOL    HW216914   4.595   3.803  12.867 -2.7455 -0.0980  0.2885
 1818SOL     OW16915   2.831   4.039   5.911 -0.6545  0.2154 -0.9183
 1818SOL    HW116916   2.766   4.037   5.981  0.1137  2.3080 -0.1623
 1818SOL    HW216917   2.865   4.126   5.928 -2.5765  0.7128  0.3152
 1819SOL     OW16918   2.481   3.769   9.389 -0.2001  0.0164  0.0770
 1819SOL    HW116919   2.492   3.863   9.377 -0.0015  0.2100  1.7233
 1819SOL    HW216920   2.529   3.733   9.315  0.5633  2.1254 -0.4487
 1820SOL     OW16921   2.383   2.776   4.742  0.3678  0.3264 -0.2175
 1820SOL    HW116922   2.320   2.805   4.676 -1.3236 -0.9277  0.8521
 1820SOL    HW216923   2.463   2.785   4.690  0.4663  1.3520  0.1059
 1821SOL     OW16924   3.715   0.405   7.524  0.6495  0.3422  0.5492
 1821SOL    HW116925   3.673   0.433   7.442 -1.9489  0.0129  1.7650
 1821SOL    HW216926   3.643   0.353   7.559  1.3661 -1.9978 -1.4174
 1822SOL     OW16927   4.319   4.088   1.799 -0.4947  0.2863 -0.5396
 1822SOL    HW116928   4.273   4.010   1.832 -0.2325  0.4717  0.2487
 1822SOL    HW216929   4.408   4.076   1.831  0.4453  3.8081 -1.8333
 1823SOL     OW16930   4.045   0.570  13.442 -0.1375 -0.3406  0.0333
 1823SOL    HW116931   3.960   0.538  13.415 -0.7309 -0.2172  1.7492
 1823SOL    HW216932   4.081   0.491  13.483 -0.3754  0.4019  1.6761
 1824SOL     OW16933   2.545   1.711  13.130  0.3933 -0.1485  0.0093
 1824SOL    HW116934   2.633   1.741  13.148 -0.3684  1.9213  0.2916
 1824SOL    HW216935   2.516   1.714  13.221  1.7776  0.7015  0.4090
 1825SOL     OW16936   2.140   1.857   1.342 -0.1425  0.0356  0.0226
 1825SOL    HW116937   2.062   1.859   1.286 -0.7690 -0.6773  0.8545
 1825SOL    HW216938   2.113   1.930   1.398  0.5115  0.9504 -0.8604
 1826SOL     OW16939   3.552   0.310   7.272  0.1267 -0.1619 -0.1142
 1826SOL    HW116940   3.560   0.239   7.336 -0.7928  0.9460  1.2326
 1826SOL    HW216941   3.579   0.266   7.191  2.6679  2.8080 -0.8618
 1827SOL     OW16942   3.547   1.508   2.621  0.3856 -0.2852  0.1961
 1827SOL    HW116943   3.631   1.473   2.592  0.0607 -1.0203  0.1579
 1827SOL    HW216944   3.494   1.430   2.605  0.8610 -0.4903 -0.3980
 1828SOL     OW16945   2.557   1.379   8.843 -0.5109 -0.0642 -0.9440
 1828SOL    HW116946   2.649   1.377   8.818 -0.2995  1.7114 -0.2569
 1828SOL    HW216947   2.570   1.415   8.930 -3.9960  1.1719 -0.9391
 1829SOL     OW16948   1.431   0.674   6.861  0.2196  0.4054  0.6069
 1829SOL    HW116949   1.458   0.634   6.943  0.5865  1.3228  0.9357
 1829SOL    HW216950   1.458   0.765   6.866  0.7432  0.2831 -0.0172
 1830SOL     OW16951   1.644   2.972   9.119 -0.1915  0.1442  0.7260
 1830SOL    HW116952   1.614   3.016   9.198  0.3120  0.7983  0.5610
 1830SOL    HW216953   1.733   3.006   9.108 -1.1131  2.1705 -0.5449
 1831SOL     OW16954   0.471   0.562   0.201 -0.3967  0.0084  0.6967
 1831SOL    HW116955   0.505   0.539   0.288  1.3969 -1.0674 -0.3100
 1831SOL    HW216956   0.401   0.623   0.227  0.3476  0.1795  2.3298
 1832SOL     OW16957   2.978   2.563   4.145  0.5393 -0.1718 -0.3160
 1832SOL    HW116958   2.894   2.599   4.174  1.0532  0.5345  0.3005
 1832SOL    HW216959   2.962   2.471   4.165 -0.2343 -0.3101 -1.6309
 1833SOL     OW16960   4.375   1.375   5.439 -0.0042 -0.1206  0.0265
 1833SOL    HW116961   4.350   1.310   5.373 -0.2030  0.6354 -0.6551
 1833SOL    HW216962   4.321   1.449   5.409  0.4961  0.9952  1.8910
 1834SOL     OW16963   3.776   2.428  14.366  0.1115  0.6065 -0.3850
 1834SOL    HW116964   3.690   2.413  14.328 -0.5414  1.4348  0.7637
 1834SOL    HW216965   3.745   2.406  14.454 -2.4403  1.0401 -1.1785
 1835SOL     OW16966   3.275   3.334   1.524  0.7223  0.5433  0.1920
 1835SOL    HW116967   3.369   3.322   1.507  0.7744  0.2413  0.7194
 1835SOL    HW216968   3.256   3.243   1.545  1.3394  0.9556  2.4691
 1836SOL     OW16969   2.592   1.299   6.800 -0.4310 -0.0462  0.3604
 1836SOL    HW116970   2.620   1.211   6.826  1.5341  0.5696  0.3553
 1836SOL    HW216971   2.671   1.347   6.776 -1.2296  1.1213  0.0774
 1837SOL     OW16972   2.064   1.787   6.567 -0.2535  0.4117 -0.1476
 1837SOL    HW116973   2.057   1.878   6.539 -0.7436  0.1706 -0.8038
 1837SOL    HW216974   2.129   1.749   6.508 -1.0141 -1.5739  0.2724
 1838SOL     OW16975   4.352   1.735  14.000 -0.1982 -0.2229 -0.1743
 1838SOL    HW116976   4.293   1.672  14.039  3.5295 -3.0889  0.8217
 1838SOL    HW216977   4.343   1.801  14.069  0.9362  0.5846 -0.7965
 1839SOL     OW16978   2.678   1.597   0.680 -0.3161  0.6841 -0.1627
 1839SOL    HW116979   2.699   1.602   0.773  0.2983 -0.4651 -0.2361
 1839SOL    HW216980   2.587   1.620   0.662 -0.0114  1.1000 -1.1990
 1840SOL     OW16981   2.269   3.304   8.270  0.8961  0.0405 -0.0069
 1840SOL    HW116982   2.334   3.234   8.277  0.8759  0.1855  1.7632
 1840SOL    HW216983   2.304   3.366   8.334 -0.5260  2.3483 -1.4611
 1841SOL     OW16984   2.786   2.163   4.507  0.5770 -0.2024 -0.4955
 1841SOL    HW116985   2.880   2.164   4.493  0.8215 -0.4750  1.0958
 1841SOL    HW216986   2.767   2.241   4.455 -1.6448  0.2061  0.9150
 1842SOL     OW16987   0.871   0.369  16.266  0.3700  0.1878  0.4492
 1842SOL    HW116988   0.810   0.301  16.293  1.0260 -0.1982  0.9638
 1842SOL    HW216989   0.842   0.438  16.327 -1.2677 -1.5410  1.6337
 1843SOL     OW16990   2.718   0.754  17.295 -0.7791  0.9631 -0.0792
 1843SOL    HW116991   2.649   0.744  17.361 -0.2984  0.2097  0.3107
 1843SOL    HW216992   2.705   0.685  17.231  0.4013  0.9166 -0.2697
 1844SOL     OW16993   2.680   1.935   4.671 -0.2475  0.0716  0.3493
 1844SOL    HW116994   2.728   2.002   4.623  2.1324 -0.2778  2.2533
 1844SOL    HW216995   2.644   1.886   4.598  1.8585  1.8838 -1.8967
 1845SOL     OW16996   4.311   1.985   4.066  0.6857  0.9100  0.3125
 1845SOL    HW116997   4.292   1.906   4.016  0.7417  0.1833  1.4450
 1845SOL    HW216998   4.398   2.012   4.036  1.5796 -0.6167  1.5136
 1846SOL     OW16999   0.880   3.110   0.111 -0.2118 -0.1018 -0.2731
 1846SOL    HW117000   0.827   3.135   0.187 -1.0010  0.6633 -1.0733
 1846SOL    HW217001   0.955   3.074   0.158 -0.9343  0.6259  1.4276
 1847SOL     OW17002   2.254   2.846   7.087  0.3528 -0.4250  0.1086
 1847SOL    HW117003   2.227   2.840   7.178 -0.8077  1.2648 -0.1146
 1847SOL    HW217004   2.199   2.775   7.053  0.2855  0.3351 -1.3928
 1848SOL     OW17005   2.478   1.441   5.468 -0.5709 -0.0940 -0.3528
 1848SOL    HW117006   2.527   1.362   5.445  0.5536  0.2205  0.9675
 1848SOL    HW217007   2.445   1.416   5.554  2.3598 -2.1841  0.1625
 1849SOL     OW17008   4.442   0.068  11.214  0.4740  0.0670 -0.3230
 1849SOL    HW117009   4.383   0.134  11.251  1.1600  0.7214 -0.4047
 1849SOL    HW217010   4.387   0.023  11.150 -0.5607  0.2194  0.4469
 1850SOL     OW17011   0.654   0.812   2.239 -0.1975  0.1353 -0.4400
 1850SOL    HW117012   0.683   0.735   2.287 -0.5303  1.4050  1.8135
 1850SOL    HW217013   0.584   0.775   2.185  0.7081 -0.9091 -0.8759
 1851SOL     OW17014   1.885   1.573   5.934  0.0570  0.1346 -0.0580
 1851SOL    HW117015   1.946   1.642   5.910 -1.7843  0.6821 -3.0925
 1851SOL    HW217016   1.922   1.500   5.883  2.2235 -0.4737  2.3626
 1852SOL     OW17017   1.354   0.006   7.705  0.0456 -0.4803 -0.1505
 1852SOL    HW117018   1.431   0.046   7.665  1.1411 -2.5503 -0.1593
 1852SOL    HW217019   1.290   0.014   7.635  0.8919 -0.3251 -0.9009
 1853SOL     OW17020   4.651   0.241  11.160  0.2320  0.1905 -0.2655
 1853SOL    HW117021   4.583   0.174  11.151 -0.2417  0.4333  1.3733
 1853SOL    HW217022   4.645   0.248  11.255 -0.8561  1.8783 -0.4663
 1854SOL     OW17023   0.540   2.503   7.238 -0.0911  0.1490  0.0380
 1854SOL    HW117024   0.471   2.517   7.304  0.0436  0.2567  0.1568
 1854SOL    HW217025   0.554   2.589   7.199 -0.8945 -0.3377 -1.3191
 1855SOL     OW17026   1.527   2.997   9.728 -0.0345  0.0701  0.1013
 1855SOL    HW117027   1.437   2.964   9.733 -0.1671  0.2202 -1.2678
 1855SOL    HW217028   1.577   2.915   9.723  0.2443  0.2180  0.4493
 1856SOL     OW17029   3.434   3.136  17.614  0.3343  0.2434  0.6249
 1856SOL    HW117030   3.452   3.146   0.004  1.9689  0.2842  0.3132
 1856SOL    HW217031   3.458   3.220  17.574 -0.3386  0.0607 -0.1544
 1857SOL     OW17032   2.105   4.645   4.769  0.0044  0.2153  0.5187
 1857SOL    HW117033   2.013   4.671   4.766  0.9289  3.5037  0.5810
 1857SOL    HW217034   2.110   4.577   4.703 -0.2030  0.4128  0.2997
 1858SOL     OW17035   0.243   1.176  14.715  0.4473  0.1056 -0.4866
 1858SOL    HW117036   0.207   1.224  14.641  0.3115 -0.5196 -0.8259
 1858SOL    HW217037   0.267   1.098  14.666 -1.8523 -0.5090 -0.6258
 1859SOL     OW17038   2.559   0.116   3.333 -0.7412  0.7514 -0.1293
 1859SOL    HW117039   2.636   0.171   3.322 -1.0321  1.7666  2.7939
 1859SOL    HW217040   2.589   0.039   3.286  1.8404  1.7100 -0.0198
 1860SOL     OW17041   0.415   4.259   5.923  0.3254 -0.1618  0.4904
 1860SOL    HW117042   0.422   4.190   5.988  0.6708 -0.0020  0.6238
 1860SOL    HW217043   0.324   4.244   5.896  0.0135  2.0221  0.3136
 1861SOL     OW17044   2.938   3.279   4.364 -0.2790  0.2118 -0.0474
 1861SOL    HW117045   3.027   3.245   4.355 -0.6719 -0.3608 -1.8565
 1861SOL    HW217046   2.952   3.352   4.424 -1.4947 -0.5119  1.1189
 1862SOL     OW17047   2.749   1.441   1.235  0.4197  0.1781 -0.4113
 1862SOL    HW117048   2.772   1.352   1.261  2.7317  0.7324 -0.5264
 1862SOL    HW217049   2.739   1.433   1.140 -2.3431 -0.2556 -0.0577
 1863SOL     OW17050   0.783   4.216   2.140 -0.2816  0.2098  0.3706
 1863SOL    HW117051   0.724   4.266   2.084 -1.4460  0.1938  1.5838
 1863SOL    HW217052   0.864   4.221   2.088 -0.3312 -1.3375  0.1411
 1864SOL     OW17053   3.314   4.477   2.176  0.0394 -0.0915  0.2269
 1864SOL    HW117054   3.328   4.425   2.097 -0.1169  0.1410  0.0478
 1864SOL    HW217055   3.234   4.439   2.212 -0.9098  1.0337 -0.7080
 1865SOL     OW17056   1.125   2.176   9.685  0.1582  0.1051  0.2577
 1865SOL    HW117057   1.123   2.167   9.590  1.5259  0.2491  0.2144
 1865SOL    HW217058   1.216   2.158   9.708  0.9192 -1.0435 -3.7263
 1866SOL     OW17059   3.349   1.916   7.411 -0.1571  0.3450  0.1641
 1866SOL    HW117060   3.332   1.935   7.503  2.0489  1.3633  0.3739
 1866SOL    HW217061   3.287   1.965   7.358 -0.0244 -0.1549 -0.4541
 1867SOL     OW17062   4.208   1.033   5.114  0.6043  0.0195  0.0779
 1867SOL    HW117063   4.298   1.050   5.087  0.2287 -0.1442 -1.2528
 1867SOL    HW217064   4.214   0.937   5.116  0.8270  0.0554  1.1322
 1868SOL     OW17065   2.051   3.902   6.106  0.2453  0.1353  0.5325
 1868SOL    HW117066   2.137   3.915   6.146 -0.0610  1.2536  0.8161
 1868SOL    HW217067   2.047   3.809   6.086  1.1137 -0.4663  3.0837
 1869SOL     OW17068   3.462   2.558   3.138 -0.7285 -0.3394  0.2215
 1869SOL    HW117069   3.396   2.572   3.206 -2.9977 -2.4908 -1.5745
 1869SOL    HW217070   3.407   2.532   3.065  1.3445  0.8318 -1.7464
 1870SOL     OW17071   3.420   1.121   7.975  0.4826 -0.3295  0.1444
 1870SOL    HW117072   3.386   1.209   7.989 -0.2138 -0.6019  0.1491
 1870SOL    HW217073   3.426   1.117   7.879 -0.2390  1.0457  0.0471
 1871SOL     OW17074   3.650   4.719   0.178 -0.1910  0.7323 -0.0657
 1871SOL    HW117075   3.745   4.724   0.181 -0.1677 -0.5837  1.3897
 1871SOL    HW217076   3.631   0.080   0.215 -0.1349 -0.0652  1.8534
 1872SOL     OW17077   0.522   0.413  15.075  0.6014 -0.4199  0.1802
 1872SOL    HW117078   0.595   0.449  15.024 -1.0348 -1.2494 -2.7572
 1872SOL    HW217079   0.463   0.486  15.089 -0.4713 -1.3534  0.5403
 1873SOL     OW17080   3.035   4.165   7.134 -0.3389 -0.2600  0.9213
 1873SOL    HW117081   2.990   4.081   7.141 -3.0514  1.0357 -1.0468
 1873SOL    HW217082   3.085   4.143   7.055 -2.6547  2.2482 -1.2765
 1874SOL     OW17083   0.024   3.573  17.345 -0.1521 -0.8114 -0.0346
 1874SOL    HW117084   0.004   3.487  17.382 -0.8578 -0.2275  0.9220
 1874SOL    HW217085   0.119   3.574  17.362 -0.0103 -2.0493 -0.7839
 1875SOL     OW17086   0.806   4.348  10.858  0.1048 -0.4842  0.5353
 1875SOL    HW117087   0.723   4.339  10.905  0.6385 -2.2928  1.1351
 1875SOL    HW217088   0.784   4.299  10.778 -1.3989 -1.1935  1.3638
 1876SOL     OW17089   2.994   1.707   2.997 -0.1069  0.0559  0.0549
 1876SOL    HW117090   3.038   1.657   2.928  0.9297 -0.3888  1.0631
 1876SOL    HW217091   2.905   1.700   2.962  0.1315 -2.6834  0.0270
 1877SOL     OW17092   1.231   3.905   6.666  0.1857  0.0585  0.4372
 1877SOL    HW117093   1.262   3.825   6.710  1.7341 -0.5091 -1.6972
 1877SOL    HW217094   1.142   3.908   6.702  0.0570  3.7626 -0.2401
 1878SOL     OW17095   1.609   1.088   5.278  0.9310  0.4507 -0.5618
 1878SOL    HW117096   1.611   1.090   5.183 -0.6916  0.0767 -0.6024
 1878SOL    HW217097   1.516   1.079   5.302  0.8642 -0.6854 -1.2517
 1879SOL     OW17098   4.634   1.183  12.513 -0.4593  0.2136 -0.0004
 1879SOL    HW117099   4.589   1.244  12.571  2.8166 -0.2268  2.9426
 1879SOL    HW217100   4.560   1.148  12.463 -0.1611  2.4275 -2.0167
 1880SOL     OW17101   4.492   3.573  12.670 -0.1283  0.5860  0.4703
 1880SOL    HW117102   4.400   3.595  12.686  0.5481  3.1360  0.8296
 1880SOL    HW217103   4.536   3.658  12.680  0.3714  0.5109 -1.1861
 1881SOL     OW17104   3.888   1.078  14.248 -0.3793 -0.1831  0.1015
 1881SOL    HW117105   3.879   1.152  14.308 -0.0706 -0.3320  0.3272
 1881SOL    HW217106   3.969   1.045  14.287  0.4414  0.3697 -1.1254
 1882SOL     OW17107   3.302   2.566   5.037 -0.2091 -0.0186  0.0371
 1882SOL    HW117108   3.365   2.638   5.039 -1.4916  1.1625 -2.2253
 1882SOL    HW217109   3.351   2.502   5.088  1.0424  0.1373 -0.9840
 1883SOL     OW17110   2.920   0.855   4.369 -0.1735 -0.0337 -0.3015
 1883SOL    HW117111   2.993   0.913   4.391 -0.1734  0.4473 -1.5191
 1883SOL    HW217112   2.940   0.772   4.411 -0.3360 -0.7308 -1.5925
 1884SOL     OW17113   1.250   1.592   6.824  0.4024 -0.3295 -0.1584
 1884SOL    HW117114   1.330   1.547   6.799  0.5251  0.1488 -0.6428
 1884SOL    HW217115   1.213   1.530   6.887  1.4282 -1.5152 -0.7505
 1885SOL     OW17116   2.766   3.663   2.299  0.6646 -0.2948 -0.2389
 1885SOL    HW117117   2.677   3.675   2.333 -0.1381 -1.0083 -2.0487
 1885SOL    HW217118   2.783   3.756   2.286  0.9543 -0.4489 -0.9521
 1886SOL     OW17119   3.272   3.097   8.486 -0.2460  0.4626 -0.0615
 1886SOL    HW117120   3.310   3.040   8.419  0.8904  1.4309 -0.2390
 1886SOL    HW217121   3.313   3.065   8.567  0.5040  0.0401 -0.6097
 1887SOL     OW17122   2.866   1.151  12.657  0.5707 -0.0514  0.3750
 1887SOL    HW117123   2.952   1.108  12.661  0.4364 -0.1512  2.0840
 1887SOL    HW217124   2.813   1.105  12.722 -0.8694  1.3855  0.2253
 1888SOL     OW17125   4.715   3.060   5.560 -0.3713 -0.7010 -0.3785
 1888SOL    HW117126   4.671   3.006   5.625  2.3358 -1.8475  0.4833
 1888SOL    HW217127   4.646   3.063   5.494  0.5754  1.5963 -1.2689
 1889SOL     OW17128   0.952   4.469   4.490  0.3878 -0.2332  0.0735
 1889SOL    HW117129   0.925   4.419   4.413  2.2233 -2.0104  0.5710
 1889SOL    HW217130   1.040   4.493   4.461  0.9579 -0.1897  1.8430
 1890SOL     OW17131   0.313   2.089   5.458  0.2386  0.4072  0.0210
 1890SOL    HW117132   0.331   2.012   5.513  0.1677  0.9964  0.8763
 1890SOL    HW217133   0.320   2.050   5.371  0.6545  1.6070 -0.4849
 1891SOL     OW17134   2.040   1.049   8.185 -0.1806 -0.0389 -0.2792
 1891SOL    HW117135   2.098   1.011   8.119  2.4389  1.8370  0.9469
 1891SOL    HW217136   1.961   1.005   8.153 -0.9579  0.7278  0.5758
 1892SOL     OW17137   0.602   1.456   0.571 -0.0057  0.2302 -0.1698
 1892SOL    HW117138   0.687   1.496   0.590 -0.1460  0.6263 -0.3823
 1892SOL    HW217139   0.552   1.490   0.646 -1.0176  0.8187 -1.1078
 1893SOL     OW17140   1.579   0.406  14.582  0.4605  0.0452 -0.2714
 1893SOL    HW117141   1.517   0.479  14.587  0.0692 -0.4298  2.1709
 1893SOL    HW217142   1.663   0.450  14.577  0.3193  0.4678  0.9223
 1894SOL     OW17143   0.271   1.430   8.149  0.2030 -0.0725 -0.1933
 1894SOL    HW117144   0.361   1.398   8.159  0.6513  0.8393 -1.2802
 1894SOL    HW217145   0.229   1.376   8.215 -0.8969 -1.6856 -2.1856
 1895SOL     OW17146   3.818   4.427   8.505  0.0797  0.2032  0.2143
 1895SOL    HW117147   3.767   4.435   8.424 -1.8938 -0.9854  1.3568
 1895SOL    HW217148   3.748   4.432   8.570  0.3609 -0.8102  0.6007
 1896SOL     OW17149   2.852   3.920   2.285  0.2399 -0.0554  0.1877
 1896SOL    HW117150   2.797   3.989   2.324 -2.0268 -2.1834  0.7430
 1896SOL    HW217151   2.915   3.970   2.232  0.1159  1.2477  1.2795
 1897SOL     OW17152   2.605   1.535   8.068 -0.3435 -0.1658  0.2130
 1897SOL    HW117153   2.665   1.596   8.110 -0.7459  0.6571 -0.4074
 1897SOL    HW217154   2.656   1.492   7.999  0.2959  0.1584  0.4842
 1898SOL     OW17155   1.190   2.944   6.762  0.0781 -0.9966  0.2258
 1898SOL    HW117156   1.217   3.029   6.729  0.5709 -1.5208 -0.7379
 1898SOL    HW217157   1.222   2.881   6.697  0.6320 -1.3659  0.8509
 1899SOL     OW17158   2.018   3.556   2.648 -0.2949 -0.1264  0.1162
 1899SOL    HW117159   2.013   3.627   2.584 -1.1354  0.0802  0.4028
 1899SOL    HW217160   1.931   3.565   2.687 -1.1066 -0.7330 -1.5590
 1900SOL     OW17161   4.089   1.439   4.596  0.1370  0.1494 -0.3738
 1900SOL    HW117162   4.107   1.501   4.665 -4.0131 -1.4087  2.1335
 1900SOL    HW217163   4.168   1.453   4.544  1.0746  0.1211  1.0444
 1901SOL     OW17164   0.869   1.326   7.150 -0.2182  0.4536 -0.0193
 1901SOL    HW117165   0.901   1.361   7.233 -0.3259  1.1612 -0.2793
 1901SOL    HW217166   0.774   1.338   7.163 -0.5555 -0.3972 -1.7630
 1902SOL     OW17167   3.799   1.367   7.816 -0.3753 -0.3412  0.3090
 1902SOL    HW117168   3.827   1.276   7.826 -1.2050 -0.8409 -1.9101
 1902SOL    HW217169   3.769   1.367   7.725 -2.2198  0.8847  0.9276
 1903SOL     OW17170   0.436   0.317   2.948  0.2908 -0.3470  0.1013
 1903SOL    HW117171   0.457   0.394   2.895 -0.3021 -0.9268 -0.9760
 1903SOL    HW217172   0.361   0.289   2.896  1.3637 -2.7543 -0.1325
 1904SOL     OW17173   3.122   0.786   7.316 -0.6879 -0.4708  0.3910
 1904SOL    HW117174   3.212   0.779   7.284 -0.9557 -2.7164  0.1126
 1904SOL    HW217175   3.098   0.705   7.362  0.1193 -0.2086  1.2723
 1905SOL     OW17176   0.660   3.169   9.804 -0.0827  0.3061  0.0148
 1905SOL    HW117177   0.569   3.140   9.812 -0.3516  1.0902 -0.1691
 1905SOL    HW217178   0.703   3.084   9.800 -0.5507  0.0599  0.1358
 1906SOL     OW17179   1.025   2.799   6.260 -0.3623  0.4123 -0.4949
 1906SOL    HW117180   1.057   2.800   6.170  1.1109 -0.5324  0.0251
 1906SOL    HW217181   1.055   2.717   6.300  1.6687  1.8297  0.8345
 1907SOL     OW17182   4.070   0.030   3.813 -0.1886  0.4570 -0.3003
 1907SOL    HW117183   4.090   0.112   3.859  1.1250 -0.6611  1.1357
 1907SOL    HW217184   4.156   4.719   3.833 -0.7266 -0.3697  0.5158
 1908SOL     OW17185   4.651   2.398  16.756  0.5452  0.6649  0.8081
 1908SOL    HW117186   4.576   2.382  16.814  1.5719  0.9373  2.1950
 1908SOL    HW217187   4.706   2.332  16.798  0.2192 -0.7415 -0.9402
 1909SOL     OW17188   3.457   1.630  15.247  0.2363 -0.3414  0.0445
 1909SOL    HW117189   3.386   1.566  15.255  0.3810 -0.6235 -0.8274
 1909SOL    HW217190   3.465   1.661  15.337  2.4544 -1.6173  0.3006
 1910SOL     OW17191   4.607   1.513  11.801 -0.3500 -0.5693  0.0648
 1910SOL    HW117192   4.640   1.550  11.882  0.5924 -1.6635  0.1794
 1910SOL    HW217193   4.671   1.443  11.789  1.9409  1.3053  1.5558
 1911SOL     OW17194   3.364   0.561  12.456  0.9075  0.0704  0.1568
 1911SOL    HW117195   3.275   0.584  12.478  0.9563 -0.1298  0.5626
 1911SOL    HW217196   3.416   0.597  12.528  1.7409  1.0678 -0.9459
 1912SOL     OW17197   1.858   4.100   7.724  0.2006 -0.0426 -0.3417
 1912SOL    HW117198   1.901   4.174   7.766  0.4649 -0.0517 -0.6004
 1912SOL    HW217199   1.892   4.024   7.772  0.7287 -0.2342 -1.0175
 1913SOL     OW17200   4.385   0.752   5.773  0.0824 -0.0028 -0.2883
 1913SOL    HW117201   4.450   0.807   5.728 -0.8451  1.3097 -0.0311
 1913SOL    HW217202   4.447   0.688   5.808  1.1840  1.6272  0.7606
 1914SOL     OW17203   4.197   4.382   8.815  0.3779  0.1945  0.9091
 1914SOL    HW117204   4.154   4.327   8.749 -0.6832  1.5358  0.4730
 1914SOL    HW217205   4.234   4.449   8.758 -0.3505  1.4822  1.9690
 1915SOL     OW17206   4.219   0.033  16.186 -0.0012  0.0124 -0.1781
 1915SOL    HW117207   4.146   0.061  16.240 -0.4671  0.0008 -0.8084
 1915SOL    HW217208   4.174   4.681  16.154  0.8671 -0.4044 -0.3942
 1916SOL     OW17209   0.955   1.088  10.745 -0.3453  0.1383 -0.2067
 1916SOL    HW117210   0.926   1.135  10.667  1.9688  0.2295 -1.0035
 1916SOL    HW217211   0.876   1.042  10.774 -1.1349  1.2141 -0.6521
 1917SOL     OW17212   2.012   0.313  17.201 -0.5207 -0.0667 -0.2204
 1917SOL    HW117213   1.990   0.405  17.217 -4.2735 -1.0759  0.2971
 1917SOL    HW217214   1.951   0.264  17.255  0.1835 -0.6393  0.0613
 1918SOL     OW17215   1.040   4.266   7.073  0.6201  0.0166  0.2995
 1918SOL    HW117216   1.013   4.244   7.162 -0.8563 -0.1064 -0.1677
 1918SOL    HW217217   1.130   4.297   7.082  0.4527  0.7387 -0.3920
 1919SOL     OW17218   2.111   4.000  12.468 -0.2298 -0.0419  0.3301
 1919SOL    HW117219   2.148   4.053  12.539  1.3699 -0.0085 -0.5484
 1919SOL    HW217220   2.113   4.054  12.390 -1.6106  2.9712  2.3809
 1920SOL     OW17221   2.177   0.748  16.558  0.1746 -0.1653 -0.2920
 1920SOL    HW117222   2.235   0.785  16.491 -0.7575  3.0900  0.7497
 1920SOL    HW217223   2.101   0.801  16.536 -0.5114 -1.8020 -1.8846
 1921SOL     OW17224   1.832   1.074   4.131 -0.1532 -0.5348 -0.1407
 1921SOL    HW117225   1.893   1.001   4.135  2.5088  1.6802 -0.1794
 1921SOL    HW217226   1.750   1.030   4.110 -2.1685  2.9437  0.3627
 1922SOL     OW17227   2.445   1.325  15.542  0.1646 -0.4092 -0.0904
 1922SOL    HW117228   2.440   1.383  15.466  0.6633 -0.2290  0.0141
 1922SOL    HW217229   2.539   1.333  15.562 -0.0061  0.5329  0.3149
 1923SOL     OW17230   3.441   3.200  10.652  1.2398  0.3924  0.4667
 1923SOL    HW117231   3.403   3.285  10.674 -2.8236 -1.2438 -0.2650
 1923SOL    HW217232   3.376   3.165  10.590  1.4666  2.0803 -0.7256
 1924SOL     OW17233   0.350   2.156  13.510 -0.0715  0.0861 -0.2107
 1924SOL    HW117234   0.301   2.210  13.572  0.3073  1.9592 -1.5397
 1924SOL    HW217235   0.371   2.220  13.442  0.7933 -0.8797 -0.8388
 1925SOL     OW17236   4.041   2.027   6.920  0.0397  0.2678 -0.9482
 1925SOL    HW117237   4.032   1.979   7.003  1.3821 -0.4869 -1.2396
 1925SOL    HW217238   3.948   2.046   6.908 -0.1733  1.9519  3.1260
 1926SOL     OW17239   3.288   1.122  10.127 -0.4728  0.1843 -0.2230
 1926SOL    HW117240   3.308   1.213  10.148  1.2745 -0.9117  2.7991
 1926SOL    HW217241   3.256   1.092  10.212 -1.0144  2.6150  0.4359
 1927SOL     OW17242   0.711   2.216   2.805 -0.5389 -0.5133  0.0627
 1927SOL    HW117243   0.634   2.246   2.756 -1.5615 -0.9345  1.4012
 1927SOL    HW217244   0.770   2.188   2.735  0.4679  0.1520  0.6403
 1928SOL     OW17245   3.431   4.411   9.997  0.3335  0.0760 -0.0870
 1928SOL    HW117246   3.355   4.390   9.942  0.1082  1.3926 -0.2856
 1928SOL    HW217247   3.475   4.478   9.944 -0.6410  1.8377  1.3128
 1929SOL     OW17248   0.585   1.778   9.065 -0.4001 -0.1620  0.3557
 1929SOL    HW117249   0.603   1.832   9.142 -0.0364 -1.8288  1.4334
 1929SOL    HW217250   0.496   1.810   9.052 -0.3426 -0.2448 -0.2560
 1930SOL     OW17251   1.965   0.797   5.567 -0.1933 -0.0324 -0.0290
 1930SOL    HW117252   2.032   0.846   5.519  0.2475 -1.1272 -0.5306
 1930SOL    HW217253   1.921   0.864   5.620 -2.7402 -1.0808 -0.8066
 1931SOL     OW17254   0.024   3.103   4.705 -0.3752  0.1152  0.4619
 1931SOL    HW117255   0.109   3.063   4.683  0.3519  2.2482 -0.5835
 1931SOL    HW217256   4.684   3.074   4.642  1.7439 -0.0201 -1.7187
 1932SOL     OW17257   2.913   4.120   1.180  0.6291  0.2586 -0.3129
 1932SOL    HW117258   2.921   4.076   1.264  0.4969  2.0382  0.6192
 1932SOL    HW217259   2.854   4.193   1.199  0.8021  0.0173  1.1156
 1933SOL     OW17260   4.613   1.110  10.066 -0.0162  0.2211  0.4159
 1933SOL    HW117261   4.593   1.046  10.134 -0.4473 -2.0661 -1.8663
 1933SOL    HW217262   4.658   1.175  10.121  0.6174 -0.9598  1.2945
 1934SOL     OW17263   2.984   2.458  14.384 -0.0213  0.1229  0.3176
 1934SOL    HW117264   2.916   2.486  14.446  0.1224  0.1694  0.4520
 1934SOL    HW217265   2.957   2.367  14.370 -2.7570  0.9698  0.1121
 1935SOL     OW17266   4.569   4.080   7.018 -0.2791 -0.5997  0.1466
 1935SOL    HW117267   4.649   4.030   7.005  0.3081  0.4709 -0.2836
 1935SOL    HW217268   4.522   3.998   7.037 -0.0701 -0.3928  1.6001
 1936SOL     OW17269   0.616   3.910  16.642  0.3914 -0.5535 -0.3931
 1936SOL    HW117270   0.587   3.907  16.551  0.0305 -2.1520 -0.2236
 1936SOL    HW217271   0.682   3.841  16.633  1.4985  0.4247  0.2753
 1937SOL     OW17272   0.594   2.987   6.158 -0.3847 -0.1521 -0.4684
 1937SOL    HW117273   0.649   2.933   6.214 -1.7109 -3.1486 -2.0160
 1937SOL    HW217274   0.548   2.918   6.110 -1.2604  1.4015 -1.8670
 1938SOL     OW17275   2.454   1.414  13.966 -0.4777  0.0590  0.1340
 1938SOL    HW117276   2.430   1.390  14.055 -1.5248  2.3794  0.4657
 1938SOL    HW217277   2.382   1.471  13.938  0.8745  1.5274 -0.3509
 1939SOL     OW17278   0.892   3.480   9.661 -0.0039 -0.0529  0.7734
 1939SOL    HW117279   0.958   3.419   9.695 -0.3821 -1.4578 -1.0186
 1939SOL    HW217280   0.844   3.426   9.598 -1.2557  1.8139  0.1368
 1940SOL     OW17281   2.852   4.358   7.127  0.8447  0.3671  0.4411
 1940SOL    HW117282   2.809   4.301   7.191  1.4596 -0.0775  0.4567
 1940SOL    HW217283   2.938   4.315   7.125  0.2216 -0.8764  0.6997
 1941SOL     OW17284   3.700   1.255   4.260 -0.3710  0.4148 -0.1103
 1941SOL    HW117285   3.732   1.304   4.335  1.4149 -1.1503  0.1551
 1941SOL    HW217286   3.652   1.181   4.297 -0.0828  0.3576  0.1447
 1942SOL     OW17287   0.840   1.445   4.405  0.1970  0.6755  0.0517
 1942SOL    HW117288   0.789   1.505   4.459 -1.2692 -0.5030 -0.0204
 1942SOL    HW217289   0.892   1.395   4.468 -0.2588  0.2048  0.0539
 1943SOL     OW17290   2.570   0.853  12.286  0.6169  0.0811  0.0072
 1943SOL    HW117291   2.657   0.836  12.250 -0.2460 -1.8789 -1.1800
 1943SOL    HW217292   2.591   0.870  12.377  2.4676 -1.7900 -0.0692
 1944SOL     OW17293   0.981   0.734   3.009  0.5878 -0.3634 -0.1706
 1944SOL    HW117294   1.019   0.822   3.016 -1.9352  0.6145  1.2602
 1944SOL    HW217295   1.035   0.696   2.939  1.4767 -1.3777  1.0690
 1945SOL     OW17296   1.148   1.141   9.469 -0.5694 -0.3508 -0.3296
 1945SOL    HW117297   1.101   1.100   9.542  0.9138 -0.1793  0.7090
 1945SOL    HW217298   1.168   1.226   9.508  0.5598 -0.4616 -0.6800
 1946SOL     OW17299   2.910   3.553  10.288  0.1679  0.5802 -0.0257
 1946SOL    HW117300   2.840   3.504  10.330  0.7499  0.6980  1.0679
 1946SOL    HW217301   2.847   3.611  10.244  2.1149  3.1458  0.5516
 1947SOL     OW17302   0.635   1.435   5.674  0.2736  0.1150 -0.0461
 1947SOL    HW117303   0.568   1.411   5.737  0.8773  0.6611  0.8132
 1947SOL    HW217304   0.582   1.437   5.594  0.4876  1.7333 -0.1363
 1948SOL     OW17305   3.294   2.295   8.158  0.1251 -0.1099  0.1549
 1948SOL    HW117306   3.325   2.373   8.111 -0.4638  1.4764  2.3780
 1948SOL    HW217307   3.378   2.264   8.191 -0.0562 -1.1862 -0.3868
 1949SOL     OW17308   0.370   0.884   7.272 -0.3302  0.0046 -0.3908
 1949SOL    HW117309   0.307   0.873   7.200 -0.5170  0.5984 -0.3139
 1949SOL    HW217310   0.455   0.858   7.236 -0.1682  2.5880 -1.8913
 1950SOL     OW17311   0.860   4.529  13.522 -0.0832 -0.2241  0.4433
 1950SOL    HW117312   0.873   4.440  13.490 -1.5190  0.7692 -2.9140
 1950SOL    HW217313   0.811   4.571  13.451  1.5610  1.1221  0.0942
 1951SOL     OW17314   0.444   2.602   7.684 -0.2254  0.5496  0.3220
 1951SOL    HW117315   0.452   2.584   7.590 -0.8620  1.4265  0.0996
 1951SOL    HW217316   0.353   2.579   7.705  0.0119 -1.0686 -0.4313
 1952SOL     OW17317   3.711   0.512   7.131 -0.8394 -0.4521  0.1958
 1952SOL    HW117318   3.666   0.482   7.052 -0.9725  0.2054  0.0179
 1952SOL    HW217319   3.666   0.456   7.194 -2.1966  1.3096  0.8146
 1953SOL     OW17320   0.984   1.612   7.455 -0.2335  0.1057  0.0355
 1953SOL    HW117321   1.048   1.673   7.417 -0.1322 -0.6447 -0.9968
 1953SOL    HW217322   1.014   1.637   7.543 -1.0166  0.0976  0.2970
 1954SOL     OW17323   4.227   4.007  16.904  0.1509  0.0801 -0.2159
 1954SOL    HW117324   4.242   4.047  16.990 -2.6265 -0.2957  0.4438
 1954SOL    HW217325   4.306   3.953  16.905 -0.6500 -1.0923 -1.4065
 1955SOL     OW17326   3.604   1.347   8.500  0.4413  0.3719  0.5360
 1955SOL    HW117327   3.688   1.388   8.483  0.2980  2.3494  4.7220
 1955SOL    HW217328   3.609   1.330   8.594  0.5352 -0.5895  0.3583
 1956SOL     OW17329   2.884   0.437  15.806  0.3282 -0.5026 -0.1127
 1956SOL    HW117330   2.908   0.360  15.857  1.6805 -0.2619 -0.3754
 1956SOL    HW217331   2.949   0.503  15.834  0.0021 -0.4363  0.4912
 1957SOL     OW17332   1.715   0.758  13.437 -0.0380 -0.3867  0.1693
 1957SOL    HW117333   1.621   0.763  13.453  0.1614 -2.9926  2.1508
 1957SOL    HW217334   1.749   0.833  13.486  0.9372 -0.5242 -0.2910
 1958SOL     OW17335   1.706   0.638  16.552 -0.0028 -0.8440  0.0198
 1958SOL    HW117336   1.664   0.698  16.613 -0.3128 -2.4176  1.3654
 1958SOL    HW217337   1.797   0.647  16.581 -0.4019 -2.4967  1.8279
 1959SOL     OW17338   0.242   2.550   2.334  0.1905 -0.2990 -0.9859
 1959SOL    HW117339   0.149   2.528   2.331  0.4210 -1.7258  1.8382
 1959SOL    HW217340   0.240   2.645   2.347 -1.1800 -0.4508 -0.0334
 1960SOL     OW17341   4.559   1.105  10.670  0.0770 -0.2858  0.2232
 1960SOL    HW117342   4.597   1.190  10.692  3.0415 -0.8150 -2.7688
 1960SOL    HW217343   4.573   1.065  10.756 -0.6846  2.8590  1.7952
 1961SOL     OW17344   1.077   4.265   7.955 -0.6937 -0.2741 -0.4497
 1961SOL    HW117345   1.055   4.226   8.039 -1.1922 -0.4044 -0.6399
 1961SOL    HW217346   1.096   4.356   7.978 -1.8344 -0.0154 -0.5430
 1962SOL     OW17347   2.250   0.136  17.441  0.0641 -0.3355  0.3748
 1962SOL    HW117348   2.271   0.195  17.368  1.9682 -1.1112  0.3023
 1962SOL    HW217349   2.226   0.057  17.393  1.1831 -0.0404 -0.6619
 1963SOL     OW17350   0.531   4.061   0.931 -0.5848  1.0963 -0.3548
 1963SOL    HW117351   0.598   4.064   0.998  0.7336  0.8902 -1.6635
 1963SOL    HW217352   0.570   4.135   0.883  2.1623 -0.7568 -0.9604
 1964SOL     OW17353   3.957   2.738  10.149 -0.3023 -0.0688 -0.2559
 1964SOL    HW117354   4.012   2.662  10.129 -1.2499 -0.4677 -1.3555
 1964SOL    HW217355   3.992   2.804  10.088 -1.0104  0.5661  0.0224
 1965SOL     OW17356   3.946   1.287  12.587 -0.4887 -0.1237  0.1960
 1965SOL    HW117357   3.965   1.365  12.639 -1.1652 -0.6469  1.2474
 1965SOL    HW217358   4.031   1.248  12.564  0.0522  0.6293  0.9532
 1966SOL     OW17359   2.462   2.807   2.895  0.2109  0.6811 -0.3315
 1966SOL    HW117360   2.549   2.846   2.892 -0.1918  1.4301 -2.2889
 1966SOL    HW217361   2.441   2.817   2.802 -0.4018  1.0297 -0.1566
 1967SOL     OW17362   3.697   2.067  14.561 -0.7707  0.7572  0.2330
 1967SOL    HW117363   3.620   2.075  14.505  1.1873 -0.2443 -2.6106
 1967SOL    HW217364   3.719   2.156  14.588 -0.1799 -0.1325  2.6757
 1968SOL     OW17365   2.168   0.973   2.676 -0.1998  0.3603  0.0557
 1968SOL    HW117366   2.256   0.995   2.705  0.3670 -2.6125  0.5893
 1968SOL    HW217367   2.180   0.965   2.581  1.7609  0.4197  0.3073
 1969SOL     OW17368   0.082   1.200   8.537  0.5359 -0.0055  0.0843
 1969SOL    HW117369   0.030   1.176   8.613  1.6225  0.0007  0.8321
 1969SOL    HW217370   0.099   1.294   8.545  0.0423  0.0000  0.9947
 1970SOL     OW17371   0.840   2.178   2.253  0.5456  0.5334  0.3649
 1970SOL    HW117372   0.900   2.162   2.180  1.2761  0.7809  0.9194
 1970SOL    HW217373   0.774   2.113   2.229  2.0755 -0.8628 -0.0541
 1971SOL     OW17374   2.153   3.649   3.783  0.2784 -0.1417 -0.2926
 1971SOL    HW117375   2.145   3.563   3.742  1.6439 -0.3288 -0.1943
 1971SOL    HW217376   2.246   3.645   3.807  0.9739  1.4556 -2.6756
 1972SOL     OW17377   2.030   0.255   2.849 -0.3065  0.5201  0.3153
 1972SOL    HW117378   2.021   0.207   2.767  1.1450 -1.0726  1.0819
 1972SOL    HW217379   1.955   0.314   2.849  0.7828  1.9088 -0.1089
 1973SOL     OW17380   3.508   3.886   1.160 -0.5025  0.1568  0.1001
 1973SOL    HW117381   3.434   3.878   1.100 -0.5350  2.4854 -0.1511
 1973SOL    HW217382   3.508   3.802   1.206 -0.8041  1.9451  3.3742
 1974SOL     OW17383   0.113   2.515   1.925 -0.1490  0.4222  0.6898
 1974SOL    HW117384   0.134   2.474   1.840 -0.4249  0.6406  0.5173
 1974SOL    HW217385   0.201   2.541   1.954  0.4272 -1.4531  0.5995
 1975SOL     OW17386   3.957   0.425   7.055 -0.0748 -0.5696  0.5131
 1975SOL    HW117387   3.944   0.331   7.042  1.4714 -0.8608  1.0319
 1975SOL    HW217388   3.871   0.465   7.063  0.6843  1.2948 -0.6950
 1976SOL     OW17389   4.657   4.037  11.668  0.4215 -0.2513 -0.0842
 1976SOL    HW117390   4.576   4.054  11.622 -0.1682 -1.9345  0.3346
 1976SOL    HW217391   4.693   3.966  11.615 -0.9859 -1.5994  0.7645
 1977SOL     OW17392   0.686   3.365   7.486 -0.3185 -0.3352 -0.0531
 1977SOL    HW117393   0.604   3.316   7.497  0.5889 -1.3893  2.0329
 1977SOL    HW217394   0.653   3.426   7.420  0.2639  1.1782  1.0369
 1978SOL     OW17395   2.606   3.676  14.211 -0.3461  0.2324 -0.0656
 1978SOL    HW117396   2.697   3.698  14.191  0.4841 -2.4144  0.7823
 1978SOL    HW217397   2.619   3.597  14.263 -0.3344  1.5472  1.8997
 1979SOL     OW17398   0.324   2.333  14.933  0.8160 -0.6889 -0.3119
 1979SOL    HW117399   0.245   2.327  14.987  0.6752  2.4090 -0.1852
 1979SOL    HW217400   0.321   2.422  14.901 -0.3933 -0.7231 -0.2953
 1980SOL     OW17401   4.121   4.382   2.793 -0.1640  0.4557  0.0725
 1980SOL    HW117402   4.123   4.428   2.709 -0.6529  1.2052  0.4675
 1980SOL    HW217403   4.181   4.309   2.779  0.0236  0.3637  1.3668
 1981SOL     OW17404   0.362   3.326   6.127 -0.5829  0.1709  0.1167
 1981SOL    HW117405   0.295   3.259   6.110 -0.3268 -0.2436  0.7444
 1981SOL    HW217406   0.320   3.407   6.100 -1.2832  0.0353  0.8170
 1982SOL     OW17407   0.694   0.478  16.036 -0.0551  0.0725  0.6050
 1982SOL    HW117408   0.674   0.418  15.964  2.1050 -0.7916  0.7282
 1982SOL    HW217409   0.736   0.549  15.989  0.5244 -1.0381 -0.5534
 1983SOL     OW17410   3.868   3.805   5.042  0.8676 -0.6675  0.6312
 1983SOL    HW117411   3.840   3.715   5.056 -0.4344 -0.5522 -1.2428
 1983SOL    HW217412   3.939   3.797   4.978  0.2828 -0.4554 -0.0554
 1984SOL     OW17413   1.568   3.103   6.769  0.1533 -0.0804  0.5680
 1984SOL    HW117414   1.626   3.030   6.791  2.4655  1.1472 -1.3675
 1984SOL    HW217415   1.614   3.176   6.811 -0.3305 -0.7620  2.3014
 1985SOL     OW17416   3.337   1.046   4.907  0.6632 -0.0096  0.4204
 1985SOL    HW117417   3.256   1.039   4.958 -0.4426 -0.9978 -1.4575
 1985SOL    HW217418   3.389   1.103   4.964 -2.2137  1.1911  1.8310
 1986SOL     OW17419   0.128   1.461   8.586  0.2967 -0.3480 -0.2379
 1986SOL    HW117420   0.093   1.485   8.672 -0.1426 -1.2048 -0.1809
 1986SOL    HW217421   0.185   1.534   8.563 -0.1645  0.3187  0.7180
 1987SOL     OW17422   1.251   4.207   4.055  0.3252 -0.1250 -0.1805
 1987SOL    HW117423   1.199   4.287   4.060  0.5796  0.0105  0.3159
 1987SOL    HW217424   1.252   4.199   3.960  0.4330  0.5941 -0.2436
 1988SOL     OW17425   1.453   0.908   2.903 -0.4707 -0.4185  0.8679
 1988SOL    HW117426   1.408   0.826   2.924 -0.4811 -1.1051 -1.8505
 1988SOL    HW217427   1.434   0.908   2.810 -1.6178  1.8740  1.1142
 1989SOL     OW17428   1.885   2.244   0.475 -0.3623  0.1142 -0.2708
 1989SOL    HW117429   1.813   2.238   0.538 -2.5283 -1.7876 -2.9089
 1989SOL    HW217430   1.935   2.319   0.505  1.3439 -1.1885  0.0932
 1990SOL     OW17431   1.230   0.327  15.976 -0.3363 -0.2882 -0.7277
 1990SOL    HW117432   1.315   0.353  16.011 -0.3039 -3.3880  1.5414
 1990SOL    HW217433   1.243   0.347  15.883  0.2207 -0.2985 -0.6512
 1991SOL     OW17434   1.151   1.653   4.426  0.5013  0.1319  0.3152
 1991SOL    HW117435   1.084   1.720   4.433  0.9948  0.7544 -0.9862
 1991SOL    HW217436   1.234   1.692   4.454  1.0010  0.3921 -1.4780
 1992SOL     OW17437   3.327   0.853  13.699 -0.2564  0.0504  0.0780
 1992SOL    HW117438   3.407   0.835  13.649 -1.2268 -0.9709 -1.0780
 1992SOL    HW217439   3.339   0.946  13.716  0.9300  0.2672 -1.9883
 1993SOL     OW17440   0.811   0.104   4.590  0.0773 -0.5553 -0.7662
 1993SOL    HW117441   0.804   0.138   4.501 -0.3596 -0.5052 -0.7107
 1993SOL    HW217442   0.779   0.014   4.580 -0.8485 -0.0943 -1.9621
 1994SOL     OW17443   1.788   3.054  14.032 -0.6006 -0.4098 -0.0574
 1994SOL    HW117444   1.835   3.097  14.103  1.9603 -0.8465 -1.5135
 1994SOL    HW217445   1.729   3.009  14.093 -0.4376 -0.3369  0.1544
 1995SOL     OW17446   0.243   3.312   8.242 -0.2719  0.5721  0.1362
 1995SOL    HW117447   0.311   3.301   8.309  1.8508  1.7584 -1.8163
 1995SOL    HW217448   0.290   3.326   8.159 -2.1078 -0.6097 -1.1025
 1996SOL     OW17449   3.451   3.066   6.914 -0.3427  0.2249 -0.0915
 1996SOL    HW117450   3.482   3.155   6.930  0.4279 -0.0276 -0.1911
 1996SOL    HW217451   3.536   3.030   6.886 -0.9897 -1.7684  0.4904
 1997SOL     OW17452   2.778   0.871  10.744  0.4304  0.4222  0.6300
 1997SOL    HW117453   2.748   0.878  10.835 -3.1518 -0.7970 -0.4489
 1997SOL    HW217454   2.861   0.920  10.746 -0.3525  1.7225  1.1622
 1998SOL     OW17455   3.522   0.663  17.185 -0.4400  0.4876 -0.2928
 1998SOL    HW117456   3.465   0.740  17.190 -1.2520 -0.1921  1.1376
 1998SOL    HW217457   3.565   0.664  17.271  1.7908  1.6824 -1.4468
 1999SOL     OW17458   0.984   1.507   5.993 -0.3343  0.2165 -0.7266
 1999SOL    HW117459   0.939   1.541   6.070 -1.2713 -1.1243 -0.6850
 1999SOL    HW217460   0.972   1.413   6.008 -2.5896 -0.2042 -5.1733
 2000SOL     OW17461   4.569   1.123   4.053 -0.1346  0.4198 -0.6230
 2000SOL    HW117462   4.501   1.056   4.060  0.0618  0.4064  1.3195
 2000SOL    HW217463   4.627   1.090   4.122  1.2459 -3.8570 -3.8294
 2001SOL     OW17464   1.527   0.204   2.244  1.5173  0.6161 -0.0291
 2001SOL    HW117465   1.489   0.266   2.182 -0.5964 -0.7375 -0.0923
 2001SOL    HW217466   1.452   0.193   2.302  1.2365 -1.1400 -0.7206
 2002SOL     OW17467   3.828   0.150  10.326 -0.6201 -0.0022 -0.1072
 2002SOL    HW117468   3.919   0.149  10.297 -0.2213 -0.2266  1.1758
 2002SOL    HW217469   3.799   0.196  10.247 -0.7200  0.8579  0.4356
 2003SOL     OW17470   1.870   3.285   9.321  0.3437 -0.0211  0.0557
 2003SOL    HW117471   1.876   3.276   9.417 -2.3487  0.8865  0.3206
 2003SOL    HW217472   1.847   3.200   9.284  0.3775 -1.2329  2.8023
 2004SOL     OW17473   1.848   0.519   1.632  0.3331 -0.2264  0.3357
 2004SOL    HW117474   1.821   0.430   1.608  2.0063 -0.6842  0.1398
 2004SOL    HW217475   1.929   0.521   1.581  1.1267  0.3040  1.6009
 2005SOL     OW17476   4.638   0.627   3.647 -0.3514  0.0722  0.3643
 2005SOL    HW117477   4.576   0.554   3.655  0.9809 -1.4750 -3.1456
 2005SOL    HW217478   4.582   0.703   3.636 -0.4070 -0.0612 -0.3138
 2006SOL     OW17479   0.653   2.622  12.628  0.8488 -0.9883 -0.1702
 2006SOL    HW117480   0.583   2.688  12.624  0.4719 -1.3228  0.9871
 2006SOL    HW217481   0.727   2.682  12.640  0.8288 -0.9061 -0.4694
 2007SOL     OW17482   1.662   0.023   6.906 -0.5649 -0.0382 -0.2825
 2007SOL    HW117483   1.739   0.000   6.853  0.3914 -0.5721  1.3337
 2007SOL    HW217484   1.688   4.710   6.990 -0.5175  1.6289  0.4776
 2008SOL     OW17485   0.805   0.861   2.578 -0.4272 -0.2633  0.8588
 2008SOL    HW117486   0.822   0.914   2.656 -0.5905 -0.0252  0.7319
 2008SOL    HW217487   0.730   0.906   2.539  0.2973 -0.0095 -0.2498
 2009SOL     OW17488   2.640   0.121  15.713 -0.1819 -0.0130  0.7109
 2009SOL    HW117489   2.671   0.054  15.652 -0.3688 -0.1936  0.8159
 2009SOL    HW217490   2.701   0.188  15.682  1.5048 -0.2287  3.5997
 2010SOL     OW17491   2.901   4.298   4.376 -0.3745 -0.9176  0.5392
 2010SOL    HW117492   2.843   4.225   4.358 -1.2051 -0.3122  0.7557
 2010SOL    HW217493   2.845   4.376   4.370  0.5325 -0.3096 -0.0245
 2011SOL     OW17494   3.613   2.924   9.291 -0.0462  0.4091 -0.6515
 2011SOL    HW117495   3.573   2.842   9.263  1.2034  0.3723 -2.3328
 2011SOL    HW217496   3.673   2.896   9.360  1.2290  2.3021 -0.9855
 2012SOL     OW17497   1.092   1.217  14.866 -0.0176  0.0791 -0.5738
 2012SOL    HW117498   1.182   1.209  14.897 -0.3546 -3.3064 -0.4637
 2012SOL    HW217499   1.067   1.130  14.835  0.5496 -0.3769  0.2541
 2013SOL     OW17500   4.394   1.937  16.768  0.3388 -0.0095  0.5001
 2013SOL    HW117501   4.338   1.892  16.831 -0.5818  0.6163  0.1245
 2013SOL    HW217502   4.342   2.002  16.721  0.2831 -0.1703  0.3390
 2014SOL     OW17503   2.025   3.529   5.329 -0.1759  0.2909 -0.5678
 2014SOL    HW117504   2.110   3.536   5.286 -0.1511 -1.0471 -0.7448
 2014SOL    HW217505   1.971   3.537   5.251 -0.7491  2.5291  0.0719
 2015SOL     OW17506   0.044   4.126   7.739 -0.0858  0.2526  0.2165
 2015SOL    HW117507   0.054   4.039   7.778  1.1975  0.0404 -0.5839
 2015SOL    HW217508   0.101   4.120   7.662  0.3651  0.4717  0.5313
 2016SOL     OW17509   0.809   4.649   5.623  0.0216  0.2404 -0.0045
 2016SOL    HW117510   0.888   4.672   5.575 -0.0876  1.2593  0.3093
 2016SOL    HW217511   0.759   4.722   5.585  0.0087 -0.7362 -1.8678
 2017SOL     OW17512   2.712   4.457   1.478  0.0582  0.2446  0.4369
 2017SOL    HW117513   2.664   4.538   1.498  0.9597  0.1753  2.8730
 2017SOL    HW217514   2.741   4.422   1.562  1.6674  0.8483  0.1352
 2018SOL     OW17515   3.596   4.450  11.161 -0.6584  0.6632  0.0851
 2018SOL    HW117516   3.686   4.420  11.172 -0.4623  1.3445  0.3223
 2018SOL    HW217517   3.545   4.369  11.157  1.9649 -1.0432  0.9619
 2019SOL     OW17518   2.357   0.822   7.219  0.6768  0.0136 -0.0500
 2019SOL    HW117519   2.286   0.781   7.269 -2.3618  2.8451 -2.0416
 2019SOL    HW217520   2.314   0.899   7.181  2.6323  1.5298  0.8227
 2020SOL     OW17521   2.643   0.577   8.018  0.1029 -0.0071 -0.3467
 2020SOL    HW117522   2.578   0.554   8.084 -0.8845  1.2105 -0.9133
 2020SOL    HW217523   2.715   0.613   8.070  1.1056  0.1612 -1.8334
 2021SOL     OW17524   3.144   2.261   1.451 -0.1346  0.5489 -0.7664
 2021SOL    HW117525   3.055   2.225   1.445  0.1529  0.0242 -2.0115
 2021SOL    HW217526   3.120   2.353   1.454  2.5806  1.1220  2.5415
 2022SOL     OW17527   1.562   1.926   9.120 -0.1233  0.7391  0.0098
 2022SOL    HW117528   1.584   2.004   9.171  1.1019 -0.1947  0.8876
 2022SOL    HW217529   1.564   1.963   9.032 -1.0263  0.4566 -0.1345
 2023SOL     OW17530   2.889   3.819   7.509  0.4880 -0.0599  0.2343
 2023SOL    HW117531   2.979   3.788   7.497  0.3631 -0.8150  1.2350
 2023SOL    HW217532   2.895   3.910   7.481  0.2178  0.6301  2.3662
 2024SOL     OW17533   0.158   1.333  14.520 -0.3757 -0.6854 -0.2121
 2024SOL    HW117534   0.229   1.396  14.511 -0.0350 -1.0587 -0.1514
 2024SOL    HW217535   0.101   1.372  14.454  0.7471 -0.6157 -1.1426
 2025SOL     OW17536   1.346   0.961  14.071 -0.0818 -0.0323 -0.2187
 2025SOL    HW117537   1.261   0.936  14.107  0.4218 -0.9839  0.3015
 2025SOL    HW217538   1.320   1.050  14.047 -1.3285 -0.2782  0.2125
 2026SOL     OW17539   1.825   4.690   1.734  0.1654  0.0882 -0.1818
 2026SOL    HW117540   1.847   4.724   1.647 -2.3593 -1.7050 -1.5095
 2026SOL    HW217541   1.826   0.045   1.787 -1.9451 -0.5589  0.8204
 2027SOL     OW17542   3.000   4.681   8.275  0.0987 -0.1704 -0.0597
 2027SOL    HW117543   2.969   4.629   8.348 -1.5317  0.6432 -0.1705
 2027SOL    HW217544   2.919   4.695   8.225  0.2420 -0.5328 -0.3907
 2028SOL     OW17545   0.843   3.855  15.263  0.9046 -0.2667  0.5264
 2028SOL    HW117546   0.885   3.840  15.178 -3.0970 -3.6809 -0.8651
 2028SOL    HW217547   0.912   3.803  15.304  1.4470 -0.3543 -0.5015
 2029SOL     OW17548   0.964   2.602  15.933 -0.1339  0.5608 -0.1193
 2029SOL    HW117549   1.004   2.517  15.947 -0.4414  0.4582  0.1231
 2029SOL    HW217550   0.928   2.594  15.845  2.0502  1.4803 -1.0969
 2030SOL     OW17551   1.503   4.060   5.418 -0.3198 -0.6474  0.4196
 2030SOL    HW117552   1.414   4.043   5.449 -2.2178  1.1053 -4.0962
 2030SOL    HW217553   1.532   3.975   5.384  1.2035 -1.1729  3.0088
 2031SOL     OW17554   1.291   0.955   2.222  0.1924  0.6417 -0.0211
 2031SOL    HW117555   1.249   0.934   2.139  2.5816 -1.0206 -0.8262
 2031SOL    HW217556   1.365   1.005   2.186 -0.7275  1.4741 -0.7418
 2032SOL     OW17557   0.816   1.194   6.800 -0.0778 -0.0878  0.2457
 2032SOL    HW117558   0.805   1.141   6.721  3.2014  0.0678 -0.2928
 2032SOL    HW217559   0.821   1.281   6.762  1.3179  0.4755  1.7606
 2033SOL     OW17560   1.585   0.084   0.240 -0.2143 -0.1513  0.3038
 2033SOL    HW117561   1.556   0.008   0.291 -0.0185  0.7482  1.7550
 2033SOL    HW217562   1.505   0.091   0.187 -1.1377 -1.4610  1.5252
 2034SOL     OW17563   2.579   3.273   4.413  0.1208 -0.1602 -0.9187
 2034SOL    HW117564   2.627   3.190   4.411 -0.3470 -0.4995  1.8188
 2034SOL    HW217565   2.525   3.255   4.336  0.9792 -1.6922 -1.1584
 2035SOL     OW17566   0.202   4.196   6.811  0.5528 -0.3739  0.0777
 2035SOL    HW117567   0.135   4.128   6.809  0.5926 -0.4307  0.6981
 2035SOL    HW217568   0.277   4.141   6.793 -1.1445 -1.6665 -3.0440
 2036SOL     OW17569   3.424   4.042  12.835 -0.0905  0.2118  0.2405
 2036SOL    HW117570   3.438   4.110  12.900  0.7829  0.1467  0.1144
 2036SOL    HW217571   3.390   3.966  12.883  1.9896 -0.4060  0.7440
 2037SOL     OW17572   4.463   2.957  12.416  0.0085 -0.4878  0.3954
 2037SOL    HW117573   4.385   3.012  12.429 -1.5158 -2.4469 -0.4978
 2037SOL    HW217574   4.424   2.882  12.370  1.0080 -2.1203  2.2214
 2038SOL     OW17575   1.079   1.759  17.511  0.4432  0.0960 -0.2586
 2038SOL    HW117576   1.127   1.812  17.447  0.2054  2.2851  1.3841
 2038SOL    HW217577   1.144   1.738  17.578  0.2174  3.3554  0.9584
 2039SOL     OW17578   3.126   2.946   7.663  0.2871 -0.5370 -0.1503
 2039SOL    HW117579   3.133   2.907   7.750 -0.5558  1.2510  0.7230
 2039SOL    HW217580   3.063   3.017   7.680 -0.7405 -1.7803  1.2966
 2040SOL     OW17581   4.092   2.021   6.116  0.2061  0.2679  0.0992
 2040SOL    HW117582   4.114   1.965   6.041  1.9410  0.4923  0.4316
 2040SOL    HW217583   4.078   1.957   6.186  4.6486  1.1401  1.8062
 2041SOL     OW17584   4.707   3.025  14.664 -0.3327 -0.6666 -0.0383
 2041SOL    HW117585   0.020   3.009  14.579  0.2083  1.8301 -0.2659
 2041SOL    HW217586   4.620   2.984  14.664 -0.3750 -0.5823  1.9142
 2042SOL     OW17587   0.228   1.186  16.763  0.4710 -0.8840 -0.8385
 2042SOL    HW117588   0.235   1.101  16.807  2.5010  0.0415  0.6906
 2042SOL    HW217589   0.133   1.191  16.755  0.3702 -1.4654  0.0257
 2043SOL     OW17590   1.271   3.819  16.232  0.4565 -0.1635 -0.7300
 2043SOL    HW117591   1.349   3.821  16.176  0.9777 -1.9191 -0.0575
 2043SOL    HW217592   1.304   3.839  16.320  0.8344  0.9164 -1.1124
 2044SOL     OW17593   0.232   0.346  11.234  0.2548  0.2900 -0.4933
 2044SOL    HW117594   0.144   0.385  11.234  1.2273  2.4451 -0.4139
 2044SOL    HW217595   0.267   0.392  11.310  0.7268 -1.6085  0.4286
 2045SOL     OW17596   3.705   0.529   3.864  0.1357 -1.0153  0.3935
 2045SOL    HW117597   3.767   0.576   3.808 -3.3539  0.2420 -2.3860
 2045SOL    HW217598   3.634   0.529   3.799 -0.8758  1.7548  1.4878
 2046SOL     OW17599   4.119   2.238   6.465 -0.2221  0.2300  0.2855
 2046SOL    HW117600   4.051   2.282   6.515  0.3490  0.9658  0.4145
 2046SOL    HW217601   4.138   2.172   6.533 -0.5365  0.5888  0.7179
 2047SOL     OW17602   4.125   2.870  17.021 -0.1716 -0.0554  0.3958
 2047SOL    HW117603   4.134   2.787  17.067 -3.2198 -0.2270  0.6853
 2047SOL    HW217604   4.197   2.928  17.047 -0.4318  0.6915 -0.5391
 2048SOL     OW17605   2.081   1.970  16.614 -0.0776  0.2062 -0.0914
 2048SOL    HW117606   2.033   2.024  16.551  1.9069 -0.1768 -1.9306
 2048SOL    HW217607   2.169   2.007  16.613 -0.2423  0.5911 -0.2845
 2049SOL     OW17608   1.034   3.640   2.374 -0.2925 -0.2384  0.2244
 2049SOL    HW117609   1.087   3.609   2.301  1.2063 -1.3833  1.7802
 2049SOL    HW217610   0.963   3.686   2.330 -0.8788 -1.3236  0.0341
 2050SOL     OW17611   2.766   3.902   6.425  0.1531 -0.1040 -0.1445
 2050SOL    HW117612   2.841   3.882   6.481  1.2603  1.6508 -1.0032
 2050SOL    HW217613   2.729   3.981   6.464  2.1927  0.0021  1.5809
 2051SOL     OW17614   2.691   2.300   3.022 -0.2281 -0.1123 -0.7434
 2051SOL    HW117615   2.729   2.351   3.095  0.5394 -1.5423 -0.1398
 2051SOL    HW217616   2.743   2.330   2.948  0.3777 -1.2973 -0.7906
 2052SOL     OW17617   2.502   0.642   8.449  0.0386 -0.5755  0.1559
 2052SOL    HW117618   2.416   0.658   8.486  0.9879  1.3291  1.5014
 2052SOL    HW217619   2.498   0.547   8.432 -0.8323 -0.5599  0.2980
 2053SOL     OW17620   1.381   0.674   3.044 -0.3894 -0.3420  0.2220
 2053SOL    HW117621   1.442   0.714   3.106 -0.0519  0.6421 -0.7350
 2053SOL    HW217622   1.338   0.615   3.106  1.3707 -1.2991  0.5197
 2054SOL     OW17623   3.895   2.189   5.264  0.0121  0.3183 -0.1545
 2054SOL    HW117624   3.948   2.258   5.304  0.3444 -0.7699  1.2798
 2054SOL    HW217625   3.805   2.202   5.294 -0.3132 -0.7459 -0.6662
 2055SOL     OW17626   2.598   3.104   6.974  0.1524  0.1570  0.4754
 2055SOL    HW117627   2.655   3.045   7.024  0.6204  1.3505  1.3560
 2055SOL    HW217628   2.571   3.040   6.909  0.8282 -0.9309  1.2609
 2056SOL     OW17629   0.483   0.685   4.351 -0.4975 -1.0039 -0.0389
 2056SOL    HW117630   0.538   0.674   4.429  1.1875  2.1965 -0.7311
 2056SOL    HW217631   0.486   0.780   4.334  0.9622 -1.2585 -1.2079
 2057SOL     OW17632   2.991   4.580  10.481 -0.4093 -0.4394 -0.2302
 2057SOL    HW117633   2.978   4.485  10.490 -1.1173 -0.3708 -0.5309
 2057SOL    HW217634   3.060   4.593  10.545 -2.1824  0.4670  1.5168
 2058SOL     OW17635   0.729   0.281   7.337  0.2438  0.0035  0.1724
 2058SOL    HW117636   0.698   0.298   7.247  0.2906  1.3309  0.4177
 2058SOL    HW217637   0.668   0.342   7.378 -1.4825 -1.2289 -0.5273
 2059SOL     OW17638   2.569   1.471   1.986 -0.1877 -0.1085 -0.3561
 2059SOL    HW117639   2.481   1.509   1.992  0.7335  2.5414 -3.4335
 2059SOL    HW217640   2.570   1.398   2.048 -1.1909  0.4169  0.2902
 2060SOL     OW17641   4.533   4.158  16.794  0.2237  0.0424 -0.4967
 2060SOL    HW117642   4.620   4.118  16.802 -0.2077 -0.2137  2.9834
 2060SOL    HW217643   4.551   4.244  16.756 -1.2303  0.2015 -0.8224
 2061SOL     OW17644   3.601   2.319   9.285  0.1203  0.1745 -0.7131
 2061SOL    HW117645   3.694   2.294   9.281  0.1466  0.2823 -0.7803
 2061SOL    HW217646   3.563   2.284   9.205 -1.0161  1.2703 -0.6520
 2062SOL     OW17647   0.012   3.626  11.389  0.1310 -0.3533 -0.6512
 2062SOL    HW117648   4.664   3.644  11.448  1.1588 -1.1373  0.8577
 2062SOL    HW217649   0.058   3.569  11.450  2.7429  0.1514 -2.1485
 2063SOL     OW17650   2.122   4.421   8.486 -0.1926 -0.4506 -0.2950
 2063SOL    HW117651   2.138   4.361   8.559  1.4286  1.9211  1.3398
 2063SOL    HW217652   2.030   4.437   8.505 -0.3707 -0.6346 -1.0153
 2064SOL     OW17653   1.567   4.582   9.156  0.2440  0.4809  0.0255
 2064SOL    HW117654   1.498   4.543   9.102 -0.4801  0.0957  1.2480
 2064SOL    HW217655   1.644   4.551   9.109  1.0510  0.0729  1.6196
 2065SOL     OW17656   3.144   0.237   2.871  0.2564 -0.1854 -0.3335
 2065SOL    HW117657   3.053   0.232   2.901  0.1228 -0.5686 -0.8096
 2065SOL    HW217658   3.151   0.184   2.792 -2.0217  0.2988 -0.8320
 2066SOL     OW17659   4.628   1.822   4.761  0.2563  0.1364  0.2308
 2066SOL    HW117660   4.693   1.759   4.792  0.8325  0.6431  0.0442
 2066SOL    HW217661   4.549   1.768   4.759  0.9504 -0.8711  0.3483
 2067SOL     OW17662   1.074   1.664  11.255 -0.5269 -0.3835  0.2679
 2067SOL    HW117663   1.163   1.635  11.276 -0.0722 -0.9649 -2.4591
 2067SOL    HW217664   1.055   1.608  11.179 -2.7917  1.0138 -0.1983
 2068SOL     OW17665   2.931   0.036   5.880  0.3180  0.0630 -0.2051
 2068SOL    HW117666   3.012   4.724   5.847  1.4487  0.9679  1.5240
 2068SOL    HW217667   2.938   0.044   5.975  0.4108 -0.2093 -0.1882
 2069SOL     OW17668   4.339   0.206   8.377 -0.3286 -0.4982 -0.2142
 2069SOL    HW117669   4.274   0.211   8.447 -0.4965 -1.7740 -0.2790
 2069SOL    HW217670   4.297   0.171   8.299  2.7473 -2.4249 -1.0175
 2070SOL     OW17671   2.110   0.946   9.497  0.7013  0.1831 -0.3514
 2070SOL    HW117672   2.188   0.930   9.443 -1.1007  0.7816 -3.0956
 2070SOL    HW217673   2.124   1.038   9.517 -0.3861  0.5944 -1.5430
 2071SOL     OW17674   2.591   1.381  12.572 -0.0542  0.5331 -0.3628
 2071SOL    HW117675   2.520   1.434  12.608 -0.8230  0.3332 -1.5992
 2071SOL    HW217676   2.647   1.367  12.649  0.9092 -1.6949 -1.4674
 2072SOL     OW17677   0.529   4.689   3.986 -0.1341  0.1372  0.5753
 2072SOL    HW117678   0.462   4.641   4.034 -0.1233  0.8356  1.2877
 2072SOL    HW217679   0.571   4.616   3.940  1.3917  2.9212 -2.4870
 2073SOL     OW17680   1.589   2.592  14.044 -0.4005 -0.5417 -0.3044
 2073SOL    HW117681   1.498   2.575  14.066 -0.9021  2.2905 -0.2150
 2073SOL    HW217682   1.593   2.684  14.020  0.4121 -0.0306  1.7810
 2074SOL     OW17683   0.285   0.582   9.483 -0.2439 -0.3042 -0.2289
 2074SOL    HW117684   0.289   0.500   9.533 -0.7803  0.7138  1.4840
 2074SOL    HW217685   0.195   0.566   9.452 -0.2605  0.6046 -0.6515
 2075SOL     OW17686   2.996   2.666   6.000 -0.8601 -0.6550 -0.4984
 2075SOL    HW117687   3.028   2.689   6.088  1.7255 -1.5207 -1.2022
 2075SOL    HW217688   2.921   2.725   6.001  0.6282  1.1999  1.7025
 2076SOL     OW17689   4.532   0.100   1.884 -0.7240  0.7215 -0.5526
 2076SOL    HW117690   4.495   0.012   1.873 -2.1925  1.5437 -2.0192
 2076SOL    HW217691   4.529   0.141   1.798  1.8461  0.7338 -0.6404
 2077SOL     OW17692   1.857   4.703   1.467  0.2846 -0.1193 -0.7993
 2077SOL    HW117693   1.802   0.032   1.410 -0.0114 -1.3249 -1.6511
 2077SOL    HW217694   1.866   4.628   1.408  1.9322  0.7178 -1.6209
 2078SOL     OW17695   2.983   2.498  12.515 -0.7593 -0.0244 -0.4238
 2078SOL    HW117696   3.005   2.527  12.426 -1.6473 -1.5291 -1.1319
 2078SOL    HW217697   2.960   2.406  12.503  0.0895 -0.3578  0.5350
 2079SOL     OW17698   3.928   3.414   6.546 -0.1369 -0.1048  0.3658
 2079SOL    HW117699   3.856   3.469   6.515 -0.7146 -0.0785  1.7810
 2079SOL    HW217700   3.912   3.325   6.514  2.3203  0.0219 -1.2374
 2080SOL     OW17701   2.323   2.647  11.290 -0.0303  0.0634  0.2414
 2080SOL    HW117702   2.307   2.560  11.252 -0.1681 -1.0951  2.8845
 2080SOL    HW217703   2.256   2.668  11.355 -2.2302 -3.8590 -0.7028
 2081SOL     OW17704   3.505   1.582   5.369 -0.0687 -0.5006 -0.1724
 2081SOL    HW117705   3.432   1.545   5.419 -0.6180 -1.2145 -1.5166
 2081SOL    HW217706   3.478   1.672   5.350  3.1871  0.7054  0.8234
 2082SOL     OW17707   3.624   4.706   2.349 -0.9718 -0.2027 -0.6079
 2082SOL    HW117708   3.597   4.616   2.369  1.9679 -0.6196  1.4693
 2082SOL    HW217709   3.541   0.025   2.365 -0.3251  0.5329  0.7235
 2083SOL     OW17710   4.169   1.811   1.425  0.4922  0.5761  0.3156
 2083SOL    HW117711   4.188   1.875   1.357 -0.0837  0.9165  0.4774
 2083SOL    HW217712   4.249   1.817   1.476  1.0688 -0.4760 -0.4551
 2084SOL     OW17713   2.215   0.122   7.804 -0.1768  0.1281 -0.4028
 2084SOL    HW117714   2.159   0.046   7.817 -0.9776  0.5251 -1.5341
 2084SOL    HW217715   2.247   0.132   7.893 -0.3550  1.9899 -0.5382
 2085SOL     OW17716   1.551   2.688   7.366  0.0511 -0.4198 -0.9454
 2085SOL    HW117717   1.567   2.654   7.278 -0.4752 -2.5891 -0.2049
 2085SOL    HW217718   1.456   2.686   7.377  0.1557  0.8582  0.0968
 2086SOL     OW17719   4.484   1.957   8.317 -0.3850  0.2882  0.5096
 2086SOL    HW117720   4.544   2.032   8.313 -1.7805  1.4045  0.4683
 2086SOL    HW217721   4.542   1.881   8.310 -1.4895 -0.3812 -1.4176
 2087SOL     OW17722   4.645   1.517   8.256  0.2681  0.0961  0.5690
 2087SOL    HW117723   4.562   1.511   8.303 -0.0692  1.0529  0.0991
 2087SOL    HW217724   4.678   1.606   8.271  0.2616  0.0884  0.6291
 2088SOL     OW17725   3.415   1.202   5.159  0.1920 -0.5205 -0.0657
 2088SOL    HW117726   3.406   1.295   5.138 -0.3827 -0.7290 -0.7514
 2088SOL    HW217727   3.448   1.199   5.249 -0.3138 -3.3726  0.0133
 2089SOL     OW17728   3.861   0.577   2.788 -0.0704  0.0430  0.1842
 2089SOL    HW117729   3.773   0.542   2.802  1.2389 -3.4477 -0.2725
 2089SOL    HW217730   3.903   0.492   2.778 -3.3629 -1.4157 -1.1854
 2090SOL     OW17731   4.389   1.030   5.656 -0.5016 -0.1829  0.2217
 2090SOL    HW117732   4.300   1.066   5.662 -0.6386 -0.6971  1.1445
 2090SOL    HW217733   4.392   0.972   5.580 -2.1221  0.4761 -0.3483
 2091SOL     OW17734   4.101   0.352   3.964 -0.0691  0.1809  0.0196
 2091SOL    HW117735   4.166   0.414   3.932  1.9064 -0.3748  2.8417
 2091SOL    HW217736   4.142   0.329   4.048  0.9845  0.6129 -0.3858
 2092SOL     OW17737   2.242   0.107   3.872  0.0555 -0.2927 -0.1872
 2092SOL    HW117738   2.198   0.035   3.827 -1.2611 -0.6237  1.6482
 2092SOL    HW217739   2.324   0.113   3.824  0.6796  0.5131  0.9583
 2093SOL     OW17740   0.257   2.159   4.916 -0.1057  0.5659 -0.4140
 2093SOL    HW117741   0.225   2.220   4.983 -1.5086  1.7454 -2.1508
 2093SOL    HW217742   0.352   2.172   4.914  0.1678 -1.6690 -1.6202
 2094SOL     OW17743   4.159   3.221   1.968  0.5634  0.4585  0.1293
 2094SOL    HW117744   4.133   3.133   1.943  0.7196  1.2735 -2.9280
 2094SOL    HW217745   4.089   3.237   2.031 -0.2682  0.4326 -0.7914
 2095SOL     OW17746   1.911   4.424   2.864  0.0333  0.2768  0.2848
 2095SOL    HW117747   1.930   4.516   2.847 -0.3016  0.3801  0.4639
 2095SOL    HW217748   1.902   4.383   2.778  1.6442 -2.2724  1.3555
 2096SOL     OW17749   4.540   0.398   5.068  0.3154  0.0849 -0.4695
 2096SOL    HW117750   4.505   0.342   5.138  2.3567 -0.7160 -0.0584
 2096SOL    HW217751   4.537   0.483   5.111  0.0820 -0.2210  0.1259
 2097SOL     OW17752   1.989   2.989  12.463  0.0070 -0.1854 -0.7643
 2097SOL    HW117753   2.027   3.000  12.550 -1.4398 -1.9140  0.0810
 2097SOL    HW217754   1.947   3.071  12.437 -2.2228 -1.3372 -0.7826
 2098SOL     OW17755   2.922   3.303  13.000  0.4045 -0.7262 -0.6149
 2098SOL    HW117756   2.988   3.234  12.997 -0.2282 -1.3898  0.5853
 2098SOL    HW217757   2.980   3.379  13.009 -0.8780  0.3691 -1.6623
 2099SOL     OW17758   4.320   0.357  13.532 -0.1765 -0.3411 -0.1709
 2099SOL    HW117759   4.232   0.347  13.568  1.0415  0.5685  3.0688
 2099SOL    HW217760   4.360   0.270  13.529  1.8296  0.5194  1.5486
 2100SOL     OW17761   2.113   4.228  11.789  0.1409  0.2649  0.1007
 2100SOL    HW117762   2.160   4.215  11.706 -0.8271  0.5391 -0.4997
 2100SOL    HW217763   2.037   4.172  11.773  1.0289 -0.2699 -2.1930
 2101SOL     OW17764   3.091   0.939   3.978  0.6692  0.1034  0.4953
 2101SOL    HW117765   3.139   0.916   4.058  1.7762  1.8874  0.3407
 2101SOL    HW217766   3.116   0.879   3.908  0.0666 -1.5414  1.6695
 2102SOL     OW17767   3.922   4.337  10.151  0.0857 -0.1673  0.0727
 2102SOL    HW117768   3.955   4.295  10.230 -0.3251 -2.7916 -1.1411
 2102SOL    HW217769   3.999   4.386  10.123  1.9196 -1.1177  3.5020
 2103SOL     OW17770   2.430   0.879   2.031  0.7115 -0.2369 -0.4310
 2103SOL    HW117771   2.405   0.946   2.094 -3.1371  1.2190 -3.5278
 2103SOL    HW217772   2.364   0.811   2.044  0.5554  0.0488  0.2421
 2104SOL     OW17773   3.124   0.014   6.388 -0.0859 -0.6117 -0.6416
 2104SOL    HW117774   3.134   0.080   6.457  1.8479  0.1534 -1.6394
 2104SOL    HW217775   3.058   4.684   6.429 -0.4341  1.4985  1.7028
 2105SOL     OW17776   2.513   1.800   2.776  0.3200 -0.0276 -0.2830
 2105SOL    HW117777   2.449   1.870   2.763  0.8043  0.6007  0.6975
 2105SOL    HW217778   2.533   1.784   2.683  0.6229  1.4341 -0.4613
 2106SOL     OW17779   0.725   3.084   9.467 -1.0890 -0.0542  0.5894
 2106SOL    HW117780   0.777   3.016   9.511  0.8939  2.0298  1.4894
 2106SOL    HW217781   0.639   3.043   9.466 -1.8291  1.5109 -0.8760
 2107SOL     OW17782   4.090   0.758   4.168  0.1360  0.2634  0.0385
 2107SOL    HW117783   4.119   0.711   4.246 -0.7795 -0.1394  0.1340
 2107SOL    HW217784   4.170   0.763   4.115  1.2758 -1.2139  1.6160
 2108SOL     OW17785   1.975   1.648   3.221 -0.1493 -0.0602 -0.0706
 2108SOL    HW117786   1.958   1.742   3.231  0.1004  0.1933 -2.0257
 2108SOL    HW217787   1.898   1.624   3.168 -0.7458  0.4172  0.5836
 2109SOL     OW17788   3.893   1.971  14.339  0.0192 -0.0746  0.9912
 2109SOL    HW117789   3.859   2.023  14.412 -1.1837  0.3670  0.1035
 2109SOL    HW217790   3.971   1.925  14.371 -0.2093  0.2724  2.0397
 2110SOL     OW17791   4.341   3.329  11.630  0.4552  0.7514  0.5590
 2110SOL    HW117792   4.275   3.276  11.674  1.6106 -1.3412 -0.1988
 2110SOL    HW217793   4.318   3.420  11.648  1.4943  1.4150 -1.3855
 2111SOL     OW17794   1.512   2.297   7.363 -0.1711  0.3881  0.0518
 2111SOL    HW117795   1.491   2.219   7.414  0.6331  0.6061  0.7043
 2111SOL    HW217796   1.559   2.356   7.422 -2.6769 -0.3061  2.7424
 2112SOL     OW17797   3.850   2.251   7.160  0.0300 -0.1513  0.2706
 2112SOL    HW117798   3.894   2.246   7.245  0.3686  0.0351  0.1059
 2112SOL    HW217799   3.871   2.163   7.129 -1.1450 -0.5552  0.6123
 2113SOL     OW17800   4.067   2.340   8.130  0.2876 -0.2046 -0.1073
 2113SOL    HW117801   4.065   2.337   8.225 -1.8401  2.0578 -0.0694
 2113SOL    HW217802   4.154   2.376   8.113  0.8088 -1.8299 -0.8007
 2114SOL     OW17803   3.211   3.873  13.395  0.0323 -0.2338 -0.6145
 2114SOL    HW117804   3.187   3.856  13.304 -1.1939 -1.5223 -0.0678
 2114SOL    HW217805   3.271   3.803  13.420  0.2833 -0.0911 -0.8177
 2115SOL     OW17806   1.336   0.911   4.876 -0.5873 -0.2105 -0.3657
 2115SOL    HW117807   1.252   0.865   4.866 -1.1604  0.1873  2.4136
 2115SOL    HW217808   1.307   0.996   4.844  0.8416  0.5544  0.3835
 2116SOL     OW17809   3.117   0.044   7.568  0.4121  0.5162 -0.2017
 2116SOL    HW117810   3.124   4.707   7.496  0.7383 -0.5531  0.7710
 2116SOL    HW217811   3.174   0.114   7.537  0.3209 -0.0820 -1.6991
 2117SOL     OW17812   4.652   2.729   4.504  0.1587 -0.3880  0.1630
 2117SOL    HW117813   4.638   2.823   4.495  1.3182 -0.2400 -0.0373
 2117SOL    HW217814   4.603   2.703   4.426 -0.3891  1.1948 -0.0146
 2118SOL     OW17815   0.253   3.140   7.939 -0.1719  0.3234  0.0798
 2118SOL    HW117816   0.241   3.147   7.844  1.3798 -0.6688 -0.1771
 2118SOL    HW217817   0.186   3.076   7.962  1.2539 -1.0514  0.3750
 2119SOL     OW17818   1.991   3.007   3.388  0.2653  0.5425  0.0430
 2119SOL    HW117819   1.913   3.034   3.436  0.5107 -1.1269  1.3606
 2119SOL    HW217820   2.053   3.004   3.461  0.2508 -2.0285 -0.0492
 2120SOL     OW17821   3.849   1.980   3.268  0.0812  0.2418 -0.0492
 2120SOL    HW117822   3.874   2.062   3.224  1.5403  0.4293  1.1321
 2120SOL    HW217823   3.762   1.963   3.232  0.2294  1.0632 -0.8087
 2121SOL     OW17824   2.006   3.353   4.844  0.8205  0.3760  0.4596
 2121SOL    HW117825   1.911   3.368   4.846  0.3118 -2.7477  0.7065
 2121SOL    HW217826   2.043   3.407   4.774  1.7396 -1.7771 -0.7294
 2122SOL     OW17827   2.979   0.093   9.322 -0.0616 -0.1243 -0.4490
 2122SOL    HW117828   2.961   0.006   9.288  0.3817 -0.0751 -0.8034
 2122SOL    HW217829   3.066   0.079   9.360  0.6020 -1.3583 -2.4361
 2123SOL     OW17830   2.523   0.686  11.357  0.5076 -0.1993 -0.4208
 2123SOL    HW117831   2.537   0.743  11.432  1.8536 -1.7294  0.5018
 2123SOL    HW217832   2.460   0.628  11.400  0.0428 -0.5904 -1.6103
 2124SOL     OW17833   1.169   3.832   4.426  0.4777 -0.5555 -0.2932
 2124SOL    HW117834   1.238   3.843   4.491 -3.2995  1.1446  3.3951
 2124SOL    HW217835   1.198   3.884   4.351  1.3201 -0.0169  0.4099
 2125SOL     OW17836   1.309   3.514   8.829 -0.2063  0.5380 -0.5062
 2125SOL    HW117837   1.278   3.595   8.868 -0.1625 -0.3336  1.3583
 2125SOL    HW217838   1.400   3.543   8.818  0.5020 -1.1491  0.7330
 2126SOL     OW17839   4.235   3.684   2.292 -0.0696  0.1813  0.3536
 2126SOL    HW117840   4.283   3.764   2.273  0.1582  0.0351  0.3211
 2126SOL    HW217841   4.191   3.666   2.208 -2.1234  2.9724  0.8048
 2127SOL     OW17842   0.229   2.479  13.437  0.8463  0.3757  0.4046
 2127SOL    HW117843   0.169   2.527  13.379  0.0678 -0.0832  0.8187
 2127SOL    HW217844   0.310   2.526  13.422  0.0247  1.4874 -0.5590
 2128SOL     OW17845   0.415   2.665  16.484  0.0132 -0.0633  0.1629
 2128SOL    HW117846   0.386   2.639  16.396 -0.2180 -2.1834  0.8779
 2128SOL    HW217847   0.438   2.757  16.470 -0.1711  0.1874  1.5770
 2129SOL     OW17848   1.816   2.937  14.285  0.2524 -0.1187 -0.0533
 2129SOL    HW117849   1.874   2.978  14.349 -1.1090  0.3058  0.9225
 2129SOL    HW217850   1.774   2.870  14.339 -2.1725  1.2515 -0.2426
 2130SOL     OW17851   3.339   4.175   3.348  0.0168 -0.3704 -0.1513
 2130SOL    HW117852   3.293   4.229   3.413 -1.7137  0.1945 -1.8431
 2130SOL    HW217853   3.363   4.238   3.280 -0.7640  0.3332  0.2298
 2131SOL     OW17854   1.640   1.268  17.391  0.0953 -0.3872 -0.2759
 2131SOL    HW117855   1.681   1.216  17.323 -1.6914 -0.3956 -1.3349
 2131SOL    HW217856   1.549   1.257  17.364 -0.4080  0.7291  0.9509
 2132SOL     OW17857   2.856   1.871   6.268 -0.5132  0.1665 -0.4055
 2132SOL    HW117858   2.806   1.798   6.232 -0.7245 -0.8189  1.8376
 2132SOL    HW217859   2.793   1.943   6.265  0.3034  0.9242  0.5576
 2133SOL     OW17860   1.215   1.559   5.453  0.9718  0.0371  0.0287
 2133SOL    HW117861   1.121   1.540   5.455  1.3787 -1.8346  1.3716
 2133SOL    HW217862   1.204   1.650   5.483  0.7599 -0.0297  0.1559
 2134SOL     OW17863   3.005   0.649   6.210  0.1729  0.1431  0.2042
 2134SOL    HW117864   3.014   0.641   6.115 -1.4145  1.4820 -0.0554
 2134SOL    HW217865   3.026   0.742   6.219  0.8346  0.1802 -1.8662
 2135SOL     OW17866   1.414   4.613   0.430  0.3063  0.2854 -0.1240
 2135SOL    HW117867   1.380   4.554   0.363 -1.4037  1.3761 -0.2357
 2135SOL    HW217868   1.488   4.562   0.463  0.1758  1.5761  2.1430
 2136SOL     OW17869   1.743   1.877   1.431  0.1154  0.5057  0.0553
 2136SOL    HW117870   1.797   1.953   1.454  0.2635  0.2581  0.5111
 2136SOL    HW217871   1.688   1.872   1.508 -1.3639  0.5723 -1.0029
 2137SOL     OW17872   0.033   0.088   8.111  0.0546  0.3005  0.0730
 2137SOL    HW117873   0.003   0.122   8.195 -1.9754 -1.7777  0.1740
 2137SOL    HW217874   4.676   0.049   8.082  0.8739  0.8263 -3.0364
 2138SOL     OW17875   1.007   2.068   4.602  0.1106  0.4327 -0.1078
 2138SOL    HW117876   0.958   2.060   4.684  1.7165 -0.9590  0.7242
 2138SOL    HW217877   1.099   2.058   4.626  0.4361  1.9575 -0.7428
 2139SOL     OW17878   0.396   2.058   3.131  0.2907  0.1829 -0.2967
 2139SOL    HW117879   0.321   2.112   3.107 -1.1764 -2.0448 -0.7579
 2139SOL    HW217880   0.412   2.006   3.052  3.1344  0.0244  0.3739
 2140SOL     OW17881   0.412   1.396   6.553 -0.3777 -0.0221  0.3999
 2140SOL    HW117882   0.454   1.422   6.636  1.5242  1.3013 -0.9735
 2140SOL    HW217883   0.418   1.480   6.506 -1.6175 -1.0639 -1.5846
 2141SOL     OW17884   1.214   1.692   5.215  0.5024  0.0432 -0.5291
 2141SOL    HW117885   1.221   1.640   5.295  1.8606 -3.0507 -2.6261
 2141SOL    HW217886   1.226   1.624   5.148  0.7630  1.7229 -2.1922
 2142SOL     OW17887   0.476   0.879  15.974 -0.0729 -0.1266  0.1345
 2142SOL    HW117888   0.450   0.938  16.044  1.7283  0.1547  0.5613
 2142SOL    HW217889   0.408   0.901  15.911  0.9910 -0.4924 -1.1316
 2143SOL     OW17890   4.552   2.149  15.666 -0.1941  0.1993 -0.2060
 2143SOL    HW117891   4.521   2.081  15.606 -0.1072 -1.2277  1.3858
 2143SOL    HW217892   4.470   2.171  15.710 -1.1005  1.2711 -2.4227
 2144SOL     OW17893   4.633   1.407  11.504  0.0625 -0.2526 -0.3569
 2144SOL    HW117894   4.542   1.387  11.479  1.4040 -5.1105 -1.2276
 2144SOL    HW217895   4.683   1.361  11.438 -0.4041 -1.9123  0.4596
 2145SOL     OW17896   0.548   3.416  13.000  0.1367  0.7981 -0.6459
 2145SOL    HW117897   0.613   3.444  13.064 -1.0768  1.5981  0.2108
 2145SOL    HW217898   0.545   3.321  13.007  0.2555  1.1107  3.1867
 2146SOL     OW17899   4.598   0.022   3.072  0.0778  0.2439 -0.0262
 2146SOL    HW117900   4.513   4.704   3.084 -0.7260  2.1845  1.3553
 2146SOL    HW217901   4.588   0.094   3.135 -0.9483  2.2482 -2.4301
 2147SOL     OW17902   2.970   0.063   3.459 -0.2438  0.2108 -0.0545
 2147SOL    HW117903   2.916   0.084   3.382 -1.2619  0.2545  0.6764
 2147SOL    HW217904   2.938   0.118   3.530  2.0868  1.8908 -0.2722
 2148SOL     OW17905   2.029   0.864   1.641 -0.6417 -0.2480  0.4687
 2148SOL    HW117906   2.051   0.834   1.730  0.1234  1.0234  0.7047
 2148SOL    HW217907   2.059   0.787   1.592 -3.8277 -0.6985 -0.7657
 2149SOL     OW17908   2.876   2.873   2.755 -0.9152  0.1929 -0.2293
 2149SOL    HW117909   2.820   2.873   2.833 -0.4668 -0.5466  0.0866
 2149SOL    HW217910   2.897   2.780   2.753  4.7087  1.4671 -0.7105
 2150SOL     OW17911   3.097   1.463   3.510  0.6384 -0.5208  0.8845
 2150SOL    HW117912   3.055   1.507   3.435 -1.4358 -0.4859  2.0693
 2150SOL    HW217913   3.171   1.427   3.461  0.5416 -2.4495  2.2025
 2151SOL     OW17914   3.523   4.155  11.113 -0.0972 -0.2661  0.0790
 2151SOL    HW117915   3.432   4.148  11.142  0.3956  0.0716  1.7163
 2151SOL    HW217916   3.568   4.079  11.148  0.7159  0.0428 -0.2958
 2152SOL     OW17917   1.785   2.281   6.342  0.1362 -0.3169  0.1655
 2152SOL    HW117918   1.777   2.210   6.278  2.8871 -0.0308 -0.5004
 2152SOL    HW217919   1.697   2.319   6.342  0.3071  0.0866 -0.9530
 2153SOL     OW17920   2.212   0.857   0.276 -0.3703  0.1747  0.1374
 2153SOL    HW117921   2.214   0.782   0.218  0.9974  0.2463  0.1126
 2153SOL    HW217922   2.135   0.837   0.330 -0.6529  1.5079  0.2483
 2154SOL     OW17923   3.239   1.914   8.681  0.2926  0.0184  0.3242
 2154SOL    HW117924   3.329   1.883   8.693  0.0527 -0.1326  1.7106
 2154SOL    HW217925   3.210   1.863   8.605  0.9453  1.5535 -0.9590
 2155SOL     OW17926   2.898   0.338   0.733 -0.2060 -0.7388  0.1831
 2155SOL    HW117927   2.948   0.420   0.734  2.6011 -2.4698 -0.7312
 2155SOL    HW217928   2.917   0.309   0.822  1.1558 -2.4362 -0.6629
 2156SOL     OW17929   1.818   0.199   6.536 -0.9253  0.1623 -0.2057
 2156SOL    HW117930   1.821   0.104   6.534  1.5401  0.2630 -1.2002
 2156SOL    HW217931   1.787   0.204   6.446 -0.0854 -0.0117 -0.5047
 2157SOL     OW17932   4.082   2.812  10.888  0.2761 -0.3214  0.2003
 2157SOL    HW117933   4.008   2.864  10.919  3.4485  3.7010  0.9435
 2157SOL    HW217934   4.076   2.738  10.949  1.7583 -0.6790 -0.0903
 2158SOL     OW17935   4.281   3.109   1.313 -0.2386 -0.6356  0.2972
 2158SOL    HW117936   4.319   3.129   1.227  1.1698  1.7370  1.4796
 2158SOL    HW217937   4.187   3.106   1.296 -0.2107  0.8254 -0.1222
 2159SOL     OW17938   1.669   0.129   1.352 -0.4047  0.1812 -0.3031
 2159SOL    HW117939   1.708   0.210   1.320  0.2797 -0.1655 -0.3309
 2159SOL    HW217940   1.640   0.092   1.268  0.1766  0.5967 -0.6833
 2160SOL     OW17941   3.752   2.912  15.817  0.3361  0.1604 -0.6474
 2160SOL    HW117942   3.838   2.954  15.809  0.8057 -0.4949  1.0421
 2160SOL    HW217943   3.775   2.840  15.876  0.0886 -1.4560 -2.5337
 2161SOL     OW17944   1.164   2.605   0.398  0.1809  0.1561  0.3227
 2161SOL    HW117945   1.147   2.611   0.492 -1.6015 -0.3524  0.0171
 2161SOL    HW217946   1.155   2.692   0.359  3.8782  0.6106  0.4454
 2162SOL     OW17947   0.595   3.144   7.786  0.0423  0.1352 -0.2780
 2162SOL    HW117948   0.551   3.102   7.860  0.0368  0.1233 -0.2880
 2162SOL    HW217949   0.551   3.094   7.716 -3.0390  0.9846  1.0441
 2163SOL     OW17950   4.020   0.604   7.250  0.4618 -0.5796 -0.6024
 2163SOL    HW117951   3.928   0.626   7.259  0.2437 -1.8703  0.3214
 2163SOL    HW217952   4.005   0.538   7.181 -0.1847 -0.3593 -0.6677
 2164SOL     OW17953   1.224   1.257   8.092 -0.3277 -0.2338 -0.1001
 2164SOL    HW117954   1.224   1.340   8.045 -1.2524 -0.6968 -0.9417
 2164SOL    HW217955   1.133   1.227   8.091 -1.0265  1.9425 -0.3851
 2165SOL     OW17956   4.331   2.453   8.027  0.0916 -0.1047  0.0358
 2165SOL    HW117957   4.425   2.447   8.043 -0.1560 -0.7681  1.2370
 2165SOL    HW217958   4.319   2.528   7.970 -0.0665 -0.4178 -0.3454
 2166SOL     OW17959   0.317   3.226  13.248  0.2390 -0.1104  0.1083
 2166SOL    HW117960   0.297   3.297  13.308 -0.1827 -1.2443  1.3272
 2166SOL    HW217961   0.240   3.229  13.192  0.4905 -2.5300 -0.3936
 2167SOL     OW17962   0.353   2.812   4.893 -0.0429  0.1492  0.0129
 2167SOL    HW117963   0.414   2.751   4.934  1.3735  1.2336 -0.4855
 2167SOL    HW217964   0.366   2.799   4.799  0.0142  2.2126 -0.2635
 2168SOL     OW17965   1.497   1.422   3.532 -0.7094 -0.0902  0.1308
 2168SOL    HW117966   1.534   1.436   3.620  0.4457  1.4380 -0.6009
 2168SOL    HW217967   1.572   1.391   3.482  0.0222  0.5535  0.8376
 2169SOL     OW17968   3.710   0.499   2.513 -0.3939 -0.2473 -1.1556
 2169SOL    HW117969   3.683   0.519   2.602 -1.9395  1.4793 -2.0036
 2169SOL    HW217970   3.798   0.469   2.534 -0.2675  0.5594 -0.5555
 2170SOL     OW17971   2.273   3.057  14.458  0.0930  0.0730 -0.1837
 2170SOL    HW117972   2.285   2.982  14.516  0.3599 -0.3817 -0.8240
 2170SOL    HW217973   2.180   3.055  14.437  0.0290 -2.1048  0.3481
 2171SOL     OW17974   4.176   1.113  12.197  0.7093  0.1314 -0.1841
 2171SOL    HW117975   4.197   1.040  12.139 -2.5695 -1.1805  0.2527
 2171SOL    HW217976   4.128   1.169  12.136  1.2124  0.3110 -0.4147
 2172SOL     OW17977   0.855   3.760   0.813  0.3921  0.5379  0.1304
 2172SOL    HW117978   0.807   3.679   0.825 -1.2301  1.3984 -0.5473
 2172SOL    HW217979   0.833   3.812   0.890  1.4072  1.2580 -0.0569
 2173SOL     OW17980   2.120   2.239   4.923 -0.1012  0.1951  0.0864
 2173SOL    HW117981   2.150   2.273   4.839 -0.0064  1.8398  0.7805
 2173SOL    HW217982   2.184   2.169   4.939 -0.5730 -0.0172  1.0219
 2174SOL     OW17983   2.077   2.887   2.751  0.1355 -0.0763 -0.0066
 2174SOL    HW117984   2.148   2.878   2.687  0.2520  2.2885 -0.1784
 2174SOL    HW217985   2.003   2.874   2.692  0.3644 -0.8496 -0.1262
 2175SOL     OW17986   1.236   4.718  13.908  0.4983  0.3598 -0.0834
 2175SOL    HW117987   1.244   4.637  13.959 -0.6851  0.0249 -0.4223
 2175SOL    HW217988   1.189   4.684  13.833 -1.6383 -1.3143  2.0257
 2176SOL     OW17989   3.967   4.417   1.061 -0.1745  0.0134 -0.4670
 2176SOL    HW117990   3.898   4.429   0.995 -0.4358 -0.6879 -0.3224
 2176SOL    HW217991   3.977   4.323   1.076  2.9538 -0.1162 -3.2412
 2177SOL     OW17992   4.087   0.775  17.465 -0.2538  0.1965 -0.0966
 2177SOL    HW117993   4.014   0.817  17.420 -0.8534 -1.0141 -0.2590
 2177SOL    HW217994   4.048   0.708  17.520  2.3240 -0.8449  0.4917
 2178SOL     OW17995   0.366   0.876   8.227  0.6913 -0.0262 -0.9202
 2178SOL    HW117996   0.286   0.834   8.196  0.1141  0.3621  0.0337
 2178SOL    HW217997   0.338   0.956   8.271  0.7373 -0.8737  0.6629
 2179SOL     OW17998   3.195   0.483  11.910 -0.3523 -0.2283 -0.3165
 2179SOL    HW117999   3.190   0.489  12.006 -0.6666 -3.2637 -0.1438
 2179SOL    HW218000   3.232   0.569  11.891 -1.1668  0.3072  0.4989
 2180SOL     OW18001   3.449   3.786  16.916  0.2029 -0.3628 -0.0749
 2180SOL    HW118002   3.517   3.755  16.975 -0.1982 -1.4495 -0.1916
 2180SOL    HW218003   3.401   3.848  16.971 -1.0453  0.7566 -2.4018
 2181SOL     OW18004   4.332   3.951   9.147 -0.4172  0.0383 -0.1015
 2181SOL    HW118005   4.379   3.938   9.065  1.1101 -2.4693  1.1686
 2181SOL    HW218006   4.409   3.986   9.193 -0.1597 -1.1807  0.3927
 2182SOL     OW18007   3.068   4.615   5.152  0.0086 -0.2441 -0.4675
 2182SOL    HW118008   3.089   4.621   5.246 -0.4371  0.2808 -0.3997
 2182SOL    HW218009   2.972   4.614   5.151 -0.0136 -0.8768  0.9882
 2183SOL     OW18010   4.301   3.655   0.091  0.0641 -0.4762  0.1459
 2183SOL    HW118011   4.363   3.702   0.035  0.4737 -1.2440 -0.0567
 2183SOL    HW218012   4.225   3.663   0.034 -1.2505  0.0052  1.9713
 2184SOL     OW18013   2.483   4.674   0.518 -0.0757 -0.1610  0.3525
 2184SOL    HW118014   2.543   4.639   0.452  3.3292  0.6683  3.0281
 2184SOL    HW218015   2.424   4.725   0.462  1.1120 -0.4650 -1.1729
 2185SOL     OW18016   0.575   0.206   3.671  0.0417 -0.3354 -0.4059
 2185SOL    HW118017   0.603   0.249   3.752 -0.2300  0.2464 -0.6175
 2185SOL    HW218018   0.659   0.186   3.630  1.4094 -0.4101  2.4208
 2186SOL     OW18019   0.403   2.367   2.257 -0.5804 -0.6705  0.0439
 2186SOL    HW118020   0.390   2.406   2.171 -2.3760  1.1769  1.1575
 2186SOL    HW218021   0.350   2.429   2.308  0.6775 -0.4475  1.0697
 2187SOL     OW18022   0.344   1.682   3.898  0.0940 -0.4453  0.4265
 2187SOL    HW118023   0.425   1.642   3.869  0.2451  0.4040 -0.3088
 2187SOL    HW218024   0.330   1.644   3.985 -1.1326 -2.2726 -0.5530
 2188SOL     OW18025   0.382   0.663  14.141 -0.0666  0.5091 -0.1570
 2188SOL    HW118026   0.290   0.644  14.125 -0.6457  2.0413  1.3516
 2188SOL    HW218027   0.400   0.743  14.091 -1.6130 -0.4569 -2.2369
 2189SOL     OW18028   2.120   1.807   2.700 -0.5212 -0.1015 -0.3156
 2189SOL    HW118029   2.060   1.829   2.628  1.1693  1.4716 -1.2408
 2189SOL    HW218030   2.107   1.712   2.695  0.4162 -0.2899  0.7838
 2190SOL     OW18031   0.723   3.398  13.262  0.2799 -0.4177 -0.4888
 2190SOL    HW118032   0.802   3.391  13.209  1.8608  1.2084  1.6226
 2190SOL    HW218033   0.757   3.441  13.341  1.1201 -0.6673 -0.7191
 2191SOL     OW18034   3.634   2.057  15.600  0.5294 -0.3714  0.0352
 2191SOL    HW118035   3.642   1.981  15.658  1.3227  0.9734  1.6970
 2191SOL    HW218036   3.662   2.129  15.656 -0.9809  0.8922 -0.8483
 2192SOL     OW18037   3.494   2.076   5.681 -0.4351 -0.3679  0.1841
 2192SOL    HW118038   3.423   2.034   5.730  0.1957 -0.3022  1.1618
 2192SOL    HW218039   3.513   2.146   5.744  0.4672 -1.6530  1.3422
 2193SOL     OW18040   1.448   4.704   7.970 -0.0631  0.2653 -0.1576
 2193SOL    HW118041   1.442   4.713   7.875 -4.3437  0.0647  0.0827
 2193SOL    HW218042   1.539   0.003   7.986 -0.2782  1.0464 -0.1610
 2194SOL     OW18043   2.100   2.787   6.564  0.0734  0.0282 -0.2501
 2194SOL    HW118044   2.131   2.808   6.476  0.5698 -3.5057 -0.9410
 2194SOL    HW218045   2.112   2.692   6.564 -1.4582 -0.1623  0.7474
 2195SOL     OW18046   1.576   1.730   2.088  0.3467 -0.2817 -0.5279
 2195SOL    HW118047   1.554   1.822   2.074 -0.3064 -0.2659  0.5686
 2195SOL    HW218048   1.508   1.699   2.148  0.5217 -1.2582 -0.8282
 2196SOL     OW18049   3.195   2.881   9.753 -0.1695 -0.0994 -0.6775
 2196SOL    HW118050   3.234   2.881   9.841  0.3186  1.9939 -0.8796
 2196SOL    HW218051   3.269   2.892   9.694  0.1871 -0.1748 -0.2424
 2197SOL     OW18052   4.166   4.654   5.485  0.2300 -0.2082 -0.5472
 2197SOL    HW118053   4.117   4.640   5.404 -2.4698  0.9516  0.8779
 2197SOL    HW218054   4.252   4.679   5.453 -0.0138  0.2306 -0.8611
 2198SOL     OW18055   0.118   4.537   7.675  0.1925  0.3554 -0.5328
 2198SOL    HW118056   0.147   4.450   7.645  2.5521  0.7914  0.4904
 2198SOL    HW218057   0.061   4.510   7.747 -1.6969 -1.3579 -2.6647
 2199SOL     OW18058   4.046   1.951   4.197 -0.4412  0.0444  0.1746
 2199SOL    HW118059   4.094   1.961   4.115  1.2215  0.6151  1.2121
 2199SOL    HW218060   3.970   1.906   4.160 -0.0695 -1.3637  1.0940
 2200SOL     OW18061   0.455   0.605   5.027  0.0075 -0.6630  0.1788
 2200SOL    HW118062   0.464   0.667   4.954 -1.6893  1.3959  1.7234
 2200SOL    HW218063   0.454   0.658   5.106  1.6083  1.6465 -1.3385
 2201SOL     OW18064   0.525   1.316   4.139  0.5142  0.0059  0.3822
 2201SOL    HW118065   0.490   1.405   4.132 -0.4398 -0.2923  1.1825
 2201SOL    HW218066   0.578   1.326   4.218  0.3408  0.1889  0.4758
 2202SOL     OW18067   1.201   0.131   0.492 -0.2839 -0.0835 -0.5510
 2202SOL    HW118068   1.220   0.044   0.458 -0.6307 -1.2581  2.3578
 2202SOL    HW218069   1.277   0.159   0.544 -1.3269 -2.5057  2.2397
 2203SOL     OW18070   0.799   0.391   4.752 -0.4926 -0.4697  0.2743
 2203SOL    HW118071   0.801   0.328   4.679  1.1578 -0.4011  0.2723
 2203SOL    HW218072   0.780   0.338   4.830  1.4002 -0.1292  0.9611
 2204SOL     OW18073   4.517   1.667   5.703 -0.5913 -0.0246  0.4226
 2204SOL    HW118074   4.494   1.575   5.720  0.5101 -0.4622 -0.4414
 2204SOL    HW218075   4.541   1.699   5.789 -2.2445  2.9485 -0.2434
 2205SOL     OW18076   3.957   1.306   5.529  0.1407  0.1034 -0.7915
 2205SOL    HW118077   3.884   1.343   5.480 -1.5957 -1.3263  0.7347
 2205SOL    HW218078   3.982   1.385   5.577 -1.0940 -0.2538  0.4302
 2206SOL     OW18079   1.350   2.491   0.901  0.0881 -0.0209  0.3185
 2206SOL    HW118080   1.397   2.492   0.985  3.9286 -1.3777 -1.7930
 2206SOL    HW218081   1.335   2.585   0.890  1.2642  0.1107 -0.1851
 2207SOL     OW18082   4.427   3.787   5.229 -0.4912  0.0516 -0.2552
 2207SOL    HW118083   4.334   3.800   5.211 -0.2306  0.8028 -1.0670
 2207SOL    HW218084   4.437   3.804   5.323  0.2085  1.2184 -0.5381
 2208SOL     OW18085   4.099   2.798   4.028  0.0805  0.0314  0.7003
 2208SOL    HW118086   4.037   2.870   4.013  1.6288  1.2657  0.2009
 2208SOL    HW218087   4.049   2.734   4.077 -0.2802 -1.1488 -1.1999
 2209SOL     OW18088   2.788   1.824   7.870 -0.0063 -0.1080 -0.5467
 2209SOL    HW118089   2.848   1.830   7.945  1.3740 -2.3584 -1.4604
 2209SOL    HW218090   2.813   1.734   7.848  1.3673 -0.8330  3.9557
 2210SOL     OW18091   3.557   4.466   6.361  0.0110 -0.6967 -0.1063
 2210SOL    HW118092   3.598   4.528   6.421  1.7812  0.4293 -2.4317
 2210SOL    HW218093   3.544   4.406   6.434  1.2835  0.5087  1.1113
 2211SOL     OW18094   2.475   4.619  15.459 -0.1591  0.4641 -0.1682
 2211SOL    HW118095   2.569   4.616  15.478 -0.2485  0.0718  0.2141
 2211SOL    HW218096   2.469   4.619  15.363 -0.8279  0.1172 -0.1277
 2212SOL     OW18097   4.632   1.808   5.513 -0.1421 -0.2084 -0.0147
 2212SOL    HW118098   4.674   1.739   5.462 -0.7024  0.2041 -1.0305
 2212SOL    HW218099   4.586   1.747   5.571 -1.3706  0.6083 -0.1288
 2213SOL     OW18100   3.041   1.183   2.673  0.1092 -0.2002 -0.3128
 2213SOL    HW118101   2.983   1.178   2.597 -1.0152  0.3027  0.5141
 2213SOL    HW218102   3.007   1.102   2.712 -0.1456  0.2666  0.4201
 2214SOL     OW18103   3.176   4.609   5.419  0.0074 -0.1200 -0.1815
 2214SOL    HW118104   3.229   4.686   5.438 -2.1385  1.0995  0.7780
 2214SOL    HW218105   3.245   4.548   5.393  1.1085  1.0323  0.0386
 2215SOL     OW18106   3.969   2.017   2.570  0.5620  0.5358  0.5248
 2215SOL    HW118107   3.919   1.955   2.623  1.1244 -0.0917  0.3174
 2215SOL    HW218108   4.059   1.987   2.584  0.9162  0.5169 -1.8982
 2216SOL     OW18109   1.380   0.045   4.210 -0.1396  0.1197  0.3122
 2216SOL    HW118110   1.366   0.081   4.123  2.4879 -2.1388 -1.0208
 2216SOL    HW218111   1.439   4.698   4.189 -0.6972 -0.3028  0.1812
 2217SOL     OW18112   1.469   3.990   7.303  0.1455  0.2972 -0.4288
 2217SOL    HW118113   1.453   3.996   7.398 -0.7659 -0.0520 -0.5583
 2217SOL    HW218114   1.379   3.990   7.268 -0.4667  1.0671  1.1249
 2218SOL     OW18115   0.670   1.502  11.695 -1.0723 -0.6114 -0.3332
 2218SOL    HW118116   0.661   1.412  11.725  1.3914  0.0045  2.2584
 2218SOL    HW218117   0.735   1.482  11.627 -2.3101 -2.3118 -1.0118
 2219SOL     OW18118   1.323   3.212   7.462 -0.3332 -0.4997 -0.0927
 2219SOL    HW118119   1.243   3.172   7.428  0.0231 -0.0470 -1.4796
 2219SOL    HW218120   1.316   3.299   7.421  0.2601 -1.1778 -1.6109
 2220SOL     OW18121   2.568   3.116  15.413  0.1355 -0.2261  1.0481
 2220SOL    HW118122   2.523   3.043  15.370  0.7185 -1.1828  2.0556
 2220SOL    HW218123   2.660   3.116  15.385 -0.5670  1.3642 -1.2904
 2221SOL     OW18124   1.723   4.104   4.348  0.0939  0.4871  0.7399
 2221SOL    HW118125   1.762   4.121   4.434 -0.0567 -1.4851  1.2141
 2221SOL    HW218126   1.629   4.116   4.365  0.4360  0.5234  2.6005
 2222SOL     OW18127   1.762   3.889   8.545  0.5708  0.2854  0.0905
 2222SOL    HW118128   1.690   3.952   8.542 -1.7193 -2.2824  0.1250
 2222SOL    HW218129   1.727   3.812   8.590 -0.6118  1.4926  1.2273
 2223SOL     OW18130   4.237   3.196   7.412  0.6544  0.3543 -0.3607
 2223SOL    HW118131   4.193   3.281   7.408  1.3281  0.7097 -0.2205
 2223SOL    HW218132   4.227   3.172   7.320 -2.6813  1.3878 -0.2696
 2224SOL     OW18133   2.005   0.602   6.839 -0.5967 -0.0969  0.0767
 2224SOL    HW118134   2.091   0.576   6.808 -1.3434 -2.6136  0.1236
 2224SOL    HW218135   1.965   0.531   6.789  0.8200  0.0208 -1.2061
 2225SOL     OW18136   1.789   1.951   2.834  0.4176 -0.5154 -0.2975
 2225SOL    HW118137   1.705   1.969   2.791 -0.2923 -0.9993  0.8845
 2225SOL    HW218138   1.802   1.856   2.824 -0.0499 -0.4019 -1.9602
 2226SOL     OW18139   1.740   4.381   3.556 -0.0483 -0.3102  0.3466
 2226SOL    HW118140   1.799   4.456   3.565 -0.0166 -0.1129 -1.4623
 2226SOL    HW218141   1.762   4.351   3.468  0.0248 -0.8003  0.5326
 2227SOL     OW18142   1.794   2.003   4.146 -0.3163  0.1674 -0.0625
 2227SOL    HW118143   1.809   1.959   4.230  1.7566  0.2633 -0.3883
 2227SOL    HW218144   1.810   1.930   4.086  0.2921  1.9742 -2.0866
 2228SOL     OW18145   0.053   1.255  10.200  0.7651  0.1629 -0.4499
 2228SOL    HW118146   0.098   1.337  10.177 -0.8385  1.4987  1.1349
 2228SOL    HW218147   0.129   1.198  10.197  2.1855  1.9110  1.6003
 2229SOL     OW18148   2.407   1.906  14.795  0.0285 -0.3297 -0.2152
 2229SOL    HW118149   2.459   1.900  14.875  0.0899 -0.3290 -0.2551
 2229SOL    HW218150   2.416   1.815  14.765 -0.4670 -0.0750 -1.1049
 2230SOL     OW18151   2.747   2.579   7.679 -0.4302  0.0068  0.6575
 2230SOL    HW118152   2.762   2.673   7.663  1.6720 -0.3874  0.3669
 2230SOL    HW218153   2.681   2.584   7.749 -1.3390  1.2279 -0.2738
 2231SOL     OW18154   3.362   3.075   4.491 -0.5915 -0.2654 -0.6260
 2231SOL    HW118155   3.365   2.992   4.538  1.1334 -0.7354 -1.5988
 2231SOL    HW218156   3.452   3.107   4.500 -1.6763  2.9488 -0.9875
 2232SOL     OW18157   0.197   2.070   4.094  0.1425 -0.5335 -0.7292
 2232SOL    HW118158   0.197   2.032   4.182  2.0689  1.9873  0.3667
 2232SOL    HW218159   0.239   2.003   4.040  1.1078 -2.3058  2.1979
 2233SOL     OW18160   4.678   3.218   0.029 -0.1894 -0.9152  0.0694
 2233SOL    HW118161   4.684   3.127   0.058  1.9940 -0.8999 -0.3085
 2233SOL    HW218162   4.630   3.254   0.104 -0.4522  0.3498 -0.7044
 2234SOL     OW18163   3.541   1.257  11.349  0.0667  0.6079  0.4217
 2234SOL    HW118164   3.541   1.338  11.399 -2.2537  0.6090  0.4554
 2234SOL    HW218165   3.635   1.250  11.332  0.4416  2.8215  1.6502
 2235SOL     OW18166   0.837   0.881   8.154  0.3564 -0.4584 -0.5001
 2235SOL    HW118167   0.847   0.786   8.160  2.4071 -0.1583  0.7280
 2235SOL    HW218168   0.926   0.916   8.148  0.3228 -0.5084 -1.4250
 2236SOL     OW18169   2.225   4.610   3.306  0.1670  0.4503 -0.4599
 2236SOL    HW118170   2.178   4.587   3.226 -0.3378 -0.1514  0.0121
 2236SOL    HW218171   2.180   4.684   3.346 -0.9992 -0.2395 -0.4983
 2237SOL     OW18172   2.085   1.451  15.877 -0.4590  0.4384 -0.3029
 2237SOL    HW118173   2.157   1.487  15.826  1.0478  0.4504  1.7917
 2237SOL    HW218174   2.055   1.529  15.922 -0.0241  0.4349  0.0033
 2238SOL     OW18175   2.686   4.585   0.351  0.6853  0.0931  0.2207
 2238SOL    HW118176   2.689   4.571   0.256  1.7175  1.6837  0.0205
 2238SOL    HW218177   2.769   4.631   0.356  1.3557 -1.1685  0.6325
 2239SOL     OW18178   3.592   4.550   1.621  0.2679  0.4219 -0.1278
 2239SOL    HW118179   3.615   4.641   1.641 -0.5573  0.9100 -1.3451
 2239SOL    HW218180   3.518   4.534   1.679  0.4092 -0.6112 -0.2314
 2240SOL     OW18181   3.484   2.809   2.845 -0.5596  0.0458  0.2020
 2240SOL    HW118182   3.451   2.719   2.842  1.8445 -0.7142 -3.9281
 2240SOL    HW218183   3.421   2.866   2.801  1.2845  0.9336 -1.3066
 2241SOL     OW18184   0.632   0.635   3.737  0.0098  0.4998  0.0664
 2241SOL    HW118185   0.684   0.623   3.817  0.0996  0.4815  0.0049
 2241SOL    HW218186   0.600   0.724   3.751 -0.7477  0.3041 -0.4055
 2242SOL     OW18187   1.197   0.761  16.895  0.1710 -0.0664 -0.5417
 2242SOL    HW118188   1.197   0.846  16.938 -1.8140 -1.2940  1.9381
 2242SOL    HW218189   1.125   0.723  16.946 -0.1854  1.2077 -0.1004
 2243SOL     OW18190   0.336   2.303   8.370  0.1391  0.3570  0.2842
 2243SOL    HW118191   0.397   2.264   8.432  2.4229  1.0913 -1.4962
 2243SOL    HW218192   0.319   2.234   8.307  0.7851  1.5300 -1.1736
 2244SOL     OW18193   2.637   0.740  16.365  0.2412 -0.0483  0.2308
 2244SOL    HW118194   2.657   0.730  16.272 -0.8540  1.5210 -0.1728
 2244SOL    HW218195   2.684   0.821  16.385  0.9566 -0.5372  0.5632
 2245SOL     OW18196   3.237   3.620  11.673 -0.9194 -0.1180 -0.4618
 2245SOL    HW118197   3.224   3.651  11.584 -2.8029 -2.5449 -1.0481
 2245SOL    HW218198   3.155   3.655  11.709 -0.5903 -2.2532  2.3435
 2246SOL     OW18199   2.467   4.044   5.969  0.1541  0.0791  0.2529
 2246SOL    HW118200   2.535   4.055   6.036  0.1234  1.5648  0.0413
 2246SOL    HW218201   2.413   3.982   6.018  0.9346  0.9655  2.2355
 2247SOL     OW18202   1.765   1.649   2.549  0.2771  0.2095  0.0730
 2247SOL    HW118203   1.852   1.680   2.524  1.4586 -4.0862 -1.0689
 2247SOL    HW218204   1.789   1.596   2.624  2.2073  0.6294 -0.2628
 2248SOL     OW18205   2.411   1.163   9.235  0.0794 -0.9946  0.3172
 2248SOL    HW118206   2.406   1.153   9.140 -0.3666  1.4121  0.1017
 2248SOL    HW218207   2.416   1.258   9.240  0.6552 -0.9961 -0.1998
 2249SOL     OW18208   2.982   1.901   1.267 -0.3345  0.1138  0.5205
 2249SOL    HW118209   3.008   1.991   1.251 -0.3138  0.2737  1.4302
 2249SOL    HW218210   2.966   1.906   1.361  0.2456  1.5307  0.5327
 2250SOL     OW18211   3.234   2.896   3.961  0.9327  0.3396 -0.2162
 2250SOL    HW118212   3.242   2.804   3.987  1.5157  1.1909  2.6673
 2250SOL    HW218213   3.149   2.921   3.996  0.7278  0.2749 -0.6642
 2251SOL     OW18214   2.825   0.921  15.749 -0.0152  0.3079 -0.0968
 2251SOL    HW118215   2.880   0.915  15.671 -0.5057  1.3029 -0.5175
 2251SOL    HW218216   2.756   0.978  15.714  0.6074  1.0100 -0.1725
 2252SOL     OW18217   1.407   2.791  16.688 -0.0368 -0.3574  0.1968
 2252SOL    HW118218   1.373   2.820  16.603  0.7389 -1.7151 -0.5722
 2252SOL    HW218219   1.500   2.812  16.678  0.0414 -1.3049 -1.1562
 2253SOL     OW18220   3.498   3.249   8.292 -0.5200 -0.1590  0.6976
 2253SOL    HW118221   3.575   3.236   8.347 -0.2961  0.6358  0.5639
 2253SOL    HW218222   3.469   3.336   8.318 -1.2306  0.0442 -0.8089
 2254SOL     OW18223   4.603   2.638   6.737 -0.6865  0.4393 -0.4558
 2254SOL    HW118224   4.628   2.616   6.827 -0.5111 -0.7054 -0.7796
 2254SOL    HW218225   4.594   2.550   6.700 -2.1348  0.9285 -1.2728
 2255SOL     OW18226   3.678   2.824   4.199 -0.4963  0.2361  0.1468
 2255SOL    HW118227   3.622   2.818   4.122 -2.6160 -2.4148  1.8828
 2255SOL    HW218228   3.686   2.731   4.223 -0.6043 -0.1728 -1.3807
 2256SOL     OW18229   0.054   2.174  15.798 -0.1309 -0.2576  0.0683
 2256SOL    HW118230   0.003   2.137  15.869 -0.3946  0.9657  0.5101
 2256SOL    HW218231   4.711   2.174  15.731 -0.8895 -1.8127  0.8630
 2257SOL     OW18232   4.495   0.102   9.082  0.2680 -0.4655 -0.4000
 2257SOL    HW118233   4.543   0.101   8.999  0.9287 -0.6188 -0.0209
 2257SOL    HW218234   4.439   0.178   9.069  2.6384  1.2253 -0.7938
 2258SOL     OW18235   0.361   3.780   2.925  0.4532 -0.0604  0.0819
 2258SOL    HW118236   0.344   3.716   2.856 -4.1479  1.9667 -0.6537
 2258SOL    HW218237   0.448   3.810   2.899  0.1145 -0.6793 -1.7573
 2259SOL     OW18238   4.032   1.858   1.688  0.0328  0.2420 -0.2706
 2259SOL    HW118239   4.015   1.952   1.679  0.4678  0.1343 -2.2135
 2259SOL    HW218240   4.109   1.863   1.632  0.8949 -2.3285  0.7106
 2260SOL     OW18241   4.427   3.600   4.744  0.1662  0.0715  0.1943
 2260SOL    HW118242   4.482   3.667   4.783 -0.6977  0.2029  1.1706
 2260SOL    HW218243   4.500   3.546   4.712  0.0733 -0.1047  0.2821
 2261SOL     OW18244   4.678   1.590  12.056 -0.7694 -0.0122 -0.0412
 2261SOL    HW118245   0.047   1.597  12.042 -0.8469 -1.3257 -1.1828
 2261SOL    HW218246   4.686   1.548  12.142 -1.9397 -2.2939 -1.0516
 2262SOL     OW18247   3.147   0.126   7.870  0.6777 -0.2647 -0.2452
 2262SOL    HW118248   3.149   0.129   7.774 -0.7021  0.5705 -0.2448
 2262SOL    HW218249   3.099   0.045   7.887  0.5832 -0.0835  0.3609
 2263SOL     OW18250   2.084   2.653  16.898 -0.1963 -0.1415  0.3979
 2263SOL    HW118251   1.991   2.630  16.901  0.4255 -2.8561 -1.1239
 2263SOL    HW218252   2.098   2.705  16.977  0.7888 -1.5788  1.1788
 2264SOL     OW18253   0.429   4.684  14.925 -0.0902 -0.5094  0.2466
 2264SOL    HW118254   0.337   4.656  14.929 -0.8528  2.2123  2.0749
 2264SOL    HW218255   0.448   4.695  14.832  1.2069  0.0925  0.5803
 2265SOL     OW18256   4.024   1.283   3.455 -0.3008 -0.1026  0.2013
 2265SOL    HW118257   4.022   1.350   3.524  0.0735  0.9342 -0.7814
 2265SOL    HW218258   4.071   1.221   3.511 -3.3298 -1.6566  0.9910
 2266SOL     OW18259   1.727   0.564   9.573  0.4624  0.0693  0.1296
 2266SOL    HW118260   1.637   0.552   9.544  0.2987  2.2335 -0.2578
 2266SOL    HW218261   1.724   0.655   9.605  0.7599  1.7492 -4.6286
 2267SOL     OW18262   0.079   2.907  10.326  0.2784  0.3313 -0.4071
 2267SOL    HW118263   0.080   2.917  10.231  0.9647 -0.3821 -0.4795
 2267SOL    HW218264   0.024   2.981  10.353 -0.4506 -0.2748 -0.2551
 2268SOL     OW18265   1.097   0.878   8.719 -0.3997  0.1549  0.3304
 2268SOL    HW118266   1.149   0.899   8.797 -3.0103 -0.4220  2.2016
 2268SOL    HW218267   1.145   0.799   8.695 -0.4428 -0.0088  0.7709
 2269SOL     OW18268   3.309   3.262   6.465 -0.4824 -0.4234 -0.1601
 2269SOL    HW118269   3.353   3.346   6.477 -1.8164  0.1547  0.7747
 2269SOL    HW218270   3.259   3.291   6.389 -0.8367  0.3524  0.3691
 2270SOL     OW18271   0.304   0.880   7.556  0.2825 -0.1855 -0.5609
 2270SOL    HW118272   0.389   0.844   7.582  1.2360  1.6003 -1.1773
 2270SOL    HW218273   0.305   0.884   7.460  2.4723 -2.2085 -0.6448
 2271SOL     OW18274   1.883   0.871  16.806  0.4798 -0.4810  0.4758
 2271SOL    HW118275   1.910   0.891  16.716  0.8256 -1.1111  0.4422
 2271SOL    HW218276   1.868   0.958  16.843 -1.9392 -0.0033 -1.5621
 2272SOL     OW18277   4.100   4.009   2.068 -0.2890 -0.4736 -0.5288
 2272SOL    HW118278   4.021   4.041   2.111 -0.7840 -0.1356 -1.6910
 2272SOL    HW218279   4.083   4.030   1.976 -0.1028  0.3955 -0.3626
 2273SOL     OW18280   1.948   0.102  10.553  0.1502  0.1828 -0.7229
 2273SOL    HW118281   1.935   0.153  10.633  0.3318 -0.4590 -0.2859
 2273SOL    HW218282   2.042   0.088  10.546 -0.2398 -2.6005 -0.1789
 2274SOL     OW18283   3.424   3.866   8.340 -0.5054  0.5088 -0.3973
 2274SOL    HW118284   3.353   3.927   8.319 -0.0749  0.7859 -1.0455
 2274SOL    HW218285   3.428   3.886   8.434  2.1344  0.3122 -0.4591
 2275SOL     OW18286   0.881   1.978  14.870 -0.3481  0.4241  0.1226
 2275SOL    HW118287   0.965   1.937  14.889 -0.4374 -0.4094 -1.3141
 2275SOL    HW218288   0.866   2.016  14.957 -0.8561 -2.2375  1.2046
 2276SOL     OW18289   3.112   4.434  13.622  0.6168 -0.0923 -0.0602
 2276SOL    HW118290   3.204   4.447  13.600  0.7151 -0.8326 -0.1030
 2276SOL    HW218291   3.072   4.520  13.613  2.0281  0.6874  1.0109
 2277SOL     OW18292   1.854   3.051   6.590  0.8326  0.8213  0.1596
 2277SOL    HW118293   1.830   3.009   6.673 -0.7931  2.6509  0.6171
 2277SOL    HW218294   1.870   3.141   6.619 -2.5705  1.5629 -0.2850
 2278SOL     OW18295   2.372   2.060  11.425  0.3124  0.2375  0.3309
 2278SOL    HW118296   2.424   1.998  11.475 -1.2453 -1.8042 -0.5885
 2278SOL    HW218297   2.352   2.119  11.498 -2.6976 -0.2085 -0.1160
 2279SOL     OW18298   3.530   1.627   2.072 -0.2659 -0.0438 -0.3144
 2279SOL    HW118299   3.614   1.660   2.042 -1.1171 -0.1901 -2.8703
 2279SOL    HW218300   3.517   1.675   2.154 -2.7488 -2.3965  0.6626
 2280SOL     OW18301   2.375   1.857   6.240  0.1032  0.3538  0.1737
 2280SOL    HW118302   2.355   1.937   6.192 -1.1746  0.7823  1.4169
 2280SOL    HW218303   2.399   1.891   6.326 -0.6297  0.0202  0.5117
 2281SOL     OW18304   3.701   1.542   6.672  0.1901  0.0407  0.2946
 2281SOL    HW118305   3.620   1.592   6.685 -0.2554 -0.8590  0.9935
 2281SOL    HW218306   3.755   1.602   6.621  0.4372 -1.3541 -1.0834
 2282SOL     OW18307   4.435   3.996   5.022  0.1857  0.4940 -0.3071
 2282SOL    HW118308   4.349   4.038   5.018  0.3999  1.2969  3.0916
 2282SOL    HW218309   4.467   4.026   5.107 -0.4801  0.2012  0.0470
 2283SOL     OW18310   3.267   2.241   8.468  0.2153  0.0853 -0.5847
 2283SOL    HW118311   3.299   2.156   8.438  3.5687  1.3569 -0.5773
 2283SOL    HW218312   3.345   2.285   8.499 -1.1575  2.8301 -0.9918
 2284SOL     OW18313   3.912   3.523   8.306 -0.7539  0.0846 -0.5641
 2284SOL    HW118314   3.995   3.483   8.334 -1.5427 -0.2056  1.3626
 2284SOL    HW218315   3.878   3.448   8.256 -1.1115  0.2006 -0.4956
 2285SOL     OW18316   0.404   4.164  15.057 -0.7211  0.1540  0.2361
 2285SOL    HW118317   0.454   4.121  14.988  0.2460  1.5008  0.0889
 2285SOL    HW218318   0.391   4.251  15.018 -1.0365  0.2443  0.5453
 2286SOL     OW18319   1.076   3.402   0.547 -0.3355  0.4196  0.6211
 2286SOL    HW118320   1.034   3.451   0.618 -2.8277 -0.9168  0.0749
 2286SOL    HW218321   1.129   3.473   0.511  2.0261 -2.0242 -0.7289
 2287SOL     OW18322   3.746   1.882   7.901 -0.3229 -0.3244  0.7300
 2287SOL    HW118323   3.809   1.872   7.830  0.5813  0.3299  1.4415
 2287SOL    HW218324   3.795   1.857   7.979  1.7957 -1.0897 -0.8729
 2288SOL     OW18325   1.920   0.076  15.072  0.0462  0.1174 -0.7502
 2288SOL    HW118326   1.967   0.004  15.030  0.5076 -0.4652  0.7275
 2288SOL    HW218327   1.830   0.043  15.065 -0.5129  1.4053  0.3347
 2289SOL     OW18328   1.574   2.331   9.412  0.3321  0.6004 -0.1917
 2289SOL    HW118329   1.605   2.415   9.378  0.9571  0.4491  0.0029
 2289SOL    HW218330   1.602   2.275   9.340 -0.3301  2.4367 -1.8835
 2290SOL     OW18331   3.704   4.101   8.527 -0.0566 -0.2784 -0.0169
 2290SOL    HW118332   3.763   4.115   8.453 -2.0594  3.7844 -0.8515
 2290SOL    HW218333   3.769   4.088   8.597 -0.6410  2.4110  1.0345
 2291SOL     OW18334   0.024   3.177   8.171  0.5560 -0.0360  0.3654
 2291SOL    HW118335   0.089   3.195   8.239  1.0541  4.2521 -1.2309
 2291SOL    HW218336   4.716   3.262   8.144 -0.1141 -1.6161 -3.7154
 2292SOL     OW18337   2.662   3.860   5.515 -0.2266 -0.0676 -0.0330
 2292SOL    HW118338   2.730   3.886   5.577  0.9640  0.0547 -1.4177
 2292SOL    HW218339   2.689   3.770   5.501  0.5827  0.4724 -1.8500
 2293SOL     OW18340   0.638   4.037   5.964  0.4408 -0.4038  0.1624
 2293SOL    HW118341   0.716   4.040   5.908  2.0555 -0.7130  2.3769
 2293SOL    HW218342   0.662   4.102   6.030  1.0077 -0.1179 -0.3270
 2294SOL     OW18343   1.407   3.125   5.698 -0.0505  0.0171  0.1810
 2294SOL    HW118344   1.324   3.163   5.667  0.7048  0.3931 -1.3877
 2294SOL    HW218345   1.467   3.191   5.663  2.0496 -0.6297  2.6195
 2295SOL     OW18346   1.098   1.096   7.421 -0.2588 -0.4949 -0.4046
 2295SOL    HW118347   1.123   1.048   7.500  0.2519  2.1441  1.0366
 2295SOL    HW218348   1.029   1.149   7.461  0.0681  0.7871 -1.5338
 2296SOL     OW18349   1.244   0.272   8.387  0.6284  0.5917  0.0709
 2296SOL    HW118350   1.201   0.292   8.304  1.7260  1.6730 -0.2291
 2296SOL    HW218351   1.244   0.177   8.389  2.5508  0.5823 -1.3735
 2297SOL     OW18352   4.272   3.687   0.366 -0.0078  0.2254  0.0678
 2297SOL    HW118353   4.180   3.658   0.369  0.3693 -0.9398  0.4735
 2297SOL    HW218354   4.289   3.670   0.274 -3.1570  0.8968 -0.6620
 2298SOL     OW18355   3.466   1.769   2.298  0.3272 -0.4018 -0.4413
 2298SOL    HW118356   3.425   1.707   2.358  1.5876  0.7407  1.5992
 2298SOL    HW218357   3.534   1.811   2.350 -2.8948  2.1362  1.7519
 2299SOL     OW18358   1.777   0.334   3.492  0.1364  0.0778 -0.1797
 2299SOL    HW118359   1.809   0.418   3.523  0.8592 -0.6844  1.1548
 2299SOL    HW218360   1.835   0.275   3.540 -0.2602  0.3089  0.5721
 2300SOL     OW18361   4.588   0.688   7.610 -0.0262  0.2282 -0.1911
 2300SOL    HW118362   4.568   0.600   7.576  1.5699  0.5944 -2.1125
 2300SOL    HW218363   4.609   0.670   7.702 -0.5141 -0.4765 -0.2155
 2301SOL     OW18364   3.830   4.086   0.728  0.9056  0.0705 -0.2319
 2301SOL    HW118365   3.773   4.013   0.752  0.4034  0.2317 -0.9332
 2301SOL    HW218366   3.767   4.158   0.730 -0.7194 -1.3076 -1.2395
 2302SOL     OW18367   2.105   3.317   3.453  0.5192  0.0908 -0.2909
 2302SOL    HW118368   2.181   3.374   3.442  2.0725 -1.5772  1.7828
 2302SOL    HW218369   2.073   3.319   3.363 -0.4770 -2.0979  0.0122
 2303SOL     OW18370   1.919   4.718  13.569 -0.3446 -0.0632  0.2686
 2303SOL    HW118371   2.012   4.709  13.551  0.0312  3.5342  0.4259
 2303SOL    HW218372   1.879   4.703  13.483 -1.2022  1.2797  0.4253
 2304SOL     OW18373   3.054   2.622   7.150  1.0765 -0.1056 -0.1273
 2304SOL    HW118374   2.963   2.652   7.150  0.4357 -2.0392  1.9412
 2304SOL    HW218375   3.098   2.701   7.182 -1.5128  0.5203  1.9574
 2305SOL     OW18376   4.157   0.530   5.055 -0.1774  0.0126  0.3621
 2305SOL    HW118377   4.148   0.449   5.106  1.0879 -0.1841  0.2558
 2305SOL    HW218378   4.065   0.535   5.027  0.3762 -1.5625 -1.7840
 2306SOL     OW18379   2.450   3.635   9.021  0.2809  0.8064  0.5926
 2306SOL    HW118380   2.371   3.642   9.074  1.2535  1.3307  1.9693
 2306SOL    HW218381   2.477   3.549   9.053 -1.0449 -0.4562 -1.5853
 2307SOL     OW18382   0.197   4.598   9.730 -0.3278  0.3699 -0.1526
 2307SOL    HW118383   0.210   4.674   9.787 -2.2965 -0.4652  1.4324
 2307SOL    HW218384   0.152   4.644   9.659  0.9505 -0.6819 -1.6524
 2308SOL     OW18385   1.043   3.495   5.235 -0.5405 -0.3277 -0.2001
 2308SOL    HW118386   0.953   3.495   5.202  0.0159 -0.3208 -1.7301
 2308SOL    HW218387   1.084   3.566   5.185 -1.7378  1.1434  0.9225
 2309SOL     OW18388   3.990   3.567  11.091 -0.1749 -0.4287  0.0467
 2309SOL    HW118389   3.986   3.497  11.025  0.2191 -0.6255  0.2329
 2309SOL    HW218390   3.902   3.605  11.078 -0.2126 -0.2340  0.8865
 2310SOL     OW18391   4.586   0.102  13.325  0.1536 -0.2085  0.3017
 2310SOL    HW118392   4.491   0.118  13.319 -0.1446 -2.4329 -0.9741
 2310SOL    HW218393   4.625   0.178  13.284 -0.1619  0.0057  0.3955
 2311SOL     OW18394   3.227   0.839  11.540 -0.2482  0.2153 -0.2020
 2311SOL    HW118395   3.143   0.831  11.585  0.2961 -0.0798  0.7708
 2311SOL    HW218396   3.291   0.863  11.608  2.1107  0.5576 -2.5731
 2312SOL     OW18397   3.694   4.057   4.231 -0.8189 -0.2848 -0.4221
 2312SOL    HW118398   3.673   4.148   4.209 -0.6833 -0.0079  0.6294
 2312SOL    HW218399   3.613   4.013   4.205 -0.1573 -1.6342 -0.1704
 2313SOL     OW18400   0.726   1.968  11.551  0.0743  0.1199 -0.0485
 2313SOL    HW118401   0.732   1.993  11.459  0.4909 -1.4232 -0.4381
 2313SOL    HW218402   0.665   2.032  11.587  1.9615  0.9565  1.6788
 2314SOL     OW18403   4.687   3.905   4.101  0.2818  0.1423 -0.5361
 2314SOL    HW118404   4.703   3.968   4.171  2.8561  0.1662 -1.1639
 2314SOL    HW218405   0.034   3.846   4.118  1.4197  2.2476  1.8355
 2315SOL     OW18406   1.439   1.968   4.239 -0.3274  0.6773  0.2350
 2315SOL    HW118407   1.352   1.947   4.273  0.5692 -1.0619  1.4747
 2315SOL    HW218408   1.474   2.040   4.291  1.4762 -1.4531  1.9995
 2316SOL     OW18409   1.872   2.530   4.996 -0.2535 -0.9268  0.2744
 2316SOL    HW118410   1.819   2.606   5.021 -0.4800 -0.4002 -1.8384
 2316SOL    HW218411   1.807   2.466   4.968 -0.8854  0.8620 -2.3185
 2317SOL     OW18412   0.791   0.263   4.984 -0.9711  0.3067 -0.2320
 2317SOL    HW118413   0.795   0.186   5.041  1.1393  0.5916  0.0217
 2317SOL    HW218414   0.763   0.333   5.043  1.4162  2.1300 -1.2534
 2318SOL     OW18415   0.455   0.765  11.382 -0.4414  0.5116  0.6778
 2318SOL    HW118416   0.390   0.815  11.430 -0.2361 -1.0404  2.5390
 2318SOL    HW218417   0.504   0.731  11.456  1.8914  0.6120 -0.7974
 2319SOL     OW18418   1.785   4.209  11.304  0.0796  0.3545  0.3268
 2319SOL    HW118419   1.835   4.249  11.375  0.5693 -0.9826  0.7471
 2319SOL    HW218420   1.796   4.115  11.321 -0.2339  0.2887  0.1637
 2320SOL     OW18421   0.999   0.060   4.804 -0.7074 -0.6694  0.1185
 2320SOL    HW118422   0.977   4.694   4.824 -0.2648 -0.6591  0.6548
 2320SOL    HW218423   0.931   0.086   4.741  0.6113 -0.1870 -1.0841
 2321SOL     OW18424   0.657   0.448   5.717  0.1188  0.2508  0.0259
 2321SOL    HW118425   0.603   0.380   5.758  0.0109  1.0087  1.1449
 2321SOL    HW218426   0.617   0.529   5.750  3.2216  1.7606  0.1150
 2322SOL     OW18427   3.404   4.655  11.847 -0.6548  0.1515  0.6053
 2322SOL    HW118428   3.426   4.599  11.773  1.2947  0.2981  1.0843
 2322SOL    HW218429   3.390   0.013  11.801  1.0401 -0.1011 -0.3530
 2323SOL     OW18430   0.903   0.350   3.746 -0.1196  0.3595  0.4074
 2323SOL    HW118431   0.837   0.334   3.813  2.4946 -1.0242  2.6789
 2323SOL    HW218432   0.944   0.432   3.773 -1.1823  0.2737  2.2369
 2324SOL     OW18433   1.079   0.646  14.233  0.0028  0.3462 -0.3502
 2324SOL    HW118434   1.124   0.584  14.176  0.9585  0.7156  0.0040
 2324SOL    HW218435   0.990   0.625  14.205 -0.2059 -2.0164  2.0809
 2325SOL     OW18436   1.520   4.030   7.583 -0.4264  0.3241 -0.2656
 2325SOL    HW118437   1.514   4.066   7.672 -1.3397 -1.3863  0.3652
 2325SOL    HW218438   1.612   4.033   7.560 -0.5988  2.2765 -0.6971
 2326SOL     OW18439   4.409   3.602   6.230  0.1096  0.4610 -0.6142
 2326SOL    HW118440   4.373   3.652   6.303  0.5195  1.4379 -1.0682
 2326SOL    HW218441   4.433   3.532   6.289 -0.6214  0.9888  0.3110
 2327SOL     OW18442   0.747   2.079  10.416 -0.0070  0.0738 -0.8198
 2327SOL    HW118443   0.702   2.010  10.368  1.8641 -0.9009 -1.1814
 2327SOL    HW218444   0.790   2.022  10.481 -1.9780 -1.2139 -0.6316
 2328SOL     OW18445   1.436   2.189   6.597  0.7539  0.1164  0.0544
 2328SOL    HW118446   1.508   2.159   6.653  0.4252 -0.8001 -0.0263
 2328SOL    HW218447   1.375   2.120   6.622  0.8921  0.0720  0.2747
 2329SOL     OW18448   2.410   1.510  12.760 -0.1646 -0.2069  0.4507
 2329SOL    HW118449   2.366   1.595  12.764  0.7740  0.3556 -1.4275
 2329SOL    HW218450   2.485   1.532  12.815 -0.6939  0.3010  0.9717
 2330SOL     OW18451   1.278   0.534  12.080  0.4921  0.1529  0.3634
 2330SOL    HW118452   1.266   0.611  12.023  0.4348  0.9366  1.4303
 2330SOL    HW218453   1.226   0.464  12.041 -0.2738  1.1741 -0.4596
 2331SOL     OW18454   2.434   3.378  13.197  0.7424 -0.4239 -0.1719
 2331SOL    HW118455   2.519   3.360  13.236  1.3636  0.2149 -1.2237
 2331SOL    HW218456   2.414   3.454  13.250 -2.5323 -1.7012  0.4438
 2332SOL     OW18457   1.208   1.994   1.851 -0.5517  0.1781 -0.7483
 2332SOL    HW118458   1.137   1.959   1.798  0.4555 -0.6793 -1.5170
 2332SOL    HW218459   1.283   1.947   1.816 -0.4416 -0.0311 -0.2362
 2333SOL     OW18460   1.831   0.393   0.378  0.3155  0.0499 -0.2642
 2333SOL    HW118461   1.741   0.371   0.404 -0.2727 -1.9268 -4.0665
 2333SOL    HW218462   1.816   0.462   0.313  0.5826  0.6922  0.3434
 2334SOL     OW18463   0.487   0.829   4.792 -0.1726 -0.0159  0.8566
 2334SOL    HW118464   0.561   0.888   4.778 -0.8381  0.7013  0.4253
 2334SOL    HW218465   0.513   0.758   4.733  2.1954  0.9677  0.7118
 2335SOL     OW18466   1.975   0.870   3.859  0.7117  0.0214  0.3834
 2335SOL    HW118467   2.045   0.824   3.813 -0.3734 -1.9441  0.7213
 2335SOL    HW218468   1.992   0.853   3.952  0.6583 -0.8194  0.2314
 2336SOL     OW18469   0.741   2.162   6.385  0.4656  0.6262  0.1487
 2336SOL    HW118470   0.815   2.213   6.350 -1.1117  1.8534 -1.3763
 2336SOL    HW218471   0.693   2.144   6.304  2.3791  1.5719 -1.1948
 2337SOL     OW18472   0.495   1.793   4.625 -0.4597  0.6608  0.0579
 2337SOL    HW118473   0.495   1.838   4.709 -0.6818  1.2077 -0.2379
 2337SOL    HW218474   0.422   1.731   4.634  0.0517  0.2312  1.1770
 2338SOL     OW18475   4.467   1.077  16.037  0.2053 -0.0419 -0.3117
 2338SOL    HW118476   4.495   1.118  16.119 -1.7256 -1.3805  0.9852
 2338SOL    HW218477   4.515   1.137  15.979 -0.8890  1.6703  0.5390
 2339SOL     OW18478   4.435   3.106   8.474 -0.4820  0.1034 -0.2815
 2339SOL    HW118479   4.386   3.056   8.540  1.5935 -1.2862  0.1839
 2339SOL    HW218480   4.390   3.188   8.493 -1.7624 -0.9507  1.2689
 2340SOL     OW18481   2.520   2.950   4.093  0.0555  1.1737 -0.0854
 2340SOL    HW118482   2.458   2.880   4.112  1.5382  0.0634  0.6279
 2340SOL    HW218483   2.561   2.914   4.014 -1.4596 -0.2513 -0.2166
 2341SOL     OW18484   3.253   3.245   5.103  0.3851  0.0409 -0.0529
 2341SOL    HW118485   3.317   3.252   5.174 -0.8620 -0.6375  1.1490
 2341SOL    HW218486   3.240   3.150   5.100  0.4401  0.0992 -2.1999
 2342SOL     OW18487   3.039   1.967  10.403 -0.1790 -0.0455  0.7616
 2342SOL    HW118488   3.110   2.025  10.377  2.2941 -2.2854  2.4935
 2342SOL    HW218489   2.966   2.028  10.398  0.9302  1.1680 -0.5260
 2343SOL     OW18490   3.289   1.210   2.789  0.0902  0.2933 -0.4112
 2343SOL    HW118491   3.201   1.192   2.757 -0.1243  0.4709  0.0785
 2343SOL    HW218492   3.312   1.123   2.821 -2.1211 -0.8004 -1.7974
 2344SOL     OW18493   3.558   2.252   4.766  0.1945  0.1259 -0.1012
 2344SOL    HW118494   3.513   2.291   4.840 -2.9925 -0.2698 -1.8356
 2344SOL    HW218495   3.511   2.296   4.695  1.9972  1.9296 -0.1831
 2345SOL     OW18496   1.110   1.367   2.930  1.2796  0.3995  0.0462
 2345SOL    HW118497   1.166   1.290   2.938  0.5727 -0.1574 -0.3965
 2345SOL    HW218498   1.094   1.359   2.836 -1.8075  3.0566  0.3424
 2346SOL     OW18499   1.833   0.405  15.053  0.1246 -0.3006  0.3633
 2346SOL    HW118500   1.851   0.350  15.129  0.9901  1.9681  1.8037
 2346SOL    HW218501   1.757   0.355  15.025  0.2645 -1.3317  1.8496
 2347SOL     OW18502   0.289   0.575   4.230  0.2222 -0.0749 -0.2341
 2347SOL    HW118503   0.265   0.643   4.167 -1.2491 -2.2187 -1.9908
 2347SOL    HW218504   0.368   0.612   4.270  0.3642 -0.4505 -0.1644
 2348SOL     OW18505   3.633   2.982  13.595  0.1179  0.0459 -0.2582
 2348SOL    HW118506   3.621   3.028  13.678  1.2192  0.3143 -0.2458
 2348SOL    HW218507   3.653   2.894  13.627 -2.3697 -0.5951 -0.4318
 2349SOL     OW18508   2.663   3.149  16.983 -0.1465  0.2218 -0.5183
 2349SOL    HW118509   2.724   3.218  17.009 -0.0993  0.7477 -2.0579
 2349SOL    HW218510   2.579   3.193  16.994 -0.7805 -1.2263  0.6179
 2350SOL     OW18511   4.619   2.287   2.176  0.5917  0.0766  0.6330
 2350SOL    HW118512   4.660   2.203   2.196 -0.3261 -0.9058 -1.5905
 2350SOL    HW218513   4.607   2.293   2.081 -0.5457  1.5954  0.8744
 2351SOL     OW18514   0.542   0.432   2.010 -0.1826  0.6143 -0.4954
 2351SOL    HW118515   0.536   0.486   2.088  1.4757 -0.7649  0.5823
 2351SOL    HW218516   0.490   0.488   1.952  0.2260  0.7155 -0.7644
 2352SOL     OW18517   2.747   1.872   4.948 -0.1805  0.0519 -0.2333
 2352SOL    HW118518   2.741   1.892   4.855 -0.2728 -0.4781 -0.3429
 2352SOL    HW218519   2.765   1.778   4.940  0.2817 -0.0435  1.9851
 2353SOL     OW18520   0.791   4.525   6.259 -0.0467 -0.2123  0.0564
 2353SOL    HW118521   0.713   4.480   6.226 -0.4287 -1.9544  3.3004
 2353SOL    HW218522   0.747   4.591   6.312  2.4288  1.0464  0.5275
 2354SOL     OW18523   0.095   1.695   6.434  0.2928 -0.5527 -0.2189
 2354SOL    HW118524   0.130   1.716   6.348 -2.6233  0.8635 -1.0619
 2354SOL    HW218525   0.129   1.772   6.480 -0.7038  1.1232 -2.3187
 2355SOL     OW18526   2.003   3.788   7.820  0.2595 -0.0759  0.2927
 2355SOL    HW118527   1.933   3.773   7.884  0.1943 -1.8874 -0.2079
 2355SOL    HW218528   2.008   3.700   7.782  0.7054 -0.1594  0.5582
 2356SOL     OW18529   0.738   1.378   7.658 -0.3248  0.2582  0.3996
 2356SOL    HW118530   0.648   1.411   7.651  0.0488  1.0806 -0.4385
 2356SOL    HW218531   0.747   1.392   7.752 -0.3836  1.9078  0.1592
 2357SOL     OW18532   1.625   2.716   5.880  0.2905  0.4255 -0.0824
 2357SOL    HW118533   1.700   2.710   5.821 -0.0079  2.7051 -0.7063
 2357SOL    HW218534   1.624   2.811   5.869 -0.1621  0.7433  2.7927
 2358SOL     OW18535   3.257   0.489   4.655  0.0773  0.3264 -0.0115
 2358SOL    HW118536   3.258   0.393   4.654 -1.9810  0.3362 -2.2780
 2358SOL    HW218537   3.217   0.501   4.741  1.5423  1.4177  0.5185
 2359SOL     OW18538   3.790   4.427   9.483 -0.4771 -0.4890 -0.0432
 2359SOL    HW118539   3.824   4.437   9.394  1.0382  0.2573  0.6130
 2359SOL    HW218540   3.808   4.337   9.513  0.5991 -0.3501 -0.2448
 2360SOL     OW18541   1.102   1.786  13.505 -0.1758  0.9755  0.5607
 2360SOL    HW118542   1.159   1.769  13.580  0.1208  2.8875  0.7779
 2360SOL    HW218543   1.125   1.874  13.474 -0.8274  0.7319 -0.6153
 2361SOL     OW18544   4.065   3.997   6.429  0.2235 -0.0327  0.1499
 2361SOL    HW118545   4.078   3.952   6.346 -3.6778  1.2041 -1.1042
 2361SOL    HW218546   4.126   3.957   6.491 -0.2841 -1.1580 -0.0674
 2362SOL     OW18547   1.726   0.363   0.991  0.4757  0.1869  0.1237
 2362SOL    HW118548   1.777   0.407   0.923 -1.6416 -0.1987 -1.7101
 2362SOL    HW218549   1.638   0.393   0.968  0.4990 -0.4089 -0.7487
 2363SOL     OW18550   2.604   2.153   8.390  0.6199  0.1681  0.0024
 2363SOL    HW118551   2.646   2.187   8.469 -0.9947  0.5828  0.6822
 2363SOL    HW218552   2.590   2.239   8.351 -0.1040  0.0151 -0.0795
 2364SOL     OW18553   0.470   4.264   3.587 -0.6902  0.4707  0.0411
 2364SOL    HW118554   0.564   4.274   3.604 -0.8299  0.7281  0.6751
 2364SOL    HW218555   0.468   4.169   3.597 -1.2462  0.4616 -0.1690
 2365SOL     OW18556   3.758   4.389   8.986 -0.0455  0.1253  0.8580
 2365SOL    HW118557   3.784   4.479   8.967  1.2018 -0.0611  1.6572
 2365SOL    HW218558   3.836   4.362   9.035 -0.4216 -0.3919  1.1736
 2366SOL     OW18559   2.734   3.621   8.150 -0.0439 -0.3883 -0.2729
 2366SOL    HW118560   2.749   3.593   8.060  0.6720 -0.7914 -0.0303
 2366SOL    HW218561   2.804   3.582   8.202  0.1259 -1.7691 -1.5643
 2367SOL     OW18562   2.247   1.314   4.566  0.0850  0.1525  0.2361
 2367SOL    HW118563   2.311   1.283   4.630  1.4881  1.9635 -0.3079
 2367SOL    HW218564   2.241   1.233   4.515  3.6033  0.8500 -1.2232
 2368SOL     OW18565   2.277   3.270   9.014  0.8686  0.7232  0.2032
 2368SOL    HW118566   2.227   3.310   9.085  0.2774 -1.4193  1.0009
 2368SOL    HW218567   2.266   3.328   8.939  1.0906 -1.0289 -1.1890
 2369SOL     OW18568   3.923   4.057   8.722  0.2767 -0.5134  0.8468
 2369SOL    HW118569   3.955   4.145   8.700  0.9499 -1.0889 -0.5029
 2369SOL    HW218570   4.003   4.008   8.703  0.6017  0.7282 -1.0624
 2370SOL     OW18571   4.717   4.494   7.908  0.2460 -0.0502 -0.0823
 2370SOL    HW118572   4.671   4.417   7.942  0.6613 -1.4377 -2.6169
 2370SOL    HW218573   4.712   4.557   7.979  1.8133  1.2363 -1.0979
 2371SOL     OW18574   0.640   1.916   7.898  0.4802  0.0457  0.3466
 2371SOL    HW118575   0.696   1.839   7.892  0.3506 -0.1679  2.0157
 2371SOL    HW218576   0.705   1.986   7.906 -0.0087  0.4233  0.9605
 2372SOL     OW18577   1.318   2.303   5.628  0.6024  0.4849 -0.4097
 2372SOL    HW118578   1.364   2.377   5.669  0.1582  0.2447  0.5265
 2372SOL    HW218579   1.283   2.263   5.707  2.0814 -0.1053 -0.0388
 2373SOL     OW18580   4.000   0.670   2.170  0.3708 -0.2291 -0.2999
 2373SOL    HW118581   3.934   0.627   2.225  0.7578 -0.1119  0.2554
 2373SOL    HW218582   3.974   0.627   2.089 -0.6121  1.6386 -0.9859
 2374SOL     OW18583   2.648   3.076   2.107 -0.1861  0.1850 -0.1609
 2374SOL    HW118584   2.613   3.162   2.129 -2.2464 -0.9836  1.1974
 2374SOL    HW218585   2.588   3.058   2.034 -0.5650 -1.5925  0.5782
 2375SOL     OW18586   1.490   2.538  13.737  0.0813  0.1717  0.1904
 2375SOL    HW118587   1.489   2.633  13.735  3.8454  0.2060  0.7566
 2375SOL    HW218588   1.452   2.505  13.819 -0.3185  1.7364  0.6312
 2376SOL     OW18589   0.639   1.403   7.943  0.2174  0.0618  0.3945
 2376SOL    HW118590   0.697   1.422   8.016  0.0571 -0.2874  0.6068
 2376SOL    HW218591   0.554   1.380   7.980  0.2788 -0.7657  0.0226
 2377SOL     OW18592   1.585   2.065  10.661  0.3814  0.6186 -0.5463
 2377SOL    HW118593   1.549   2.125  10.596 -0.1270  0.6344 -0.2431
 2377SOL    HW218594   1.548   1.981  10.633  0.9405  0.1829  0.0043
 2378SOL     OW18595   1.271   3.828   6.384  0.8212 -0.2566  0.8436
 2378SOL    HW118596   1.228   3.792   6.461 -1.8356 -0.1017 -0.5580
 2378SOL    HW218597   1.335   3.761   6.362  1.1740  0.1865  0.5196
 2379SOL     OW18598   3.920   0.907   5.649 -0.3079 -0.1936  0.0467
 2379SOL    HW118599   3.867   0.903   5.728 -1.5581  1.2450 -0.7190
 2379SOL    HW218600   3.987   0.841   5.670 -0.5556 -0.2498  0.6446
 2380SOL     OW18601   4.682   2.265  17.186  0.0022 -0.1041 -0.1290
 2380SOL    HW118602   4.718   2.262  17.098 -0.0885 -1.7870 -0.1045
 2380SOL    HW218603   0.043   2.280  17.226 -0.6482  2.8839  0.2196
 2381SOL     OW18604   1.692   0.449   2.445  0.1613  0.2753 -0.7897
 2381SOL    HW118605   1.681   0.506   2.521 -2.2292 -2.0876  0.6571
 2381SOL    HW218606   1.634   0.375   2.462 -2.0945  2.4018  0.7920
 2382SOL     OW18607   1.339   1.216   4.746 -0.3156 -0.4867 -0.0289
 2382SOL    HW118608   1.313   1.294   4.697  1.9603  1.8811  2.4720
 2382SOL    HW218609   1.367   1.263   4.825 -3.6271 -1.2696  1.6014
 2383SOL     OW18610   3.786   1.455  14.684 -0.0598 -0.0473  0.1684
 2383SOL    HW118611   3.806   1.529  14.627 -0.4108  1.0827  1.5078
 2383SOL    HW218612   3.862   1.398  14.690  1.6779  2.2931  0.6663
 2384SOL     OW18613   3.876   3.785   4.185  0.8724 -0.1879 -0.8152
 2384SOL    HW118614   3.910   3.868   4.152 -0.7123 -0.0397 -2.0683
 2384SOL    HW218615   3.933   3.784   4.261  0.1069  1.8427 -0.2287
 2385SOL     OW18616   0.324   4.557   8.954 -0.2176  0.0723  0.5814
 2385SOL    HW118617   0.381   4.500   9.006 -0.6521  2.0877  3.2933
 2385SOL    HW218618   0.256   4.497   8.923  0.1080  1.0399 -1.9589
 2386SOL     OW18619   3.666   4.405  17.169 -0.1415  0.2041  0.3021
 2386SOL    HW118620   3.751   4.449  17.170  0.1052 -0.2755  0.3672
 2386SOL    HW218621   3.679   4.346  17.244 -0.2524  0.8558  0.8392
 2387SOL     OW18622   1.630   3.805  13.885 -0.3728 -0.3288  0.0936
 2387SOL    HW118623   1.562   3.822  13.950  0.7692  0.4103  1.0944
 2387SOL    HW218624   1.710   3.802  13.938  1.5215  2.4464 -2.6421
 2388SOL     OW18625   1.879   1.271   6.270  0.4458 -0.0907 -0.4869
 2388SOL    HW118626   1.933   1.339   6.231  1.6090 -0.5202  0.3911
 2388SOL    HW218627   1.830   1.321   6.335  0.0492 -0.1471 -0.7426
 2389SOL     OW18628   3.233   3.550  13.274 -0.6038 -0.0611  0.3641
 2389SOL    HW118629   3.229   3.630  13.222  2.8898  1.0591  1.8236
 2389SOL    HW218630   3.325   3.532  13.258 -0.3022  1.5698  0.2497
 2390SOL     OW18631   2.921   4.641   6.820 -0.1185  0.0434 -0.3529
 2390SOL    HW118632   2.867   4.572   6.782 -1.5836  1.6760 -1.2392
 2390SOL    HW218633   2.943   4.616   6.910 -0.5084  1.7329  0.2230
 2391SOL     OW18634   1.522   2.383  11.307 -0.1319 -0.2345  0.2094
 2391SOL    HW118635   1.595   2.437  11.277 -1.1497  0.7871 -0.4130
 2391SOL    HW218636   1.542   2.380  11.401 -0.6642  0.5187  0.3506
 2392SOL     OW18637   4.460   0.455   3.405 -0.1787 -0.6551 -0.0958
 2392SOL    HW118638   4.450   0.536   3.355 -0.0852 -0.9472 -0.5885
 2392SOL    HW218639   4.555   0.443   3.403 -0.3022 -1.9294  1.6132
 2393SOL     OW18640   0.817   2.326  14.884  0.0337 -0.0649  0.5215
 2393SOL    HW118641   0.780   2.404  14.925  0.6547 -1.0871  3.0049
 2393SOL    HW218642   0.793   2.266  14.954 -1.5666 -1.8920 -1.5751
 2394SOL     OW18643   2.327   3.245  17.323  0.3513  0.1923  0.0897
 2394SOL    HW118644   2.268   3.169  17.327  0.3570  0.0694 -2.3113
 2394SOL    HW218645   2.366   3.229  17.237  0.7403  1.0030  0.1224
 2395SOL     OW18646   2.497   3.071   1.641 -0.4675  0.5292  0.1184
 2395SOL    HW118647   2.441   3.115   1.576 -1.8072  1.6209  1.9946
 2395SOL    HW218648   2.497   3.121   1.723 -1.5397 -0.5935  0.7987
 2396SOL     OW18649   3.541   3.363  12.921 -0.6174 -0.4242 -0.0346
 2396SOL    HW118650   3.570   3.318  12.841  2.0334  1.2835 -0.0652
 2396SOL    HW218651   3.463   3.315  12.947 -1.4509  0.0305 -1.6955
 2397SOL     OW18652   2.952   0.799   5.807 -0.0906  0.2968 -0.0012
 2397SOL    HW118653   2.862   0.815   5.778 -0.5059 -0.5225  0.8275
 2397SOL    HW218654   2.983   0.764   5.724 -2.2885  1.6254 -1.3669
 2398SOL     OW18655   4.703   3.850  10.135 -0.5089 -0.2592 -0.3854
 2398SOL    HW118656   4.717   3.918  10.068  0.7943 -1.9299 -1.8084
 2398SOL    HW218657   4.676   3.904  10.209 -0.6886 -0.6487 -0.1674
 2399SOL     OW18658   1.685   4.496   7.380  0.1359  0.0748  0.1585
 2399SOL    HW118659   1.630   4.417   7.383 -1.1115  0.8538 -2.3800
 2399SOL    HW218660   1.622   4.566   7.396 -1.0738 -0.9088 -0.2179
 2400SOL     OW18661   1.852   0.114   0.321  0.2485  0.5523 -0.0741
 2400SOL    HW118662   1.761   0.094   0.302 -0.3873  2.4617  0.9744
 2400SOL    HW218663   1.844   0.209   0.336  2.2060  0.8261 -0.7241
 2401SOL     OW18664   0.729   1.244   0.250 -0.5118  0.4110 -0.3371
 2401SOL    HW118665   0.794   1.186   0.210 -0.8529  0.6660 -1.2573
 2401SOL    HW218666   0.772   1.277   0.329 -0.1581  1.1992 -0.8520
 2402SOL     OW18667   1.364   4.455   9.004 -0.3121 -0.1118 -0.4348
 2402SOL    HW118668   1.325   4.536   9.037  1.2630  0.5090 -0.0810
 2402SOL    HW218669   1.308   4.442   8.927  1.4636  0.7588 -1.8843
 2403SOL     OW18670   2.119   0.661   9.594  0.6013  0.1466  0.5422
 2403SOL    HW118671   2.211   0.657   9.567 -0.7253  2.0246 -4.3587
 2403SOL    HW218672   2.089   0.744   9.557  0.2873 -1.6315 -3.2186
 2404SOL     OW18673   3.656   0.729  12.633 -0.1544  0.1132 -0.2759
 2404SOL    HW118674   3.746   0.750  12.659  0.1395 -0.3413 -0.9362
 2404SOL    HW218675   3.661   0.746  12.539  1.5094 -1.2226 -0.4434
 2405SOL     OW18676   1.849   4.441  14.422  0.0493 -0.5101 -0.6904
 2405SOL    HW118677   1.843   4.484  14.507 -4.1109 -0.9274 -0.7886
 2405SOL    HW218678   1.757   4.451  14.398  0.5344  3.3119 -1.0359
 2406SOL     OW18679   2.353   0.098   8.040  0.6712  0.3019  0.4779
 2406SOL    HW118680   2.296   0.104   8.117 -2.2842 -3.3930 -1.4353
 2406SOL    HW218681   2.409   0.173   8.062  1.5203 -0.3105  0.3949
 2407SOL     OW18682   3.811   1.032  10.175  0.2487  0.0306 -0.6146
 2407SOL    HW118683   3.716   1.024  10.188  0.6921  0.5181  2.7933
 2407SOL    HW218684   3.837   0.945  10.205  1.0630  0.1569 -0.9653
 2408SOL     OW18685   4.580   0.930   2.693  0.1933  0.2753 -0.0468
 2408SOL    HW118686   4.534   0.982   2.626  1.6887  0.8229 -0.6470
 2408SOL    HW218687   4.589   0.843   2.653 -1.0320 -0.4050  1.1845
 2409SOL     OW18688   0.473   4.718  14.661  0.6394 -0.1922  0.0860
 2409SOL    HW118689   0.456   0.086  14.658  0.5625 -0.2216 -0.4338
 2409SOL    HW218690   0.388   4.683  14.632  0.7297 -0.1220 -0.2715
 2410SOL     OW18691   1.748   2.507   5.297  0.0213 -0.0854  0.3159
 2410SOL    HW118692   1.773   2.588   5.253 -0.2016 -0.8455 -1.1808
 2410SOL    HW218693   1.821   2.451   5.269  0.4748  0.8923 -0.4805
 2411SOL     OW18694   2.612   3.786   7.469  0.6152  0.1515 -0.4368
 2411SOL    HW118695   2.585   3.696   7.455 -0.3677  0.5466 -1.0952
 2411SOL    HW218696   2.707   3.784   7.477  0.8313 -1.2603 -3.2559
 2412SOL     OW18697   0.300   1.584   4.637 -0.2477 -0.3580  0.5961
 2412SOL    HW118698   0.229   1.647   4.625 -1.3831 -2.0299 -1.3578
 2412SOL    HW218699   0.240   1.511   4.654 -0.8153 -0.5502 -2.3763
 2413SOL     OW18700   4.099   0.642   5.417 -0.3798  0.0334 -0.0625
 2413SOL    HW118701   4.028   0.600   5.368 -0.4897  1.2248 -0.9078
 2413SOL    HW218702   4.080   0.734   5.404  1.3979  0.2262 -1.2709
 2414SOL     OW18703   1.203   4.108  15.382 -0.2016  0.8315 -0.4564
 2414SOL    HW118704   1.162   4.174  15.438 -0.8938  0.1520 -0.1610
 2414SOL    HW218705   1.264   4.159  15.330  1.9181 -0.1135  1.0797
 2415SOL     OW18706   3.793   1.703   6.185  0.1267  0.0657 -0.1053
 2415SOL    HW118707   3.846   1.625   6.169  0.7123  0.1536  1.4622
 2415SOL    HW218708   3.845   1.779   6.157  1.0969 -0.2641  0.8207
 2416SOL     OW18709   0.332   2.748   1.529 -0.5735 -0.4071 -0.7053
 2416SOL    HW118710   0.375   2.662   1.534 -0.2879 -0.0545  2.7749
 2416SOL    HW218711   0.335   2.780   1.619  0.5233 -0.6951 -0.6377
 2417SOL     OW18712   1.645   0.649   6.678  0.1319 -0.6988  0.2743
 2417SOL    HW118713   1.588   0.681   6.747  1.5949 -0.3247  1.3028
 2417SOL    HW218714   1.629   0.554   6.673  1.0429 -0.8088 -0.5776
 2418SOL     OW18715   0.623   3.311  16.414  0.2372 -0.0149  0.3522
 2418SOL    HW118716   0.634   3.298  16.320 -2.8489 -1.3734  0.1778
 2418SOL    HW218717   0.635   3.224  16.451  3.0674 -0.0315 -0.5916
 2419SOL     OW18718   1.869   1.238   4.703  0.0159 -0.4396  0.7450
 2419SOL    HW118719   1.834   1.276   4.784  0.7897 -1.7607  1.6967
 2419SOL    HW218720   1.838   1.148   4.703 -1.8114  0.1842 -3.2284
 2420SOL     OW18721   1.543   0.574   7.913  0.3446  0.2143  0.0372
 2420SOL    HW118722   1.511   0.664   7.908 -0.4794 -0.0751  0.2152
 2420SOL    HW218723   1.618   0.588   7.854  0.9506  0.0367  0.7558
 2421SOL     OW18724   3.161   4.161   2.958 -0.3267  0.0775 -0.3138
 2421SOL    HW118725   3.164   4.254   2.980 -1.0579  0.8425 -3.4594
 2421SOL    HW218726   3.249   4.130   2.978  0.5352  0.8470 -2.9897
 2422SOL     OW18727   1.862   1.654   4.960 -0.2460  0.3720 -0.6561
 2422SOL    HW118728   1.887   1.746   4.969  0.6673 -0.0085  0.7428
 2422SOL    HW218729   1.947   1.616   4.984 -0.8316  0.9780  2.4292
 2423SOL     OW18730   1.000   3.513   7.635  0.5271  0.4938  0.1732
 2423SOL    HW118731   1.001   3.439   7.696  0.6855 -1.3075 -2.0204
 2423SOL    HW218732   0.993   3.470   7.550 -0.4073 -3.1459  2.0945
 2424SOL     OW18733   3.668   0.765   1.507  0.3508 -0.3283 -0.2545
 2424SOL    HW118734   3.745   0.800   1.464 -0.5194 -0.3533 -1.8423
 2424SOL    HW218735   3.603   0.808   1.451  1.2619  0.2271 -0.8665
 2425SOL     OW18736   3.831   3.593   2.104  0.2509  0.0525 -0.1885
 2425SOL    HW118737   3.820   3.513   2.053  0.1021 -0.2068  0.2464
 2425SOL    HW218738   3.769   3.651   2.059  0.8147 -0.5176 -1.6757
 2426SOL     OW18739   0.934   1.869   4.430  0.5288  0.7342  0.1404
 2426SOL    HW118740   0.951   1.943   4.488  2.4924 -0.0885  0.6368
 2426SOL    HW218741   0.876   1.817   4.486  2.6310  0.1290  1.7491
 2427SOL     OW18742   0.442   0.222   5.640  0.9293 -0.1176 -0.1095
 2427SOL    HW118743   0.524   0.191   5.601  0.4256 -1.6600  0.0701
 2427SOL    HW218744   0.420   0.138   5.681  0.7973 -0.0787 -0.0998
 2428SOL     OW18745   4.147   1.013   3.232  0.4322 -0.0621  0.2006
 2428SOL    HW118746   4.106   1.007   3.319  0.5253 -0.5002  0.2138
 2428SOL    HW218747   4.231   1.047   3.264  0.9182 -1.4293  0.3927
 2429SOL     OW18748   2.838   0.605   6.739 -0.1719  0.0569  0.0896
 2429SOL    HW118749   2.928   0.584   6.762 -0.1649 -0.7537 -0.6740
 2429SOL    HW218750   2.851   0.606   6.644  3.2236  1.8501  0.6121
 2430SOL     OW18751   0.839   3.117   3.638  0.1035  0.0305 -0.6295
 2430SOL    HW118752   0.766   3.067   3.600  1.8806 -0.8769 -2.7982
 2430SOL    HW218753   0.882   3.153   3.561 -1.9461  0.6015 -1.5119
 2431SOL     OW18754   1.307   0.746   9.434  0.7895 -0.0199  0.3818
 2431SOL    HW118755   1.216   0.764   9.409  2.0198  3.2030 -1.8231
 2431SOL    HW218756   1.342   0.832   9.457  0.2981 -0.1886  1.7168
 2432SOL     OW18757   3.232   3.776   0.088 -0.0625  0.2155 -0.6356
 2432SOL    HW118758   3.250   3.701   0.146 -0.2792  1.1172  0.6086
 2432SOL    HW218759   3.218   3.851   0.146 -0.7884 -0.2592 -0.1975
 2433SOL     OW18760   0.059   2.483   3.290 -0.2884  0.1010 -0.4012
 2433SOL    HW118761   0.122   2.478   3.218  0.7047 -2.6769  0.6580
 2433SOL    HW218762   4.706   2.519   3.249 -0.0006  0.3935 -0.6978
 2434SOL     OW18763   3.936   3.393   6.864 -0.2544  0.3483 -0.1682
 2434SOL    HW118764   3.926   3.309   6.909 -0.4975 -0.6936 -2.1656
 2434SOL    HW218765   3.934   3.361   6.774 -2.3658  0.3025 -0.1080
 2435SOL     OW18766   1.796   3.827   4.261  0.1286  0.1205 -0.4028
 2435SOL    HW118767   1.784   3.909   4.309  0.1797 -0.3222  0.3691
 2435SOL    HW218768   1.866   3.834   4.196  0.3958  0.1416 -0.1166
 2436SOL     OW18769   1.536   2.565   7.740  0.0586 -0.1667 -1.2015
 2436SOL    HW118770   1.442   2.572   7.758  0.2087 -2.4114  0.4942
 2436SOL    HW218771   1.578   2.550   7.825  0.3047  0.5537 -1.1907
 2437SOL     OW18772   1.009   0.678  17.044  0.0246 -0.1241 -0.3723
 2437SOL    HW118773   1.040   0.660  17.132  0.5245  1.0437 -0.3179
 2437SOL    HW218774   0.983   0.770  17.046 -0.9968 -0.4619  2.3369
 2438SOL     OW18775   3.660   2.569   5.157  0.5036  0.1566  0.2452
 2438SOL    HW118776   3.598   2.510   5.202 -0.4612  2.0415  1.4104
 2438SOL    HW218777   3.647   2.644   5.216  1.4569  0.5620 -0.0599
 2439SOL     OW18778   3.940   0.960  14.604  0.5913 -0.2973  0.3191
 2439SOL    HW118779   3.889   1.023  14.655  0.1131  0.4364 -1.0659
 2439SOL    HW218780   4.023   0.951  14.651  1.0655  2.2811 -0.0064
 2440SOL     OW18781   1.828   2.555  13.901 -0.3097 -0.2001  0.2254
 2440SOL    HW118782   1.839   2.650  13.895 -0.7590 -0.1180  0.7382
 2440SOL    HW218783   1.742   2.557  13.944 -0.3142  0.9662  0.1524
 2441SOL     OW18784   1.215   4.218  11.828  0.1776  0.1798  0.5030
 2441SOL    HW118785   1.160   4.263  11.891 -0.2459  0.2516  0.0820
 2441SOL    HW218786   1.285   4.175  11.877  0.9393  1.6737  0.7433
 2442SOL     OW18787   4.645   2.968  17.207  0.0812 -0.6344 -0.2879
 2442SOL    HW118788   4.635   2.898  17.272  2.7502 -1.6268 -0.9601
 2442SOL    HW218789   4.711   2.923  17.155  0.0572 -1.2823  0.2399
 2443SOL     OW18790   1.402   4.715   2.905 -0.2928  0.6472  0.0916
 2443SOL    HW118791   1.437   0.079   2.910 -1.1333  1.1183 -2.7270
 2443SOL    HW218792   1.445   4.690   2.823 -0.6081  1.3368 -0.2856
 2444SOL     OW18793   2.980   2.386   7.941 -0.3307 -0.0397  0.1481
 2444SOL    HW118794   2.995   2.400   7.847 -3.4531 -1.7726 -0.6206
 2444SOL    HW218795   2.905   2.440   7.968  0.8280  0.8633  1.5273
 2445SOL     OW18796   0.027   1.461   3.271 -0.2027 -0.2098 -0.1878
 2445SOL    HW118797   4.687   1.463   3.341  0.2137 -1.3866  0.2278
 2445SOL    HW218798   0.079   1.536   3.299  0.6694 -2.0629  3.2346
 2446SOL     OW18799   1.372   1.140   3.415  0.1673  0.2418  0.1594
 2446SOL    HW118800   1.414   1.207   3.468 -0.7302  0.1588  0.9616
 2446SOL    HW218801   1.365   1.188   3.332  0.9820  2.5030  1.4039
 2447SOL     OW18802   1.776   1.344  11.072  0.2798 -0.2324  0.4559
 2447SOL    HW118803   1.814   1.426  11.039 -1.7263  0.7838  0.6973
 2447SOL    HW218804   1.835   1.333  11.147 -0.6591  1.0352  1.3853
 2448SOL     OW18805   2.152   3.263   9.661  0.4793 -0.0144  0.3565
 2448SOL    HW118806   2.213   3.335   9.675 -1.3170  1.2450  1.6371
 2448SOL    HW218807   2.148   3.229   9.751  1.5076  1.7663  1.0669
 2449SOL     OW18808   4.676   4.506   5.397 -0.4488 -0.2925  0.5710
 2449SOL    HW118809   4.588   4.501   5.360  0.3099  1.1826 -1.4543
 2449SOL    HW218810   4.699   4.593   5.366  0.9812 -1.3601 -1.4057
 2450SOL     OW18811   2.777   1.267   6.266  0.5317  0.4932 -0.1183
 2450SOL    HW118812   2.696   1.216   6.265  1.7163 -1.4125  0.7425
 2450SOL    HW218813   2.790   1.277   6.360  2.4030  0.4895 -0.3864
 2451SOL     OW18814   1.597   1.747   5.034  0.2552  0.2012  0.4645
 2451SOL    HW118815   1.652   1.697   4.974 -0.5100 -1.5500  1.2261
 2451SOL    HW218816   1.589   1.834   4.996  0.0668  0.1943  0.4886
 2452SOL     OW18817   2.595   1.471   9.381  0.0725 -0.2082 -0.1295
 2452SOL    HW118818   2.663   1.410   9.409 -0.0424  0.0801  0.8021
 2452SOL    HW218819   2.630   1.552   9.418  0.6945  0.3468 -1.9447
 2453SOL     OW18820   1.510   2.328   8.631  0.1487  0.3140 -0.4028
 2453SOL    HW118821   1.552   2.324   8.717 -0.1546 -1.2834 -0.3330
 2453SOL    HW218822   1.511   2.422   8.612  0.5058  0.3867 -0.0001
 2454SOL     OW18823   1.678   1.249   9.148 -0.5902  0.2034  0.4372
 2454SOL    HW118824   1.666   1.300   9.067  0.9591 -1.3521 -0.7709
 2454SOL    HW218825   1.593   1.262   9.190 -1.6865 -0.8996 -1.4617
 2455SOL     OW18826   0.822   0.041   3.957  0.4135 -0.4125  0.3833
 2455SOL    HW118827   0.837   4.674   3.937  0.7020  0.0406 -1.4637
 2455SOL    HW218828   0.727   0.048   3.962  0.6013  0.1493  3.4863
 2456SOL     OW18829   3.242   0.033   2.689 -0.3269 -0.3936  0.0319
 2456SOL    HW118830   3.185   4.686   2.663 -0.4314 -0.0994 -0.5401
 2456SOL    HW218831   3.283   0.071   2.612  1.5051 -1.6322  0.4171
 2457SOL     OW18832   0.278   1.954  15.998 -0.1478 -0.6206  0.2783
 2457SOL    HW118833   0.245   1.921  16.082  1.7511  0.7513  1.5446
 2457SOL    HW218834   0.362   1.997  16.015 -0.1367 -1.2569  1.8192
 2458SOL     OW18835   2.807   3.826   5.750  0.3100  0.1049 -0.3892
 2458SOL    HW118836   2.721   3.803   5.784 -0.2525  0.5767 -1.4777
 2458SOL    HW218837   2.820   3.908   5.796  1.4848  0.2203 -0.9174
 2459SOL     OW18838   4.535   0.287   7.757 -0.5556 -0.1424  0.0321
 2459SOL    HW118839   4.598   0.243   7.815 -0.5989  0.6487  0.6908
 2459SOL    HW218840   4.550   0.242   7.674 -1.1575 -0.6625  0.2046
 2460SOL     OW18841   4.344   3.515  14.952 -0.3083  0.0150  0.5998
 2460SOL    HW118842   4.272   3.575  14.933  0.1807  0.2161 -0.5810
 2460SOL    HW218843   4.390   3.554  15.026  0.7768  1.4238 -0.8341
 2461SOL     OW18844   0.836   0.675  14.409  0.6440  0.0793  0.2128
 2461SOL    HW118845   0.866   0.593  14.371 -3.6921 -1.6939  0.6721
 2461SOL    HW218846   0.781   0.712  14.340  1.6662  0.5693 -0.3353
 2462SOL     OW18847   0.650   4.547   6.897 -0.2292  0.0140 -0.1463
 2462SOL    HW118848   0.711   4.473   6.898  1.5591  1.4459 -1.2189
 2462SOL    HW218849   0.572   4.503   6.863  0.9390 -0.4370 -2.3106
 2463SOL     OW18850   4.259   3.164   7.746  0.2676  0.0311 -0.2161
 2463SOL    HW118851   4.262   3.109   7.667 -0.3402  2.6661 -2.0942
 2463SOL    HW218852   4.184   3.124   7.789  0.6349  0.6059  0.9692
 2464SOL     OW18853   1.920   2.876  10.146  0.0762  0.1093 -0.9172
 2464SOL    HW118854   1.997   2.827  10.117 -0.1708 -0.3940 -0.7183
 2464SOL    HW218855   1.851   2.850  10.086 -0.6115  2.6974 -1.2558
 2465SOL     OW18856   4.689   0.437  17.111  0.3659 -0.9419  0.2049
 2465SOL    HW118857   4.617   0.428  17.047  0.8344 -1.3467 -0.2673
 2465SOL    HW218858   4.669   0.520  17.154 -1.6502 -1.8773  1.0603
 2466SOL     OW18859   2.342   0.760  15.850  0.0970 -0.2286 -0.0347
 2466SOL    HW118860   2.359   0.779  15.758 -1.7593  0.7867 -0.1786
 2466SOL    HW218861   2.412   0.804  15.899 -0.1298  0.2902 -0.1729
 2467SOL     OW18862   0.432   0.765  13.883 -0.2193  0.0541  0.2005
 2467SOL    HW118863   0.480   0.847  13.864 -0.0687 -0.2566 -0.7701
 2467SOL    HW218864   0.415   0.734  13.794 -3.8569 -1.7814  1.5567
 2468SOL     OW18865   0.569   3.243  13.623 -0.7532 -0.3488 -0.3047
 2468SOL    HW118866   0.532   3.330  13.606 -0.6634  0.1535  2.0683
 2468SOL    HW218867   0.561   3.252  13.717 -0.0569  2.5938 -0.5234
 2469SOL     OW18868   1.020   2.151   9.419 -0.1743  0.5096  0.0525
 2469SOL    HW118869   1.070   2.087   9.370 -2.0117  0.2826 -1.5569
 2469SOL    HW218870   0.966   2.176   9.344  0.9141  0.4211 -0.7488
 2470SOL     OW18871   2.346   2.387   5.184  0.3223  0.2271 -0.4769
 2470SOL    HW118872   2.309   2.301   5.165  1.5296 -0.3039 -0.3695
 2470SOL    HW218873   2.326   2.437   5.104  0.3922 -0.3940 -0.8794
 2471SOL     OW18874   4.518   3.532   8.110  0.2454  0.2800  0.0293
 2471SOL    HW118875   4.526   3.508   8.203 -0.4162 -0.9347 -0.2238
 2471SOL    HW218876   4.429   3.505   8.090  0.1238  1.2659 -0.7397
 2472SOL     OW18877   2.329   1.965  17.596 -0.3114 -0.2484 -0.0677
 2472SOL    HW118878   2.282   1.915  17.663 -1.1843  1.3685  0.5242
 2472SOL    HW218879   2.422   1.958  17.618  0.0657 -1.3997 -1.9700
 2473SOL     OW18880   1.856   2.856   4.056  0.4912 -0.3540 -0.2155
 2473SOL    HW118881   1.841   2.765   4.079  0.7812 -0.9767 -2.5566
 2473SOL    HW218882   1.935   2.845   4.003  0.9237  1.6775 -0.0029
 2474SOL     OW18883   4.313   0.314  11.310  0.5673  0.1071  0.4742
 2474SOL    HW118884   4.225   0.334  11.344 -0.1718  0.9391 -1.9237
 2474SOL    HW218885   4.320   0.397  11.264 -3.6907  1.1360  1.6937
 2475SOL     OW18886   2.495   0.383   0.901  0.3416 -0.1992 -0.2880
 2475SOL    HW118887   2.550   0.378   0.823  0.6807 -2.9762  0.1069
 2475SOL    HW218888   2.419   0.425   0.862  0.3296 -1.2772 -1.4161
 2476SOL     OW18889   1.276   0.843   6.481  0.1292 -0.0943 -0.2731
 2476SOL    HW118890   1.226   0.786   6.423 -2.0514  1.5732 -0.0414
 2476SOL    HW218891   1.204   0.883   6.530  0.0986 -1.0007  0.4094
 2477SOL     OW18892   4.031   2.847  16.263 -0.2973  0.5596  0.1551
 2477SOL    HW118893   4.010   2.884  16.349  0.5607 -0.3572  0.7585
 2477SOL    HW218894   4.120   2.815  16.271 -0.1182  0.7534 -0.9941
 2478SOL     OW18895   3.366   2.898   6.134  0.3380 -0.0051 -0.1966
 2478SOL    HW118896   3.303   2.931   6.069  1.8069 -1.5764 -2.3948
 2478SOL    HW218897   3.444   2.929   6.089 -0.0719  1.0406 -0.1986
 2479SOL     OW18898   1.382   2.768   6.594 -0.1757  0.4712  0.1907
 2479SOL    HW118899   1.453   2.703   6.586  1.3689  1.9746  1.5540
 2479SOL    HW218900   1.313   2.725   6.645 -0.1797  1.5085  1.0689
 2480SOL     OW18901   2.249   0.792   4.207  0.1576 -0.4962  0.1041
 2480SOL    HW118902   2.260   0.708   4.252  0.2307 -1.0061 -0.8647
 2480SOL    HW218903   2.330   0.802   4.157 -0.5972 -3.1251 -1.6851
 2481SOL     OW18904   0.834   3.632  17.386  0.4034 -0.1893 -0.4286
 2481SOL    HW118905   0.811   3.582  17.309 -1.5562 -2.0118  1.3567
 2481SOL    HW218906   0.785   3.584  17.452 -1.3754  1.3211 -0.6384
 2482SOL     OW18907   0.973   0.292   9.722  0.9134 -0.1017  0.2624
 2482SOL    HW118908   1.067   0.288   9.738  0.4273  0.1477  3.3148
 2482SOL    HW218909   0.931   0.223   9.773  0.4113  0.9813  1.3376
 2483SOL     OW18910   2.229   0.481   5.980  0.1909 -0.0415  0.1781
 2483SOL    HW118911   2.194   0.548   5.922 -0.6550 -1.7649 -1.3146
 2483SOL    HW218912   2.192   0.399   5.947 -0.0196  0.7553 -1.5624
 2484SOL     OW18913   4.682   3.753   7.268  0.1639 -0.0114 -0.0771
 2484SOL    HW118914   4.710   3.743   7.359  0.3817 -0.0438 -0.1473
 2484SOL    HW218915   4.608   3.692   7.266  0.0220  0.1408  0.5616
 2485SOL     OW18916   0.420   2.410   5.282  0.2906  0.3075  0.0115
 2485SOL    HW118917   0.392   2.383   5.195 -2.0049  0.1388  0.7948
 2485SOL    HW218918   0.371   2.493   5.284  1.7547  1.1726 -0.0454
 2486SOL     OW18919   2.540   4.665   3.808 -0.3247 -0.0009 -0.1460
 2486SOL    HW118920   2.575   4.711   3.884  2.2467  0.5831 -1.6926
 2486SOL    HW218921   2.538   0.010   3.744  0.0645 -0.0613 -0.2282
 2487SOL     OW18922   1.772   3.792   5.630  1.2876 -0.6677 -0.5992
 2487SOL    HW118923   1.815   3.829   5.553  0.2322 -1.8068 -1.7173
 2487SOL    HW218924   1.840   3.814   5.695  1.1983 -0.4637 -0.5766
 2488SOL     OW18925   1.540   3.447   2.085  0.3153 -0.4924 -0.1807
 2488SOL    HW118926   1.518   3.468   2.175  3.2941  0.3575  0.3693
 2488SOL    HW218927   1.462   3.487   2.047  2.2730  3.2279 -0.2923
 2489SOL     OW18928   3.798   4.043   5.828  0.1648  0.2699 -0.2435
 2489SOL    HW118929   3.741   4.101   5.878  0.8434  2.1619 -1.6707
 2489SOL    HW218930   3.832   3.991   5.901 -0.8664 -2.4843 -1.7089
 2490SOL     OW18931   3.392   2.835   4.621 -0.0774  0.7077 -0.1945
 2490SOL    HW118932   3.456   2.772   4.653  0.4303 -0.0245 -2.6498
 2490SOL    HW218933   3.320   2.827   4.684  0.9610 -3.5804  0.4223
 2491SOL     OW18934   3.930   3.170   2.101  0.3016 -0.3642 -0.1314
 2491SOL    HW118935   3.873   3.108   2.056 -2.3060 -0.8677  3.8786
 2491SOL    HW218936   3.869   3.224   2.152 -0.3471 -2.0055  0.8105
 2492SOL     OW18937   2.738   2.177  16.221 -0.1264  0.4155 -0.5529
 2492SOL    HW118938   2.791   2.126  16.283  1.9228  0.8238 -1.9922
 2492SOL    HW218939   2.663   2.208  16.271 -1.9715 -0.7002 -2.6212
 2493SOL     OW18940   0.872   1.386   7.410 -0.2070  0.3391 -0.1308
 2493SOL    HW118941   0.817   1.347   7.477 -0.7773  0.2411 -0.6567
 2493SOL    HW218942   0.906   1.456   7.465 -1.9111 -0.1328  1.5520
 2494SOL     OW18943   2.016   4.468   1.603  0.0041 -0.1156 -0.0856
 2494SOL    HW118944   2.009   4.552   1.557 -0.2318 -1.2447 -2.1410
 2494SOL    HW218945   1.983   4.413   1.532  0.5079  0.0896 -0.4841
 2495SOL     OW18946   3.056   1.437   7.283  0.0763 -0.0998 -0.0203
 2495SOL    HW118947   3.034   1.497   7.354  1.8992  0.0827  0.3976
 2495SOL    HW218948   2.976   1.385   7.269  0.8534 -1.4482  0.5148
 2496SOL     OW18949   4.660   2.740   2.432  0.0951 -0.0997  0.2460
 2496SOL    HW118950   4.652   2.794   2.353 -0.7134 -0.7706 -0.1254
 2496SOL    HW218951   4.665   2.650   2.400 -0.2830  0.4619 -1.4012
 2497SOL     OW18952   1.372   2.080  13.642  0.7021  0.7133  0.0606
 2497SOL    HW118953   1.281   2.109  13.650  0.7572  0.9999 -0.3574
 2497SOL    HW218954   1.413   2.135  13.710 -1.3009 -0.9315  2.6023
 2498SOL     OW18955   2.893   4.429   9.012  0.5782 -0.2566 -0.4146
 2498SOL    HW118956   2.844   4.358   9.053 -0.3215 -0.4255 -1.7744
 2498SOL    HW218957   2.917   4.396   8.926  0.4258 -0.8584 -0.2256
 2499SOL     OW18958   0.063   1.281   8.260 -0.1924 -0.4069 -0.1693
 2499SOL    HW118959   0.016   1.246   8.336  0.7640 -0.1172  0.5567
 2499SOL    HW218960   0.001   1.350   8.236 -2.4872 -2.5783 -0.5772
 2500SOL     OW18961   2.603   0.274   5.078  0.3400  0.2734 -0.0759
 2500SOL    HW118962   2.627   0.269   4.985 -0.8436  0.3940 -0.3903
 2500SOL    HW218963   2.535   0.207   5.077 -0.2081  0.8233 -0.2996
 2501SOL     OW18964   2.412   4.369   8.048  0.3570  0.1226  0.3528
 2501SOL    HW118965   2.461   4.294   8.017 -0.2425 -0.5615  1.0463
 2501SOL    HW218966   2.329   4.331   8.077  0.5899 -1.3896 -1.0167
 2502SOL     OW18967   3.508   1.528   4.216  0.8041 -0.2070  0.0063
 2502SOL    HW118968   3.543   1.515   4.304  1.6500 -0.8975 -0.4288
 2502SOL    HW218969   3.510   1.623   4.209 -1.5187 -0.1046  0.6714
 2503SOL     OW18970   4.498   2.237   3.523 -0.1557  0.1485 -0.7276
 2503SOL    HW118971   4.579   2.233   3.472  0.6720 -0.1911  0.6363
 2503SOL    HW218972   4.442   2.204   3.452 -2.1334  0.8239  0.5182
 2504SOL     OW18973   0.689   1.218   4.341  0.0829  0.1907 -0.0720
 2504SOL    HW118974   0.773   1.263   4.337  0.7360 -1.3087 -3.7674
 2504SOL    HW218975   0.667   1.225   4.434 -0.1512 -1.5139  0.0028
 2505SOL     OW18976   3.706   4.391   2.150 -0.3042  0.6176  0.9214
 2505SOL    HW118977   3.699   4.418   2.058 -1.4884  0.6012  0.9983
 2505SOL    HW218978   3.775   4.456   2.164  1.2867 -1.0353  0.7031
 2506SOL     OW18979   2.668   1.236  13.932  0.2696 -0.0826 -0.2374
 2506SOL    HW118980   2.717   1.260  14.011  1.2757 -1.1441 -0.5312
 2506SOL    HW218981   2.591   1.292  13.930  0.3072 -0.0951 -2.7235
 2507SOL     OW18982   3.739   1.090   8.982 -0.1609  0.9241 -0.0391
 2507SOL    HW118983   3.697   1.106   9.066  1.6165 -1.6251  1.3029
 2507SOL    HW218984   3.675   1.036   8.936 -0.0599  0.2559  0.6262
 2508SOL     OW18985   0.101   0.730   6.374 -0.0874  0.2756 -0.0238
 2508SOL    HW118986   0.005   0.726   6.368 -0.0999  1.8045 -0.7962
 2508SOL    HW218987   0.109   0.762   6.464 -1.8738 -1.1722  0.6490
 2509SOL     OW18988   0.380   2.816   8.938 -0.4544  0.4513 -0.2762
 2509SOL    HW118989   0.437   2.837   8.865  1.1062  0.0396  0.8095
 2509SOL    HW218990   0.298   2.852   8.907  0.8867  2.2911 -1.7033
 2510SOL     OW18991   0.691   4.405   5.058  0.1054 -0.4293  0.7291
 2510SOL    HW118992   0.598   4.389   5.041  0.2284  0.5122 -0.8161
 2510SOL    HW218993   0.705   4.492   5.022  0.6143 -0.0052  1.9362
 2511SOL     OW18994   2.573   1.851   9.097  0.4338 -0.3468  0.3716
 2511SOL    HW118995   2.664   1.825   9.081 -0.5240 -2.4222 -1.6594
 2511SOL    HW218996   2.547   1.896   9.017 -3.7310 -0.3235  1.7363
 2512SOL     OW18997   1.008   1.645   2.887  0.4240 -0.3172  0.4012
 2512SOL    HW118998   1.035   1.565   2.840  0.2944 -0.0118 -0.1876
 2512SOL    HW218999   1.025   1.704   2.814 -0.2985  1.1260  1.4156
 2513SOL     OW19000   2.107   4.584  16.091  0.7621 -0.3985 -0.6402
 2513SOL    HW119001   2.116   4.661  16.035  1.1674 -0.6277 -0.8928
 2513SOL    HW219002   2.024   4.607  16.132  0.9525 -0.7042 -0.0787
 2514SOL     OW19003   0.193   3.197   7.319  0.0820  0.3600 -0.2272
 2514SOL    HW119004   0.123   3.263   7.316 -0.4586 -0.1702  0.6336
 2514SOL    HW219005   0.134   3.121   7.318  0.4726  0.0705 -0.8424
 2515SOL     OW19006   3.578   1.289   0.220 -0.1614  0.2464  0.8254
 2515SOL    HW119007   3.611   1.211   0.265 -2.2476 -0.6264  0.8646
 2515SOL    HW219008   3.540   1.243   0.145  0.5702 -1.2808  1.3825
 2516SOL     OW19009   0.051   2.864   1.895  0.0599  0.3914  0.0574
 2516SOL    HW119010   0.134   2.823   1.872  0.6549 -0.3416  3.4455
 2516SOL    HW219011   0.068   2.950   1.933 -0.8473 -0.3247  2.1094
 2517SOL     OW19012   3.267   1.812   7.927  0.5444  0.0657  0.0642
 2517SOL    HW119013   3.244   1.895   7.968  0.1582  0.2671 -0.5723
 2517SOL    HW219014   3.353   1.790   7.963 -0.2638 -0.6390  1.5644
 2518SOL     OW19015   2.418   2.233  16.243 -0.0654 -0.0588 -0.3885
 2518SOL    HW119016   2.358   2.162  16.264  0.9191 -0.7777 -0.0194
 2518SOL    HW219017   2.421   2.231  16.147 -2.3046 -0.1084 -0.4516
 2519SOL     OW19018   0.774   3.185   2.228 -0.4652 -0.0428 -0.0671
 2519SOL    HW119019   0.741   3.247   2.293  1.1333 -0.1418  0.8185
 2519SOL    HW219020   0.805   3.245   2.159  1.8727  0.7265  1.6556
 2520SOL     OW19021   3.229   1.431   7.540 -0.0956  0.0752 -0.2440
 2520SOL    HW119022   3.251   1.501   7.478 -0.4062  1.2086  0.9249
 2520SOL    HW219023   3.300   1.436   7.603 -0.4999 -1.1192  0.2928
 2521SOL     OW19024   0.640   4.651   4.963  1.0946 -0.2014 -0.1464
 2521SOL    HW119025   0.593   4.694   5.034 -0.1716  2.1366 -2.4033
 2521SOL    HW219026   0.595   4.691   4.889  0.4409 -0.3809  0.1560
 2522SOL     OW19027   4.060   2.048  12.850  0.1397  0.0489 -0.2107
 2522SOL    HW119028   4.123   2.022  12.917 -0.0335 -0.7811 -0.3816
 2522SOL    HW219029   3.999   2.112  12.888 -1.4245 -2.0224  0.7524
 2523SOL     OW19030   1.694   2.673   8.011  0.1143  0.1448  0.2706
 2523SOL    HW119031   1.707   2.760   7.973  0.4620 -0.0169  0.0149
 2523SOL    HW219032   1.604   2.672   8.043 -0.5473 -1.1399 -1.6837
 2524SOL     OW19033   1.904   0.683  15.352  0.1766 -0.1032 -0.1356
 2524SOL    HW119034   1.843   0.755  15.364 -0.8668 -0.6056 -2.4521
 2524SOL    HW219035   1.910   0.646  15.440  1.1581  1.7020  0.5484
 2525SOL     OW19036   4.417   3.978  15.543  0.2841 -0.1171  0.4534
 2525SOL    HW119037   4.484   4.006  15.604 -0.9186  3.1726  0.2495
 2525SOL    HW219038   4.475   3.932  15.482 -0.3319  1.0730 -1.0543
 2526SOL     OW19039   2.594   1.748   5.699 -0.1841  0.2226 -0.0705
 2526SOL    HW119040   2.655   1.754   5.772 -0.7604 -1.9480  0.5837
 2526SOL    HW219041   2.646   1.763   5.621 -1.8153  0.1849 -1.1684
 2527SOL     OW19042   1.702   1.164  10.885 -0.0633 -0.3182 -0.3258
 2527SOL    HW119043   1.720   1.233  10.949  1.3049  0.3083 -1.3855
 2527SOL    HW219044   1.636   1.121  10.940 -0.6151  1.8115  0.6878
 2528SOL     OW19045   1.602   3.778   1.696 -0.4067 -0.0528 -0.1409
 2528SOL    HW119046   1.675   3.720   1.718 -0.7684 -0.5981 -0.3820
 2528SOL    HW219047   1.574   3.725   1.622 -1.8244 -0.4415  0.6718
 2529SOL     OW19048   4.139   1.134   9.155 -0.9426  0.3347 -0.5586
 2529SOL    HW119049   4.046   1.155   9.164 -0.9922 -0.7563  1.4985
 2529SOL    HW219050   4.159   1.125   9.248 -0.7684  1.8785 -0.4479
 2530SOL     OW19051   2.541   0.869   2.988  0.3829  0.6638 -0.0910
 2530SOL    HW119052   2.561   0.872   3.081  2.3781 -0.1467 -0.5047
 2530SOL    HW219053   2.467   0.808   2.982  0.1871  0.8931 -0.0412
 2531SOL     OW19054   0.054   3.237   0.602 -0.6296  0.1225  0.3717
 2531SOL    HW119055   0.080   3.221   0.693  0.1297 -1.3703 -0.1187
 2531SOL    HW219056   0.067   3.331   0.597 -0.3814  0.0500 -0.3275
 2532SOL     OW19057   1.371   1.667   5.971 -0.3634  0.2011  0.1375
 2532SOL    HW119058   1.437   1.601   5.994 -0.8021 -0.2067  0.2336
 2532SOL    HW219059   1.312   1.653   6.045  1.4276 -0.3888  1.4566
 2533SOL     OW19060   2.509   3.748  16.734 -0.0449 -0.1815 -1.0854
 2533SOL    HW119061   2.427   3.699  16.746  0.5173 -0.6395  0.9442
 2533SOL    HW219062   2.528   3.756  16.641 -0.9138 -3.8031 -1.5807
 2534SOL     OW19063   2.038   2.667   9.142 -0.3051 -0.2845 -0.2146
 2534SOL    HW119064   2.018   2.760   9.148 -3.5249 -0.9864  0.2841
 2534SOL    HW219065   2.091   2.668   9.063 -0.5225  0.6527 -0.3424
 2535SOL     OW19066   2.220   2.027   2.275  0.0269  0.3312 -0.8313
 2535SOL    HW119067   2.201   2.075   2.355  2.7029 -1.9918  1.1854
 2535SOL    HW219068   2.132   1.996   2.258 -0.4995  0.4803  1.6840
 2536SOL     OW19069   4.350   3.375   0.185 -0.6414 -0.1863  0.1882
 2536SOL    HW119070   4.339   3.469   0.172 -0.6110 -0.0752  0.9580
 2536SOL    HW219071   4.420   3.378   0.251 -1.0370 -2.3415  0.6967
 2537SOL     OW19072   1.370   0.074  14.426  0.2663  0.0822 -0.1559
 2537SOL    HW119073   1.383   0.142  14.360  0.6834  0.4903  0.3458
 2537SOL    HW219074   1.317   0.010  14.378  0.1114 -0.2899  0.5163
 2538SOL     OW19075   2.362   3.851   6.623  0.3770 -0.1287 -0.4378
 2538SOL    HW119076   2.375   3.760   6.648  0.2481 -0.0206  0.0167
 2538SOL    HW219077   2.371   3.889   6.710 -0.0898  1.6970 -1.1954
 2539SOL     OW19078   4.208   2.315   5.758  0.1340  0.3693  0.6042
 2539SOL    HW119079   4.276   2.374   5.725  0.2694 -0.3126 -0.3602
 2539SOL    HW219080   4.220   2.237   5.703 -1.6424  0.5983 -0.0895
 2540SOL     OW19081   2.359   0.075   9.221  0.8100 -0.3256 -0.4095
 2540SOL    HW119082   2.292   0.085   9.153  0.1001  0.4770  0.4045
 2540SOL    HW219083   2.416   0.149   9.202 -0.7869  1.1059  0.2769
 2541SOL     OW19084   1.055   0.573  11.767 -0.6299 -0.6439  0.3028
 2541SOL    HW119085   1.050   0.602  11.676 -0.9249  1.6559  1.0757
 2541SOL    HW219086   1.092   0.485  11.752  1.3454  0.5096 -1.6807
 2542SOL     OW19087   2.919   0.582  12.066 -0.1042 -0.2872 -0.0536
 2542SOL    HW119088   2.918   0.493  12.101 -3.3406  0.8126  2.5794
 2542SOL    HW219089   2.916   0.558  11.973 -2.0505  0.3576 -0.1485
 2543SOL     OW19090   1.985   3.289   5.502 -0.1398 -0.6949 -0.3575
 2543SOL    HW119091   1.981   3.363   5.441 -0.0057 -0.2229  0.2087
 2543SOL    HW219092   1.895   3.277   5.532  0.6804 -0.1775  2.3404
 2544SOL     OW19093   2.941   4.660  11.533 -0.1359 -0.0803  0.1161
 2544SOL    HW119094   2.910   4.653  11.623 -0.4834  3.1178  0.2687
 2544SOL    HW219095   3.030   4.687  11.555 -0.5492  1.8635 -0.5559
 2545SOL     OW19096   3.370   0.832   7.217 -0.1696  0.4027  0.0037
 2545SOL    HW119097   3.384   0.869   7.130  2.4181  1.3787  0.8342
 2545SOL    HW219098   3.443   0.850   7.277 -0.4340  1.2140  0.0846
 2546SOL     OW19099   2.676   4.622   8.437 -0.2571 -0.2286  0.2348
 2546SOL    HW119100   2.746   4.557   8.429 -0.5816 -0.5524 -0.0011
 2546SOL    HW219101   2.626   4.586   8.510  0.5405 -1.6386  0.0878
 2547SOL     OW19102   1.637   0.232   8.839 -0.0456 -0.3297  0.5690
 2547SOL    HW119103   1.665   0.300   8.901  0.5307 -1.9774  2.1358
 2547SOL    HW219104   1.712   0.175   8.824  0.9651  0.1275  3.8796
 2548SOL     OW19105   1.461   0.203  17.427 -0.2097 -0.4186  0.3708
 2548SOL    HW119106   1.432   0.286  17.466  0.8694  0.6917 -1.1586
 2548SOL    HW219107   1.544   0.184  17.471  0.7459  0.0861 -1.2191
 2549SOL     OW19108   2.684   0.137  16.143 -0.3640  0.1341 -0.2880
 2549SOL    HW119109   2.654   0.070  16.081  1.4636 -1.0159  0.0929
 2549SOL    HW219110   2.740   0.093  16.206 -0.2908  1.4648  0.5805
 2550SOL     OW19111   1.197   0.920   9.802 -0.4223 -0.1952 -0.0595
 2550SOL    HW119112   1.236   0.834   9.788  1.4533  0.3770  1.5354
 2550SOL    HW219113   1.252   0.933   9.880  2.8042 -1.0473 -2.1651
 2551SOL     OW19114   1.635   1.239   6.050 -0.0489  0.2441 -0.3886
 2551SOL    HW119115   1.619   1.333   6.045 -0.7250  0.2496  2.2328
 2551SOL    HW219116   1.709   1.233   6.111 -1.5274 -0.3808  1.3106
 2552SOL     OW19117   3.478   0.824   9.318  0.7505 -0.0225  0.1985
 2552SOL    HW119118   3.431   0.906   9.333  1.5990  0.4301  0.3804
 2552SOL    HW219119   3.407   0.761   9.306  1.6682 -1.1017  0.4268
 2553SOL     OW19120   0.813   2.503  11.267  0.9644 -0.3410 -0.2989
 2553SOL    HW119121   0.846   2.447  11.337 -0.1698 -1.9530 -1.0387
 2553SOL    HW219122   0.752   2.436  11.235 -3.2276  2.9730  0.6407
 2554SOL     OW19123   2.365   2.195   7.029  0.2271 -0.4486  0.1249
 2554SOL    HW119124   2.378   2.265   6.966  2.1997 -2.8057 -2.0417
 2554SOL    HW219125   2.304   2.241   7.087  1.7985  0.5138  0.9953
 2555SOL     OW19126   0.352   2.400   3.634  0.3377  0.0281 -0.3283
 2555SOL    HW119127   0.442   2.381   3.608  1.0924  2.4779  0.4612
 2555SOL    HW219128   0.339   2.340   3.707 -1.8156 -1.0113 -1.5567
 2556SOL     OW19129   2.853   3.096  10.643 -0.1698 -0.2994  0.7029
 2556SOL    HW119130   2.917   3.070  10.577 -0.6699  1.5359 -0.4991
 2556SOL    HW219131   2.834   3.017  10.694 -0.7996 -0.7918 -0.2825
 2557SOL     OW19132   3.155   1.192   7.170 -0.0441 -0.0643 -0.5096
 2557SOL    HW119133   3.084   1.149   7.217  0.0405  1.1290  0.6891
 2557SOL    HW219134   3.136   1.285   7.173  1.3247  0.2477 -1.2333
 2558SOL     OW19135   1.404   2.421   4.764 -0.3298 -0.4524 -0.2616
 2558SOL    HW119136   1.355   2.382   4.691  1.4994 -0.1491 -1.6594
 2558SOL    HW219137   1.334   2.436   4.827  1.1198 -1.1834  1.5251
 2559SOL     OW19138   3.480   3.048  10.350  0.2215  0.2224 -0.0060
 2559SOL    HW119139   3.561   3.005  10.378 -0.7836 -1.6305  0.1023
 2559SOL    HW219140   3.514   3.137  10.338  1.1963 -0.1356  0.0935
 2560SOL     OW19141   2.081   3.246   2.748 -0.5166  0.4902 -0.0632
 2560SOL    HW119142   2.060   3.322   2.693  2.4183  1.0309 -0.4496
 2560SOL    HW219143   2.010   3.195   2.710 -1.4664  2.1143 -0.4668
 2561SOL     OW19144   2.528   4.506  17.575  0.5058  0.1737  0.0552
 2561SOL    HW119145   2.533   4.597  17.603 -2.9128  0.5122 -0.3466
 2561SOL    HW219146   2.569   4.515  17.490 -1.2259  2.2368 -0.5593
 2562SOL     OW19147   1.357   1.831   0.240  0.0751  0.1630  0.0637
 2562SOL    HW119148   1.437   1.877   0.265  0.0234  0.0841  0.3728
 2562SOL    HW219149   1.328   1.868   0.156 -1.9132 -1.3638  0.0770
 2563SOL     OW19150   1.445   2.507   5.748 -0.5793  0.2405 -0.6950
 2563SOL    HW119151   1.511   2.573   5.767  0.8599 -1.3738 -0.1075
 2563SOL    HW219152   1.367   2.537   5.795  0.4438  0.5285  0.8132
 2564SOL     OW19153   1.605   1.072   0.076 -0.3365 -0.7271  0.4296
 2564SOL    HW119154   1.665   1.141   0.048 -1.4401 -0.8135 -2.0871
 2564SOL    HW219155   1.536   1.082   0.011 -1.3383  1.3783  1.8108
 2565SOL     OW19156   0.195   1.291  10.932  0.5882 -0.5490  0.2953
 2565SOL    HW119157   0.171   1.208  10.974 -4.5549  0.9749  0.4114
 2565SOL    HW219158   0.252   1.328  10.999 -0.3715  0.5091  0.5251
 2566SOL     OW19159   1.645   2.439  14.983  0.6042  0.4223  0.1532
 2566SOL    HW119160   1.678   2.356  15.019 -0.3224 -0.0768 -0.1453
 2566SOL    HW219161   1.705   2.443  14.907  2.0833  0.9243  1.3443
 2567SOL     OW19162   4.399   2.100   6.802  0.2933 -0.3352 -0.1533
 2567SOL    HW119163   4.339   2.124   6.873  1.5275 -1.5410  1.3032
 2567SOL    HW219164   4.399   2.005   6.801 -0.6248 -0.3439  0.0262
 2568SOL     OW19165   4.614   0.067   7.078  0.3416 -0.8229  0.2669
 2568SOL    HW119166   4.556   0.113   7.018  0.3738 -2.7731 -1.2877
 2568SOL    HW219167   4.677   0.134   7.105 -0.4603  0.4441 -1.0161
 2569SOL     OW19168   3.522   1.878   5.354 -0.2773  0.3691  0.2038
 2569SOL    HW119169   3.531   1.860   5.260 -2.0224  2.5547 -0.3907
 2569SOL    HW219170   3.451   1.942   5.346 -0.1366  0.2710 -1.9600
 2570SOL     OW19171   2.853   2.042  14.075  0.3847  0.0015 -0.0579
 2570SOL    HW119172   2.757   2.040  14.067  0.0547 -3.4876  4.5956
 2570SOL    HW219173   2.869   1.999  13.991 -3.7969 -1.0259 -0.3339
 2571SOL     OW19174   2.952   0.730   9.859  0.6905  0.5551  0.1192
 2571SOL    HW119175   2.981   0.782   9.784  0.6543 -1.8992 -1.6148
 2571SOL    HW219176   2.857   0.739   9.852  0.7702  0.1423 -1.6446
 2572SOL     OW19177   0.889   0.071   7.252 -0.4483  0.3986  0.1238
 2572SOL    HW119178   0.813   0.013   7.255  1.3366 -1.9830 -0.1325
 2572SOL    HW219179   0.848   0.154   7.274  0.5632  0.7054  0.8389
 2573SOL     OW19180   3.300   0.289   5.835 -0.5243 -0.3825 -0.8229
 2573SOL    HW119181   3.363   0.221   5.859 -2.5004 -2.2870 -1.0577
 2573SOL    HW219182   3.340   0.333   5.760 -0.3335  0.3992 -0.2576
 2574SOL     OW19183   3.172   2.671   8.594  0.0384 -0.1823 -0.1604
 2574SOL    HW119184   3.134   2.697   8.510  2.4339  1.0766 -0.8669
 2574SOL    HW219185   3.258   2.634   8.571 -0.4184 -0.3293 -1.6189
 2575SOL     OW19186   0.797   3.721  10.287  0.5981  0.3220 -0.5921
 2575SOL    HW119187   0.875   3.769  10.260  1.4819 -0.2390  0.9577
 2575SOL    HW219188   0.794   3.646  10.227  0.4797 -0.6444  0.6113
 2576SOL     OW19189   4.599   3.519   5.576 -0.5245 -0.1582  0.1315
 2576SOL    HW119190   4.673   3.529   5.636  0.7151  1.2275 -1.6517
 2576SOL    HW219191   4.527   3.518   5.639 -0.4756  2.0297  0.2335
 2577SOL     OW19192   1.418   1.286   3.180 -0.5970  0.0685 -0.0849
 2577SOL    HW119193   1.461   1.253   3.101  0.1938  2.6709 -0.7505
 2577SOL    HW219194   1.363   1.351   3.136 -1.6941 -0.9746 -0.2409
 2578SOL     OW19195   1.343   1.846  13.939 -0.4674  0.5430 -0.3539
 2578SOL    HW119196   1.375   1.925  13.983 -2.7753  2.2060 -1.6406
 2578SOL    HW219197   1.258   1.857  13.982  0.0063  0.4074  0.6164
 2579SOL     OW19198   2.428   3.210  16.637  0.2848 -0.4370 -0.6323
 2579SOL    HW119199   2.509   3.160  16.649  1.1053  1.2208  0.7980
 2579SOL    HW219200   2.418   3.202  16.542  1.9876 -0.0494 -0.8512
 2580SOL     OW19201   1.745   0.645  10.129 -0.4489  0.2592  0.7372
 2580SOL    HW119202   1.822   0.593  10.151  1.4093  2.9517  0.5588
 2580SOL    HW219203   1.774   0.682  10.046 -1.0773 -2.3753 -0.6652
 2581SOL     OW19204   4.162   1.273   7.931  0.1653 -0.3133  0.2519
 2581SOL    HW119205   4.251   1.242   7.948  0.7124  0.9797 -0.2706
 2581SOL    HW219206   4.123   1.186   7.943  2.0556 -1.4680 -1.8809
 2582SOL     OW19207   0.536   4.451   2.931 -0.4658  0.1388  0.4438
 2582SOL    HW119208   0.517   4.535   2.890 -0.9383 -0.8243 -1.3016
 2582SOL    HW219209   0.520   4.466   3.024 -2.3999  0.8134  0.0163
 2583SOL     OW19210   0.142   2.355   8.864  0.2039  0.6230  0.4727
 2583SOL    HW119211   0.071   2.365   8.927 -1.3863  1.0624 -1.3820
 2583SOL    HW219212   0.162   2.263   8.877 -1.2409  0.3194  0.5634
 2584SOL     OW19213   2.666   2.764  13.256  0.2334  0.2960  0.4785
 2584SOL    HW119214   2.577   2.730  13.268  0.9511 -1.4791  0.7434
 2584SOL    HW219215   2.725   2.692  13.276 -0.4225 -1.1116 -2.5567
 2585SOL     OW19216   0.836   2.009   7.550  0.0879 -0.1049 -0.1400
 2585SOL    HW119217   0.898   1.965   7.608 -1.1833 -1.8732 -0.1064
 2585SOL    HW219218   0.760   1.956   7.574  0.3352 -0.0915  0.6761
 2586SOL     OW19219   1.350   2.950   6.370  0.0255 -0.3653  0.3661
 2586SOL    HW119220   1.430   2.907   6.337 -0.6637 -0.4631 -1.1596
 2586SOL    HW219221   1.342   2.900   6.451  0.8895 -0.0855  0.6264
 2587SOL     OW19222   4.510   4.025   3.161 -0.4029 -0.3024  0.4285
 2587SOL    HW119223   4.508   4.070   3.077  3.3243  1.5932  1.3443
 2587SOL    HW219224   4.418   4.002   3.171 -0.9997  2.4360  1.1132
 2588SOL     OW19225   0.469   0.829   1.283 -0.2390 -0.0323 -0.5631
 2588SOL    HW119226   0.547   0.811   1.336  0.2839  2.9744 -0.3137
 2588SOL    HW219227   0.451   0.921   1.302 -1.0052  0.2730 -2.7172
 2589SOL     OW19228   3.948   2.816  12.680 -0.3099 -0.1529  1.0257
 2589SOL    HW119229   4.015   2.868  12.725  2.3710 -1.6868 -1.1364
 2589SOL    HW219230   3.959   2.846  12.590 -0.0592 -0.1152  1.0671
 2590SOL     OW19231   3.690   4.430   1.874  0.0448  0.1637  0.5990
 2590SOL    HW119232   3.607   4.417   1.829  0.4029 -2.9083  0.8145
 2590SOL    HW219233   3.754   4.438   1.804  0.7677  1.8910  1.4653
 2591SOL     OW19234   2.822   1.268   3.517 -0.5104 -0.4148 -0.1649
 2591SOL    HW119235   2.809   1.221   3.600  0.7148 -1.2670 -0.4636
 2591SOL    HW219236   2.904   1.314   3.530 -1.7564  2.5595 -2.9127
 2592SOL     OW19237   3.023   0.250   5.255  0.0145  0.1752 -0.8598
 2592SOL    HW119238   3.000   0.217   5.342 -2.0646  2.3635 -0.5714
 2592SOL    HW219239   2.986   0.178   5.205 -0.3733 -1.4775  1.8354
 2593SOL     OW19240   1.963   3.693   3.377  0.1254  0.3930  0.1681
 2593SOL    HW119241   2.041   3.645   3.350  2.2009  2.6097  2.2049
 2593SOL    HW219242   1.923   3.636   3.443 -1.1141  0.4972 -0.4839
 2594SOL     OW19243   0.291   1.403   0.373  0.6021 -0.3007  0.1327
 2594SOL    HW119244   0.273   1.358   0.290 -0.9103  0.8558 -0.1563
 2594SOL    HW219245   0.360   1.348   0.412  1.1861  0.4428  0.1445
 2595SOL     OW19246   0.104   2.552   5.438  0.0258 -0.2179  0.2943
 2595SOL    HW119247   0.087   2.458   5.442 -0.5320 -0.1257  0.0926
 2595SOL    HW219248   0.156   2.576   5.515  0.6899  0.4180 -0.3544
 2596SOL     OW19249   4.208   3.247   4.537  0.2218  0.2596 -0.0563
 2596SOL    HW119250   4.260   3.169   4.520 -0.3540  0.2420 -1.7818
 2596SOL    HW219251   4.119   3.218   4.520 -0.0306  0.2217  1.3620
 2597SOL     OW19252   4.085   1.770   6.827  0.4968  0.7584 -0.1882
 2597SOL    HW119253   4.085   1.701   6.761  1.5539 -0.3709  0.9832
 2597SOL    HW219254   4.001   1.816   6.824  0.1153  0.0880  0.0701
 2598SOL     OW19255   2.960   1.433   9.356  0.2751 -0.2442  0.4262
 2598SOL    HW119256   2.946   1.369   9.425 -3.4109  1.5166  1.3240
 2598SOL    HW219257   2.946   1.514   9.404 -2.9580  1.3189 -3.1574
 2599SOL     OW19258   0.086   1.031   8.086  0.1129  0.1806  0.1745
 2599SOL    HW119259   0.059   0.955   8.137 -0.9388  0.8289  0.5742
 2599SOL    HW219260   0.073   1.105   8.146 -2.1233 -0.9748  1.1084
 2600SOL     OW19261   2.973   3.436   2.838 -0.2686  0.6567  0.5544
 2600SOL    HW119262   2.944   3.526   2.850 -0.1051  0.8454 -0.4388
 2600SOL    HW219263   2.967   3.430   2.743 -0.1964 -2.7260  0.7571
 2601SOL     OW19264   0.575   3.053  11.957 -0.2561 -0.7232  0.8679
 2601SOL    HW119265   0.595   3.100  11.876 -1.0699 -0.0507  1.0580
 2601SOL    HW219266   0.533   2.981  11.911  1.6603 -1.0904 -0.3255
 2602SOL     OW19267   0.913   0.477  12.800 -0.2909 -0.5406  0.4335
 2602SOL    HW119268   1.005   0.499  12.817 -1.1834  2.9600  0.6736
 2602SOL    HW219269   0.876   0.565  12.799  0.5034 -0.2690 -3.3074
 2603SOL     OW19270   2.954   1.532   5.393 -0.3819 -0.8348  0.0133
 2603SOL    HW119271   2.904   1.614   5.395  1.6316  0.3594  0.9966
 2603SOL    HW219272   2.906   1.497   5.317  0.9648 -2.1671 -0.2130
 2604SOL     OW19273   3.759   0.268  14.385 -0.2055 -0.0366 -0.4197
 2604SOL    HW119274   3.697   0.208  14.426  0.1653  0.3964  0.7875
 2604SOL    HW219275   3.756   0.332  14.456  1.6182  0.5747 -0.8820
 2605SOL     OW19276   1.627   1.531   6.020 -0.1388 -0.4915 -0.5799
 2605SOL    HW119277   1.634   1.566   6.108 -0.3485 -1.0677 -0.3298
 2605SOL    HW219278   1.710   1.561   5.982  0.8569  0.0228  2.0412
 2606SOL     OW19279   0.899   3.018   7.524 -0.0818 -0.0682  0.1541
 2606SOL    HW119280   0.962   3.017   7.596  0.7071  0.5030 -0.5378
 2606SOL    HW219281   0.824   3.059   7.568  0.4545 -0.8748  1.8385
 2607SOL     OW19282   0.778   3.449   2.663 -0.1847  0.4346  0.1312
 2607SOL    HW119283   0.767   3.488   2.749 -1.1657  0.1890  0.1075
 2607SOL    HW219284   0.822   3.523   2.619  1.6760  0.2244  1.6155
 2608SOL     OW19285   2.429   0.879   4.466  0.1055 -0.8895  0.1958
 2608SOL    HW119286   2.483   0.841   4.397  2.3248  0.0264  1.4141
 2608SOL    HW219287   2.497   0.930   4.511  0.4517  0.3827 -1.7499
 2609SOL     OW19288   0.833   2.083  11.245 -0.3765 -0.9776 -0.3410
 2609SOL    HW119289   0.767   2.152  11.238 -0.1475 -0.6749  0.4245
 2609SOL    HW219290   0.789   2.000  11.229  1.2766 -1.8962 -0.1780
 2610SOL     OW19291   3.047   0.330  15.180 -0.2559  0.2384  0.1538
 2610SOL    HW119292   3.043   0.238  15.151  0.8179  0.3180 -0.2570
 2610SOL    HW219293   2.955   0.342  15.204 -0.7883 -0.0562 -1.7130
 2611SOL     OW19294   3.700   2.114  14.997  0.2548  0.0271 -0.0405
 2611SOL    HW119295   3.607   2.138  14.997 -0.1116 -1.3855  0.1573
 2611SOL    HW219296   3.722   2.107  15.090  1.0032  0.5004 -0.1827
 2612SOL     OW19297   4.605   0.584   5.311 -0.5878  0.3957 -0.3062
 2612SOL    HW119298   4.701   0.588   5.310 -0.5970  0.5784 -0.2957
 2612SOL    HW219299   4.586   0.549   5.398  0.7976 -2.2619 -1.0621
 2613SOL     OW19300   0.664   0.127   5.524  0.4745  0.0233 -0.1932
 2613SOL    HW119301   0.599   0.083   5.469  1.6160 -3.3024  1.1706
 2613SOL    HW219302   0.717   0.178   5.462 -0.0619 -0.1424 -0.7877
 2614SOL     OW19303   0.272   3.312  17.300  0.3476 -0.5719 -0.0249
 2614SOL    HW119304   0.344   3.371  17.321  0.6227 -1.0117  0.2778
 2614SOL    HW219305   0.229   3.303  17.385  1.0275  1.3387  0.5093
 2615SOL     OW19306   3.620   1.110   8.689 -0.1530  0.4216  0.1248
 2615SOL    HW119307   3.690   1.109   8.753 -1.4666 -2.4198  1.5013
 2615SOL    HW219308   3.675   1.115   8.611 -0.1917 -0.2592  0.0525
 2616SOL     OW19309   2.054   0.977   5.370  0.1976 -0.3329 -0.2638
 2616SOL    HW119310   2.084   0.949   5.284 -2.2549  0.4658 -1.4006
 2616SOL    HW219311   1.972   1.024   5.352  1.7851  1.3451 -3.0458
 2617SOL     OW19312   3.896   0.410  16.815  0.2199  0.9556 -0.0777
 2617SOL    HW119313   3.845   0.432  16.738  0.1901 -0.1670 -0.3853
 2617SOL    HW219314   3.983   0.439  16.786 -0.0148  1.4901 -0.2445
 2618SOL     OW19315   0.075   0.879   7.203 -0.2308 -0.2593 -0.3601
 2618SOL    HW119316   0.069   0.783   7.204  4.5158 -0.5415  2.9434
 2618SOL    HW219317   0.054   0.897   7.294 -2.0799  0.7999 -1.0036
 2619SOL     OW19318   2.912   3.200   5.321 -0.3922  0.1761 -0.4424
 2619SOL    HW119319   2.864   3.267   5.273  0.0662  0.8060 -0.0153
 2619SOL    HW219320   2.960   3.243   5.391 -0.5957 -1.6338  0.8216
 2620SOL     OW19321   1.838   2.822   1.975  0.2764  0.6190 -0.4978
 2620SOL    HW119322   1.914   2.764   1.977  0.3846  0.7407 -0.8773
 2620SOL    HW219323   1.877   2.895   2.024 -0.1616  0.6716 -0.2327
 2621SOL     OW19324   3.785   0.684   7.418 -0.1893  0.2928 -0.0686
 2621SOL    HW119325   3.731   0.722   7.487 -0.7205  2.1246 -1.4898
 2621SOL    HW219326   3.767   0.741   7.343  0.1186 -0.1469 -0.4773
 2622SOL     OW19327   4.603   2.951   8.310  0.1529  0.2026  0.3249
 2622SOL    HW119328   4.535   2.980   8.371  0.9281  1.9575  0.3277
 2622SOL    HW219329   4.591   3.009   8.236  0.5452  1.6870  1.4319
 2623SOL     OW19330   3.863   3.028   7.479  0.4591  0.5344  0.6100
 2623SOL    HW119331   3.769   3.010   7.479  0.5110  0.2988 -0.3361
 2623SOL    HW219332   3.883   3.031   7.386 -0.4005  1.2085  0.4448
 2624SOL     OW19333   1.619   0.986   3.112 -1.1249 -0.2589 -0.5285
 2624SOL    HW119334   1.683   0.923   3.079  0.6415  0.7638  0.9658
 2624SOL    HW219335   1.569   1.007   3.033  0.2160  1.0010 -1.0407
 2625SOL     OW19336   4.153   4.649   0.940 -0.0640 -0.7088 -0.0554
 2625SOL    HW119337   4.096   4.587   0.984 -1.5107  1.8716  1.7453
 2625SOL    HW219338   4.217   4.657   1.010  0.1449  0.8999 -0.4096
 2626SOL     OW19339   3.605   1.007  13.322 -0.4100 -0.5677  0.2082
 2626SOL    HW119340   3.538   0.939  13.317  0.4491 -1.2270 -2.2493
 2626SOL    HW219341   3.690   0.963  13.316  0.9250  1.5700  3.1440
 2627SOL     OW19342   3.834   2.085   8.217  0.2005  0.3468  0.4542
 2627SOL    HW119343   3.917   2.043   8.195  0.1526  0.1217  0.7097
 2627SOL    HW219344   3.850   2.136   8.296  1.2965 -0.5608  0.8139
 2628SOL     OW19345   0.871   2.089   4.866  0.0548  0.6285  0.0239
 2628SOL    HW119346   0.823   2.019   4.909  0.9216  0.0169 -0.0178
 2628SOL    HW219347   0.920   2.132   4.935  0.7913 -1.0640  0.5422
 2629SOL     OW19348   2.465   3.789   4.968 -1.2629  0.2806  0.1380
 2629SOL    HW119349   2.478   3.861   4.906  3.5887  0.8891  1.8576
 2629SOL    HW219350   2.536   3.732   4.940  0.4497  1.0478  2.8302
 2630SOL     OW19351   0.928   4.393   3.059 -0.1007  0.1086  0.0280
 2630SOL    HW119352   0.932   4.485   3.034 -0.5033 -0.1038 -0.8033
 2630SOL    HW219353   0.886   4.392   3.145  0.0562 -0.8272  0.0972
 2631SOL     OW19354   1.100   0.792   4.797 -0.0455  0.3744 -0.0535
 2631SOL    HW119355   1.135   0.764   4.712 -0.0128  0.9481 -0.2291
 2631SOL    HW219356   1.047   0.714   4.815 -1.2579  1.1672 -0.1788
 2632SOL     OW19357   1.905   4.664   7.732  0.3202 -0.0580  1.1517
 2632SOL    HW119358   1.894   4.714   7.651 -0.9880  1.4084  2.2230
 2632SOL    HW219359   1.817   4.659   7.769 -0.1566 -1.9187 -0.2670
 2633SOL     OW19360   4.639   2.543   7.341 -0.4511  0.0545 -0.4251
 2633SOL    HW119361   4.706   2.580   7.284  1.0615 -0.8217  0.7770
 2633SOL    HW219362   4.563   2.584   7.300 -0.8450 -0.7930 -0.5444
 2634SOL     OW19363   4.645   0.249   9.463 -0.1469 -0.3479  0.2588
 2634SOL    HW119364   4.689   0.244   9.378 -0.8166  2.5657 -0.2337
 2634SOL    HW219365   4.565   0.295   9.438  0.1180 -0.6036 -1.0588
 2635SOL     OW19366   2.178   2.188   1.501  0.8444 -0.0586  0.5515
 2635SOL    HW119367   2.213   2.265   1.546  0.6150  0.5100 -0.2300
 2635SOL    HW219368   2.224   2.205   1.419  1.2857 -1.1483  0.5753
 2636SOL     OW19369   2.942   1.309   1.514 -0.1408 -0.1229 -0.3130
 2636SOL    HW119370   2.942   1.322   1.419 -0.1368  0.6031 -0.2067
 2636SOL    HW219371   2.973   1.218   1.522 -0.9426 -0.0405  3.6052
 2637SOL     OW19372   3.391   3.685   2.552  0.4784 -0.2388  0.1376
 2637SOL    HW119373   3.362   3.675   2.642 -0.3196 -0.7762 -0.1765
 2637SOL    HW219374   3.308   3.667   2.507 -0.1420  1.9188  0.3880
 2638SOL     OW19375   3.181   4.414   7.152  0.3623  0.6587 -0.1211
 2638SOL    HW119376   3.275   4.398   7.147  0.1883 -0.4953  0.2584
 2638SOL    HW219377   3.178   4.447   7.062  0.4287 -1.2447 -0.8258
 2639SOL     OW19378   2.134   3.620   6.851  0.2035  0.2190  0.0956
 2639SOL    HW119379   2.168   3.620   6.762  0.2054 -0.8038  0.0992
 2639SOL    HW219380   2.090   3.705   6.859  1.2744  0.5601  2.4900
 2640SOL     OW19381   4.258   0.350   0.791 -0.2974  0.0909  0.3405
 2640SOL    HW119382   4.186   0.381   0.846 -0.6156  2.4539 -1.4064
 2640SOL    HW219383   4.234   0.385   0.705  3.3720  2.3464  0.2492
 2641SOL     OW19384   4.609   0.577   7.859  0.1855 -0.2368  0.1225
 2641SOL    HW119385   4.605   0.483   7.840 -0.1416 -0.3901  0.9659
 2641SOL    HW219386   4.575   0.585   7.948 -1.3249  4.0571 -0.8465
 2642SOL     OW19387   1.329   3.151   6.652  0.0124  0.1809 -0.6692
 2642SOL    HW119388   1.376   3.167   6.571 -0.1307 -0.3963 -0.8684
 2642SOL    HW219389   1.401   3.152   6.715  3.0637  2.2165 -4.2178
 2643SOL     OW19390   0.357   1.835   5.573  0.0587 -0.1085 -0.2273
 2643SOL    HW119391   0.333   1.764   5.514 -0.5912  0.6826 -0.9136
 2643SOL    HW219392   0.444   1.807   5.600 -0.8341 -1.7978  0.8784
 2644SOL     OW19393   2.108   0.239   6.965  0.2033  0.1060  0.0049
 2644SOL    HW119394   2.141   0.328   6.954 -0.7225  0.5609  0.9218
 2644SOL    HW219395   2.125   0.209   6.875 -2.2903  1.9282 -1.0886
 2645SOL     OW19396   3.359   0.963   5.747 -0.1570  0.4154  0.4234
 2645SOL    HW119397   3.361   0.868   5.740  0.8705  0.2972  2.4202
 2645SOL    HW219398   3.316   0.970   5.662  0.0788 -0.5022  0.2233
 2646SOL     OW19399   0.176   2.217   4.637 -0.0731  0.2052 -0.3373
 2646SOL    HW119400   0.110   2.268   4.684  0.5988  0.0608  0.7739
 2646SOL    HW219401   0.212   2.171   4.713  3.2923  1.6571 -1.0495
 2647SOL     OW19402   3.438   4.303   6.578  0.1066 -0.4088  0.8020
 2647SOL    HW119403   3.408   4.277   6.665  2.3779 -1.6656  1.2297
 2647SOL    HW219404   3.445   4.218   6.536  0.3426  0.9819 -1.9619
 2648SOL     OW19405   3.728   3.090  16.283  0.1378  0.1331  0.0624
 2648SOL    HW119406   3.737   3.029  16.356  3.8497  2.3655  1.4771
 2648SOL    HW219407   3.800   3.153  16.294 -0.5692  0.7131  1.4014
 2649SOL     OW19408   3.964   2.991   8.633  0.5297  0.1638 -0.1530
 2649SOL    HW119409   3.935   3.061   8.691  2.6201  0.2817  0.7314
 2649SOL    HW219410   4.044   2.968   8.680 -0.2784 -0.5675  0.8702
 2650SOL     OW19411   1.662   0.192   1.830  0.2915 -0.2396  0.2766
 2650SOL    HW119412   1.667   0.268   1.888  1.6022  0.6442 -1.0016
 2650SOL    HW219413   1.633   0.234   1.749  2.7402  4.5590  1.8968
 2651SOL     OW19414   3.758   3.366   5.926 -0.6644  0.3817 -0.1452
 2651SOL    HW119415   3.769   3.273   5.944 -3.5718 -0.2732 -1.6745
 2651SOL    HW219416   3.737   3.362   5.833  1.0448 -0.3921 -0.4886
 2652SOL     OW19417   0.285   0.265   9.009  0.0804  0.1767 -1.0614
 2652SOL    HW119418   0.320   0.265   8.920  2.0233  0.9797 -0.2847
 2652SOL    HW219419   0.194   0.295   9.002  0.1470  0.7696  0.5009
 2653SOL     OW19420   3.668   3.951   5.582  0.2571 -0.7915  1.0600
 2653SOL    HW119421   3.728   3.942   5.656  1.4366  0.6220  0.2805
 2653SOL    HW219422   3.729   3.966   5.510  1.0481 -0.9082  1.7161
 2654SOL     OW19423   2.924   3.786  16.948  0.2798  0.7132  0.4317
 2654SOL    HW119424   2.965   3.843  17.014  1.8911  0.3237 -0.2279
 2654SOL    HW219425   2.931   3.699  16.986  1.2461  0.2702 -0.7725
 2655SOL     OW19426   2.869   0.213   2.913 -0.3073  0.4033  0.2480
 2655SOL    HW119427   2.845   0.306   2.913  2.7031  1.1807 -2.1633
 2655SOL    HW219428   2.832   0.173   2.835  1.8222 -1.1027  0.0035
 2656SOL     OW19429   0.617   1.613  16.194  0.0697 -0.2344 -0.0152
 2656SOL    HW119430   0.527   1.584  16.183  1.0759 -2.8083 -1.4137
 2656SOL    HW219431   0.617   1.696  16.146  0.4187  0.4857  1.2232
 2657SOL     OW19432   4.620   0.588   9.156 -0.1260 -0.3936 -0.3176
 2657SOL    HW119433   4.706   0.621   9.182 -0.1757 -0.7222  0.2602
 2657SOL    HW219434   4.596   0.575   9.248  0.6841  3.0448  0.3876
 2658SOL     OW19435   3.572   1.507  14.436  0.0656  0.2334  0.4628
 2658SOL    HW119436   3.542   1.549  14.517 -0.2631  0.2112  0.3529
 2658SOL    HW219437   3.512   1.434  14.447 -2.1413  1.9110 -0.3773
 2659SOL     OW19438   2.760   2.638   2.538 -0.0309 -0.6655 -0.5507
 2659SOL    HW119439   2.777   2.701   2.468  1.6071  0.8907  1.2452
 2659SOL    HW219440   2.789   2.685   2.617 -1.2981  0.8265 -0.9741
 2660SOL     OW19441   2.494   1.562   3.690  0.3421 -0.0775  0.2676
 2660SOL    HW119442   2.407   1.540   3.724 -0.2289 -0.2575 -1.3494
 2660SOL    HW219443   2.474   1.624   3.620 -1.3384 -1.0811 -0.1423
 2661SOL     OW19444   3.685   3.184   3.273  0.1877  0.9370 -0.4173
 2661SOL    HW119445   3.610   3.188   3.333  0.2350 -1.0824 -0.2146
 2661SOL    HW219446   3.660   3.143   3.191  2.0033 -1.6164  0.3102
 2662SOL     OW19447   1.968   2.833   6.112 -0.0527 -0.1126 -0.4889
 2662SOL    HW119448   2.018   2.830   6.030 -0.1397 -2.5759 -0.4469
 2662SOL    HW219449   1.900   2.899   6.096 -1.2689 -1.5312 -1.1318
 2663SOL     OW19450   1.468   3.009   8.442 -0.2897  0.1824  0.7941
 2663SOL    HW119451   1.494   3.001   8.350  0.6129 -1.5977  1.1991
 2663SOL    HW219452   1.553   2.987   8.479 -0.3818  1.0232  1.4911
 2664SOL     OW19453   1.592   4.666   6.183  0.8317 -0.3273 -0.6052
 2664SOL    HW119454   1.610   0.034   6.197 -1.2869 -0.2483  1.5343
 2664SOL    HW219455   1.679   4.630   6.200  1.4979  1.9599  0.8025
 2665SOL     OW19456   3.267   0.791   2.043  0.5353  0.0348  0.5137
 2665SOL    HW119457   3.325   0.718   2.021 -0.6178 -1.5102  2.5256
 2665SOL    HW219458   3.226   0.760   2.124 -2.5005  2.7888  0.0194
 2666SOL     OW19459   2.112   4.555   6.501  0.0909  0.2517  0.1642
 2666SOL    HW119460   2.074   4.522   6.583 -1.6928 -1.2356 -1.2523
 2666SOL    HW219461   2.084   4.497   6.430  0.5363 -0.9669  0.9847
 2667SOL     OW19462   2.165   1.574  14.367 -0.8510  0.2974 -0.0837
 2667SOL    HW119463   2.203   1.662  14.364 -0.6842  0.3101  2.3118
 2667SOL    HW219464   2.157   1.580  14.462 -0.5564 -2.2795  0.1090
 2668SOL     OW19465   2.237   0.914   9.840 -0.0555  0.3901 -0.1606
 2668SOL    HW119466   2.300   0.977   9.805  2.4350 -2.8934 -1.6468
 2668SOL    HW219467   2.288   0.833   9.839 -1.2750 -0.3739 -0.1687
 2669SOL     OW19468   3.543   0.135   2.714 -0.2811  0.0943  1.1335
 2669SOL    HW119469   3.509   0.095   2.795 -1.1686 -0.2379  0.6013
 2669SOL    HW219470   3.481   0.204   2.690 -1.5141 -1.8573 -1.2825
 2670SOL     OW19471   2.426   4.514   1.386  0.2234  0.4298 -0.1200
 2670SOL    HW119472   2.401   4.467   1.466 -0.5959 -1.7556 -1.6731
 2670SOL    HW219473   2.349   4.570   1.378 -1.0959 -1.7294 -2.3721
 2671SOL     OW19474   3.030   0.868   2.497  0.6461  0.5034 -0.2965
 2671SOL    HW119475   2.988   0.953   2.480  0.2420  0.3051 -0.3050
 2671SOL    HW219476   3.112   0.897   2.537  0.2093 -1.5631  2.0456
 2672SOL     OW19477   3.004   4.066  17.040 -0.7842 -0.4719  0.1086
 2672SOL    HW119478   2.960   4.112  16.968  0.1652 -0.0546 -0.1981
 2672SOL    HW219479   2.922   4.037  17.082 -0.3850 -0.8819  0.5990
 2673SOL     OW19480   0.383   4.254  10.045  0.1040  0.0922  0.0401
 2673SOL    HW119481   0.349   4.168  10.070  0.4081 -0.7499 -2.4774
 2673SOL    HW219482   0.335   4.260   9.963 -0.5534  2.3689  0.6040
 2674SOL     OW19483   2.567   4.598   3.454  0.1672  0.5107  0.0114
 2674SOL    HW119484   2.513   4.536   3.404 -1.2977  0.1506  2.0134
 2674SOL    HW219485   2.531   4.684   3.433 -1.0492 -0.1385 -0.5757
 2675SOL     OW19486   0.539   0.003  11.965 -0.4180 -0.9396  0.4437
 2675SOL    HW119487   0.443   0.000  11.964 -0.4724  1.2041 -0.0253
 2675SOL    HW219488   0.553   4.661  11.899  0.8528 -0.5550  0.3180
 2676SOL     OW19489   3.440   1.321   4.572 -0.1217 -0.2164  0.0092
 2676SOL    HW119490   3.508   1.370   4.526 -0.5052  1.2570  1.0251
 2676SOL    HW219491   3.487   1.238   4.571  2.9289  1.5184 -0.0881
 2677SOL     OW19492   1.219   4.214  12.320 -0.7808 -0.1511 -0.3774
 2677SOL    HW119493   1.203   4.293  12.371  2.3356  0.2318 -0.0012
 2677SOL    HW219494   1.301   4.185  12.358  0.5394  0.3553 -2.7992
 2678SOL     OW19495   0.568   3.556   1.695  0.1501 -0.1099 -0.0651
 2678SOL    HW119496   0.610   3.514   1.769 -0.1114 -0.4372 -0.1051
 2678SOL    HW219497   0.481   3.517   1.702 -0.4287  1.6145  2.2793
 2679SOL     OW19498   0.753   4.365   4.754  0.3745 -0.2035  0.3500
 2679SOL    HW119499   0.735   4.292   4.696  1.8684 -0.4172  0.1581
 2679SOL    HW219500   0.747   4.326   4.842  0.3980 -3.0403 -0.9218
 2680SOL     OW19501   3.404   2.019   4.631 -0.4086 -0.6071  0.1991
 2680SOL    HW119502   3.404   1.981   4.544 -1.6298 -0.7453  0.2589
 2680SOL    HW219503   3.326   2.073   4.620 -0.9870 -1.3004  0.8302
 2681SOL     OW19504   3.057   4.285   2.026 -0.0640  0.1089  0.1997
 2681SOL    HW119505   3.149   4.289   1.999  0.3701 -1.6308  1.4257
 2681SOL    HW219506   3.062   4.255   2.116 -0.8259 -0.6829 -0.0257
 2682SOL     OW19507   0.423   3.216  11.039  0.2571 -0.3609  0.0922
 2682SOL    HW119508   0.467   3.269  11.106 -1.3141  0.0970  0.7649
 2682SOL    HW219509   0.358   3.279  11.008 -0.3623  1.1714  4.5284
 2683SOL     OW19510   4.710   1.746   7.307  0.3384  0.0971  0.2362
 2683SOL    HW119511   0.016   1.818   7.252  2.5267 -2.6567 -2.1236
 2683SOL    HW219512   0.063   1.728   7.359 -0.9097  2.8782  3.0516
 2684SOL     OW19513   1.256   3.374   5.376  0.3601  0.0775  0.1651
 2684SOL    HW119514   1.300   3.310   5.320 -1.2141 -1.2906  0.4749
 2684SOL    HW219515   1.184   3.397   5.317 -1.4013 -1.5767  1.6847
 2685SOL     OW19516   3.875   1.096  11.915  0.1348  0.4922 -0.2324
 2685SOL    HW119517   3.947   1.034  11.923  0.6682  1.6387  4.0710
 2685SOL    HW219518   3.907   1.171  11.965  1.4213 -0.0954 -0.1851
 2686SOL     OW19519   2.362   1.740   2.059 -0.0311 -0.1432  0.1610
 2686SOL    HW119520   2.371   1.797   1.984 -0.5617 -0.7347 -0.3530
 2686SOL    HW219521   2.315   1.663   2.028  1.8661 -0.6290 -1.5252
 2687SOL     OW19522   4.400   4.106   5.440 -0.3839  0.7074  0.7351
 2687SOL    HW119523   4.408   4.123   5.534  1.8076  0.9057  0.5116
 2687SOL    HW219524   4.401   4.010   5.444 -0.5044  0.6983  0.5061
 2688SOL     OW19525   0.397   1.411   3.290 -0.0716  0.0435 -0.2323
 2688SOL    HW119526   0.339   1.378   3.222  0.4179  1.4652 -1.3571
 2688SOL    HW219527   0.466   1.444   3.232 -0.5522 -0.6871 -1.2160
 2689SOL     OW19528   1.715   1.008   4.698 -0.4155  0.4003 -0.3919
 2689SOL    HW119529   1.771   0.932   4.718 -2.3785 -0.9960 -0.2379
 2689SOL    HW219530   1.689   0.987   4.609  2.1753  1.3789 -1.3746
 2690SOL     OW19531   2.852   0.815  12.159 -0.0800  0.0912  0.1248
 2690SOL    HW119532   2.849   0.864  12.076 -0.0167  0.6056  0.4276
 2690SOL    HW219533   2.863   0.726  12.126 -0.2594  0.2809 -0.4606
 2691SOL     OW19534   3.285   0.001   4.805 -0.7744  0.1384  0.2323
 2691SOL    HW119535   3.320   0.090   4.811  0.8538 -0.4483 -0.5466
 2691SOL    HW219536   3.348   4.682   4.748 -0.8389 -1.0337  1.0664
 2692SOL     OW19537   4.500   1.594   1.882 -0.3764 -0.4122  0.6251
 2692SOL    HW119538   4.578   1.544   1.908  0.5066  0.4011 -0.4885
 2692SOL    HW219539   4.545   1.659   1.828 -0.7877  0.7805  1.7193
 2693SOL     OW19540   1.800   0.190  14.703 -0.5582  0.1174 -0.4508
 2693SOL    HW119541   1.850   0.270  14.719  1.1335 -1.1993  0.7359
 2693SOL    HW219542   1.824   0.164  14.614 -3.1006 -1.0001 -0.8210
 2694SOL     OW19543   4.337   3.808   4.550 -0.0508 -0.4634 -0.3142
 2694SOL    HW119544   4.361   3.746   4.618 -0.6475 -0.5553 -0.1883
 2694SOL    HW219545   4.416   3.795   4.497  0.6756 -0.0750  0.6733
 2695SOL     OW19546   2.617   3.783  13.900  0.0045 -0.4315  0.2712
 2695SOL    HW119547   2.695   3.760  13.849  0.2929  0.0402  0.5012
 2695SOL    HW219548   2.582   3.859  13.853  2.2806  1.2197  1.2155
 2696SOL     OW19549   0.861   3.439   4.969 -1.0023  0.7119  0.6304
 2696SOL    HW119550   0.936   3.491   4.939  0.3501 -1.6935 -0.1166
 2696SOL    HW219551   0.795   3.462   4.904 -0.9859 -0.5537  0.1718
 2697SOL     OW19552   3.475   2.945   9.648  0.2691  0.7714 -0.0652
 2697SOL    HW119553   3.519   2.861   9.664 -0.0649  1.0277  2.1845
 2697SOL    HW219554   3.491   2.989   9.731  1.5091 -0.8961  0.5921
 2698SOL     OW19555   0.193   3.348   9.653  0.6695  0.1625  0.0805
 2698SOL    HW119556   0.099   3.338   9.642  1.1807 -0.3313 -3.9256
 2698SOL    HW219557   0.221   3.304   9.573  0.7442 -0.0545  0.2277
 2699SOL     OW19558   4.297   2.294   3.075 -0.5370 -0.3688  0.2759
 2699SOL    HW119559   4.361   2.227   3.049 -1.7313 -0.6853 -1.7960
 2699SOL    HW219560   4.248   2.305   2.994  0.2868  2.1258  0.1273
 2700SOL     OW19561   3.275   2.488   2.967  0.1224 -0.9178  0.0633
 2700SOL    HW119562   3.328   2.470   2.890 -0.4684 -1.5404 -0.1886
 2700SOL    HW219563   3.234   2.403   2.981 -0.7466 -0.3131  1.2048
 2701SOL     OW19564   4.427   2.688   4.994 -0.6915 -0.2432  0.0422
 2701SOL    HW119565   4.513   2.727   4.978 -0.6915 -0.2476  0.0316
 2701SOL    HW219566   4.393   2.723   4.912 -0.4389 -1.6332 -0.6702
 2702SOL     OW19567   0.956   3.186   1.156 -0.9254 -0.1682  0.1433
 2702SOL    HW119568   1.015   3.256   1.130 -1.5418 -0.3026 -1.6290
 2702SOL    HW219569   0.907   3.225   1.228  2.4645  0.2824  2.2163
 2703SOL     OW19570   2.014   2.217   0.925 -0.2365 -0.7955 -0.5675
 2703SOL    HW119571   2.006   2.210   0.830  1.7958 -2.0088 -0.6607
 2703SOL    HW219572   2.011   2.126   0.955 -0.1084 -2.1480 -4.6771
 2704SOL     OW19573   1.602   1.505   9.835  0.0059  0.1970 -0.4996
 2704SOL    HW119574   1.532   1.519   9.771  0.4993  1.5869 -0.7329
 2704SOL    HW219575   1.675   1.479   9.780  1.0929 -2.1227  2.0666
 2705SOL     OW19576   2.404   4.334   3.005 -0.1298  0.0153 -0.1402
 2705SOL    HW119577   2.453   4.358   2.926  1.3564  1.2333  1.1692
 2705SOL    HW219578   2.313   4.328   2.975 -0.6375 -2.2037  1.8835
 2706SOL     OW19579   0.634   1.419   2.425 -0.2995  0.1718  0.3907
 2706SOL    HW119580   0.579   1.438   2.501 -0.1958  1.0001  0.2567
 2706SOL    HW219581   0.712   1.462   2.460  0.5339 -1.0995  0.0785
 2707SOL     OW19582   2.572   1.448  16.744 -0.2133 -0.4415  0.7620
 2707SOL    HW119583   2.599   1.539  16.732  0.8904 -1.0411 -1.1729
 2707SOL    HW219584   2.510   1.456  16.817 -0.2076  0.7390  0.6436
 2708SOL     OW19585   0.868   3.129   7.025  0.0167 -0.3972 -0.1949
 2708SOL    HW119586   0.896   3.048   6.982  1.2064 -1.0039  1.7515
 2708SOL    HW219587   0.904   3.194   6.965 -0.9144 -1.0227 -1.4404
 2709SOL     OW19588   3.611   1.187   9.216 -0.5139 -0.3166 -0.0307
 2709SOL    HW119589   3.570   1.265   9.179  0.6843 -0.3214 -1.3848
 2709SOL    HW219590   3.534   1.136   9.241 -1.0845  0.3310 -0.4612
 2710SOL     OW19591   0.376   4.184   0.139  0.1757  0.1950 -0.0478
 2710SOL    HW119592   0.472   4.185   0.144  0.1385  0.9689  0.5692
 2710SOL    HW219593   0.362   4.231   0.057 -1.9620  2.3087  1.5178
 2711SOL     OW19594   1.101   1.803  14.075  0.1718 -0.0722  0.1675
 2711SOL    HW119595   1.024   1.834  14.026  0.8431 -0.3790 -1.0860
 2711SOL    HW219596   1.092   1.710  14.097 -1.0450 -0.2862 -1.1887
 2712SOL     OW19597   2.932   1.874   4.370 -1.0392  0.3702  0.5694
 2712SOL    HW119598   2.900   1.817   4.440  5.2613 -1.9086  1.6283
 2712SOL    HW219599   3.013   1.825   4.353 -0.3668  1.3570  0.9536
 2713SOL     OW19600   3.990   3.206   4.937  0.1253  0.0010  0.4181
 2713SOL    HW119601   3.953   3.255   4.864  1.9363 -0.5986 -0.9021
 2713SOL    HW219602   4.082   3.209   4.911 -0.7137 -1.3401 -2.6529
 2714SOL     OW19603   3.122   3.744   5.038 -0.2171 -0.3907 -0.2479
 2714SOL    HW119604   3.208   3.716   5.008 -0.0137  0.3754 -0.3923
 2714SOL    HW219605   3.078   3.662   5.058 -2.4334  0.6668 -0.6860
 2715SOL     OW19606   4.319   2.353   6.690 -0.3537  0.0322  0.4954
 2715SOL    HW119607   4.324   2.258   6.690  2.9707  0.2055  0.2659
 2715SOL    HW219608   4.320   2.365   6.595 -0.2302 -0.7904  0.3911
 2716SOL     OW19609   0.249   4.529   5.325 -0.4972  0.2362  0.9645
 2716SOL    HW119610   0.189   4.522   5.399 -2.8182  0.5224 -0.8893
 2716SOL    HW219611   0.230   4.449   5.278 -2.1585  1.0471  0.2879
 2717SOL     OW19612   3.301   1.473   1.386  0.3205  0.8368 -0.3205
 2717SOL    HW119613   3.324   1.510   1.471 -0.6533  0.2647  0.1891
 2717SOL    HW219614   3.284   1.380   1.402  0.1113  0.6334 -1.7273
 2718SOL     OW19615   4.435   3.331  16.466 -0.1102 -0.1595 -0.1974
 2718SOL    HW119616   4.348   3.295  16.484  0.8794 -1.4903  1.8839
 2718SOL    HW219617   4.470   3.331  16.555  0.2118  0.5508 -0.3287
 2719SOL     OW19618   2.957   2.203  14.275  0.6996 -0.3256  0.2218
 2719SOL    HW119619   2.919   2.127  14.231  1.8890 -0.1671 -1.1152
 2719SOL    HW219620   2.930   2.263  14.205  1.1886  1.2053  1.3370
 2720SOL     OW19621   3.186   1.858   0.237  0.1325  0.4164  0.6649
 2720SOL    HW119622   3.193   1.855   0.333 -1.2012  1.0045  0.7801
 2720SOL    HW219623   3.098   1.829   0.213  0.3827  1.7864 -1.8518
 2721SOL     OW19624   3.863   4.306  13.686  0.6520 -0.5485 -0.1313
 2721SOL    HW119625   3.914   4.225  13.684  0.1080 -0.9257  1.0637
 2721SOL    HW219626   3.887   4.347  13.603  1.5943 -1.7608 -0.4548
 2722SOL     OW19627   2.517   0.451  17.221  0.3919  0.3903  0.0555
 2722SOL    HW119628   2.568   0.492  17.152 -1.0045 -0.3897 -1.4355
 2722SOL    HW219629   2.439   0.416  17.178  0.3225  0.6714 -0.0398
 2723SOL     OW19630   1.441   1.542   8.922 -0.3106 -0.2813  0.1221
 2723SOL    HW119631   1.466   1.493   8.843  1.1300 -3.0727  2.3307
 2723SOL    HW219632   1.524   1.535   8.970  0.0806  0.2339 -0.4798
 2724SOL     OW19633   0.412   0.160   8.772  0.3536 -0.3240 -0.4545
 2724SOL    HW119634   0.389   0.164   8.679  0.3179 -1.1138 -0.4834
 2724SOL    HW219635   0.464   0.237   8.796  0.2844 -0.0155 -1.2839
 2725SOL     OW19636   0.694   2.432   6.873  0.9191  0.2604  0.0293
 2725SOL    HW119637   0.656   2.345   6.855 -0.1668  0.9524 -1.0082
 2725SOL    HW219638   0.631   2.493   6.835  1.3582  0.7745  0.1394
 2726SOL     OW19639   1.003   0.500   8.212 -0.0243  0.6364  0.3297
 2726SOL    HW119640   1.016   0.406   8.204 -1.1811  0.4936  0.2780
 2726SOL    HW219641   1.094   0.530   8.219  0.0211  0.0326  2.3507
 2727SOL     OW19642   1.277   0.241   2.337  0.0378  0.4210 -0.0785
 2727SOL    HW119643   1.241   0.189   2.265  0.1791  1.7713 -1.1287
 2727SOL    HW219644   1.194   0.270   2.375 -0.9246  1.8412 -3.2854
 2728SOL     OW19645   1.574   3.016   0.123 -0.4512 -0.2060 -0.5983
 2728SOL    HW119646   1.595   3.072   0.198 -0.2566  1.4032 -1.8714
 2728SOL    HW219647   1.651   3.039   0.072 -0.8401  1.7149 -0.3179
 2729SOL     OW19648   0.147   3.939   6.785  0.3019  0.3744  0.0156
 2729SOL    HW119649   0.091   3.862   6.781 -0.2193  0.7142  0.6568
 2729SOL    HW219650   0.232   3.914   6.748 -0.7025  0.8932 -2.6179
 2730SOL     OW19651   3.061   2.309   5.363 -0.1282  0.1175 -0.4019
 2730SOL    HW119652   3.149   2.279   5.385 -0.7160  0.1702  1.9961
 2730SOL    HW219653   3.056   2.392   5.409 -3.1990 -0.3766  0.1974
 2731SOL     OW19654   1.763   3.873   5.132 -1.0471 -0.1305 -0.0934
 2731SOL    HW119655   1.791   3.858   5.222  1.0820 -1.2447 -0.9461
 2731SOL    HW219656   1.832   3.924   5.088 -2.0715  2.7493  1.6334
 2732SOL     OW19657   1.862   2.115   2.431  0.5582  0.0716 -0.2076
 2732SOL    HW119658   1.932   2.158   2.480 -1.5969  1.8959  1.2917
 2732SOL    HW219659   1.877   2.154   2.345  0.7806 -1.2947 -0.7763
 2733SOL     OW19660   4.160   4.045   5.012  0.0392 -0.0927 -0.3401
 2733SOL    HW119661   4.138   3.964   4.966  1.1853 -1.5496  1.6364
 2733SOL    HW219662   4.161   4.112   4.944 -0.0782 -0.7618 -1.0084
 2734SOL     OW19663   3.982   1.661   2.760 -0.0538  0.0680 -0.1102
 2734SOL    HW119664   3.952   1.752   2.765  0.9819  0.4346 -0.6730
 2734SOL    HW219665   4.057   1.677   2.703 -1.2162 -0.9146 -1.9258
 2735SOL     OW19666   1.552   1.090   7.066 -0.3077  0.3104  0.3517
 2735SOL    HW119667   1.498   1.167   7.046  2.6765  3.1658  3.4887
 2735SOL    HW219668   1.638   1.130   7.059 -0.0786  0.0761  1.9417
 2736SOL     OW19669   3.585   3.788   1.512 -0.0581 -0.1666  0.1618
 2736SOL    HW119670   3.665   3.835   1.492 -0.0243  0.5081  1.8579
 2736SOL    HW219671   3.530   3.853   1.556  1.8004  0.3875  1.6383
 2737SOL     OW19672   1.948   3.895   7.325  0.1557 -0.0926  0.2811
 2737SOL    HW119673   1.863   3.895   7.369  0.0608  0.2682  0.0997
 2737SOL    HW219674   1.982   3.980   7.354  0.8636  0.0479 -0.9932
 2738SOL     OW19675   0.115   3.785   5.873 -0.1715 -0.0747 -0.3885
 2738SOL    HW119676   0.057   3.861   5.877 -0.8276 -0.7635  3.4654
 2738SOL    HW219677   0.200   3.823   5.893 -0.6098 -0.5379  2.3541
 2739SOL     OW19678   4.319   3.733   7.626  0.5890 -0.1643 -0.2457
 2739SOL    HW119679   4.373   3.742   7.704 -3.0624 -2.4261  2.5400
 2739SOL    HW219680   4.359   3.801   7.572 -3.3146  2.1440 -0.2426
 2740SOL     OW19681   0.888   4.200  15.208  0.3852 -0.5144  0.2448
 2740SOL    HW119682   0.899   4.109  15.181 -2.4385 -0.7353 -0.1593
 2740SOL    HW219683   0.906   4.257  15.134 -1.4509 -0.3827 -0.0965
 2741SOL     OW19684   3.517   0.896   2.282 -0.2810  0.0487 -0.3513
 2741SOL    HW119685   3.567   0.975   2.300 -1.7085  1.2984 -1.9366
 2741SOL    HW219686   3.427   0.926   2.268 -0.4187 -1.2960 -2.4185
 2742SOL     OW19687   0.976   1.239   9.229 -0.2199 -0.1179 -0.0520
 2742SOL    HW119688   1.040   1.218   9.297 -0.8025 -0.0872  0.4985
 2742SOL    HW219689   1.020   1.310   9.181 -1.5829  0.7772  0.0457
 2743SOL     OW19690   2.639   1.186  10.444 -0.1663  0.0576  0.5589
 2743SOL    HW119691   2.557   1.219  10.481  0.3578 -0.7438  2.3902
 2743SOL    HW219692   2.640   1.244  10.368  0.6902 -0.3073  0.2976
 2744SOL     OW19693   3.057   1.252   4.840 -0.3755  0.3068  0.0040
 2744SOL    HW119694   3.031   1.282   4.753  1.1157 -0.4558 -0.7101
 2744SOL    HW219695   2.980   1.286   4.885 -0.8666 -1.6097  0.6080
 2745SOL     OW19696   0.381   0.668   2.150  0.6670  1.0999 -0.0934
 2745SOL    HW119697   0.344   0.629   2.071  0.8572  1.9023 -0.5907
 2745SOL    HW219698   0.375   0.759   2.121  0.7623  1.7519  1.9328
 2746SOL     OW19699   0.434   0.799   5.208 -0.1215  0.0511 -0.0995
 2746SOL    HW119700   0.339   0.806   5.209 -0.2189 -1.4433  2.1765
 2746SOL    HW219701   0.453   0.890   5.187  0.3827  0.1987  0.9964
 2747SOL     OW19702   2.341   3.099   7.055  0.0205  0.0631  0.4325
 2747SOL    HW119703   2.433   3.112   7.034 -0.0394  0.0612  0.1676
 2747SOL    HW219704   2.315   3.012   7.024 -1.6308  1.1828 -1.3722
 2748SOL     OW19705   2.451   3.730   9.918  0.0873  0.2445 -0.0804
 2748SOL    HW119706   2.382   3.784   9.955  0.8831 -0.2476  2.1106
 2748SOL    HW219707   2.421   3.718   9.828 -1.8197  2.4990  0.2762
 2749SOL     OW19708   1.223   4.533   0.867 -0.0709 -0.2896 -0.1760
 2749SOL    HW119709   1.274   4.609   0.838  2.3672 -2.0172 -0.3598
 2749SOL    HW219710   1.132   4.564   0.876 -0.7836 -3.2870  2.9812
 2750SOL     OW19711   2.799   2.846  10.817  0.0037 -0.5368 -0.2699
 2750SOL    HW119712   2.728   2.783  10.833 -0.8651  0.2141 -1.1197
 2750SOL    HW219713   2.874   2.801  10.854  1.0917  2.6525  1.4532
 2751SOL     OW19714   3.068   1.689  12.274 -0.3115 -0.1857  0.4999
 2751SOL    HW119715   3.069   1.655  12.185 -0.4968  0.6506  0.1790
 2751SOL    HW219716   3.026   1.618  12.324 -1.3822  0.4587  0.5162
 2752SOL     OW19717   3.462   1.405   7.680 -0.5799  0.5705 -0.0545
 2752SOL    HW119718   3.495   1.421   7.591 -0.3904  0.5772  0.0177
 2752SOL    HW219719   3.529   1.448   7.733  0.0286 -0.6714  0.1642
 2753SOL     OW19720   1.660   2.526   5.558 -0.0603  0.1813 -0.1291
 2753SOL    HW119721   1.570   2.494   5.561  0.2632 -0.6267  1.2479
 2753SOL    HW219722   1.682   2.512   5.466 -0.1635  3.3580 -0.6271
 2754SOL     OW19723   2.330   3.934   4.304  0.0529 -0.3131  0.0919
 2754SOL    HW119724   2.398   3.918   4.370  1.9712  1.2355 -1.4867
 2754SOL    HW219725   2.380   3.991   4.245 -1.5674  3.7451  2.5963
 2755SOL     OW19726   1.136   0.294  11.754  0.3820  0.5511 -0.2078
 2755SOL    HW119727   1.184   0.260  11.679 -0.0844 -2.4555  0.8637
 2755SOL    HW219728   1.068   0.227  11.753  1.5845 -0.6347 -0.9183
 2756SOL     OW19729   4.049   3.850   4.839  0.0780  0.1217 -0.5043
 2756SOL    HW119730   4.077   3.758   4.837 -0.9606 -0.2016 -0.1468
 2756SOL    HW219731   4.059   3.888   4.752 -3.2141  0.1472 -0.8491
 2757SOL     OW19732   4.389   2.575   5.705  0.2788 -0.0555  0.2840
 2757SOL    HW119733   4.353   2.634   5.639  1.1784 -0.1336 -0.2708
 2757SOL    HW219734   4.456   2.523   5.660 -2.9089 -1.6196 -2.7138
 2758SOL     OW19735   0.764   1.824  11.198  0.2070  0.3714  0.0130
 2758SOL    HW119736   0.769   1.739  11.240 -1.4534  0.2559 -0.0156
 2758SOL    HW219737   0.704   1.811  11.124 -0.5124  0.2028  0.6263
 2759SOL     OW19738   0.572   2.957  13.544  0.3104  0.3661 -0.4259
 2759SOL    HW119739   0.482   2.952  13.512 -0.5237  1.6340  1.7329
 2759SOL    HW219740   0.581   3.051  13.561  0.7605  0.2046  0.2333
 2760SOL     OW19741   2.803   2.678  14.232 -0.0691  0.3016 -0.2686
 2760SOL    HW119742   2.895   2.652  14.235 -0.7460 -2.0720  0.0232
 2760SOL    HW219743   2.767   2.628  14.305 -1.2867 -1.0172 -1.7739
 2761SOL     OW19744   1.541   1.749   5.316  0.0981 -0.5069  0.5218
 2761SOL    HW119745   1.560   1.843   5.320 -4.3006  0.4062 -0.0685
 2761SOL    HW219746   1.547   1.741   5.221 -0.4399  1.3316  0.3421
 2762SOL     OW19747   0.475   0.024  15.453  0.2532  0.0253  0.5646
 2762SOL    HW119748   0.442   4.675  15.404  0.0821  1.0960 -0.9545
 2762SOL    HW219749   0.521   0.074  15.385 -0.2320  0.4712  0.5686
 2763SOL     OW19750   2.757   2.902  15.952 -0.6233 -0.6476  0.3936
 2763SOL    HW119751   2.818   2.858  16.011  0.7845  0.9233  0.1025
 2763SOL    HW219752   2.797   2.988  15.940 -2.4320  0.4772  2.5905
 2764SOL     OW19753   3.739   0.020   5.969 -0.4233 -0.1910 -0.2985
 2764SOL    HW119754   3.664   0.076   5.990  1.6819  1.6697  2.3641
 2764SOL    HW219755   3.771   0.025   6.059 -0.1560 -2.5700 -0.2607
 2765SOL     OW19756   4.712   4.094   6.526  0.3283 -0.0105  0.1392
 2765SOL    HW119757   0.007   4.108   6.618  2.2447 -0.4467 -0.2369
 2765SOL    HW219758   4.689   4.002   6.516  1.3699 -0.2437 -0.0977
 2766SOL     OW19759   3.780   0.121   4.579 -0.4373 -0.3818  0.4759
 2766SOL    HW119760   3.796   0.078   4.495 -1.1715  3.0244 -1.3969
 2766SOL    HW219761   3.763   0.043   4.633 -0.4648 -0.6062  0.1398
 2767SOL     OW19762   0.002   3.649   5.369 -0.2739  0.1224 -0.7369
 2767SOL    HW119763   4.708   3.580   5.433 -1.5424  0.3070 -0.9436
 2767SOL    HW219764   4.662   3.642   5.300  0.5142  2.7547 -1.7444
 2768SOL     OW19765   2.635   3.823   8.455 -0.1505 -0.4377  0.0505
 2768SOL    HW119766   2.694   3.748   8.455 -0.0736 -0.3843 -2.0048
 2768SOL    HW219767   2.700   3.890   8.434  0.2039 -1.0269 -0.7490
 2769SOL     OW19768   2.345   4.110   9.045  0.4950  0.0199  0.1717
 2769SOL    HW119769   2.413   4.043   9.035 -0.3868 -0.6708 -1.2043
 2769SOL    HW219770   2.269   4.054   9.062 -1.0238  1.6638 -1.1710
 2770SOL     OW19771   3.914   3.369   4.735 -0.2189  0.2038 -0.2734
 2770SOL    HW119772   3.867   3.443   4.699 -0.0043  0.0550 -0.8614
 2770SOL    HW219773   3.918   3.317   4.655 -3.6217  0.6798 -0.7192
 2771SOL     OW19774   1.987   0.306   9.647  0.4328 -0.1071 -0.4066
 2771SOL    HW119775   1.954   0.383   9.695  1.5472 -0.1259  0.3893
 2771SOL    HW219776   2.080   0.313   9.666  0.0162  0.1669  1.5949
 2772SOL     OW19777   2.151   0.714   7.384 -0.2386  0.5833 -0.2206
 2772SOL    HW119778   2.160   0.653   7.457 -0.8635 -1.6687 -2.0310
 2772SOL    HW219779   2.078   0.768   7.415 -0.5688 -0.9674  1.6916
 2773SOL     OW19780   4.010   4.063   4.208 -0.3197 -0.0388  0.4481
 2773SOL    HW119781   3.939   4.120   4.177  0.2102  1.2486  1.6207
 2773SOL    HW219782   4.011   4.103   4.295 -0.2724  0.3834  0.2533
 2774SOL     OW19783   2.946   0.314   4.946  0.0669 -0.1949 -0.1076
 2774SOL    HW119784   2.878   0.308   4.879  0.6690  0.4663 -0.7899
 2774SOL    HW219785   2.978   0.224   4.953  0.2703 -0.0586  0.6797
 2775SOL     OW19786   4.433   1.675   6.211  0.2915 -0.3608  0.0093
 2775SOL    HW119787   4.468   1.590   6.238  0.4881 -0.1110  0.5345
 2775SOL    HW219788   4.419   1.716   6.297 -0.7093 -0.9009  0.1088
 2776SOL     OW19789   1.848   0.907   9.468 -0.0319 -0.0565 -0.4200
 2776SOL    HW119790   1.935   0.940   9.491 -0.4456  0.0884  0.8950
 2776SOL    HW219791   1.813   0.876   9.551  0.4454  0.4599 -0.0274
 2777SOL     OW19792   1.742   3.312   8.480  0.1061 -0.9117  0.1565
 2777SOL    HW119793   1.712   3.274   8.397 -1.0184 -0.1565  0.2238
 2777SOL    HW219794   1.663   3.318   8.534  0.1139  0.6368  0.0077
 2778SOL     OW19795   1.479   4.006   6.589 -0.2955 -0.3056 -0.4295
 2778SOL    HW119796   1.521   3.947   6.652  1.0446  2.3000  1.1028
 2778SOL    HW219797   1.389   3.983   6.611 -0.7219  0.9816 -0.8615
 2779SOL     OW19798   4.702   1.631  10.128  0.0669 -0.0899 -0.1088
 2779SOL    HW119799   4.616   1.590  10.120 -0.0965  0.5391 -1.5413
 2779SOL    HW219800   4.700   1.710  10.074  1.0306  0.6979  0.9795
 2780SOL     OW19801   1.333   2.460   4.291  0.1738 -0.3662  0.5137
 2780SOL    HW119802   1.410   2.433   4.242  0.1150 -1.3029  0.9179
 2780SOL    HW219803   1.376   2.486   4.373 -0.1756  3.4182 -0.5268
 2781SOL     OW19804   2.271   0.424   9.785 -0.1374  0.1202 -0.0632
 2781SOL    HW119805   2.255   0.403   9.877  2.0423  1.4134  0.6058
 2781SOL    HW219806   2.246   0.515   9.774 -0.3668 -0.1681 -2.1034
 2782SOL     OW19807   3.529   4.290   8.826  0.3906 -0.3610  0.2748
 2782SOL    HW119808   3.536   4.374   8.779 -1.9024 -0.4371 -0.1954
 2782SOL    HW219809   3.614   4.297   8.870  1.8487 -0.0137 -2.5808
 2783SOL     OW19810   4.212   2.456   2.842  0.4455  0.7055  0.0621
 2783SOL    HW119811   4.139   2.502   2.800  0.2726 -1.7593 -2.2727
 2783SOL    HW219812   4.233   2.510   2.919  1.3065 -0.1238  0.4014
 2784SOL     OW19813   4.453   2.758  17.407 -0.6521  0.0840  0.1122
 2784SOL    HW119814   4.421   2.794  17.325 -1.1196 -0.9672 -0.1686
 2784SOL    HW219815   4.468   2.839  17.456 -0.2380  0.7527 -1.1398
 2785SOL     OW19816   2.768   1.398   1.796 -0.0580  0.2307  0.2670
 2785SOL    HW119817   2.766   1.309   1.829  1.0515 -0.5242 -1.7023
 2785SOL    HW219818   2.722   1.446   1.865  1.1582  2.1018 -0.2035
 2786SOL     OW19819   2.641   0.200   0.040  0.6026 -0.3776 -0.2044
 2786SOL    HW119820   2.568   0.151   0.002  0.8370 -1.3964  0.6825
 2786SOL    HW219821   2.614   0.288   0.012 -0.1727 -0.8451 -0.9480
 2787SOL     OW19822   0.756   4.235  12.859  0.0927  0.0236 -0.1478
 2787SOL    HW119823   0.842   4.194  12.867  0.5486  0.6805 -1.8318
 2787SOL    HW219824   0.724   4.212  12.947  2.9474  0.1305  0.9264
 2788SOL     OW19825   3.030   2.107   6.871  0.3051  0.2473  0.4075
 2788SOL    HW119826   2.935   2.119   6.877  0.1516 -0.3670 -0.7886
 2788SOL    HW219827   3.041   2.192   6.913  0.1244 -0.1065  1.1692
 2789SOL     OW19828   3.214   1.070  10.417 -0.0900 -0.1368 -0.5343
 2789SOL    HW119829   3.224   1.154  10.461  1.1975 -0.3110 -0.4950
 2789SOL    HW219830   3.137   1.041  10.465 -0.0708  0.8880  0.1114
 2790SOL     OW19831   4.328   3.935   2.220  0.5100 -0.1159  0.1031
 2790SOL    HW119832   4.282   3.967   2.142 -1.2931  0.8002  1.5311
 2790SOL    HW219833   4.350   4.011   2.275  1.3537  0.1154 -0.5571
 2791SOL     OW19834   3.514   1.726   8.815  0.0151  0.3863 -0.1476
 2791SOL    HW119835   3.549   1.655   8.868 -0.4357 -0.8097 -1.4761
 2791SOL    HW219836   3.489   1.779   8.891 -2.2873  0.6835 -1.1460
 2792SOL     OW19837   2.539   1.723  13.388  0.3469  0.3274  0.4754
 2792SOL    HW119838   2.614   1.680  13.429  0.8791 -1.6593 -2.5695
 2792SOL    HW219839   2.496   1.774  13.457 -2.0290 -0.1893 -0.6221
 2793SOL     OW19840   4.048   1.136   4.904 -0.0265  0.0540 -0.1218
 2793SOL    HW119841   4.014   1.048   4.884  1.1307 -0.6036  0.7514
 2793SOL    HW219842   4.080   1.122   4.994 -0.2324 -2.5993 -0.4430
 2794SOL     OW19843   4.266   2.702  16.242  0.1140 -0.1275  0.1036
 2794SOL    HW119844   4.353   2.737  16.260  0.2394 -0.6354  0.4855
 2794SOL    HW219845   4.274   2.664  16.155  1.3000  0.0206  0.1562
 2795SOL     OW19846   4.608   4.056   3.751  0.2737 -0.2148 -0.7338
 2795SOL    HW119847   4.551   4.016   3.817 -0.5141  1.5840 -0.3381
 2795SOL    HW219848   4.668   3.982   3.743 -1.3129 -1.3297 -2.3928
 2796SOL     OW19849   1.012   1.072   9.692  0.4525  0.0909 -0.2259
 2796SOL    HW119850   0.937   1.031   9.736  0.1761  0.3024 -0.4970
 2796SOL    HW219851   1.084   1.030   9.738 -0.8916  0.3584  2.1423
 2797SOL     OW19852   0.344   3.237   5.190  0.0861  0.0042  1.0011
 2797SOL    HW119853   0.287   3.195   5.126  0.3731  1.4702 -0.2006
 2797SOL    HW219854   0.277   3.276   5.247 -1.7498 -0.4064 -0.8925
 2798SOL     OW19855   2.023   4.648   2.112 -0.4785 -0.7273  0.6993
 2798SOL    HW119856   2.028   0.016   2.094  2.4863 -1.2724 -1.2896
 2798SOL    HW219857   2.061   4.605   2.035  0.4072  0.2075  0.6278
 2799SOL     OW19858   0.025   1.758   8.370 -0.5422 -0.4341 -0.4837
 2799SOL    HW119859   0.115   1.727   8.384 -0.1307  0.9476 -0.0286
 2799SOL    HW219860   0.049   1.851   8.367  0.1464 -0.6642 -1.9311
 2800SOL     OW19861   2.864   0.746   4.942  0.3207 -0.0662 -0.0911
 2800SOL    HW119862   2.839   0.677   5.002  1.4141  0.5001  1.0222
 2800SOL    HW219863   2.861   0.821   5.002 -0.0404  0.1610 -0.3923
 2801SOL     OW19864   3.173   2.092   4.776  0.2631 -0.1570  0.5059
 2801SOL    HW119865   3.130   2.017   4.735  0.3167  2.4036 -4.2244
 2801SOL    HW219866   3.104   2.112   4.839  0.5533  1.0558  0.4224
 2802SOL     OW19867   3.668   0.599  14.085  0.4556  0.0775 -0.7271
 2802SOL    HW119868   3.725   0.529  14.117 -2.3467 -1.4056  0.9922
 2802SOL    HW219869   3.722   0.669  14.122  0.2031 -0.5792  0.8544
 2803SOL     OW19870   3.021   0.559   8.443 -0.2587 -0.2889  0.3043
 2803SOL    HW119871   3.015   0.650   8.415  0.9306 -0.7538 -1.4100
 2803SOL    HW219872   3.054   0.521   8.362 -0.3258  0.1403  0.0726
 2804SOL     OW19873   3.657   1.992   6.671  0.4835  0.4423  0.2228
 2804SOL    HW119874   3.622   2.032   6.590 -1.7750 -3.1553 -0.5648
 2804SOL    HW219875   3.580   1.943   6.698  1.2254 -1.1995 -0.6564
 2805SOL     OW19876   3.454   1.217   9.821 -0.3165  0.0227 -0.1832
 2805SOL    HW119877   3.486   1.259   9.901  1.1098 -1.0520 -0.1984
 2805SOL    HW219878   3.399   1.286   9.783 -0.8592  0.7570  1.9579
 2806SOL     OW19879   0.536   1.009  11.648  0.6518  0.4677  0.3086
 2806SOL    HW119880   0.488   0.926  11.657  0.0862  1.0176  2.2511
 2806SOL    HW219881   0.600   0.984  11.582  0.3878  0.5806  0.0073
 2807SOL     OW19882   2.018   0.380   8.920  0.5705  0.0988  0.0161
 2807SOL    HW119883   1.991   0.341   8.837  2.6941 -0.2403 -0.5255
 2807SOL    HW219884   2.114   0.382   8.918  0.5043 -0.2209 -2.6643
 2808SOL     OW19885   3.118   4.592   5.730  0.1430 -0.4924 -0.2698
 2808SOL    HW119886   3.106   4.571   5.638 -2.2177  0.1405 -0.1009
 2808SOL    HW219887   3.213   4.599   5.741 -0.2326 -0.3176  2.9768
 2809SOL     OW19888   0.443   3.483   2.782  0.2007  0.0709 -0.1560
 2809SOL    HW119889   0.452   3.473   2.688  0.5397 -0.7334 -0.0398
 2809SOL    HW219890   0.491   3.565   2.795  2.6178 -1.1191 -1.6726
 2810SOL     OW19891   1.546   3.603   9.052  0.9954  0.0490  0.3402
 2810SOL    HW119892   1.583   3.665   8.989 -0.7906  0.8438  0.0624
 2810SOL    HW219893   1.621   3.544   9.058  2.3443  1.7045 -0.2079
 2811SOL     OW19894   0.069   3.211  14.840  0.0629  0.0584  0.2945
 2811SOL    HW119895   0.043   3.162  14.762 -4.3618 -0.5126  2.1224
 2811SOL    HW219896   4.720   3.269  14.856 -1.1970 -1.2543 -0.8549
 2812SOL     OW19897   3.808   3.788   3.671 -0.1698 -0.1014  0.6106
 2812SOL    HW119898   3.896   3.760   3.697 -0.4149 -2.2220 -0.8387
 2812SOL    HW219899   3.804   3.869   3.722  2.2351  0.9300 -0.8409
 2813SOL     OW19900   2.087   0.565   3.972 -0.1804  0.5106  0.8111
 2813SOL    HW119901   2.086   0.469   3.975  0.8480  0.4512 -0.7323
 2813SOL    HW219902   2.069   0.584   4.064 -0.9495  0.8506  0.5918
 2814SOL     OW19903   2.547   1.064   1.850  0.5209  0.7016  0.3709
 2814SOL    HW119904   2.517   0.998   1.913  2.4541 -0.3132  0.2315
 2814SOL    HW219905   2.461   1.101   1.831  1.0898  2.0300  0.4095
 2815SOL     OW19906   4.383   1.573   5.006  0.6122  0.3979  0.1134
 2815SOL    HW119907   4.323   1.586   5.079 -1.9945 -1.9305 -1.5847
 2815SOL    HW219908   4.356   1.481   5.000 -1.6927  1.1283 -0.8795
 2816SOL     OW19909   2.561   3.265   5.394 -0.3912  0.1256  0.1727
 2816SOL    HW119910   2.467   3.255   5.383 -0.7284  0.8288  2.4877
 2816SOL    HW219911   2.581   3.253   5.487 -0.8248  0.7173  0.3414
 2817SOL     OW19912   0.110   2.764  13.666  0.0007  0.0497  0.5510
 2817SOL    HW119913   0.060   2.838  13.701 -0.0069  0.9170 -1.3206
 2817SOL    HW219914   0.040   2.700  13.658 -0.4145  0.3825  1.4441
 2818SOL     OW19915   2.488   0.388  16.930  0.0019  0.4197 -0.0876
 2818SOL    HW119916   2.541   0.309  16.941 -1.7842 -0.7892 -0.1327
 2818SOL    HW219917   2.423   0.350  16.872  1.3731 -1.8620 -0.1290
 2819SOL     OW19918   3.669   3.732   4.029  0.3143 -0.1729  0.2313
 2819SOL    HW119919   3.627   3.801   3.978 -0.8569 -0.8548  0.2836
 2819SOL    HW219920   3.731   3.769   4.092  0.2455  1.1967 -0.4816
 2820SOL     OW19921   4.061   0.391   3.307  0.0886  0.6034  0.7001
 2820SOL    HW119922   4.039   0.381   3.215  0.2766  0.0794  0.7145
 2820SOL    HW219923   4.145   0.346   3.300 -0.0136  0.7160 -1.1932
 2821SOL     OW19924   2.585   3.903  14.371 -0.4140  0.0346  0.4828
 2821SOL    HW119925   2.673   3.899  14.409  0.4221 -1.4918 -1.5883
 2821SOL    HW219926   2.587   3.814  14.335  1.3726 -0.4361  1.7751
 2822SOL     OW19927   4.622   2.905   6.690  0.2409 -0.0002  0.4986
 2822SOL    HW119928   4.621   2.810   6.695  2.2259 -0.1274 -1.5781
 2822SOL    HW219929   4.636   2.916   6.596  1.4967 -2.1403  0.4351
 2823SOL     OW19930   3.889   1.207   9.235 -0.0122 -0.0137 -0.5222
 2823SOL    HW119931   3.888   1.187   9.328  1.8275  2.0602 -0.0467
 2823SOL    HW219932   3.795   1.204   9.217  0.1769  0.6135 -1.6563
 2824SOL     OW19933   3.924   0.089   7.448 -0.1165  0.1421 -0.1228
 2824SOL    HW119934   3.978   0.095   7.527 -1.4946  1.2336  0.7227
 2824SOL    HW219935   3.987   0.119   7.382 -1.3543  0.1192 -1.3006
 2825SOL     OW19936   2.940   4.654   7.124 -0.5131 -0.5518 -0.1360
 2825SOL    HW119937   2.955   4.566   7.159 -0.1007 -0.3267  0.2438
 2825SOL    HW219938   2.864   4.679   7.176  0.5181  1.4876  0.3708
 2826SOL     OW19939   3.688   3.475   1.676 -0.1587 -0.5495  0.4698
 2826SOL    HW119940   3.707   3.466   1.583  1.3855 -1.6659  0.8799
 2826SOL    HW219941   3.602   3.515   1.684 -1.4179 -2.5195 -3.1946
 2827SOL     OW19942   1.232   3.966   1.809 -0.1239 -0.5091 -0.5148
 2827SOL    HW119943   1.275   3.896   1.857 -0.8653  0.4179  1.4839
 2827SOL    HW219944   1.144   3.930   1.819  0.2417 -2.2921 -3.7771
 2828SOL     OW19945   1.303   1.843  11.037 -0.0017 -0.3617 -0.3207
 2828SOL    HW119946   1.315   1.761  11.084 -0.9810  0.6689  1.7827
 2828SOL    HW219947   1.232   1.883  11.088  2.6352  0.4948  2.7063
 2829SOL     OW19948   1.645   1.664   3.349  0.2761  0.2743  0.1912
 2829SOL    HW119949   1.557   1.634   3.371  1.6004 -1.8286  2.5778
 2829SOL    HW219950   1.643   1.759   3.361  0.7203  0.0642  1.9305
 2830SOL     OW19951   4.195   2.040  14.911  1.0176 -0.0915 -0.4109
 2830SOL    HW119952   4.185   1.955  14.954 -0.7127  1.9205  3.1769
 2830SOL    HW219953   4.118   2.087  14.943  1.0921 -0.1606 -0.1303
 2831SOL     OW19954   4.510   0.153  11.447  0.5037 -0.1238 -0.3721
 2831SOL    HW119955   4.520   0.101  11.367 -2.1426 -2.0058  0.5002
 2831SOL    HW219956   4.449   0.219  11.415  0.1959  0.1770  0.8518
 2832SOL     OW19957   4.251   4.297   9.288 -0.3496  0.1453  0.0158
 2832SOL    HW119958   4.204   4.275   9.368 -2.6070  1.8148 -0.8389
 2832SOL    HW219959   4.173   4.315   9.235 -0.4846  0.2506  0.2509
 2833SOL     OW19960   1.965   2.447   0.636  0.6120 -0.4599 -0.1288
 2833SOL    HW119961   2.013   2.527   0.617  1.0835 -0.4470  1.1509
 2833SOL    HW219962   1.972   2.447   0.731 -1.2599  0.8579  0.0031
 2834SOL     OW19963   2.639   1.480  15.046 -0.0198 -0.2081  0.4488
 2834SOL    HW119964   2.545   1.467  15.060 -0.0979 -0.4231 -0.2691
 2834SOL    HW219965   2.628   1.461  14.953  0.8721  1.0312  0.0873
 2835SOL     OW19966   2.385   0.268  16.720 -0.0054  0.1287 -0.1778
 2835SOL    HW119967   2.347   0.338  16.666  2.4099  0.2001 -1.7817
 2835SOL    HW219968   2.463   0.242  16.671 -0.3744 -3.2638  1.0757
 2836SOL     OW19969   2.188   4.069   8.381  0.2048  0.1296 -0.2000
 2836SOL    HW119970   2.203   4.017   8.303 -2.3211  1.9258 -1.8895
 2836SOL    HW219971   2.276   4.105   8.387  0.7415 -1.2780  0.5055
 2837SOL     OW19972   4.392   1.675   4.755  0.2604  0.0419 -0.4748
 2837SOL    HW119973   4.300   1.663   4.732  0.4053  0.8969 -1.4823
 2837SOL    HW219974   4.382   1.656   4.848  0.9927  0.3174 -0.3413
 2838SOL     OW19975   2.238   2.594   5.893  0.2900  0.2430  0.3298
 2838SOL    HW119976   2.168   2.659   5.883  0.8269  0.9379  1.0561
 2838SOL    HW219977   2.305   2.648   5.852 -0.2412  0.2707 -0.4977
 2839SOL     OW19978   4.455   1.752   4.489 -0.4040  0.1128  0.4071
 2839SOL    HW119979   4.366   1.785   4.488  0.2775  1.8385 -1.8789
 2839SOL    HW219980   4.467   1.775   4.582  0.3840  1.3070  0.0014
 2840SOL     OW19981   1.806   3.674  13.181  1.0667 -0.0149 -0.3447
 2840SOL    HW119982   1.826   3.765  13.157 -1.5631  0.3210 -1.3200
 2840SOL    HW219983   1.755   3.686  13.261  0.5583 -2.5214 -0.2890
 2841SOL     OW19984   1.845   1.502   3.789 -0.8442  0.0757  0.7555
 2841SOL    HW119985   1.878   1.586   3.756  0.8315 -1.4335 -1.4600
 2841SOL    HW219986   1.912   1.494   3.857  0.1380 -1.9580 -0.4476
 2842SOL     OW19987   2.464   0.303   1.909 -0.1780 -0.4947  0.6728
 2842SOL    HW119988   2.396   0.242   1.938 -1.8587  0.1551 -1.8798
 2842SOL    HW219989   2.483   0.349   1.990  1.0617  2.0630 -1.0596
 2843SOL     OW19990   1.450   0.195  15.757 -0.0724  0.3171 -0.8582
 2843SOL    HW119991   1.418   0.129  15.819 -0.3466 -0.3323 -1.6934
 2843SOL    HW219992   1.383   0.187  15.689 -1.6294 -1.0563  0.8042
 2844SOL     OW19993   2.337   0.766   8.192 -0.2695  0.0946 -0.4018
 2844SOL    HW119994   2.268   0.726   8.245 -1.4146  1.3473 -0.9391
 2844SOL    HW219995   2.359   0.842   8.247 -1.2412  0.3272 -0.3377
 2845SOL     OW19996   4.328   3.154   6.265  0.4709  0.1255 -0.2337
 2845SOL    HW119997   4.333   3.200   6.349  0.5724  1.0547 -0.7429
 2845SOL    HW219998   4.413   3.110   6.266  1.1936  1.5810  1.1973
 2846SOL     OW19999   0.975   3.342   6.919  0.1899  0.2761 -0.3793
 2846SOL    HW120000   1.016   3.401   6.856 -0.4023  1.0454 -0.0534
 2846SOL    HW220001   0.938   3.398   6.987 -0.0407 -1.8633  1.2579
 2847SOL     OW20002   2.848   2.490   9.460  0.5984 -0.0357  0.3460
 2847SOL    HW120003   2.817   2.479   9.550 -1.6011  0.7109 -0.3244
 2847SOL    HW220004   2.797   2.568   9.437  1.6243  0.2963 -0.8270
 2848SOL     OW20005   2.187   0.620   3.733 -0.2201 -0.9227 -0.8853
 2848SOL    HW120006   2.220   0.709   3.740  0.8761 -1.4663  1.0774
 2848SOL    HW220007   2.139   0.614   3.816 -0.8206 -1.1148 -1.2426
 2849SOL     OW20008   2.247   3.444   4.041  0.6912 -0.7841 -0.0260
 2849SOL    HW120009   2.168   3.479   4.000 -1.6913 -2.5773  3.1015
 2849SOL    HW220010   2.312   3.451   3.971  0.3759  0.2042 -0.2337
 2850SOL     OW20011   4.589   2.329   0.721  0.8085 -0.0930  0.5591
 2850SOL    HW120012   4.562   2.395   0.784 -1.9168 -0.8420  0.1579
 2850SOL    HW220013   4.581   2.385   0.645 -1.0518 -0.9029  0.1542
 2851SOL     OW20014   4.031   4.153   5.407 -0.2170  0.7116 -0.4561
 2851SOL    HW120015   4.048   4.092   5.479 -0.8234 -1.4914 -2.1990
 2851SOL    HW220016   3.990   4.220   5.462  0.9671  1.3124 -0.3064
 2852SOL     OW20017   1.426   3.908   6.018 -0.0626 -0.5565 -0.0883
 2852SOL    HW120018   1.459   3.884   5.931  0.6918 -0.3076  0.1327
 2852SOL    HW220019   1.441   4.002   6.012 -1.6833 -0.3142 -0.3940
 2853SOL     OW20020   3.349   1.540   6.175 -0.2601  0.3846 -0.8479
 2853SOL    HW120021   3.417   1.607   6.169 -0.7771  1.0188  0.3544
 2853SOL    HW220022   3.355   1.508   6.085  0.3802  1.1917 -1.0873
 2854SOL     OW20023   3.070   1.369  12.030  0.3099  0.5081  0.7481
 2854SOL    HW120024   3.054   1.452  11.985 -1.3987  0.4820  1.3060
 2854SOL    HW220025   2.998   1.371  12.093  0.9378 -1.2145  1.5331
 2855SOL     OW20026   3.402   1.304  10.302  0.3250  0.3957 -0.0889
 2855SOL    HW120027   3.462   1.309  10.377  0.6885 -0.5511 -0.3087
 2855SOL    HW220028   3.471   1.315  10.237  0.0572 -0.0922 -0.4527
 2856SOL     OW20029   2.047   0.862   8.983 -0.3893 -0.2957  0.1590
 2856SOL    HW120030   2.085   0.873   8.896  0.1096  1.4100  0.5928
 2856SOL    HW220031   2.043   0.951   9.020 -0.2378  0.4433 -1.6188
 2857SOL     OW20032   0.916   2.857  16.289 -0.1203  0.8388 -0.3503
 2857SOL    HW120033   0.974   2.835  16.216  1.5113 -1.3226  1.5977
 2857SOL    HW220034   0.876   2.771  16.303 -0.4287  0.4877 -3.3304
 2858SOL     OW20035   2.060   2.810   1.060 -0.3524  0.3365  0.1951
 2858SOL    HW120036   1.981   2.824   1.112 -1.8256 -1.5849 -1.5485
 2858SOL    HW220037   2.080   2.900   1.032  1.0357 -0.3061 -0.8935
 2859SOL     OW20038   1.251   3.931  17.252 -0.2005  0.2369  0.3750
 2859SOL    HW120039   1.275   3.964  17.339 -0.5191 -0.4957  0.7366
 2859SOL    HW220040   1.187   3.865  17.280  0.9108 -0.4557  1.2569
 2860SOL     OW20041   0.502   2.427   6.409  0.2277  0.3812 -0.1995
 2860SOL    HW120042   0.449   2.374   6.350  0.2793  0.3192 -0.1893
 2860SOL    HW220043   0.431   2.459   6.465  0.0639  1.1587 -0.8369
 2861SOL     OW20044   0.921   4.087   1.922  0.1093 -0.5579 -0.7448
 2861SOL    HW120045   1.005   4.130   1.939 -0.7490  0.8090  0.0019
 2861SOL    HW220046   0.918   4.123   1.833 -2.4702  0.4618 -0.2266
 2862SOL     OW20047   4.399   2.487   6.464 -0.2929 -0.5835 -0.3838
 2862SOL    HW120048   4.377   2.470   6.372 -0.3585 -2.3459 -0.0448
 2862SOL    HW220049   4.489   2.455   6.463  0.9024  2.7864 -0.1606
 2863SOL     OW20050   1.280   1.651  10.358 -1.0797  0.6404  0.1012
 2863SOL    HW120051   1.314   1.714  10.294  0.6103  0.0498  0.4177
 2863SOL    HW220052   1.334   1.577  10.331  0.0446  0.7031  2.1763
 2864SOL     OW20053   3.382   2.247   6.238  0.0646 -0.1531  0.3000
 2864SOL    HW120054   3.446   2.239   6.308  1.1417  1.0652 -0.5730
 2864SOL    HW220055   3.299   2.238   6.287  0.3222  2.2053  1.1406
 2865SOL     OW20056   1.920   4.613   3.503 -0.6159 -0.3099 -0.8933
 2865SOL    HW120057   1.849   4.620   3.440 -1.6152  0.4375  0.3168
 2865SOL    HW220058   1.978   4.685   3.476  0.6098 -0.4702  1.2982
 2866SOL     OW20059   0.612   2.431   8.111  0.5306  0.2359  0.0738
 2866SOL    HW120060   0.680   2.452   8.046  0.9469 -0.2409  0.3634
 2866SOL    HW220061   0.603   2.518   8.149 -0.2867 -0.4641  1.4613
 2867SOL     OW20062   0.712   0.656   0.094  0.1189 -0.1818  0.1894
 2867SOL    HW120063   0.750   0.699   0.171 -0.6796 -0.1050  0.5388
 2867SOL    HW220064   0.637   0.605   0.122 -1.1003  2.4504  1.7900
 2868SOL     OW20065   4.717   2.993   6.931  0.1482  0.1881  0.4394
 2868SOL    HW120066   4.704   2.955   6.844 -1.5633  1.2281  0.2330
 2868SOL    HW220067   0.070   2.943   6.950  1.0641  1.7714  0.8606
 2869SOL     OW20068   3.014   1.646  14.895  0.2589  0.7845  0.2905
 2869SOL    HW120069   3.095   1.650  14.946 -0.1240 -1.5357  1.0631
 2869SOL    HW220070   2.970   1.727  14.922  0.9867  1.2907 -0.0412
 2870SOL     OW20071   3.626   2.728  16.311 -0.0255  0.4301  0.4256
 2870SOL    HW120072   3.531   2.725  16.310 -0.0286  0.6463 -0.0249
 2870SOL    HW220073   3.641   2.723  16.405  0.3452 -1.4819  0.2567
 2871SOL     OW20074   3.433   1.098   7.698  0.5859  0.0114 -0.2554
 2871SOL    HW120075   3.489   1.173   7.718 -0.8621  1.4389 -1.6061
 2871SOL    HW220076   3.386   1.112   7.616 -1.1541  1.4656  1.0057
 2872SOL     OW20077   4.056   2.396   5.351  0.2446  0.2525  0.1675
 2872SOL    HW120078   4.143   2.429   5.329  0.6050 -0.1659  0.9679
 2872SOL    HW220079   4.049   2.410   5.446 -0.8468  1.3605 -0.0825
 2873SOL     OW20080   3.308   3.535  12.886  0.4539  0.1056  0.2735
 2873SOL    HW120081   3.309   3.455  12.937  0.7893 -0.2011 -0.2170
 2873SOL    HW220082   3.324   3.506  12.796 -1.5897 -0.3014  0.0418
 2874SOL     OW20083   4.202   3.550  16.688  0.2443 -0.2455 -0.3014
 2874SOL    HW120084   4.247   3.495  16.751  0.6967  0.1428 -0.2859
 2874SOL    HW220085   4.125   3.493  16.679 -2.0172  2.9509 -1.4359
 2875SOL     OW20086   2.873   2.134   7.858 -0.4861  0.1898  0.0188
 2875SOL    HW120087   2.926   2.210   7.885  0.3953 -0.1577 -0.7250
 2875SOL    HW220088   2.823   2.129   7.939 -0.6477  0.3412 -0.0726
 2876SOL     OW20089   4.241   0.649  14.588  0.4972 -0.4421 -0.1290
 2876SOL    HW120090   4.190   0.585  14.637 -0.9120  1.4228  0.8511
 2876SOL    HW220091   4.191   0.657  14.506  0.1114 -0.0957  0.1404
 2877SOL     OW20092   4.196   0.749   3.626 -0.4688 -0.3524  0.6099
 2877SOL    HW120093   4.250   0.674   3.600 -0.1997 -0.3363  1.1217
 2877SOL    HW220094   4.258   0.822   3.632  0.1630 -0.7199 -1.2357
 2878SOL     OW20095   0.097   0.050   4.237  0.2141  0.1387 -0.0787
 2878SOL    HW120096   0.115   4.688   4.270  1.4507  0.2717 -0.3672
 2878SOL    HW220097   0.187   0.074   4.212  0.1228 -0.1897 -0.7218
 2879SOL     OW20098   2.364   1.062   2.224 -0.1273  0.3178 -0.5228
 2879SOL    HW120099   2.280   1.108   2.223 -0.0052  0.5567  0.2394
 2879SOL    HW220100   2.349   1.013   2.304  1.4061 -1.1703 -1.1346
 2880SOL     OW20101   0.134   2.073   9.630 -0.0259 -0.0492  0.3080
 2880SOL    HW120102   0.205   2.013   9.611  0.8253  1.3470 -0.9232
 2880SOL    HW220103   0.065   2.017   9.666 -2.8735  2.1956 -1.6691
 2881SOL     OW20104   1.082   2.094   2.486  0.3436  0.6265 -0.4371
 2881SOL    HW120105   1.096   2.171   2.431 -0.3239  1.6055  0.7629
 2881SOL    HW220106   1.106   2.022   2.427 -1.7471  0.2834 -0.8527
 2882SOL     OW20107   3.831   2.213   4.830  0.3331  0.0718 -0.1587
 2882SOL    HW120108   3.756   2.267   4.806 -1.0999 -1.1862  1.4858
 2882SOL    HW220109   3.872   2.275   4.889 -0.7476  0.0675  0.5918
 2883SOL     OW20110   1.482   1.692   2.789 -0.3131 -0.7731 -0.1936
 2883SOL    HW120111   1.471   1.600   2.811 -0.9641 -0.1633  2.0431
 2883SOL    HW220112   1.516   1.720   2.875  0.3909 -0.7554 -0.4737
 2884SOL     OW20113   2.167   1.678   6.317 -0.2315 -0.3813  0.4224
 2884SOL    HW120114   2.256   1.677   6.282 -0.4193 -1.6141 -0.0150
 2884SOL    HW220115   2.133   1.746   6.259 -0.0936 -0.4119  0.3060
 2885SOL     OW20116   1.398   1.199  17.317 -0.6847  0.2925 -0.3040
 2885SOL    HW120117   1.387   1.205  17.222  1.6417 -1.0769 -0.6653
 2885SOL    HW220118   1.333   1.264  17.343 -0.4084  0.2055  0.6033
 2886SOL     OW20119   1.299   3.009   5.925  0.2434 -0.3363  0.1292
 2886SOL    HW120120   1.212   2.995   5.888 -0.0026 -3.2661  1.8452
 2886SOL    HW220121   1.345   3.018   5.841 -0.2590  0.2857 -0.0801
 2887SOL     OW20122   1.424   0.561   5.536 -0.7555 -0.0425  0.2435
 2887SOL    HW120123   1.412   0.507   5.614  2.0702  2.3572  2.3273
 2887SOL    HW220124   1.505   0.515   5.513 -0.3960 -0.4265  2.3344
 2888SOL     OW20125   4.271   2.061   7.819 -0.3071 -0.0610 -0.2999
 2888SOL    HW120126   4.271   1.966   7.815 -1.7343 -0.1012  0.6914
 2888SOL    HW220127   4.365   2.076   7.826 -0.3276  1.0143 -2.1664
 2889SOL     OW20128   3.717   2.848   3.001  0.2939 -0.2901 -0.1879
 2889SOL    HW120129   3.660   2.885   3.068  0.2258 -2.2997  0.8605
 2889SOL    HW220130   3.647   2.833   2.937  0.3438 -2.4431  0.2842
 2890SOL     OW20131   0.951   0.507   3.144 -0.1627 -0.0747  0.3745
 2890SOL    HW120132   0.866   0.528   3.182  0.2218 -1.3953  1.9482
 2890SOL    HW220133   0.985   0.596   3.134  0.4809 -0.4411 -0.6733
 2891SOL     OW20134   4.357   0.184   0.526 -0.6284  1.1721 -0.3155
 2891SOL    HW120135   4.302   0.257   0.554 -0.2065  3.3208 -5.1326
 2891SOL    HW220136   4.414   0.228   0.463 -0.9332  0.8265 -0.8356
 2892SOL     OW20137   3.400   0.929  11.732  0.1068  0.2429 -0.5310
 2892SOL    HW120138   3.481   0.954  11.775  0.4272 -1.6803 -0.0162
 2892SOL    HW220139   3.399   0.988  11.657 -1.0960 -0.0389 -0.7446
 2893SOL     OW20140   4.536   3.121   0.531  0.0693  0.0378 -0.2236
 2893SOL    HW120141   4.473   3.151   0.596  1.5940 -0.1159  1.3137
 2893SOL    HW220142   4.615   3.159   0.569 -0.7400 -1.0213  2.5055
 2894SOL     OW20143   2.655   4.161   0.101 -0.1048  0.2984 -0.1017
 2894SOL    HW120144   2.731   4.113   0.135  0.6009  1.1899 -0.4321
 2894SOL    HW220145   2.681   4.170   0.010 -1.6411  0.1166 -0.5656
 2895SOL     OW20146   4.666   4.611   5.887 -0.1077  0.1914 -0.1087
 2895SOL    HW120147   4.682   4.580   5.976 -0.3388 -1.6702 -0.7090
 2895SOL    HW220148   0.018   4.579   5.840 -0.1913 -1.5500  0.9247
 2896SOL     OW20149   0.641   4.117   8.434  0.5947  0.1186  0.0600
 2896SOL    HW120150   0.623   4.196   8.385 -0.7737 -0.1351  0.1625
 2896SOL    HW220151   0.551   4.089   8.450  0.0618  0.7695 -1.8685
 2897SOL     OW20152   2.853   2.011   0.431 -0.1986 -0.4674 -0.6755
 2897SOL    HW120153   2.814   2.089   0.470 -1.1751 -2.5466  2.3867
 2897SOL    HW220154   2.798   1.940   0.461  0.1368 -1.1340 -1.6349
 2898SOL     OW20155   1.937   3.942   7.005  0.6499  0.3175  0.7446
 2898SOL    HW120156   1.863   3.997   6.978 -0.2047 -0.5655  1.2688
 2898SOL    HW220157   1.991   4.008   7.049  3.0726 -0.7875 -0.5659
 2899SOL     OW20158   4.144   4.213   7.614  0.4034 -0.1349 -0.1294
 2899SOL    HW120159   4.117   4.274   7.545  0.6356 -0.6649 -0.6930
 2899SOL    HW220160   4.210   4.264   7.661  1.2671 -2.8998  1.5783
 2900SOL     OW20161   3.366   0.914   2.555 -0.4147  0.0062  0.4056
 2900SOL    HW120162   3.346   0.946   2.467  0.8495  2.3007  0.9490
 2900SOL    HW220163   3.443   0.964   2.579 -1.7879  2.6112 -0.6299
 2901SOL     OW20164   2.231   3.514  16.956  0.2858 -0.1680  0.4834
 2901SOL    HW120165   2.191   3.574  17.019 -0.0536 -1.2798  1.3348
 2901SOL    HW220166   2.247   3.575  16.885 -2.4932 -0.6225 -0.5265
 2902SOL     OW20167   1.098   2.833  16.039 -0.4258  0.1855 -0.2971
 2902SOL    HW120168   1.074   2.770  15.971  1.6870 -2.9312  1.8251
 2902SOL    HW220169   1.192   2.819  16.050 -0.5252  1.1976  1.9159
 2903SOL     OW20170   2.109   2.180  17.458 -0.3259  0.5806 -0.5570
 2903SOL    HW120171   2.142   2.109  17.513  0.2318 -0.9329 -2.8684
 2903SOL    HW220172   2.079   2.248  17.518 -2.2501  0.5011 -1.4608
 2904SOL     OW20173   2.481   3.506   5.244 -0.3684  0.6394  0.6837
 2904SOL    HW120174   2.389   3.501   5.218 -0.1226 -1.3870  0.2029
 2904SOL    HW220175   2.505   3.414   5.257 -1.0434 -0.0752 -3.0709
 2905SOL     OW20176   3.176   1.846   6.145  0.5096 -0.6213 -0.0881
 2905SOL    HW120177   3.199   1.767   6.193 -0.0801  0.3079  1.7213
 2905SOL    HW220178   3.264   1.855   6.108  0.3530  3.6295  0.6035
 2906SOL     OW20179   1.482   3.791  13.225  0.0307 -1.2786 -0.6008
 2906SOL    HW120180   1.540   3.807  13.300 -1.1357 -0.4559  0.1206
 2906SOL    HW220181   1.400   3.823  13.262  1.1005 -0.4633  1.0879
 2907SOL     OW20182   0.937   1.061   8.620  0.2324 -0.5955  0.1908
 2907SOL    HW120183   0.866   1.010   8.581 -0.2754  1.3554 -1.4258
 2907SOL    HW220184   1.003   0.995   8.643 -1.6999 -2.5142  0.1988
 2908SOL     OW20185   2.263   3.928   4.004  0.3237  0.7993  0.1577
 2908SOL    HW120186   2.314   3.911   3.925  2.4577 -1.5205  2.0384
 2908SOL    HW220187   2.335   3.969   4.052  0.4441 -0.1314  0.7856
 2909SOL     OW20188   2.036   3.774   8.618 -0.4894 -0.2735  0.4300
 2909SOL    HW120189   2.038   3.719   8.539 -1.0820 -1.2291  1.0729
 2909SOL    HW220190   1.965   3.833   8.594  0.1749 -0.1445 -1.2411
 2910SOL     OW20191   2.454   4.161   5.703 -0.5741  0.2261 -0.1530
 2910SOL    HW120192   2.507   4.241   5.706  1.6159 -1.1819 -1.1363
 2910SOL    HW220193   2.440   4.152   5.798 -0.4780 -0.0270 -0.1623
 2911SOL     OW20194   0.650   1.961   2.985 -0.0705  0.0170 -0.1088
 2911SOL    HW120195   0.703   2.030   3.025 -2.0346  1.4423  0.0298
 2911SOL    HW220196   0.612   2.006   2.908 -1.6130 -2.9414 -1.0586
 2912SOL     OW20197   2.734   0.360  10.369 -0.2352 -0.1686 -0.1493
 2912SOL    HW120198   2.822   0.326  10.389 -1.3790 -3.0521 -0.0289
 2912SOL    HW220199   2.679   0.287  10.395 -0.3250  0.3526  1.1049
 2913SOL     OW20200   1.081   2.581  10.752  0.3148  0.9352 -0.3940
 2913SOL    HW120201   1.113   2.576  10.842 -3.1380  2.3624  0.9003
 2913SOL    HW220202   1.000   2.529  10.757  0.9467 -0.1379 -1.3332
 2914SOL     OW20203   1.979   2.312  10.608 -0.0276  0.0084  0.7483
 2914SOL    HW120204   1.887   2.310  10.637 -0.3754 -0.6103 -0.3919
 2914SOL    HW220205   1.961   2.262  10.529 -0.0988  0.2556  0.6072
 2915SOL     OW20206   0.371   4.434   5.650 -0.6496  0.1251  0.2574
 2915SOL    HW120207   0.440   4.431   5.584  0.6648  0.6469  1.6234
 2915SOL    HW220208   0.335   4.345   5.653 -1.1095  0.2500 -1.1727
 2916SOL     OW20209   4.630   1.316  17.566  0.2214 -0.1140 -0.0389
 2916SOL    HW120210   4.686   1.259  17.512 -0.3792  0.8040 -1.6290
 2916SOL    HW220211   4.689   1.361  17.627 -1.3830  1.0167  0.6552
 2917SOL     OW20212   4.474   1.729  17.622 -0.6655 -0.6183  0.5082
 2917SOL    HW120213   4.491   1.663  17.555  3.0141 -1.3454  2.1806
 2917SOL    HW220214   4.514   1.687  17.698 -1.1947 -0.2676  0.9863
 2918SOL     OW20215   1.551   4.438   5.231  0.6541 -0.1633 -0.0842
 2918SOL    HW120216   1.464   4.471   5.211  0.2642 -0.1471  1.6152
 2918SOL    HW220217   1.536   4.403   5.319  0.0523  0.4369  0.0441
 2919SOL     OW20218   2.854   2.988   3.582 -0.1069 -0.7423  0.3636
 2919SOL    HW120219   2.936   3.022   3.547 -0.8368 -1.6083 -2.2412
 2919SOL    HW220220   2.867   3.013   3.673  0.2717 -0.8088  0.3265
 2920SOL     OW20221   2.038   1.023  13.525 -0.1908  0.0887 -0.0334
 2920SOL    HW120222   2.132   1.033  13.513  0.1315  0.1581  2.4106
 2920SOL    HW220223   2.042   0.931  13.551 -0.9049 -0.2530 -1.1367
 2921SOL     OW20224   0.665   2.179   3.955 -0.3037 -0.2294  0.4743
 2921SOL    HW120225   0.754   2.211   3.974 -0.5913  1.5150 -1.1326
 2921SOL    HW220226   0.644   2.113   4.021  1.3247 -0.4120  0.8109
 2922SOL     OW20227   4.119   2.105   1.545 -0.1951  0.5735 -0.2768
 2922SOL    HW120228   4.175   2.179   1.521  0.3043  0.5991  0.9206
 2922SOL    HW220229   4.143   2.116   1.638  0.0130  0.6322 -0.3366
 2923SOL     OW20230   0.957   4.252  17.373 -0.1633  0.3458  0.0045
 2923SOL    HW120231   0.934   4.284  17.286 -1.1780  0.9909  0.5062
 2923SOL    HW220232   0.871   4.243  17.414  0.0656 -0.8380  0.2283
 2924SOL     OW20233   1.175   2.863   5.530 -0.1822  0.0328  0.4213
 2924SOL    HW120234   1.153   2.917   5.606 -2.0712  0.0533 -0.1552
 2924SOL    HW220235   1.230   2.919   5.474  0.9867 -0.7183  0.8145
 2925SOL     OW20236   2.711   2.053  10.336  0.3372  0.4913 -0.0117
 2925SOL    HW120237   2.742   2.106  10.410 -0.4143  0.3083  0.4246
 2925SOL    HW220238   2.737   2.118  10.271 -0.4271  1.5761  0.7663
 2926SOL     OW20239   1.160   1.949   3.508  0.9318  0.3674  0.0971
 2926SOL    HW120240   1.234   1.941   3.446  2.0370  3.0133  1.0549
 2926SOL    HW220241   1.199   2.004   3.576 -0.3958 -0.3388  1.3945
 2927SOL     OW20242   1.182   1.185   6.547 -0.5753  0.2021  0.4540
 2927SOL    HW120243   1.191   1.148   6.635  1.4918 -1.2011 -0.3608
 2927SOL    HW220244   1.268   1.178   6.506 -1.4255 -1.2938 -1.0814
 2928SOL     OW20245   2.629   2.150   2.628  0.9949 -0.7280 -0.1439
 2928SOL    HW120246   2.679   2.171   2.706  0.7852 -1.0070  0.0667
 2928SOL    HW220247   2.559   2.090   2.657 -0.4755  1.3278  0.5655
 2929SOL     OW20248   2.198   1.696  14.937 -0.0422 -0.2921  0.3014
 2929SOL    HW120249   2.281   1.719  14.896 -0.8286 -0.2836 -1.3001
 2929SOL    HW220250   2.215   1.630  15.004  1.2617 -0.6528 -0.3914
 2930SOL     OW20251   3.122   3.863   5.778 -1.0987  0.0265  0.2045
 2930SOL    HW120252   3.062   3.880   5.850 -0.8569 -0.8258  0.6094
 2930SOL    HW220253   3.129   3.953   5.745 -1.1287 -1.0389 -2.6571
 2931SOL     OW20254   0.461   1.479   5.149  0.5903  0.4010 -0.2637
 2931SOL    HW120255   0.451   1.490   5.055  0.4243 -2.7757 -0.6180
 2931SOL    HW220256   0.509   1.397   5.160 -0.8014 -0.2879  0.6858
 2932SOL     OW20257   3.334   2.985   7.481  0.1289  0.7856  0.1248
 2932SOL    HW120258   3.266   2.975   7.548  2.1339 -2.7504  1.6269
 2932SOL    HW220259   3.316   2.906   7.430 -0.0781  0.8823  0.0462
 2933SOL     OW20260   1.119   1.308   6.956  0.4398 -0.3419 -0.2320
 2933SOL    HW120261   1.052   1.254   6.914 -0.0599  0.1897 -0.1169
 2933SOL    HW220262   1.098   1.286   7.047 -0.2827  1.4297  0.0304
 2934SOL     OW20263   3.070   3.033   5.120 -0.3534  0.3469 -0.1585
 2934SOL    HW120264   3.077   2.947   5.162 -1.5565  0.1713 -0.3195
 2934SOL    HW220265   3.016   3.085   5.179 -1.4149 -0.5991 -0.2834
 2935SOL     OW20266   0.830   2.814   7.798 -0.0082  0.1132 -0.4733
 2935SOL    HW120267   0.815   2.804   7.704 -0.6344 -2.6895 -0.0746
 2935SOL    HW220268   0.747   2.850   7.827  0.7738 -0.3942  2.4095
 2936SOL     OW20269   0.016   3.051   2.577  0.1920 -0.4176  0.4836
 2936SOL    HW120270   0.065   3.061   2.658  1.0421  0.0192 -0.0852
 2936SOL    HW220271   4.661   3.007   2.605  0.6252 -2.5550 -1.6703
 2937SOL     OW20272   0.808   1.692   4.091  0.0812 -0.5044  0.7133
 2937SOL    HW120273   0.745   1.628   4.059  1.4463 -0.1757 -2.6207
 2937SOL    HW220274   0.878   1.643   4.134  0.3894  1.1169  2.0712
 2938SOL     OW20275   2.140   1.537   9.142 -0.1830 -0.5078 -0.3321
 2938SOL    HW120276   2.065   1.523   9.200 -1.4185  1.1352 -1.5032
 2938SOL    HW220277   2.161   1.629   9.157  3.1839 -0.7600 -3.7170
 2939SOL     OW20278   1.242   1.831  10.788 -0.6452 -0.4748 -0.2466
 2939SOL    HW120279   1.154   1.869  10.787 -0.8898 -1.0189  0.7764
 2939SOL    HW220280   1.267   1.852  10.878  1.0864  0.1243 -0.8726
 2940SOL     OW20281   3.752   4.596   5.277  0.1882  0.7709 -0.7857
 2940SOL    HW120282   3.692   4.579   5.204 -0.4843 -2.4906  0.5290
 2940SOL    HW220283   3.718   4.532   5.340  0.3291 -0.3062 -1.7957
 2941SOL     OW20284   2.967   0.193  10.310  0.1955 -0.0299  0.2659
 2941SOL    HW120285   3.021   0.190  10.389 -0.9613  0.4060  1.0763
 2941SOL    HW220286   2.938   0.103  10.300 -1.0970  0.5582 -1.3246
 2942SOL     OW20287   3.104   2.877  13.100 -0.0638 -0.3251 -0.5949
 2942SOL    HW120288   3.194   2.858  13.127  0.2139  0.8075 -0.7145
 2942SOL    HW220289   3.061   2.860  13.184  0.7044  1.0002  0.0642
 2943SOL     OW20290   3.859   2.986   5.010 -0.1341 -0.6106 -0.5131
 2943SOL    HW120291   3.899   3.069   4.986  0.4156 -0.5567  0.6115
 2943SOL    HW220292   3.941   2.937   5.020 -0.2564 -0.6876  0.1555
 2944SOL     OW20293   3.410   2.489   8.769 -0.0956  0.1132 -0.1133
 2944SOL    HW120294   3.406   2.536   8.685 -0.6061  1.4371  0.6516
 2944SOL    HW220295   3.451   2.406   8.744  0.9099  0.6352 -0.2040
 2945SOL     OW20296   1.933   4.376   4.429 -0.4286 -0.2832 -0.1640
 2945SOL    HW120297   1.860   4.438   4.432  0.0769  0.3888 -1.8248
 2945SOL    HW220298   1.958   4.391   4.338 -0.9870  2.5662  0.1553
 2946SOL     OW20299   0.599   1.249   8.459 -0.2604  0.3619 -0.6501
 2946SOL    HW120300   0.545   1.295   8.523  1.8014  0.8458  0.7312
 2946SOL    HW220301   0.690   1.271   8.480  0.2670 -1.0928 -1.3957
 2947SOL     OW20302   1.552   1.480  12.789 -0.3404 -0.2970  0.4855
 2947SOL    HW120303   1.491   1.524  12.730  0.0965 -3.1669 -2.0798
 2947SOL    HW220304   1.496   1.426  12.845 -0.4022  0.2967  1.0015
 2948SOL     OW20305   4.362   4.460   7.747  0.5771 -0.0421  0.1934
 2948SOL    HW120306   4.322   4.386   7.792  1.3397  0.6391  1.9799
 2948SOL    HW220307   4.443   4.415   7.727 -0.5326 -2.2790  0.7785
 2949SOL     OW20308   1.953   1.476   1.258 -0.1865  0.1190  0.2999
 2949SOL    HW120309   1.889   1.514   1.198 -0.9056 -1.4788  0.0691
 2949SOL    HW220310   1.927   1.506   1.345 -0.2354  1.7831 -0.2776
 2950SOL     OW20311   2.658   4.638   6.001  0.3977 -0.0200 -0.6027
 2950SOL    HW120312   2.585   4.687   5.964  0.1534  0.0264 -0.0516
 2950SOL    HW220313   2.658   4.683   6.086  0.4601 -0.2595 -0.4742
 2951SOL     OW20314   0.882   4.717  17.558 -0.2748 -0.1400 -0.6362
 2951SOL    HW120315   0.878   0.017  17.466 -0.1806  0.5587 -0.4439
 2951SOL    HW220316   0.835   4.634  17.551 -1.6512  0.3809  2.2502
 2952SOL     OW20317   2.103   1.569   1.775 -0.0194  0.3117  0.2963
 2952SOL    HW120318   2.009   1.578   1.760 -0.1073 -0.4876  0.3615
 2952SOL    HW220319   2.131   1.611   1.693 -0.3122  0.3520  0.2162
 2953SOL     OW20320   0.288   3.563   0.737  0.4563 -0.4522 -0.1359
 2953SOL    HW120321   0.274   3.470   0.754 -0.1571 -0.1884  0.8534
 2953SOL    HW220322   0.373   3.558   0.694 -0.1654 -0.3834 -1.3786
 2954SOL     OW20323   0.450   1.202   1.645  0.1373 -0.0783  0.6672
 2954SOL    HW120324   0.384   1.152   1.693  0.1607 -1.9478 -1.2457
 2954SOL    HW220325   0.533   1.157   1.661 -0.6996 -2.4693 -1.7608
 2955SOL     OW20326   1.756   2.302  11.798 -0.5140 -0.5398  0.5742
 2955SOL    HW120327   1.745   2.352  11.879  1.6360 -0.2725  0.6840
 2955SOL    HW220328   1.777   2.214  11.827  1.3822 -0.0441  0.6656
 2956SOL     OW20329   2.444   4.389   8.390 -0.2061  0.0312  0.1854
 2956SOL    HW120330   2.443   4.401   8.485  0.8688  0.5189  0.1344
 2956SOL    HW220331   2.413   4.478   8.375  2.0139  0.2711 -2.9822
 2957SOL     OW20332   3.090   4.712   9.006  0.3270 -0.0210 -0.3575
 2957SOL    HW120333   3.041   4.642   9.050  2.2630 -1.2558 -0.1617
 2957SOL    HW220334   3.083   4.682   8.916 -1.2554  2.0900 -0.9325
 2958SOL     OW20335   2.089   4.622   6.943 -0.2206  0.5609  0.3974
 2958SOL    HW120336   2.112   4.708   6.980  2.4933 -0.4180  0.9336
 2958SOL    HW220337   2.062   4.570   7.018 -1.3315  0.3481 -0.1504
 2959SOL     OW20338   1.377   2.906   4.577  0.2737  0.4912 -0.0675
 2959SOL    HW120339   1.340   2.988   4.545  1.1813  1.6273  1.7924
 2959SOL    HW220340   1.347   2.840   4.514 -1.1302 -0.0929  1.2337
 2960SOL     OW20341   1.677   4.481  13.639 -0.5413  0.0121  0.1334
 2960SOL    HW120342   1.630   4.413  13.687  0.0515  0.2779  1.0880
 2960SOL    HW220343   1.733   4.428  13.582  0.1202  1.6551 -0.7274
 2961SOL     OW20344   1.343   3.628   9.457 -0.4539  0.6292 -0.5346
 2961SOL    HW120345   1.402   3.590   9.522 -0.5571 -0.5486 -1.1339
 2961SOL    HW220346   1.263   3.631   9.511 -1.2669  0.6159 -1.7496
 2962SOL     OW20347   3.894   1.188   8.114  0.0307 -0.0275  0.5573
 2962SOL    HW120348   3.880   1.126   8.186  1.8723 -1.3322 -0.2100
 2962SOL    HW220349   3.824   1.162   8.055  0.7254  0.2259 -0.3832
 2963SOL     OW20350   2.540   2.367   8.006 -0.3102 -0.3030  0.2701
 2963SOL    HW120351   2.533   2.381   8.101 -1.5678  1.1618 -0.0357
 2963SOL    HW220352   2.526   2.272   8.004  0.0596 -0.3540  0.1042
 2964SOL     OW20353   2.175   4.238   5.858  0.2318 -0.1383 -0.3863
 2964SOL    HW120354   2.187   4.257   5.951 -0.7279 -0.2433 -0.2419
 2964SOL    HW220355   2.137   4.324   5.842  0.1692  0.2305  1.7411
 2965SOL     OW20356   4.596   1.242  14.967 -0.0706 -0.0853 -0.2807
 2965SOL    HW120357   4.571   1.159  15.008  0.3399  0.8562  1.9123
 2965SOL    HW220358   4.528   1.308  14.982  0.9983  0.6994  1.1317
 2966SOL     OW20359   3.707   4.684   8.499 -0.5333  0.0602 -0.1351
 2966SOL    HW120360   3.782   4.686   8.558 -0.8496  0.1599  0.2599
 2966SOL    HW220361   3.674   0.048   8.509 -1.6235 -0.3520 -0.1252
 2967SOL     OW20362   1.208   2.704  16.868  0.1812  0.1733 -0.3550
 2967SOL    HW120363   1.272   2.717  16.798 -0.2304 -1.1592 -0.9744
 2967SOL    HW220364   1.251   2.738  16.946  1.3081 -2.7692  0.2857
 2968SOL     OW20365   1.638   1.263   2.246  0.1759 -0.2943  0.3363
 2968SOL    HW120366   1.724   1.223   2.230  0.5365  0.1229  1.2724
 2968SOL    HW220367   1.659   1.355   2.261 -0.9559  0.0392 -0.1330
 2969SOL     OW20368   0.551   4.039   7.386  0.2240 -0.2457 -0.5269
 2969SOL    HW120369   0.487   3.969   7.386 -0.4806  0.3979  1.1564
 2969SOL    HW220370   0.617   3.990   7.435  0.7500  1.2386  0.2595
 2970SOL     OW20371   0.413   1.688   1.878  0.2322  0.1000  0.1507
 2970SOL    HW120372   0.346   1.680   1.946  1.9128  0.5823  1.8884
 2970SOL    HW220373   0.400   1.610   1.825  0.9042 -0.5592  0.9446
 2971SOL     OW20374   0.160   2.385   7.609  0.1502  0.0827  0.7129
 2971SOL    HW120375   0.189   2.342   7.690  1.7653  0.4152  0.3237
 2971SOL    HW220376   0.148   2.475   7.640 -0.0923  0.4832 -0.5685
 2972SOL     OW20377   4.513   2.787   3.706  0.1429 -0.4358 -0.0939
 2972SOL    HW120378   4.424   2.787   3.740 -0.2699 -1.5350 -1.2000
 2972SOL    HW220379   4.508   2.723   3.635 -1.9943 -1.4973  1.0238
 2973SOL     OW20380   4.491   0.471  12.802 -0.2312  0.3711  0.5445
 2973SOL    HW120381   4.462   0.385  12.773  0.5109  0.2348  0.1891
 2973SOL    HW220382   4.548   0.492  12.727 -1.9982  0.8620 -0.6549
 2974SOL     OW20383   2.226   1.103   0.179 -0.0973  0.0187  0.0187
 2974SOL    HW120384   2.231   1.012   0.208 -1.0904 -0.9352 -2.7405
 2974SOL    HW220385   2.151   1.138   0.227 -1.9782  0.6637 -3.3644
 2975SOL     OW20386   0.546   2.201  14.897 -0.1006  0.6624 -0.1302
 2975SOL    HW120387   0.464   2.249  14.908 -0.1598  0.4846  0.1957
 2975SOL    HW220388   0.534   2.110  14.925 -0.5842  1.2584  1.6113
 2976SOL     OW20389   4.323   2.789  12.249 -0.0985  0.6741  0.1220
 2976SOL    HW120390   4.381   2.769  12.176  2.0008  0.5083  1.8303
 2976SOL    HW220391   4.237   2.750  12.237 -0.6368  2.2661 -1.2814
 2977SOL     OW20392   2.341   4.225  11.976  0.4503  0.3553 -0.2244
 2977SOL    HW120393   2.387   4.301  11.941 -0.7592  0.0982 -2.3197
 2977SOL    HW220394   2.256   4.242  11.935 -0.7655  0.9675  2.5522
 2978SOL     OW20395   4.319   3.104  17.013 -0.0368  0.5702  0.1458
 2978SOL    HW120396   4.273   3.188  17.017 -0.9592 -0.0073  1.4170
 2978SOL    HW220397   4.391   3.110  16.950 -0.0634 -1.4972 -0.0844
 2979SOL     OW20398   3.302   3.753   2.250 -0.2939  0.2140  0.0781
 2979SOL    HW120399   3.248   3.678   2.227 -0.1613  0.0765  0.2118
 2979SOL    HW220400   3.256   3.796   2.321  0.2726  0.8770  0.0461
 2980SOL     OW20401   3.308   3.117   2.992  0.3333  0.1193 -0.3031
 2980SOL    HW120402   3.403   3.126   2.986  0.3651 -0.5171 -0.6710
 2980SOL    HW220403   3.291   3.207   2.964  0.2087  0.0802 -0.3515
 2981SOL     OW20404   2.163   3.787  11.677  0.1646 -0.3846  0.1908
 2981SOL    HW120405   2.079   3.820  11.646 -0.2524 -0.6111  1.0682
 2981SOL    HW220406   2.213   3.856  11.634 -1.0654 -0.4196 -1.2860
 2982SOL     OW20407   4.530   4.261   4.083 -0.0997 -0.1873  0.4724
 2982SOL    HW120408   4.488   4.189   4.130  1.0167 -0.5292  0.9435
 2982SOL    HW220409   4.534   4.323   4.156 -2.6474  0.0529  0.4132
 2983SOL     OW20410   4.274   2.969   5.035 -0.3427  0.4515 -0.2765
 2983SOL    HW120411   4.195   2.924   5.007  0.4126 -0.5459 -0.8164
 2983SOL    HW220412   4.260   2.993   5.126 -0.1137 -1.7653  0.3177
 2984SOL     OW20413   3.164   0.177  16.857  0.0324 -0.4765 -0.5831
 2984SOL    HW120414   3.148   0.122  16.781  0.5770 -0.4136 -0.7484
 2984SOL    HW220415   3.259   0.169  16.870  0.0280 -0.3574 -0.4762
 2985SOL     OW20416   4.625   4.356   5.099  0.4978  0.3185  0.1944
 2985SOL    HW120417   4.611   4.289   5.167 -2.2937  0.0314 -0.6594
 2985SOL    HW220418   4.719   4.343   5.085 -0.0773 -0.4727 -2.9154
 2986SOL     OW20419   1.234   2.804   8.097 -0.3898  0.4748 -0.4255
 2986SOL    HW120420   1.202   2.894   8.108  0.5448  0.8681 -0.9494
 2986SOL    HW220421   1.171   2.763   8.038  0.0489  0.0700 -0.6082
 2987SOL     OW20422   2.033   4.720   4.283 -0.6695 -0.4876  0.7132
 2987SOL    HW120423   1.981   0.067   4.247  1.8597  1.2595  0.5987
 2987SOL    HW220424   1.965   4.684   4.340 -1.0578 -0.5070  0.2396
 2988SOL     OW20425   3.004   1.915   7.141 -0.5850  0.3348 -0.2752
 2988SOL    HW120426   2.936   1.948   7.200 -1.1005  0.6587 -1.0431
 2988SOL    HW220427   3.079   1.970   7.166  1.1061 -1.5497 -1.1662
 2989SOL     OW20428   2.555   4.367   8.864 -0.6533  0.0645  0.3123
 2989SOL    HW120429   2.503   4.416   8.928 -0.5842  1.1227 -0.4468
 2989SOL    HW220430   2.599   4.303   8.920 -1.0403 -0.7387 -0.3139
 2990SOL     OW20431   3.630   0.443   9.472 -0.3526  0.0200  0.2246
 2990SOL    HW120432   3.626   0.532   9.508 -0.1033  0.2737 -0.3889
 2990SOL    HW220433   3.608   0.388   9.548 -1.4081 -0.7538 -0.6365
 2991SOL     OW20434   0.405   2.250   8.045 -0.6613  0.5050  0.3501
 2991SOL    HW120435   0.399   2.167   8.092 -0.8763 -0.1824 -0.9069
 2991SOL    HW220436   0.477   2.305   8.077 -0.9416  0.4643  1.0580
 2992SOL     OW20437   0.831   1.579  11.366  0.3635 -0.2984  0.4735
 2992SOL    HW120438   0.871   1.521  11.431  1.4610  2.4822  2.2927
 2992SOL    HW220439   0.905   1.633  11.341 -0.3370  1.5074  2.2945
 2993SOL     OW20440   3.776   1.954  17.680  0.1397  0.0330  0.0338
 2993SOL    HW120441   3.821   1.872  17.659  1.6938  0.1549  2.9215
 2993SOL    HW220442   3.800   1.952   0.069  1.2738  2.7790 -0.2079
 2994SOL     OW20443   4.074   2.273   3.349  0.0181  0.6954 -0.5468
 2994SOL    HW120444   4.028   2.278   3.265 -1.4405  1.2534  0.2796
 2994SOL    HW220445   4.044   2.354   3.388 -2.7790  0.5334 -2.3736
 2995SOL     OW20446   3.611   0.973   3.114  0.2491 -0.6099  0.5148
 2995SOL    HW120447   3.535   1.031   3.110 -0.6088 -1.8557 -0.9007
 2995SOL    HW220448   3.570   0.888   3.099  1.0186 -1.0601  0.9543
 2996SOL     OW20449   2.581   2.124  12.889 -0.1439  0.1117  0.1999
 2996SOL    HW120450   2.616   2.081  12.967 -3.1759 -1.6184  0.6131
 2996SOL    HW220451   2.665   2.143  12.848  0.6739 -1.8249  0.9797
 2997SOL     OW20452   2.179   0.907  14.761 -0.4294 -0.1898 -0.1318
 2997SOL    HW120453   2.158   0.881  14.851 -1.1308 -0.0298 -0.2435
 2997SOL    HW220454   2.228   0.829  14.738  0.2069 -0.9560  3.7777
 2998SOL     OW20455   0.903   0.584   8.462  0.4148 -0.7994 -0.1060
 2998SOL    HW120456   0.814   0.549   8.459  0.6473 -1.5275  1.3622
 2998SOL    HW220457   0.943   0.578   8.376  0.7574  2.2080 -0.1433
 2999SOL     OW20458   4.057   4.495   8.354 -0.3309  0.0752 -0.5395
 2999SOL    HW120459   4.045   4.586   8.326  1.2242  0.7154  0.8847
 2999SOL    HW220460   3.990   4.451   8.301  0.3252 -0.0075 -1.2987
 3000SOL     OW20461   3.008   2.437   7.398 -0.4572  0.1950 -0.1367
 3000SOL    HW120462   2.923   2.464   7.364 -1.5189 -1.2612  1.3802
 3000SOL    HW220463   3.006   2.343   7.381  2.0142  0.1646 -0.2473
 3001SOL     OW20464   3.208   0.758  14.009 -0.2703  0.4744  0.2596
 3001SOL    HW120465   3.271   0.730  14.077 -1.2682 -1.1465  0.5071
 3001SOL    HW220466   3.250   0.757  13.923 -0.4556 -0.4144  0.1759
 3002SOL     OW20467   1.852   1.642  10.281  0.6067 -0.0875  0.0235
 3002SOL    HW120468   1.883   1.623  10.193  0.0329  1.0987 -0.4390
 3002SOL    HW220469   1.864   1.555  10.318  0.9284  0.4303  1.1253
 3003SOL     OW20470   4.573   0.702   8.177  0.1540  0.0559 -0.5990
 3003SOL    HW120471   4.537   0.622   8.216 -0.4127  0.5966 -0.0190
 3003SOL    HW220472   4.514   0.772   8.204 -1.1141 -0.8557 -1.0516
 3004SOL     OW20473   0.130   4.519  13.397 -0.0552  0.2854 -0.6332
 3004SOL    HW120474   0.148   4.441  13.450 -0.4681  0.8081  0.2936
 3004SOL    HW220475   0.192   4.493  13.329  1.9445  1.1291  0.8532
 3005SOL     OW20476   0.710   2.129   5.192 -0.0579  0.4584  0.5990
 3005SOL    HW120477   0.719   2.144   5.286  0.6776 -3.2789  1.1143
 3005SOL    HW220478   0.736   2.214   5.156  0.4501  0.0590  0.0147
 3006SOL     OW20479   3.411   1.804   9.790 -0.1943  0.2215 -0.1336
 3006SOL    HW120480   3.363   1.780   9.869 -0.0754 -1.4106 -0.5608
 3006SOL    HW220481   3.348   1.856   9.740  1.3386  0.6651 -1.6319
 3007SOL     OW20482   2.388   0.782   6.075  0.2422  0.1672  0.6208
 3007SOL    HW120483   2.340   0.793   6.157 -0.2074 -0.4781  0.4535
 3007SOL    HW220484   2.464   0.730   6.101 -0.6067 -1.1779  0.4649
 3008SOL     OW20485   4.553   2.048   7.535  0.0432  0.1000  0.3219
 3008SOL    HW120486   4.528   2.049   7.628  0.8234  1.1645  0.5227
 3008SOL    HW220487   4.581   2.139   7.526 -1.0102  0.3753 -0.1529
 3009SOL     OW20488   2.061   2.150   7.468  0.4104  0.5566  0.1988
 3009SOL    HW120489   2.051   2.168   7.562 -0.4933  0.2089  0.1752
 3009SOL    HW220490   1.979   2.190   7.436  0.1471  1.1220  1.5865
 3010SOL     OW20491   1.730   0.266  15.871  0.4955 -0.6423  0.1185
 3010SOL    HW120492   1.799   0.292  15.810 -0.0117  0.6876  0.1139
 3010SOL    HW220493   1.753   0.329  15.940 -0.6733 -1.2393  1.0513
 3011SOL     OW20494   1.840   0.621   3.557 -0.0483  0.7901  0.4663
 3011SOL    HW120495   1.794   0.618   3.641  3.2997  0.1026  2.3162
 3011SOL    HW220496   1.816   0.707   3.522  0.3013  0.9359  0.5835
 3012SOL     OW20497   4.396   1.158   3.307  0.3506  0.2994  0.1538
 3012SOL    HW120498   4.342   1.235   3.324  2.8184  1.5803  2.0624
 3012SOL    HW220499   4.450   1.188   3.235 -0.4790  0.6407 -0.3234
 3013SOL     OW20500   4.708   1.444   1.938  0.2586 -0.3042 -0.7867
 3013SOL    HW120501   0.014   1.402   2.018  0.1194  0.9659 -0.0650
 3013SOL    HW220502   0.054   1.432   1.876  2.3226 -0.6192  1.6897
 3014SOL     OW20503   4.088   0.312   4.780 -0.0950 -0.8998  0.3418
 3014SOL    HW120504   4.092   0.229   4.826 -2.3029 -0.4163  1.3837
 3014SOL    HW220505   4.099   0.380   4.848  1.6127  0.5179 -1.3280
 3015SOL     OW20506   0.161   1.260  16.489  0.2538  0.2627  0.4744
 3015SOL    HW120507   0.068   1.243  16.500  0.1052  1.0000  0.3481
 3015SOL    HW220508   0.192   1.257  16.580 -0.3272  1.2080  0.7040
 3016SOL     OW20509   0.594   3.591   5.770  0.3071  0.2302  0.5252
 3016SOL    HW120510   0.672   3.614   5.721 -0.5606  1.7542 -0.1407
 3016SOL    HW220511   0.635   3.616   5.853  1.1055  0.4823  0.0524
 3017SOL     OW20512   1.210   2.333   6.492  0.2193 -0.0307  0.4947
 3017SOL    HW120513   1.261   2.254   6.474  1.2095  0.6425  0.3702
 3017SOL    HW220514   1.208   2.336   6.588 -0.1639  2.4217  0.4120
 3018SOL     OW20515   0.077   4.091   5.411 -0.8666 -0.9217  0.4007
 3018SOL    HW120516   0.100   4.020   5.471 -0.0130  0.8438  2.1923
 3018SOL    HW220517   0.051   4.159   5.474  0.8925 -0.5471  0.7317
 3019SOL     OW20518   1.190   0.832  17.669 -0.9114 -0.0830  0.2656
 3019SOL    HW120519   1.164   0.920  17.643 -1.2169 -0.0205  0.7741
 3019SOL    HW220520   1.103   0.793  17.660  0.8013 -4.0155  0.4200
 3020SOL     OW20521   2.872   2.987   4.453 -0.2168 -0.6307 -0.2284
 3020SOL    HW120522   2.788   3.006   4.411 -1.4231  3.0875  3.8904
 3020SOL    HW220523   2.906   3.076   4.447 -0.0398 -0.8335 -2.0572
 3021SOL     OW20524   0.172   4.208   5.775 -0.5966 -0.4596  0.1356
 3021SOL    HW120525   0.137   4.268   5.709  1.4029 -0.4133 -0.8865
 3021SOL    HW220526   0.088   4.182   5.813  0.9951 -0.5620  3.6339
 3022SOL     OW20527   2.494   0.389   9.502 -0.2270  0.6135 -0.2682
 3022SOL    HW120528   2.422   0.430   9.455 -1.1957 -1.2724 -0.4257
 3022SOL    HW220529   2.570   0.432   9.462 -1.7469  1.9984 -1.6407
 3023SOL     OW20530   1.561   2.257   5.864  0.6108  0.2100 -0.0902
 3023SOL    HW120531   1.518   2.320   5.806 -0.2372 -0.1198  0.1780
 3023SOL    HW220532   1.584   2.320   5.933 -1.6375  1.7034 -0.7123
 3024SOL     OW20533   3.350   1.658   9.331  0.1007  0.1607 -0.3235
 3024SOL    HW120534   3.266   1.674   9.288  0.4333 -0.0298 -1.0489
 3024SOL    HW220535   3.353   1.740   9.381  0.6736 -0.9031  1.4062
 3025SOL     OW20536   3.526   3.666   0.438 -0.2197  0.3916  0.0547
 3025SOL    HW120537   3.532   3.733   0.507  0.5389  0.3278  0.0540
 3025SOL    HW220538   3.587   3.698   0.372 -0.8278  1.5211  0.0421
 3026SOL     OW20539   2.382   2.196  11.888  0.2301 -0.1128 -0.1630
 3026SOL    HW120540   2.457   2.183  11.946 -0.6987 -0.9499  0.8413
 3026SOL    HW220541   2.324   2.248  11.943 -1.2084 -0.5467 -1.2793
 3027SOL     OW20542   1.101   3.818  16.599 -0.0518  0.1376 -0.0756
 3027SOL    HW120543   1.095   3.901  16.646 -1.6682 -1.6074  2.7691
 3027SOL    HW220544   1.174   3.848  16.544  0.2298  0.7089  0.6029
 3028SOL     OW20545   0.665   0.606  16.300 -0.3416 -0.2787 -0.0567
 3028SOL    HW120546   0.731   0.675  16.305 -2.2962  1.5384  0.5933
 3028SOL    HW220547   0.678   0.580  16.209 -0.2979 -0.5867  0.0380
 3029SOL     OW20548   1.482   3.731   3.401 -0.7026 -0.4949 -0.8496
 3029SOL    HW120549   1.446   3.763   3.483  1.3612  0.7581 -0.4064
 3029SOL    HW220550   1.503   3.813   3.355  1.3138  0.7618  2.3200
 3030SOL     OW20551   1.348   2.531   5.342 -0.0813 -0.3132 -0.1764
 3030SOL    HW120552   1.414   2.462   5.347 -0.0565 -0.3069 -0.4166
 3030SOL    HW220553   1.284   2.493   5.403  1.8022 -2.6362  0.3505
 3031SOL     OW20554   2.710   0.901   5.711  0.2434  0.3011  0.1769
 3031SOL    HW120555   2.669   0.982   5.740  0.0939  0.2974 -0.0273
 3031SOL    HW220556   2.641   0.835   5.701 -0.8689  1.0416  2.9371
 3032SOL     OW20557   2.671   4.172  17.307 -0.8623  0.4256 -0.6062
 3032SOL    HW120558   2.736   4.214  17.364 -2.0974 -1.4560  2.2099
 3032SOL    HW220559   2.594   4.163  17.364  0.3226  0.8292  1.0555
 3033SOL     OW20560   0.195   3.720   4.136  0.2911 -0.1010  0.2644
 3033SOL    HW120561   0.184   3.625   4.137  0.2435 -0.0931  0.9169
 3033SOL    HW220562   0.286   3.723   4.109  0.0918  3.5007 -0.0494
 3034SOL     OW20563   2.279   2.067  12.874  0.1494  0.1881 -0.2466
 3034SOL    HW120564   2.292   1.982  12.915  0.9321  0.6366  0.4319
 3034SOL    HW220565   2.367   2.086  12.842  0.8428 -0.9986  0.9988
 3035SOL     OW20566   3.264   2.162   8.825  0.0881 -0.0167 -0.1519
 3035SOL    HW120567   3.194   2.165   8.890 -0.8096 -0.0730 -1.1136
 3035SOL    HW220568   3.226   2.088   8.778 -3.0403  1.3383  0.2411
 3036SOL     OW20569   3.487   4.539  14.419 -0.6554 -0.5244 -0.2917
 3036SOL    HW120570   3.479   4.449  14.451 -0.4461  0.2253  1.8724
 3036SOL    HW220571   3.462   4.527  14.327 -0.4194  0.9151 -0.5317
 3037SOL     OW20572   0.233   1.118   4.682  0.0831 -0.1782  0.2763
 3037SOL    HW120573   0.221   1.113   4.777  0.6459  0.4157  0.3751
 3037SOL    HW220574   0.219   1.025   4.663 -0.3706 -0.3076  1.2693
 3038SOL     OW20575   2.822   3.184   9.184 -0.7631  0.2089  0.3965
 3038SOL    HW120576   2.751   3.154   9.241  0.6477 -2.5858  0.6687
 3038SOL    HW220577   2.881   3.109   9.186 -1.2361 -0.2301 -1.5305
 3039SOL     OW20578   3.281   1.888   5.161  0.2940  0.6551 -0.3954
 3039SOL    HW120579   3.199   1.843   5.183  0.0731  1.3558  0.2161
 3039SOL    HW220580   3.311   1.862   5.074  0.6752  1.7209 -0.5843
 3040SOL     OW20581   4.626   3.052   7.273  0.7291 -0.0649  0.3831
 3040SOL    HW120582   4.567   3.082   7.204  0.1637  1.0330  1.3504
 3040SOL    HW220583   4.624   2.957   7.270  0.0824 -0.0910  1.9795
 3041SOL     OW20584   2.869   4.186   6.861 -0.3886  0.4655  0.0873
 3041SOL    HW120585   2.954   4.143   6.855 -0.8212 -0.5801  1.4962
 3041SOL    HW220586   2.886   4.253   6.927 -0.1440  0.0057  0.4853
 3042SOL     OW20587   4.009   1.394  11.059  0.0300  0.3517 -0.3594
 3042SOL    HW120588   4.013   1.426  10.968 -1.5265  0.6395 -0.3169
 3042SOL    HW220589   4.021   1.302  11.032 -0.0261 -0.4052  2.2321
 3043SOL     OW20590   2.135   0.991   7.172  0.4674  0.2700 -0.0560
 3043SOL    HW120591   2.043   0.983   7.198 -0.0087  2.7211 -0.9845
 3043SOL    HW220592   2.131   0.912   7.118 -0.9009  0.3812 -0.1002
 3044SOL     OW20593   2.465   2.309   6.310 -0.2309 -0.2664  0.4039
 3044SOL    HW120594   2.431   2.343   6.227  0.2222 -1.6091 -0.3317
 3044SOL    HW220595   2.395   2.328   6.373 -0.0081 -0.7863  0.8157
 3045SOL     OW20596   4.136   3.179   6.070  0.5003 -0.2642  0.2346
 3045SOL    HW120597   4.181   3.142   6.145  3.9533  1.7280 -0.8379
 3045SOL    HW220598   4.159   3.117   6.001 -0.7043 -1.1075  0.5975
 3046SOL     OW20599   2.516   4.416   6.593  0.3024 -0.3326 -0.1987
 3046SOL    HW120600   2.499   4.473   6.668 -2.2276 -0.4151 -0.6908
 3046SOL    HW220601   2.506   4.328   6.628  1.3250 -0.3525  0.0355
 3047SOL     OW20602   3.265   2.489   7.792  0.6457 -0.1672 -0.3581
 3047SOL    HW120603   3.180   2.461   7.759 -0.4144  0.8392  1.5593
 3047SOL    HW220604   3.291   2.539   7.715  0.4486 -2.1906 -1.7374
 3048SOL     OW20605   0.302   2.957   5.775  0.6356 -0.0550 -0.3003
 3048SOL    HW120606   0.332   2.997   5.693  0.7269  1.2086  0.3620
 3048SOL    HW220607   0.241   2.891   5.741 -1.4032  2.3993 -1.4367
 3049SOL     OW20608   0.928   3.588   2.881  0.2784 -0.6894  0.0407
 3049SOL    HW120609   0.963   3.647   2.815 -0.0196 -0.3735  0.1654
 3049SOL    HW220610   0.908   3.656   2.945 -0.6983  0.3568 -1.3725
 3050SOL     OW20611   0.976   1.581   8.510 -0.1533 -0.0988 -0.4882
 3050SOL    HW120612   1.007   1.565   8.421 -0.8534  0.5447 -0.8501
 3050SOL    HW220613   0.912   1.510   8.516  0.8975 -0.9649  0.4761
 3051SOL     OW20614   0.891   2.225   4.116  0.0219 -0.1805 -0.2469
 3051SOL    HW120615   0.940   2.146   4.093  0.2212  0.3433 -1.6196
 3051SOL    HW220616   0.954   2.296   4.117 -0.8117  0.5332  1.5859
 3052SOL     OW20617   2.044   3.386   6.644 -0.5153 -0.5154 -0.2568
 3052SOL    HW120618   2.111   3.328   6.679 -1.1415 -0.6270  0.7623
 3052SOL    HW220619   1.974   3.371   6.708 -0.2240 -0.7485  0.0099
 3053SOL     OW20620   3.057   0.828  11.020 -0.7078  0.2842  0.0514
 3053SOL    HW120621   3.066   0.885  11.096  0.4482 -0.4131  0.4493
 3053SOL    HW220622   3.066   0.888  10.946 -0.2719 -1.1136 -1.0289
 3054SOL     OW20623   3.474   2.242   8.678 -0.1497  0.4737  0.2352
 3054SOL    HW120624   3.400   2.202   8.724  0.5543  0.4357  1.3456
 3054SOL    HW220625   3.503   2.165   8.629  0.2057 -0.7673  2.4066
 3055SOL     OW20626   1.573   0.032   7.436  0.1889  0.3357 -0.0753
 3055SOL    HW120627   1.585   0.078   7.519 -0.4093  2.1042 -0.9641
 3055SOL    HW220628   1.477   0.031   7.431  0.1931  1.6851 -0.4543
 3056SOL     OW20629   2.199   1.539   3.415  0.0506 -0.3164 -0.1268
 3056SOL    HW120630   2.246   1.456   3.405 -1.3829 -1.1014 -0.3397
 3056SOL    HW220631   2.168   1.557   3.326 -0.9615  0.2891  0.3511
 3057SOL     OW20632   0.248   1.052  10.153  0.1883  0.5748  0.2298
 3057SOL    HW120633   0.248   0.960  10.182 -1.1602  0.7959  0.9368
 3057SOL    HW220634   0.303   1.040  10.075 -2.2666 -0.7549 -1.2904
 3058SOL     OW20635   1.373   2.499   9.287  0.3059 -0.5535  0.7389
 3058SOL    HW120636   1.412   2.411   9.290 -0.5436 -0.9838 -0.8247
 3058SOL    HW220637   1.379   2.523   9.379  2.7198 -1.5132  0.8322
 3059SOL     OW20638   2.068   1.787   4.587  0.6080 -0.2476 -0.0709
 3059SOL    HW120639   2.091   1.877   4.608  0.1119  0.5112 -2.7667
 3059SOL    HW220640   1.982   1.778   4.628 -0.6301  2.0949 -2.1545
 3060SOL     OW20641   2.427   1.010   2.767  0.1800  0.1478 -0.2510
 3060SOL    HW120642   2.405   1.073   2.836 -1.7927  0.5430 -1.2414
 3060SOL    HW220643   2.501   0.972   2.815  0.8266  0.6748 -0.8196
 3061SOL     OW20644   3.662   1.991   4.725 -0.1291  1.1688  0.2798
 3061SOL    HW120645   3.583   2.044   4.711 -0.0622  0.7897 -1.5635
 3061SOL    HW220646   3.724   2.059   4.751  0.9282 -0.2353  1.4761
 3062SOL     OW20647   0.458   0.351   7.677  0.2854  0.5121  0.2585
 3062SOL    HW120648   0.420   0.312   7.598 -1.4669  1.8324  0.4500
 3062SOL    HW220649   0.417   0.437   7.674  1.0191  0.8136 -1.1998
 3063SOL     OW20650   3.981   1.586  14.182 -0.3027  0.1054  0.1728
 3063SOL    HW120651   3.969   1.669  14.137  2.8585  1.7998  2.4134
 3063SOL    HW220652   4.071   1.570  14.153 -0.5156  1.6152 -1.3013
 3064SOL     OW20653   0.151   1.958   5.909 -0.1926  0.4788  0.4129
 3064SOL    HW120654   0.133   1.955   5.815  1.4873  0.6692  0.0793
 3064SOL    HW220655   0.064   1.969   5.948  0.7503  0.1870  2.5917
 3065SOL     OW20656   3.188   3.679   3.041 -0.3411  0.1690  0.0515
 3065SOL    HW120657   3.138   3.759   3.025  0.4883  0.7950  0.6027
 3065SOL    HW220658   3.233   3.659   2.959 -0.7123 -0.6287  0.0417
 3066SOL     OW20659   3.095   1.159   7.875 -0.0232 -0.1466  0.2825
 3066SOL    HW120660   3.072   1.156   7.782 -2.2264 -0.9383  0.8650
 3066SOL    HW220661   3.144   1.242   7.883  1.2033 -0.8348 -0.0116
 3067SOL     OW20662   1.480   2.148  11.509 -0.2866 -0.5508  0.6741
 3067SOL    HW120663   1.437   2.228  11.539 -1.8715 -1.1801  0.0929
 3067SOL    HW220664   1.476   2.087  11.583  2.0398 -0.1126  1.1771
 3068SOL     OW20665   3.557   0.894  14.023  0.1500  0.3778  0.9028
 3068SOL    HW120666   3.541   0.988  14.015  0.5578  0.2743 -1.0743
 3068SOL    HW220667   3.646   0.894  14.058  0.2985 -1.0416  0.5098
 3069SOL     OW20668   4.679   0.042   5.328 -0.0890  0.2506  0.2720
 3069SOL    HW120669   0.019   0.092   5.375 -0.9190 -1.5858  3.3475
 3069SOL    HW220670   4.703   0.046   5.235  2.1816  1.2641  0.8998
 3070SOL     OW20671   2.799   1.047   4.039  0.2755 -0.1269  0.2634
 3070SOL    HW120672   2.834   1.100   3.967 -0.0143 -1.7621 -1.0974
 3070SOL    HW220673   2.865   0.978   4.032  0.8250  0.1424  3.1073
 3071SOL     OW20674   4.072   4.090   8.067  0.0944 -0.2341 -0.6851
 3071SOL    HW120675   4.062   4.182   8.043 -1.4976  0.4141  2.5334
 3071SOL    HW220676   4.014   4.088   8.142 -0.7745 -1.8650 -1.4044
 3072SOL     OW20677   1.398   0.442   6.439  0.1476 -0.1154 -0.4664
 3072SOL    HW120678   1.418   0.435   6.532  0.7095  0.2116 -0.5648
 3072SOL    HW220679   1.487   0.455   6.408  0.4731  0.9428  0.9157
 3073SOL     OW20680   3.058   1.612   1.522  0.2724 -0.5327  0.4441
 3073SOL    HW120681   3.051   1.698   1.480  0.2174 -0.1344  1.2855
 3073SOL    HW220682   3.143   1.582   1.488 -0.3360 -1.5036 -0.2245
 3074SOL     OW20683   0.564   4.375   1.171 -0.5525  0.4211  0.1054
 3074SOL    HW120684   0.575   4.409   1.082 -1.3175 -4.5426 -1.8889
 3074SOL    HW220685   0.656   4.390   1.196 -0.0220  1.8098 -2.6454
 3075SOL     OW20686   2.657   4.524   5.237  0.2119 -0.0207 -0.2265
 3075SOL    HW120687   2.649   4.517   5.332  1.7235 -1.1787 -0.1817
 3075SOL    HW220688   2.639   4.433   5.213 -0.2203  0.6438 -2.4087
 3076SOL     OW20689   2.248   1.734  15.704  0.7020  0.6155 -0.4012
 3076SOL    HW120690   2.193   1.749  15.782  0.0768  1.9980 -1.1026
 3076SOL    HW220691   2.275   1.645  15.726  0.3782  0.5558 -0.2450
 3077SOL     OW20692   3.455   4.720   7.565 -0.2150  0.0219  0.5436
 3077SOL    HW120693   3.438   4.626   7.566  2.3988 -0.4146  3.4342
 3077SOL    HW220694   3.530   0.004   7.506 -0.8992  0.3940 -0.2759
 3078SOL     OW20695   1.299   2.800   8.391  0.1279 -0.1585  0.5906
 3078SOL    HW120696   1.373   2.858   8.407 -1.5858  2.5795 -1.4010
 3078SOL    HW220697   1.258   2.828   8.309 -0.4801 -2.2137  0.1782
 3079SOL     OW20698   2.081   3.935   3.686  0.8812  0.6527  0.1938
 3079SOL    HW120699   2.036   3.941   3.602  0.0172 -2.5283  0.4636
 3079SOL    HW220700   2.095   3.840   3.685 -0.7091  0.4365 -0.3651
 3080SOL     OW20701   3.978   3.178   5.207  0.0138 -0.2368 -0.3142
 3080SOL    HW120702   4.006   3.211   5.122 -0.6310  1.3643  0.0875
 3080SOL    HW220703   4.010   3.089   5.222 -1.4971 -0.7417 -0.0874
 3081SOL     OW20704   2.533   2.989   7.329 -0.1050  0.6416 -0.7952
 3081SOL    HW120705   2.447   3.010   7.364 -1.3509 -0.7146 -3.0563
 3081SOL    HW220706   2.589   3.014   7.403 -1.3761  0.6268  0.1603
 3082SOL     OW20707   4.241   0.310   9.000  0.0822 -0.5306  0.0036
 3082SOL    HW120708   4.271   0.401   9.005  0.3503 -0.6967  1.3607
 3082SOL    HW220709   4.181   0.306   9.074 -1.4520  1.1002 -1.1643
 3083SOL     OW20710   0.476   2.080   6.794 -0.1645 -0.1076 -0.6901
 3083SOL    HW120711   0.527   1.999   6.792  1.4764  0.9560 -2.4082
 3083SOL    HW220712   0.541   2.144   6.765 -0.5313 -0.8763 -3.2503
 3084SOL     OW20713   3.758   1.576  10.123  0.1306 -0.1842 -0.4565
 3084SOL    HW120714   3.794   1.623  10.198  0.2801  1.7333 -1.7417
 3084SOL    HW220715   3.790   1.631  10.052 -1.4994  0.2243 -0.8834
 3085SOL     OW20716   4.264   2.760   3.820 -0.2963  0.1152  0.3614
 3085SOL    HW120717   4.222   2.791   3.900  0.3825  2.2064 -0.0821
 3085SOL    HW220718   4.221   2.675   3.810 -0.1870 -0.0543  1.3909
 3086SOL     OW20719   1.886   3.391   1.324  0.1700  0.0705  0.0532
 3086SOL    HW120720   1.970   3.379   1.279  0.1434  1.9478 -0.5063
 3086SOL    HW220721   1.836   3.336   1.265 -1.4912  0.7922  0.7984
 3087SOL     OW20722   3.217   3.329   6.181  0.3261 -0.2439 -0.5701
 3087SOL    HW120723   3.189   3.320   6.090  0.9236  1.3504 -0.9232
 3087SOL    HW220724   3.196   3.423   6.185 -1.4691 -0.5949 -2.1268
 3088SOL     OW20725   4.375   1.365  11.455  0.4165 -0.0797  0.1572
 3088SOL    HW120726   4.317   1.399  11.387  1.3302 -2.3803 -1.8149
 3088SOL    HW220727   4.344   1.274  11.453 -0.1092  0.0938  0.6496
 3089SOL     OW20728   0.914   1.057   7.182 -0.3137 -0.6913  0.4579
 3089SOL    HW120729   0.954   1.034   7.266  0.3036  1.3618  0.7291
 3089SOL    HW220730   0.873   1.138   7.210 -1.2369 -0.3929 -1.8083
 3090SOL     OW20731   4.151   1.324   8.956  0.4135 -0.2158  0.3783
 3090SOL    HW120732   4.227   1.380   8.971 -0.6528  2.6266 -5.1646
 3090SOL    HW220733   4.159   1.255   9.022 -0.0829 -1.8012 -1.2097
 3091SOL     OW20734   2.328   0.907   9.331 -0.1382  0.1687  0.3559
 3091SOL    HW120735   2.308   0.864   9.248 -0.4950  2.3973 -0.7098
 3091SOL    HW220736   2.319   1.000   9.312 -2.2482  0.0536  0.7667
 3092SOL     OW20737   1.457   3.649   6.336  0.3729 -0.1420  0.1485
 3092SOL    HW120738   1.464   3.607   6.251 -1.6178  1.4885 -0.8152
 3092SOL    HW220739   1.539   3.614   6.371  0.2584  0.6760  1.2614
 3093SOL     OW20740   0.867   4.682  14.037  0.1232 -0.3305  0.1928
 3093SOL    HW120741   0.786   4.670  13.989 -0.7322  0.1857  1.5038
 3093SOL    HW220742   0.921   4.682  13.958 -3.0290  1.2160 -1.9761
 3094SOL     OW20743   0.149   0.073   8.834  0.0580  0.3302 -0.1391
 3094SOL    HW120744   0.233   0.052   8.876  0.4367  0.7991 -0.6695
 3094SOL    HW220745   0.177   0.124   8.758 -0.2901  1.1729  0.3086
 3095SOL     OW20746   4.038   2.279   6.203 -0.6668  0.2213 -0.3676
 3095SOL    HW120747   4.064   2.197   6.161  1.9271  0.4437  0.7974
 3095SOL    HW220748   4.079   2.276   6.289 -0.0998 -0.0846 -0.6493
 3096SOL     OW20749   1.028   3.699   2.648  0.0821  0.3730  0.0926
 3096SOL    HW120750   1.068   3.784   2.668 -1.5589  1.2530 -0.3273
 3096SOL    HW220751   1.025   3.692   2.552 -1.8170  3.3038 -0.0574
 3097SOL     OW20752   0.666   0.787   8.913 -0.1395 -0.9239  0.5495
 3097SOL    HW120753   0.700   0.737   8.839  1.2461 -1.1462  1.3160
 3097SOL    HW220754   0.660   0.866   8.861 -0.1496 -0.1403  1.7409
 3098SOL     OW20755   2.512   1.574   8.411  0.2716  0.1079 -0.4537
 3098SOL    HW120756   2.502   1.499   8.470  0.4156 -0.3933 -1.0608
 3098SOL    HW220757   2.526   1.541   8.322  0.8180 -2.0583  0.4332
 3099SOL     OW20758   0.258   2.496   5.670  0.3011 -0.2551  0.3723
 3099SOL    HW120759   0.322   2.459   5.609  0.5123  0.4427  0.1737
 3099SOL    HW220760   0.213   2.415   5.694 -1.3230  0.7644  0.7176
 3100SOL     OW20761   4.466   1.036   5.047 -0.5102 -0.1396  0.7173
 3100SOL    HW120762   4.496   0.947   5.060  1.4367  0.5573  0.9729
 3100SOL    HW220763   4.511   1.053   4.964  1.5378  0.0765  1.8759
 3101SOL     OW20764   3.356   1.541   1.643  0.6141  0.4648  0.1111
 3101SOL    HW120765   3.328   1.470   1.700  1.5015 -0.2296 -0.2991
 3101SOL    HW220766   3.364   1.620   1.696  2.3129  0.9980 -0.9274
 3102SOL     OW20767   0.419   4.271   7.782 -0.1326 -0.3885 -0.6148
 3102SOL    HW120768   0.478   4.346   7.773  0.5312 -1.0440 -1.8277
 3102SOL    HW220769   0.364   4.285   7.705  0.1208 -0.9253 -0.8970
 3103SOL     OW20770   0.356   3.593  15.869  0.1749  0.0519  0.3510
 3103SOL    HW120771   0.308   3.676  15.867  2.5662  1.3877 -2.3257
 3103SOL    HW220772   0.427   3.620  15.810  0.2212  1.4218  1.0356
 3104SOL     OW20773   2.635   3.665   6.495  0.4266  0.3918 -0.6089
 3104SOL    HW120774   2.665   3.583   6.456  1.2293  1.4971 -2.2895
 3104SOL    HW220775   2.695   3.729   6.457 -1.9443  1.3172 -2.7867
 3105SOL     OW20776   4.582   3.111   2.991 -0.2860  0.2964 -0.3879
 3105SOL    HW120777   4.597   3.193   3.037  0.1466 -1.5208  2.7094
 3105SOL    HW220778   4.577   3.042   3.057  0.5695  1.2934  0.7142
 3106SOL     OW20779   4.197   0.191   4.191  0.0812  0.1331  0.3501
 3106SOL    HW120780   4.226   0.248   4.262 -1.6367 -1.4294  2.3141
 3106SOL    HW220781   4.274   0.193   4.135  0.1341 -0.7995  0.3939
 3107SOL     OW20782   0.815   0.883   7.451  0.4511  0.0560  0.4515
 3107SOL    HW120783   0.843   0.950   7.514 -0.5476 -0.9745  1.9972
 3107SOL    HW220784   0.894   0.831   7.439 -0.0960 -0.3981 -1.1794
 3108SOL     OW20785   3.835   2.796   2.630 -0.0824  0.2931  0.7777
 3108SOL    HW120786   3.862   2.838   2.712  2.5199  0.6675 -0.2635
 3108SOL    HW220787   3.789   2.868   2.587 -0.2990 -0.4625 -0.2619
 3109SOL     OW20788   2.833   4.517   2.525 -0.5349  0.3639 -0.4806
 3109SOL    HW120789   2.826   4.447   2.459 -1.3077 -0.7271  0.7446
 3109SOL    HW220790   2.786   4.587   2.480  0.4016  1.7956  0.8065
 3110SOL     OW20791   2.431   3.556  16.007 -0.0914  0.4340  0.6469
 3110SOL    HW120792   2.445   3.465  15.979  0.1220 -0.0749  2.4100
 3110SOL    HW220793   2.510   3.578  16.057 -0.9111  0.5922  1.8779
 3111SOL     OW20794   2.829   1.458   0.360 -0.2251 -0.3406 -0.6816
 3111SOL    HW120795   2.906   1.456   0.417 -0.1891  1.0064 -0.7023
 3111SOL    HW220796   2.829   1.369   0.325  0.5628 -0.8009  0.4976
 3112SOL     OW20797   2.521   0.466  16.375 -0.0632  0.1042  0.0957
 3112SOL    HW120798   2.537   0.560  16.366  1.9345 -0.2550 -0.2538
 3112SOL    HW220799   2.509   0.434  16.286 -0.1339  0.4751 -0.0254
 3113SOL     OW20800   3.098   2.665  14.238 -0.0655 -0.2192  0.8558
 3113SOL    HW120801   3.109   2.579  14.279 -0.9654 -0.8344 -0.2022
 3113SOL    HW220802   3.164   2.715  14.287  0.9690  0.9514 -1.7105
 3114SOL     OW20803   0.028   3.520   7.900 -0.1944 -0.0133  0.1291
 3114SOL    HW120804   0.033   3.607   7.939 -0.9115  0.3966 -0.7058
 3114SOL    HW220805   4.665   3.497   7.928 -0.5831  0.5882 -0.5853
 3115SOL     OW20806   3.953   0.088   5.594  0.1676 -0.4524 -0.2083
 3115SOL    HW120807   4.006   0.011   5.576  1.7450  0.6666 -0.3904
 3115SOL    HW220808   4.016   0.158   5.612  0.4380 -0.4668 -1.1146
 3116SOL     OW20809   0.956   3.423   0.804 -0.3696 -0.0190  0.6320
 3116SOL    HW120810   0.924   3.453   0.890  0.6022  0.1335  0.9449
 3116SOL    HW220811   0.877   3.438   0.753  0.1997  0.8478  0.0189
 3117SOL     OW20812   2.966   2.715  17.275  0.5730 -0.2311 -0.1116
 3117SOL    HW120813   2.925   2.677  17.353  2.2304  2.6184  2.1237
 3117SOL    HW220814   3.049   2.747  17.309 -0.9801  2.0532  1.4938
 3118SOL     OW20815   1.333   3.000   7.200  0.3216 -0.1265  0.0923
 3118SOL    HW120816   1.254   3.047   7.174 -0.9803 -1.3308  1.8112
 3118SOL    HW220817   1.306   2.975   7.289  0.7832  2.1424  0.8848
 3119SOL     OW20818   0.111   2.474   2.679 -0.5964 -0.4500 -0.5351
 3119SOL    HW120819   0.188   2.527   2.658 -0.9427 -0.3332 -1.5069
 3119SOL    HW220820   0.069   2.465   2.594 -1.2777  1.1857 -0.3800
 3120SOL     OW20821   4.594   4.455   8.519 -0.3694 -0.2952  0.0410
 3120SOL    HW120822   4.645   4.494   8.590  2.8133  1.9466 -3.4234
 3120SOL    HW220823   4.529   4.519   8.490 -0.2346 -0.8494 -1.5190
 3121SOL     OW20824   1.329   4.410   2.163  0.0043 -0.7282 -0.3087
 3121SOL    HW120825   1.240   4.376   2.172 -0.6097  0.7908 -0.6583
 3121SOL    HW220826   1.331   4.433   2.070  4.1416  1.5526  0.3614
 3122SOL     OW20827   3.359   0.712   4.889  0.0045 -0.0556  0.1126
 3122SOL    HW120828   3.265   0.700   4.897 -0.0834  0.9751  0.6889
 3122SOL    HW220829   3.374   0.806   4.878 -1.2794  0.2728  1.1065
 3123SOL     OW20830   1.068   2.441   3.162  1.3921  0.1369 -0.2039
 3123SOL    HW120831   1.075   2.422   3.068  0.7447  2.4537 -0.7065
 3123SOL    HW220832   0.976   2.417   3.174  0.9200  2.7532  1.3339
 3124SOL     OW20833   3.529   0.467   9.947 -0.2164  0.2345 -0.7178
 3124SOL    HW120834   3.466   0.443  10.016 -0.2304  0.5305 -0.6305
 3124SOL    HW220835   3.520   0.560   9.928 -0.6133  0.2516 -0.4395
 3125SOL     OW20836   3.920   0.729   3.757  0.1181  0.1708  0.0740
 3125SOL    HW120837   4.010   0.701   3.738  0.4903  0.7502  0.9918
 3125SOL    HW220838   3.936   0.786   3.832  0.1568  0.5492 -0.2235
 3126SOL     OW20839   3.266   1.733   3.519 -0.3439 -0.5924  0.3822
 3126SOL    HW120840   3.236   1.649   3.486  1.3967 -0.8949 -0.3863
 3126SOL    HW220841   3.233   1.734   3.609 -0.4662  0.6325  0.3280
 3127SOL     OW20842   0.281   3.933  11.197  0.0347  0.0271  0.1804
 3127SOL    HW120843   0.238   3.856  11.159  3.7941 -1.7790 -0.4053
 3127SOL    HW220844   0.259   3.910  11.288  2.2811 -0.4492  0.6086
 3128SOL     OW20845   2.476   3.286   2.506  0.1380  0.0410  0.2121
 3128SOL    HW120846   2.483   3.263   2.598  0.3446 -2.0904 -0.3479
 3128SOL    HW220847   2.436   3.209   2.467 -0.6172  0.6253 -0.1693
 3129SOL     OW20848   3.136   1.824  13.248 -0.1565 -0.4654  0.1004
 3129SOL    HW120849   3.157   1.835  13.155  1.4455 -2.5978  0.2212
 3129SOL    HW220850   3.215   1.855  13.291 -0.9320  3.8054 -1.5693
 3130SOL     OW20851   3.858   4.101   2.171  0.3575 -0.3133  0.3983
 3130SOL    HW120852   3.879   4.133   2.259 -2.7957  0.7828  0.7578
 3130SOL    HW220853   3.779   4.151   2.151  0.6225  0.2971  0.8485
 3131SOL     OW20854   0.523   1.733   8.690  0.1838 -0.3914  0.0500
 3131SOL    HW120855   0.475   1.705   8.769 -2.2243 -0.9688 -1.6080
 3131SOL    HW220856   0.466   1.804   8.660  0.1777 -0.4202 -0.0058
 3132SOL     OW20857   1.537   0.584   7.095  0.0137  0.2085 -0.4417
 3132SOL    HW120858   1.608   0.636   7.133  0.7754  0.2959 -1.9855
 3132SOL    HW220859   1.484   0.574   7.174 -0.6293  0.0665 -0.8924
 3133SOL     OW20860   4.519   4.180   3.383 -0.3851  0.5557  0.1238
 3133SOL    HW120861   4.446   4.127   3.416  0.6128 -1.7731 -1.4455
 3133SOL    HW220862   4.533   4.133   3.301  2.4324  1.9639 -0.1974
 3134SOL     OW20863   3.061   0.968   1.531  0.5610 -0.4547 -0.1904
 3134SOL    HW120864   3.108   0.927   1.603  0.6807 -1.5411 -0.8844
 3134SOL    HW220865   2.979   0.918   1.530 -0.5898  1.4278  2.2430
 3135SOL     OW20866   4.002   1.153   2.094 -0.0446  0.0024  0.2853
 3135SOL    HW120867   4.057   1.197   2.158  0.4208 -0.0903 -0.0462
 3135SOL    HW220868   4.067   1.112   2.038 -2.0498 -2.7230 -0.0536
 3136SOL     OW20869   2.423   0.216  15.902 -0.7254  0.4981 -0.4059
 3136SOL    HW120870   2.484   0.210  15.829  0.3828  1.5163  0.4497
 3136SOL    HW220871   2.373   0.293  15.876 -0.6646  0.8338  0.5020
 3137SOL     OW20872   0.519   3.882  16.404 -0.1200 -0.7456  0.2769
 3137SOL    HW120873   0.479   3.889  16.317  1.2374  0.9986 -0.2115
 3137SOL    HW220874   0.506   3.788  16.416  1.2428 -1.0431 -0.4952
 3138SOL     OW20875   3.134   1.956   2.633  0.2510 -0.3866  0.5968
 3138SOL    HW120876   3.067   1.900   2.673  0.5874  1.4533  3.7467
 3138SOL    HW220877   3.080   1.999   2.567  1.5226  0.2412 -0.0146
 3139SOL     OW20878   1.678   2.569   9.281  0.5965 -0.0958 -0.1588
 3139SOL    HW120879   1.612   2.579   9.213  0.2273  0.1607  0.2420
 3139SOL    HW220880   1.759   2.571   9.229  0.5583 -1.5626 -0.2786
 3140SOL     OW20881   4.022   2.393   5.003 -0.2030  0.3558  0.3524
 3140SOL    HW120882   4.108   2.435   4.998  1.2943 -2.7981 -0.4707
 3140SOL    HW220883   4.056   2.341   5.077  0.5985  2.9509  1.8237
 3141SOL     OW20884   1.460   4.063  12.316  0.0195  0.2068 -0.1810
 3141SOL    HW120885   1.490   3.972  12.308  0.9182  0.6042 -1.3265
 3141SOL    HW220886   1.466   4.079  12.410  1.2348  0.9250 -0.3803
 3142SOL     OW20887   4.033   1.529   7.854  0.0316  0.2482  0.0612
 3142SOL    HW120888   4.100   1.462   7.862  0.5945  0.9780  1.6207
 3142SOL    HW220889   3.961   1.467   7.843 -0.1937  0.6258 -0.5461
 3143SOL     OW20890   3.595   0.370  15.866 -0.2995  0.0419  0.1285
 3143SOL    HW120891   3.556   0.312  15.932 -1.6655  0.5606 -0.2320
 3143SOL    HW220892   3.543   0.449  15.876 -0.3012 -0.1288  1.4348
 3144SOL     OW20893   1.433   4.441  14.834  0.0553  0.3126  0.1347
 3144SOL    HW120894   1.339   4.451  14.842 -0.1168  0.8391 -2.5109
 3144SOL    HW220895   1.431   4.462  14.741 -3.6274 -2.7915 -0.4661
 3145SOL     OW20896   1.549   0.388   0.033  0.1555 -0.5242  0.1153
 3145SOL    HW120897   1.479   0.421  17.679 -0.1183  3.7036  2.9099
 3145SOL    HW220898   1.506   0.390   0.118  0.8127 -0.4216  0.4422
 3146SOL     OW20899   2.684   1.932  17.398  0.2607 -0.5168  0.0358
 3146SOL    HW120900   2.663   1.893  17.483 -0.3819  0.7972  0.4786
 3146SOL    HW220901   2.715   2.018  17.423  0.1236 -0.3081 -0.5162
 3147SOL     OW20902   3.903   0.528   4.899  0.2539 -0.0232 -0.4436
 3147SOL    HW120903   3.828   0.501   4.845  0.5679 -0.2582 -0.7580
 3147SOL    HW220904   3.873   0.603   4.949  0.4169 -0.3400  0.1259
 3148SOL     OW20905   1.690   2.783   2.946 -0.6157 -0.4027 -0.2303
 3148SOL    HW120906   1.779   2.753   2.962 -0.1770  0.6646 -0.6243
 3148SOL    HW220907   1.669   2.720   2.877 -0.3111 -0.1359 -0.5742
 3149SOL     OW20908   0.761   3.449  15.845 -0.3211  0.3566 -0.4042
 3149SOL    HW120909   0.755   3.499  15.926  1.8085 -0.4561  0.2538
 3149SOL    HW220910   0.698   3.497  15.791 -2.0159 -1.8523 -0.3894
 3150SOL     OW20911   4.506   3.534  11.189 -0.2179  0.0079  0.2968
 3150SOL    HW120912   4.426   3.536  11.136  0.2393  1.7824 -0.3395
 3150SOL    HW220913   4.497   3.597  11.260  0.2013  1.1931 -0.6983
 3151SOL     OW20914   2.351   2.256   7.689 -0.3146 -0.0120  0.4078
 3151SOL    HW120915   2.413   2.277   7.619  0.8793 -1.4100  1.0644
 3151SOL    HW220916   2.392   2.180   7.730  0.2051 -0.4462 -0.9186
 3152SOL     OW20917   4.611   1.885   9.426  0.4440  0.5511  0.0763
 3152SOL    HW120918   4.533   1.939   9.411 -0.1244 -0.7297 -1.5671
 3152SOL    HW220919   4.562   1.803   9.435 -1.1229  1.4053 -0.6165
 3153SOL     OW20920   1.277   2.546   7.881 -0.1055 -0.4159  0.7701
 3153SOL    HW120921   1.200   2.598   7.906 -0.5444 -0.0627 -1.3026
 3153SOL    HW220922   1.337   2.567   7.952  0.9139  1.1538 -0.5353
 3154SOL     OW20923   3.124   4.714  14.684  0.4901  0.6477 -0.8441
 3154SOL    HW120924   3.061   4.672  14.743 -0.3027  2.3161 -0.4708
 3154SOL    HW220925   3.116   0.082  14.707 -1.0444  0.5221 -0.8727
 3155SOL     OW20926   4.666   2.475   2.360  0.4075 -0.4518 -0.4018
 3155SOL    HW120927   4.621   2.418   2.422  1.7792  0.7566  1.7219
 3155SOL    HW220928   4.671   2.407   2.293  3.1700 -1.5713  0.9328
 3156SOL     OW20929   1.360   2.540   2.892  0.1434  0.0674  0.4395
 3156SOL    HW120930   1.429   2.591   2.848  0.7149  0.9987  2.4088
 3156SOL    HW220931   1.291   2.527   2.827 -0.9046 -0.5213  1.6703
 3157SOL     OW20932   4.442   1.191   7.975  0.3258 -0.3165  0.0653
 3157SOL    HW120933   4.446   1.223   8.066  2.8493  0.8645 -0.4475
 3157SOL    HW220934   4.470   1.102   7.992 -1.5764 -0.6787  1.2988
 3158SOL     OW20935   2.154   0.329  15.760  0.1979 -0.0027 -0.2630
 3158SOL    HW120936   2.231   0.386  15.760  0.9331 -0.9968 -0.2404
 3158SOL    HW220937   2.120   0.340  15.671  0.7784 -2.3319 -0.7963
 3159SOL     OW20938   0.599   2.347   3.543  0.4605 -0.3394  0.2601
 3159SOL    HW120939   0.632   2.265   3.579  2.3718  0.8568  1.2229
 3159SOL    HW220940   0.600   2.321   3.451 -1.3419 -0.2763  0.2331
 3160SOL     OW20941   3.596   0.541   0.951 -0.9009  0.0138 -0.3408
 3160SOL    HW120942   3.687   0.542   0.921 -1.9636  1.4390 -3.5146
 3160SOL    HW220943   3.598   0.449   0.978 -0.2339  0.4042  0.9345
 3161SOL     OW20944   0.883   1.565   0.604  0.5674 -0.2619  0.2249
 3161SOL    HW120945   0.854   1.649   0.638  2.8447 -0.0340  1.6587
 3161SOL    HW220946   0.979   1.570   0.605  0.6569 -1.7126 -0.4217
 3162SOL     OW20947   3.201   0.378   6.357 -0.1846  0.9404  0.3661
 3162SOL    HW120948   3.205   0.443   6.427  2.6726  0.8920  0.2348
 3162SOL    HW220949   3.195   0.297   6.407  0.3980 -0.1420 -1.3374
 3163SOL     OW20950   3.294   0.432   3.243  0.0086  0.1509 -0.4018
 3163SOL    HW120951   3.271   0.340   3.258  1.9489 -0.0276  1.4287
 3163SOL    HW220952   3.215   0.456   3.195  0.4223  0.7028 -0.8013
 3164SOL     OW20953   3.704   2.341  14.625  0.5348  0.5616 -0.1253
 3164SOL    HW120954   3.789   2.366  14.661 -0.0761  1.7451  0.5027
 3164SOL    HW220955   3.651   2.375  14.697  2.2820  0.8284  1.0308
 3165SOL     OW20956   3.845   2.678  11.036 -0.1950  0.3262 -0.4878
 3165SOL    HW120957   3.844   2.773  11.049  0.4265  0.4680 -1.4929
 3165SOL    HW220958   3.750   2.661  11.035  0.1361 -1.6091 -0.0777
 3166SOL     OW20959   3.748   2.748  16.793 -0.0495 -0.1062  0.3941
 3166SOL    HW120960   3.773   2.798  16.871 -1.4057 -0.1804  0.8811
 3166SOL    HW220961   3.684   2.693  16.837 -0.9355 -1.3241 -2.4172
 3167SOL     OW20962   3.192   3.347   7.085 -0.0986  0.4800  0.5202
 3167SOL    HW120963   3.250   3.417   7.115  0.2638 -0.4032  1.8731
 3167SOL    HW220964   3.210   3.282   7.153  0.2929 -1.0403 -1.0300
 3168SOL     OW20965   1.395   0.336   8.715 -0.4489  0.5836  0.2985
 3168SOL    HW120966   1.403   0.423   8.754 -0.3057  1.4723 -1.6808
 3168SOL    HW220967   1.485   0.304   8.722 -1.6368 -2.7944 -0.2212
 3169SOL     OW20968   2.771   1.001  16.066  0.3571  0.1373  0.0764
 3169SOL    HW120969   2.784   0.958  16.151  0.1803 -1.2418 -0.6156
 3169SOL    HW220970   2.740   0.938  16.002 -1.6771  1.0189  0.1602
 3170SOL     OW20971   1.802   1.599  11.852  0.6666 -0.1776  0.9610
 3170SOL    HW120972   1.743   1.523  11.851 -0.4349  0.6869  0.5881
 3170SOL    HW220973   1.751   1.677  11.872  0.7676  0.3320 -0.8102
 3171SOL     OW20974   4.213   1.843   5.610 -0.3521  0.0863 -0.3058
 3171SOL    HW120975   4.243   1.785   5.540  0.5932  1.2450 -0.8680
 3171SOL    HW220976   4.214   1.781   5.683 -0.5572  1.0802  0.5438
 3172SOL     OW20977   3.984   2.369   5.927  0.3024 -0.3128  0.7282
 3172SOL    HW120978   4.010   2.336   6.013  0.0211 -0.8212  0.6178
 3172SOL    HW220979   4.057   2.352   5.868 -0.4340  2.0206 -0.8495
 3173SOL     OW20980   0.086   1.629   2.713  0.7890  0.0407 -0.0155
 3173SOL    HW120981   0.078   1.641   2.808  2.7378  1.2931 -0.0292
 3173SOL    HW220982   4.725   1.666   2.695 -0.6568 -2.2110  2.2801
 3174SOL     OW20983   4.103   3.482   2.643  0.1870 -0.5323  0.4610
 3174SOL    HW120984   4.077   3.564   2.686  0.9733 -0.8794  1.6162
 3174SOL    HW220985   4.187   3.471   2.687 -0.2013  2.0024  1.8479
 3175SOL     OW20986   3.230   3.039   2.397  0.2761 -0.5222  0.3212
 3175SOL    HW120987   3.174   3.021   2.473 -1.3759  2.3830 -0.2002
 3175SOL    HW220988   3.317   3.029   2.438  1.3651  1.3658 -1.5631
 3176SOL     OW20989   1.914   0.416   7.800  0.0350  0.3006  0.3179
 3176SOL    HW120990   1.955   0.352   7.742  1.2387  1.3956 -0.0265
 3176SOL    HW220991   1.836   0.366   7.822 -0.8846  1.6892  0.1863
 3177SOL     OW20992   1.866   0.239   1.550 -0.3512  0.2933  0.2048
 3177SOL    HW120993   1.854   0.262   1.458  3.7282  0.3022 -0.3285
 3177SOL    HW220994   1.876   0.145   1.536 -1.1625 -0.0064  1.7279
 3178SOL     OW20995   3.341   2.297   4.907  0.3587 -0.2496  0.2469
 3178SOL    HW120996   3.290   2.279   4.986  1.2273  0.8573  1.0722
 3178SOL    HW220997   3.294   2.250   4.839 -1.5220  1.3399  0.4382
 3179SOL     OW20998   1.730   0.622   2.146  0.2854 -0.5319  0.2681
 3179SOL    HW120999   1.684   0.602   2.228  0.4588 -2.2797 -0.0532
 3179SOL    HW221000   1.731   0.717   2.149  0.5532 -0.5354  0.3339
 3180SOL     OW21001   1.825   2.114   6.579 -0.3676 -0.3196 -0.0881
 3180SOL    HW121002   1.850   2.038   6.631 -2.3395 -2.0425 -1.6261
 3180SOL    HW221003   1.885   2.107   6.505 -0.4096  0.6901 -0.2235
 3181SOL     OW21004   1.450   0.722  14.812  0.2057  0.1235 -0.1226
 3181SOL    HW121005   1.440   0.700  14.719 -1.7024 -0.2579  0.1831
 3181SOL    HW221006   1.506   0.653  14.849 -0.8595 -0.4557  0.4000
 3182SOL     OW21007   1.244   3.665   9.069 -0.1133  0.4157 -0.1153
 3182SOL    HW121008   1.179   3.617   9.119  1.5870 -0.8297  0.9122
 3182SOL    HW221009   1.228   3.758   9.080  0.5410  0.3369  1.5071
 3183SOL     OW21010   1.171   4.168   1.971 -0.3285 -0.5386  0.4141
 3183SOL    HW121011   1.211   4.096   1.922  1.5472  1.2412 -0.6993
 3183SOL    HW221012   1.236   4.239   1.969 -0.3831 -0.4642  1.4884
 3184SOL     OW21013   1.159   4.233   4.846 -0.2880 -0.0673  0.2850
 3184SOL    HW121014   1.093   4.198   4.786  1.0807 -0.9608 -0.7226
 3184SOL    HW221015   1.234   4.254   4.790 -1.7800  1.8878 -0.9756
 3185SOL     OW21016   1.455   1.786   6.903  0.1053 -0.1607 -0.2500
 3185SOL    HW121017   1.365   1.755   6.894  0.5593 -1.7437  0.5329
 3185SOL    HW221018   1.513   1.718   6.937 -0.0810 -0.0774  0.2357
 3186SOL     OW21019   3.082   1.150   9.732  0.2482  0.2310 -0.3497
 3186SOL    HW121020   3.054   1.200   9.808 -1.3141 -1.7505  0.3927
 3186SOL    HW221021   3.135   1.087   9.782  2.2321 -0.3235 -3.1383
 3187SOL     OW21022   0.875   2.076   3.505 -0.3816 -0.2327  0.5874
 3187SOL    HW121023   0.964   2.058   3.474 -0.7481  0.1246 -0.7006
 3187SOL    HW221024   0.885   2.171   3.515  1.0878  0.0432 -3.1033
 3188SOL     OW21025   3.115   1.055  16.238  0.0499 -0.1058 -0.1057
 3188SOL    HW121026   3.164   1.100  16.169  0.0258 -2.0762 -1.4382
 3188SOL    HW221027   3.115   1.117  16.311  1.2283 -0.4369  0.1791
 3189SOL     OW21028   4.716   2.582  15.158 -0.3598  0.1967 -0.1069
 3189SOL    HW121029   4.693   2.655  15.100  1.9205  0.4328 -0.7361
 3189SOL    HW221030   4.633   2.535  15.167 -0.2616 -0.2766 -1.6934
 3190SOL     OW21031   2.067   1.881   9.248 -0.0980  0.5484  0.6430
 3190SOL    HW121032   2.115   1.851   9.171 -1.9986 -2.1714  0.5290
 3190SOL    HW221033   1.982   1.902   9.209  0.1098 -0.5127 -0.3901
 3191SOL     OW21034   0.135   0.098   3.701 -0.3550 -0.0521 -0.4433
 3191SOL    HW121035   0.157   0.053   3.619 -0.3292 -1.6779  0.4451
 3191SOL    HW221036   0.222   0.111   3.740 -0.9990  2.1251  0.2521
 3192SOL     OW21037   0.566   1.720  10.324 -0.0212 -0.3937 -0.2658
 3192SOL    HW121038   0.523   1.642  10.289  0.9882 -2.3216  2.8557
 3192SOL    HW221039   0.560   1.786  10.254  1.9524  0.5329  0.4288
 3193SOL     OW21040   4.673   3.565   2.875  0.3838 -0.3101 -0.6966
 3193SOL    HW121041   4.703   3.637   2.820 -0.6179  0.2206 -0.5482
 3193SOL    HW221042   0.026   3.511   2.881  0.3240 -0.1519  1.4856
 3194SOL     OW21043   1.006   2.063   2.016 -0.1518 -0.5764 -0.0357
 3194SOL    HW121044   0.943   2.004   1.976 -0.9796  2.1307 -2.6564
 3194SOL    HW221045   1.082   2.052   1.958 -0.6151 -1.2750 -0.5068
 3195SOL     OW21046   4.081   0.753   7.479  0.5198 -0.0486  0.4717
 3195SOL    HW121047   3.989   0.772   7.501  0.2198 -1.1456  0.1818
 3195SOL    HW221048   4.061   0.678   7.422  0.8983 -0.9467  1.5200
 3196SOL     OW21049   2.914   3.712   2.824 -0.2807 -0.0515 -0.2688
 3196SOL    HW121050   2.902   3.763   2.743 -1.4229 -2.5773 -1.6782
 3196SOL    HW221051   2.944   3.784   2.879  0.0836  0.5489 -1.2418
 3197SOL     OW21052   2.865   1.019   5.014 -0.2404  0.0172  0.0725
 3197SOL    HW121053   2.953   1.042   5.043  0.0670  0.4150 -1.2174
 3197SOL    HW221054   2.833   1.109   5.007 -0.1782  0.1516  1.5294
 3198SOL     OW21055   3.792   4.462   6.900 -0.1879 -0.9478  0.0322
 3198SOL    HW121056   3.704   4.463   6.861  0.4753  1.9451 -1.4315
 3198SOL    HW221057   3.824   4.372   6.895  2.0883 -0.1633  0.6639
 3199SOL     OW21058   3.602   3.692   2.371  0.1235 -0.2480 -0.2453
 3199SOL    HW121059   3.577   3.770   2.321  1.8264  0.8653  0.6169
 3199SOL    HW221060   3.549   3.699   2.451  0.9094 -1.8825  0.4071
 3200SOL     OW21061   1.439   2.552   6.349  0.3760 -0.5104 -0.1727
 3200SOL    HW121062   1.430   2.457   6.342  1.9216 -0.6145 -0.7350
 3200SOL    HW221063   1.482   2.562   6.433  0.9587  1.4136 -0.6845
 3201SOL     OW21064   4.166   1.363  15.190  0.4459  0.1570 -0.0455
 3201SOL    HW121065   4.202   1.451  15.204 -2.3634  1.3121 -0.0259
 3201SOL    HW221066   4.202   1.347  15.103  1.0306 -1.1693  0.4413
 3202SOL     OW21067   1.809   1.961   9.707  0.5024  0.1679 -1.0243
 3202SOL    HW121068   1.766   1.884   9.744  0.1010  1.8285  2.0132
 3202SOL    HW221069   1.898   1.927   9.707  0.8520  1.0947 -0.1543
 3203SOL     OW21070   2.443   0.173  15.391 -0.3447 -0.0986  0.3321
 3203SOL    HW121071   2.472   0.236  15.457  1.3919 -2.4431  1.7959
 3203SOL    HW221072   2.432   0.092  15.440  0.6794 -0.6200 -0.3107
 3204SOL     OW21073   0.058   0.226   5.516 -0.1229 -0.6260  0.1269
 3204SOL    HW121074   0.057   0.207   5.609 -1.7348  0.7041  0.3768
 3204SOL    HW221075   4.714   0.291   5.504  0.7466  0.9469  3.6707
 3205SOL     OW21076   2.970   3.962   9.502  0.0625 -0.0186 -0.3368
 3205SOL    HW121077   2.955   3.869   9.517 -2.1518  0.2242 -0.9671
 3205SOL    HW221078   2.891   3.988   9.550  0.3527 -2.3880  1.3960
 3206SOL     OW21079   0.224   0.937  11.493  0.4259  0.0797  0.1598
 3206SOL    HW121080   0.271   1.011  11.455  1.5662 -0.4578  0.5308
 3206SOL    HW221081   0.185   0.980  11.569 -0.4943  0.0428 -0.3006
 3207SOL     OW21082   3.163   0.960   7.574 -0.1072  0.3304 -0.2404
 3207SOL    HW121083   3.200   0.932   7.490 -0.3395 -0.2867 -0.1418
 3207SOL    HW221084   3.159   1.054   7.560 -0.0412  0.1001 -1.8136
 3208SOL     OW21085   2.845   3.056   0.577 -0.0824 -0.0862 -0.0689
 3208SOL    HW121086   2.765   3.100   0.548  0.2616  1.1091  0.8033
 3208SOL    HW221087   2.864   3.100   0.660 -1.0794  0.0188  0.1133
 3209SOL     OW21088   2.989   2.215   0.634 -0.1582 -0.0013  0.0803
 3209SOL    HW121089   2.992   2.144   0.570  1.8845  1.2778 -1.2227
 3209SOL    HW221090   2.915   2.167   0.674 -0.6993 -0.0905 -1.0320
 3210SOL     OW21091   4.716   1.594  16.783  0.1406  0.0598 -0.7010
 3210SOL    HW121092   4.678   1.653  16.847  0.4772  0.1458 -0.5775
 3210SOL    HW221093   4.665   1.618  16.706 -1.7310  1.6656  1.0669
 3211SOL     OW21094   2.879   0.990   7.575  0.1223 -0.0677 -0.4229
 3211SOL    HW121095   2.912   1.016   7.489 -1.1109 -1.4654 -1.3339
 3211SOL    HW221096   2.964   0.979   7.618  0.0174 -1.5003 -0.5756
 3212SOL     OW21097   0.079   3.439  11.563 -0.4644 -0.2260  0.0033
 3212SOL    HW121098   0.138   3.438  11.638  0.4445  0.6047 -0.7125
 3212SOL    HW221099   0.013   3.375  11.592  0.1307 -1.5004 -1.4429
 3213SOL     OW21100   4.211   1.587   5.471  0.0632 -0.5903 -0.0058
 3213SOL    HW121101   4.123   1.573   5.437  0.5316 -1.9158 -0.6467
 3213SOL    HW221102   4.201   1.552   5.559  1.1151  0.5196  0.5601
 3214SOL     OW21103   2.213   4.418   5.191  0.5433  0.1206  0.2691
 3214SOL    HW121104   2.250   4.410   5.279 -1.4275 -1.4516  0.9557
 3214SOL    HW221105   2.290   4.432   5.136  1.3894 -3.3688  0.5628
 3215SOL     OW21106   3.396   2.086   9.260  0.0517 -0.4282 -0.6235
 3215SOL    HW121107   3.442   2.135   9.192  0.0328 -0.3150 -0.5549
 3215SOL    HW221108   3.321   2.065   9.205 -0.5062 -2.1942  0.8323
 3216SOL     OW21109   1.164   0.937   8.157 -0.6533  0.3729  0.5893
 3216SOL    HW121110   1.203   0.889   8.231  1.2254 -0.7769 -1.1454
 3216SOL    HW221111   1.139   1.019   8.201 -0.3395 -0.4568  2.3445
 3217SOL     OW21112   3.847   3.314   8.153  0.0947  0.4966 -0.1474
 3217SOL    HW121113   3.771   3.265   8.124 -1.2162  1.9072  0.9153
 3217SOL    HW221114   3.894   3.319   8.070 -0.5359  0.4015 -0.5084
 3218SOL     OW21115   0.067   0.730   4.939 -0.3184 -0.1422 -0.1172
 3218SOL    HW121116   0.098   0.738   5.029 -0.2211 -0.4853 -0.1221
 3218SOL    HW221117   4.701   0.760   4.941 -0.0683  0.6253  0.0265
 3219SOL     OW21118   0.451   3.786  14.966 -0.4651 -0.5353 -0.5799
 3219SOL    HW121119   0.518   3.730  14.926  0.2962  0.5996 -0.9103
 3219SOL    HW221120   0.484   3.795  15.056  1.3896 -0.8246 -1.2261
 3220SOL     OW21121   0.390   3.112   9.847 -0.2033 -0.6082 -0.6126
 3220SOL    HW121122   0.356   3.028   9.876 -2.3758  0.2388 -0.6466
 3220SOL    HW221123   0.334   3.135   9.772 -0.0786 -0.8317 -0.7733
 3221SOL     OW21124   4.060   1.320   8.642 -0.3335  0.1968 -0.4504
 3221SOL    HW121125   3.995   1.257   8.673 -1.5826  1.5938 -0.1812
 3221SOL    HW221126   4.126   1.288   8.703  0.1405  0.3385 -0.8891
 3222SOL     OW21127   0.545   4.526   7.724  0.1381 -0.1107 -0.2550
 3222SOL    HW121128   0.621   4.568   7.765  0.0717 -1.5911  1.4353
 3222SOL    HW221129   0.475   4.591   7.725 -1.0837 -1.4119 -0.6595
 3223SOL     OW21130   1.302   1.668  16.709 -0.4661  0.5206  0.1130
 3223SOL    HW121131   1.260   1.583  16.693  1.1107 -0.3848  0.8354
 3223SOL    HW221132   1.226   1.724  16.725 -1.2771  0.1616 -2.4597
 3224SOL     OW21133   3.102   1.630   2.058  0.6812  0.3944  0.0580
 3224SOL    HW121134   3.052   1.572   2.001 -0.2339  1.0364  0.2079
 3224SOL    HW221135   3.039   1.695   2.089 -0.9223 -0.8609 -0.6076
 3225SOL     OW21136   2.458   1.748   7.530 -0.5431 -0.1636  0.2693
 3225SOL    HW121137   2.476   1.656   7.551  0.8518  0.4165  1.6482
 3225SOL    HW221138   2.374   1.765   7.570 -1.0252  1.5772 -1.4976
 3226SOL     OW21139   0.613   0.796   6.908 -1.0896  0.4154 -0.1342
 3226SOL    HW121140   0.562   0.853   6.850  0.0286  1.2403 -0.3176
 3226SOL    HW221141   0.683   0.774   6.846 -1.2892 -1.1241  0.1812
 3227SOL     OW21142   3.274   3.858   8.995  0.0974  0.4051  0.0390
 3227SOL    HW121143   3.312   3.848   9.082 -3.3213  1.5516  1.6973
 3227SOL    HW221144   3.350   3.886   8.944  0.1490 -0.3259 -0.2895
 3228SOL     OW21145   4.491   3.258   7.621 -0.2353  0.1370 -0.0671
 3228SOL    HW121146   4.436   3.244   7.544 -0.2666  3.9011 -0.7436
 3228SOL    HW221147   4.420   3.238   7.682  1.2842 -0.6166  1.4660
 3229SOL     OW21148   1.571   2.935  10.058 -0.0935 -0.4350  0.4340
 3229SOL    HW121149   1.524   2.976   9.986 -0.4649 -2.0922 -0.2802
 3229SOL    HW221150   1.583   2.995  10.131 -2.4733 -0.1047  0.5318
 3230SOL     OW21151   2.049   2.358   6.115 -0.4534  0.5922 -0.5701
 3230SOL    HW121152   1.993   2.313   6.052 -1.3061  0.0797  0.5722
 3230SOL    HW221153   1.993   2.434   6.134 -0.7436  0.6730 -1.7540
 3231SOL     OW21154   0.376   0.061   2.446  0.1467 -0.3096 -0.8426
 3231SOL    HW121155   0.389   0.156   2.442  0.7496 -0.3645 -0.1382
 3231SOL    HW221156   0.444   0.042   2.510  0.9665  0.7839 -1.3989
 3232SOL     OW21157   3.034   4.538  16.112 -0.0626 -0.1729 -0.2367
 3232SOL    HW121158   2.996   4.480  16.046  2.9451 -0.3687 -1.7884
 3232SOL    HW221159   3.108   4.570  16.060 -0.9301 -0.3408 -1.5623
 3233SOL     OW21160   4.440   1.934   5.383  0.0525  0.4652 -0.0428
 3233SOL    HW121161   4.501   1.995   5.341  2.7131 -0.6258  2.2530
 3233SOL    HW221162   4.508   1.890   5.434 -0.5308 -0.6820 -0.2426
 3234SOL     OW21163   3.346   0.170  11.727 -0.0089 -0.1055  0.4098
 3234SOL    HW121164   3.404   0.235  11.767 -1.5529  0.0658  2.3905
 3234SOL    HW221165   3.364   0.197  11.637  0.5393 -2.1851 -0.1049
 3235SOL     OW21166   1.420   3.154   4.917  0.0226  0.0352  0.2708
 3235SOL    HW121167   1.421   3.191   4.829 -1.7951  1.0450  0.6768
 3235SOL    HW221168   1.403   3.063   4.892 -0.3445 -0.0700  0.9203
 3236SOL     OW21169   4.245   3.848  13.876  1.2063 -0.3559 -0.1152
 3236SOL    HW121170   4.150   3.860  13.869  1.5011  0.8222 -1.8703
 3236SOL    HW221171   4.275   3.910  13.809  1.0722 -0.3162 -0.1392
 3237SOL     OW21172   2.602   1.143   7.157 -0.2102  0.3053  0.0219
 3237SOL    HW121173   2.514   1.181   7.148 -1.5607 -3.0164 -0.9325
 3237SOL    HW221174   2.589   1.084   7.082 -3.2417 -0.3577  1.0516
 3238SOL     OW21175   1.015   2.453   4.591 -0.1675 -0.0450 -0.2191
 3238SOL    HW121176   1.023   2.380   4.530 -2.4194 -0.8906  0.4606
 3238SOL    HW221177   0.920   2.451   4.606  0.1233  1.6043  1.7685
 3239SOL     OW21178   0.801   0.048   8.644  0.3240 -0.3368  0.1304
 3239SOL    HW121179   0.822   0.138   8.667 -0.9660 -0.6041  2.4212
 3239SOL    HW221180   0.769   0.002   8.722 -1.7190 -0.8747 -1.0094
 3240SOL     OW21181   2.097   0.057   1.163 -0.0831 -0.0316 -0.0218
 3240SOL    HW121182   2.130   0.060   1.073  0.4463 -1.6305  0.1242
 3240SOL    HW221183   2.127   0.143   1.191 -1.8106  0.4308  0.3876
 3241SOL     OW21184   2.262   1.577   3.090  0.0600  0.0622  0.6334
 3241SOL    HW121185   2.315   1.499   3.103  1.0646  0.5766 -0.4144
 3241SOL    HW221186   2.272   1.588   2.996 -0.1212 -2.1306  0.3703
 3242SOL     OW21187   1.866   3.176   3.007 -0.3316 -0.2498  0.9033
 3242SOL    HW121188   1.858   3.253   2.950 -0.4021 -1.8117 -1.1892
 3242SOL    HW221189   1.774   3.148   2.999 -0.2431 -0.7883  1.8115
 3243SOL     OW21190   3.565   0.788   6.176 -0.4286  0.4818 -0.5701
 3243SOL    HW121191   3.564   0.761   6.268  1.8325 -0.5892 -0.8539
 3243SOL    HW221192   3.659   0.781   6.161 -0.0666  1.5442  1.1706
 3244SOL     OW21193   3.179   1.584   8.985  0.7360 -0.5067 -0.0678
 3244SOL    HW121194   3.207   1.492   8.993 -1.2737 -0.8616  3.0582
 3244SOL    HW221195   3.098   1.582   9.036 -0.5948  0.2086 -2.1975
 3245SOL     OW21196   1.577   1.841   2.518 -0.5668 -0.4672 -0.3222
 3245SOL    HW121197   1.513   1.819   2.585  0.9468  1.9071  1.8887
 3245SOL    HW221198   1.639   1.774   2.548  0.8377  0.7742 -0.4366
 3246SOL     OW21199   4.658   3.986   2.565 -0.4050  0.0243 -0.1620
 3246SOL    HW121200   0.012   4.038   2.555  1.3405 -2.8368 -1.0054
 3246SOL    HW221201   4.588   4.050   2.549 -0.3615  0.5048  1.5182
 3247SOL     OW21202   1.392   1.430   5.231  0.6049  0.2112  0.2422
 3247SOL    HW121203   1.484   1.408   5.243  1.0167  1.2595 -0.9966
 3247SOL    HW221204   1.385   1.494   5.301 -0.4964  1.5199 -1.0714
 3248SOL     OW21205   0.572   3.865  15.217  0.0676 -0.6306  1.1911
 3248SOL    HW121206   0.621   3.901  15.143  1.1206  0.8854  2.6372
 3248SOL    HW221207   0.647   3.836  15.268 -0.6954 -1.2669  1.9587
 3249SOL     OW21208   0.562   0.162   9.049  0.1148 -0.3889 -0.3409
 3249SOL    HW121209   0.499   0.090   9.056 -2.8378  2.3052  1.1714
 3249SOL    HW221210   0.498   0.232   9.036  0.1537 -0.0867  1.0601
 3250SOL     OW21211   3.865   4.333  15.514 -0.1885 -0.4864 -0.1077
 3250SOL    HW121212   3.955   4.302  15.500 -0.0798  0.1278 -0.7737
 3250SOL    HW221213   3.857   4.342  15.609 -1.3348  3.6678 -0.6257
 3251SOL     OW21214   0.399   4.269   7.353  0.4273 -0.1690  0.4797
 3251SOL    HW121215   0.338   4.224   7.295  0.3251 -1.5650  1.6654
 3251SOL    HW221216   0.456   4.193   7.364 -0.4333 -0.6100  1.9180
 3252SOL     OW21217   4.492   4.270   6.716 -0.2035 -0.0159 -0.4691
 3252SOL    HW121218   4.566   4.292   6.773  1.5768 -0.5532 -2.5662
 3252SOL    HW221219   4.505   4.326   6.639  0.5321  3.2213  2.0078
 3253SOL     OW21220   0.359   3.470   5.010 -0.0643  0.3500 -0.1160
 3253SOL    HW121221   0.339   3.396   5.067 -0.6894  0.5494 -0.0829
 3253SOL    HW221222   0.274   3.507   4.986 -1.4139 -1.0822  2.3706
 3254SOL     OW21223   3.699   3.283   3.902  0.2548 -0.4768  0.6947
 3254SOL    HW121224   3.721   3.372   3.930 -2.3253  0.3363  0.2080
 3254SOL    HW221225   3.771   3.223   3.921  0.1048 -0.0767  2.4912
 3255SOL     OW21226   0.954   2.645  11.077  0.1025  0.1871 -0.1011
 3255SOL    HW121227   1.009   2.570  11.055 -0.3673  0.0714 -0.8786
 3255SOL    HW221228   0.901   2.608  11.148  2.4144 -1.3785  0.8164
 3256SOL     OW21229   2.022   1.584  10.535  0.0610  0.2877 -0.3731
 3256SOL    HW121230   1.994   1.535  10.458 -0.4310  0.3759 -0.2475
 3256SOL    HW221231   2.019   1.674  10.504  0.1983 -0.3525 -2.2366
 3257SOL     OW21232   2.044   2.637   2.042 -0.4692 -1.0758  0.1468
 3257SOL    HW121233   2.064   2.647   1.949 -0.6381  1.6597  0.4099
 3257SOL    HW221234   2.123   2.667   2.086 -0.0387 -0.2317 -1.1939
 3258SOL     OW21235   3.186   3.454   8.605  0.3199 -0.2205 -0.0100
 3258SOL    HW121236   3.268   3.502   8.608  0.9208 -1.2205 -0.4761
 3258SOL    HW221237   3.156   3.480   8.518  1.4264 -0.8028 -0.5624
 3259SOL     OW21238   1.077   2.965   0.973  0.1765 -0.2499 -0.6874
 3259SOL    HW121239   1.075   3.034   0.906 -2.3895  1.1343  0.8083
 3259SOL    HW221240   1.026   3.002   1.045  1.4775  0.7506 -0.2749
 3260SOL     OW21241   3.817   0.683   4.236 -0.1433  0.4254  0.1738
 3260SOL    HW121242   3.843   0.658   4.325  4.2225 -0.8656 -1.4761
 3260SOL    HW221243   3.904   0.716   4.213  0.5309 -1.7462 -0.4242
 3261SOL     OW21244   2.559   3.938  12.347 -0.3195 -0.5390 -0.2517
 3261SOL    HW121245   2.483   3.994  12.326  1.4671  1.4417 -1.5091
 3261SOL    HW221246   2.546   3.910  12.437 -2.1902  0.5554 -0.1822
 3262SOL     OW21247   3.819   3.856   3.005  0.0781  0.9584  0.2189
 3262SOL    HW121248   3.911   3.834   3.020  0.1265  1.3037  0.4307
 3262SOL    HW221249   3.772   3.825   3.082 -2.3779  0.8382 -1.3364
 3263SOL     OW21250   2.537   3.416   6.971  0.3677  0.1657 -0.0048
 3263SOL    HW121251   2.495   3.367   6.900  0.0200 -0.5704  0.7129
 3263SOL    HW221252   2.587   3.346   7.013 -0.7063 -1.7398 -1.9314
 3264SOL     OW21253   1.902   2.447  11.465  0.2952  0.1830 -0.1973
 3264SOL    HW121254   1.943   2.373  11.510 -0.4236  1.4510  2.5337
 3264SOL    HW221255   1.819   2.458  11.510  0.2776 -0.3621 -0.0919
 3265SOL     OW21256   2.416   3.758   2.147 -0.6538  0.2517 -0.3933
 3265SOL    HW121257   2.387   3.850   2.142  0.1386  0.4496 -1.2287
 3265SOL    HW221258   2.485   3.758   2.213 -0.0301  1.3164 -1.0291
 3266SOL     OW21259   3.847   1.806   7.361  0.2245 -0.0663  0.1582
 3266SOL    HW121260   3.802   1.745   7.419 -4.0225  2.0263 -0.9401
 3266SOL    HW221261   3.853   1.869   7.434  1.1346  1.5138 -1.2756
 3267SOL     OW21262   3.706   1.620   9.015 -0.8623  0.3073 -0.0814
 3267SOL    HW121263   3.769   1.549   9.003 -0.3165  0.8164 -0.2567
 3267SOL    HW221264   3.658   1.595   9.093 -0.8583  1.5196  0.3128
 3268SOL     OW21265   3.212   0.024  16.545 -0.1550  0.1063 -0.4506
 3268SOL    HW121266   3.192   4.669  16.593 -1.5268 -0.0378 -1.2848
 3268SOL    HW221267   3.277   4.720  16.482 -2.0495  0.6342 -2.6579
 3269SOL     OW21268   0.312   0.424   5.781 -0.4675 -0.0072  0.7554
 3269SOL    HW121269   0.293   0.495   5.720 -0.4678 -1.6483 -1.1471
 3269SOL    HW221270   0.358   0.356   5.733  1.4195  0.4075  1.9844
 3270SOL     OW21271   2.206   2.940  14.836 -0.0357  0.0528 -0.0941
 3270SOL    HW121272   2.131   2.999  14.827 -1.1165 -1.1958  0.7545
 3270SOL    HW221273   2.170   2.864  14.790  1.8718 -1.1844  0.4647
 3271SOL     OW21274   1.244   2.561   8.740 -0.1406 -0.2767  0.4611
 3271SOL    HW121275   1.208   2.509   8.668  1.9630 -1.4933  0.2905
 3271SOL    HW221276   1.182   2.541   8.810 -0.8450  1.9816  0.4807
 3272SOL     OW21277   1.532   3.871  10.937  0.1399 -0.2123  0.2637
 3272SOL    HW121278   1.478   3.840  10.863  2.3497 -1.2151 -0.9387
 3272SOL    HW221279   1.482   3.944  10.974  1.7339  1.6233 -1.2034
 3273SOL     OW21280   0.639   4.007   2.186  0.3240  1.2219 -0.3633
 3273SOL    HW121281   0.692   4.081   2.157  2.4770 -0.2077 -0.0592
 3273SOL    HW221282   0.625   3.974   2.097 -0.2703  0.0446  0.1639
 3274SOL     OW21283   2.093   0.254  17.647  0.5792 -0.6078  0.3548
 3274SOL    HW121284   2.120   0.191  17.580  3.5697 -0.1252  1.0924
 3274SOL    HW221285   2.069   0.325  17.588  0.2587 -0.3835  0.7576
 3275SOL     OW21286   2.913   4.002   3.504  0.3995 -0.7780 -0.1562
 3275SOL    HW121287   2.838   4.060   3.512  0.7911 -0.1596 -1.0140
 3275SOL    HW221288   2.960   4.050   3.435 -1.4446  0.1840 -0.7307
 3276SOL     OW21289   0.315   2.637   2.585  0.7178  0.0093  0.4203
 3276SOL    HW121290   0.315   2.612   2.493 -0.7594 -2.2549  1.0433
 3276SOL    HW221291   0.295   2.729   2.567  1.5485  0.3286  1.1045
 3277SOL     OW21292   1.505   4.696  13.824 -0.0239  0.1380 -0.2498
 3277SOL    HW121293   1.512   4.679  13.918 -0.7416 -1.7555 -0.5321
 3277SOL    HW221294   1.414   4.720  13.807 -0.0163 -0.7658 -1.5313
 3278SOL     OW21295   3.186   0.615  10.870  0.2573  0.0727  0.3783
 3278SOL    HW121296   3.211   0.656  10.952 -1.3046  1.6528  0.0589
 3278SOL    HW221297   3.092   0.629  10.871  0.2311 -0.0523 -0.1124
 3279SOL     OW21298   4.330   2.448   5.310 -0.0300 -0.2853 -0.3041
 3279SOL    HW121299   4.339   2.373   5.252  1.2044 -0.3062 -0.0778
 3279SOL    HW221300   4.387   2.421   5.382  0.1401  2.1279  0.4908
 3280SOL     OW21301   1.719   4.509   2.381 -0.6201  0.4096 -0.0595
 3280SOL    HW121302   1.633   4.543   2.359 -0.4045 -0.9673 -2.9788
 3280SOL    HW221303   1.691   4.444   2.446  1.8156 -0.1079  0.4758
 3281SOL     OW21304   1.947   1.648  10.002  0.1059 -0.1125 -0.6083
 3281SOL    HW121305   1.942   1.716   9.935  1.6746  2.1304  1.5360
 3281SOL    HW221306   1.973   1.569   9.955 -0.6563 -0.2828 -0.7371
 3282SOL     OW21307   4.129   2.670   9.106  0.4328 -0.2397 -0.2040
 3282SOL    HW121308   4.148   2.626   9.188 -1.0251 -1.7860 -0.6899
 3282SOL    HW221309   4.039   2.699   9.117  0.4280 -0.4805  0.3698
 3283SOL     OW21310   0.535   0.041   7.035 -0.0218 -0.1686  0.3721
 3283SOL    HW121311   0.537   4.717   6.953  2.9351  0.9374 -0.2369
 3283SOL    HW221312   0.447   0.036   7.073  0.0973 -1.0022  0.5363
 3284SOL     OW21313   3.546   0.859   6.727  0.1343 -0.2535 -0.0590
 3284SOL    HW121314   3.630   0.813   6.716 -0.2658 -1.3420  1.5558
 3284SOL    HW221315   3.508   0.858   6.639  0.1971 -1.5848 -0.0748
 3285SOL     OW21316   0.445   2.085  14.491 -0.8609 -0.1638 -0.1250
 3285SOL    HW121317   0.406   2.075  14.404 -0.7728  0.0073 -0.1843
 3285SOL    HW221318   0.384   2.149  14.529  1.7415  1.6230  1.0405
 3286SOL     OW21319   0.684   2.218  13.316  0.0346 -0.0728 -0.2761
 3286SOL    HW121320   0.692   2.157  13.388  0.5265  0.5292  0.1826
 3286SOL    HW221321   0.757   2.276  13.340  0.0328  0.0338 -0.5195
 3287SOL     OW21322   0.059   3.124   3.368 -0.4544 -0.2971  0.7666
 3287SOL    HW121323   0.027   3.042   3.405  2.0674 -0.7793  1.8765
 3287SOL    HW221324   4.716   3.190   3.382  1.9360  2.0173  1.6269
 3288SOL     OW21325   1.290   1.498   3.090 -0.1295  0.3981 -0.6491
 3288SOL    HW121326   1.255   1.565   3.149  0.1321 -0.2559  0.2506
 3288SOL    HW221327   1.213   1.471   3.039  0.2032  0.9296 -1.4217
 3289SOL     OW21328   2.295   1.182   7.633 -0.1838  0.8855  0.1044
 3289SOL    HW121329   2.326   1.103   7.590  0.8884  0.5643  1.4692
 3289SOL    HW221330   2.223   1.209   7.576 -0.6615  3.2586  1.8382
 3290SOL     OW21331   4.173   2.113   4.364  0.2274 -0.2283  0.0905
 3290SOL    HW121332   4.115   2.072   4.300  1.3878 -1.8233  0.0614
 3290SOL    HW221333   4.243   2.128   4.301  1.0232 -0.8791  0.8242
 3291SOL     OW21334   2.882   1.114   2.478 -0.0855 -0.0113 -0.2439
 3291SOL    HW121335   2.786   1.112   2.483 -0.1918  0.6898 -2.2023
 3291SOL    HW221336   2.885   1.118   2.383 -0.1523  0.5008 -0.2213
 3292SOL     OW21337   4.265   3.367   1.706 -0.2689  0.3942 -0.1138
 3292SOL    HW121338   4.219   3.450   1.716 -1.1334 -0.2382  1.1448
 3292SOL    HW221339   4.268   3.323   1.792  0.2374 -0.0080 -0.3337
 3293SOL     OW21340   3.677   3.854  17.433 -0.5213  0.3520 -0.0990
 3293SOL    HW121341   3.607   3.882  17.374 -0.3373  0.8620 -0.0821
 3293SOL    HW221342   3.660   3.761  17.423 -1.2048  0.5295 -0.5760
 3294SOL     OW21343   4.710   0.086   1.270  0.1890  0.6015 -0.1505
 3294SOL    HW121344   0.059   0.054   1.221 -1.7294 -3.5410 -0.3809
 3294SOL    HW221345   4.704   0.020   1.339  0.9906  2.2610  1.5057
 3295SOL     OW21346   1.228   1.467   4.613  0.0809  0.1247  0.2046
 3295SOL    HW121347   1.150   1.518   4.592 -0.4895 -1.0843 -0.6054
 3295SOL    HW221348   1.229   1.409   4.536 -0.3299  1.5685 -0.8765
 3296SOL     OW21349   1.396   0.931   1.083  0.3009 -0.3191  0.3198
 3296SOL    HW121350   1.325   0.930   1.148 -1.7208  1.6764 -1.8625
 3296SOL    HW221351   1.354   0.969   1.006  2.6206  1.4859 -0.0486
 3297SOL     OW21352   0.503   0.659   8.636  0.2808  0.1423 -0.0792
 3297SOL    HW121353   0.478   0.663   8.728 -2.2733  0.4871 -0.7894
 3297SOL    HW221354   0.598   0.667   8.642  0.4203 -1.5126 -0.1500
 3298SOL     OW21355   3.990   0.037   6.587 -0.6133  0.0941  0.1377
 3298SOL    HW121356   3.962   4.702   6.656  0.8427  0.8354  1.3929
 3298SOL    HW221357   4.081   0.008   6.584 -0.9533 -0.8893 -0.5882
 3299SOL     OW21358   1.232   0.811   8.400  0.0649 -0.6149  0.6257
 3299SOL    HW121359   1.175   0.778   8.470 -2.2551  0.4496 -0.7582
 3299SOL    HW221360   1.282   0.877   8.449 -0.2175  0.0153  0.0704
 3300SOL     OW21361   0.405   3.690  11.396  0.1167  0.1757  0.4388
 3300SOL    HW121362   0.499   3.707  11.396 -0.1258  1.5274  0.6246
 3300SOL    HW221363   0.382   3.597  11.402 -1.5566  0.4980 -1.1238
 3301SOL     OW21364   2.655   3.956   3.123  0.4747 -0.2136  0.1898
 3301SOL    HW121365   2.658   3.886   3.189 -1.9596  0.3174  0.8283
 3301SOL    HW221366   2.749   3.977   3.124  0.7692 -1.5534  1.5300
 3302SOL     OW21367   4.171   1.367   7.137 -0.2656 -0.5226  0.6881
 3302SOL    HW121368   4.137   1.456   7.122  2.4212  0.4168  0.1269
 3302SOL    HW221369   4.091   1.326   7.106  0.5192 -0.3847 -1.5725
 3303SOL     OW21370   4.158   0.792   8.315 -0.2844  0.8693 -0.3405
 3303SOL    HW121371   4.161   0.696   8.310 -2.1107  0.8094 -0.1990
 3303SOL    HW221372   4.251   0.815   8.316 -0.3829  1.2291  0.1204
 3304SOL     OW21373   0.013   0.422   6.502 -0.4195  0.6450  0.4595
 3304SOL    HW121374   0.029   0.504   6.548 -0.9420  0.5931  0.7326
 3304SOL    HW221375   0.094   0.416   6.452 -1.3472  1.7546 -1.1742
 3305SOL     OW21376   2.628   1.269   3.098 -0.3995 -0.0634  0.4982
 3305SOL    HW121377   2.608   1.361   3.115 -1.0637 -0.0914 -0.1355
 3305SOL    HW221378   2.645   1.223   3.180  1.5481  0.0294  0.1404
 3306SOL     OW21379   1.327   0.433   5.011  0.3302  0.2558 -0.0736
 3306SOL    HW121380   1.309   0.454   5.103 -1.3502  0.5278 -0.4575
 3306SOL    HW221381   1.235   0.425   4.987  0.6878 -1.6487 -0.7882
 3307SOL     OW21382   0.862   2.876   9.616 -0.2285  0.7911 -0.4349
 3307SOL    HW121383   0.795   2.887   9.684 -0.1157 -2.0833  0.1663
 3307SOL    HW221384   0.902   2.792   9.640 -0.5754  0.1224 -2.1506
 3308SOL     OW21385   0.443   2.932   7.170  0.5287 -0.3706  0.4562
 3308SOL    HW121386   0.534   2.950   7.194  0.1154  1.4237  0.6760
 3308SOL    HW221387   0.412   2.889   7.250 -0.4786 -0.8309 -0.1844
 3309SOL     OW21388   0.701   0.374  14.693 -0.0722 -0.0665  0.0449
 3309SOL    HW121389   0.645   0.320  14.748  2.1244 -0.6292  1.7490
 3309SOL    HW221390   0.749   0.422  14.761 -1.2102  1.7984 -0.4570
 3310SOL     OW21391   0.751   1.531   6.423 -0.0817  0.6168 -0.3707
 3310SOL    HW121392   0.747   1.444   6.385 -0.6837  0.5779 -0.2151
 3310SOL    HW221393   0.791   1.576   6.348 -2.8356  1.9021 -1.0615
 3311SOL     OW21394   3.616   3.085   6.441  0.4571 -0.2499  0.0437
 3311SOL    HW121395   3.550   3.078   6.510  1.0138 -0.4652  0.5578
 3311SOL    HW221396   3.559   3.103   6.366 -0.3185  1.7590  1.1078
 3312SOL     OW21397   3.389   3.895   2.021  0.6845  0.2714 -0.2450
 3312SOL    HW121398   3.371   3.862   2.109  0.2552  1.1449 -0.0064
 3312SOL    HW221399   3.359   3.983   2.043 -2.1858 -0.4625 -1.0995
 3313SOL     OW21400   2.722   3.286   4.043  0.0559  0.2714  0.0546
 3313SOL    HW121401   2.807   3.245   4.059 -2.1489 -3.6658  1.6658
 3313SOL    HW221402   2.748   3.372   4.077  0.1290  1.1061 -2.0996
 3314SOL     OW21403   2.906   4.706   6.558 -0.5623 -0.1772  0.5868
 3314SOL    HW121404   2.918   4.695   6.652 -1.4948 -0.8825  0.6360
 3314SOL    HW221405   2.837   4.643   6.535  0.0473 -1.0541  1.1716
 3315SOL     OW21406   1.455   3.929   7.036 -0.0857  0.3843 -0.1951
 3315SOL    HW121407   1.514   3.856   7.018  0.1105  0.1964  1.2397
 3315SOL    HW221408   1.486   3.965   7.119 -0.7584 -0.8981  0.6231
 3316SOL     OW21409   4.037   2.601   6.388 -0.2900  0.8977 -0.3562
 3316SOL    HW121410   4.059   2.508   6.385 -0.2281  0.9196 -0.5701
 3316SOL    HW221411   4.108   2.627   6.447 -0.7642 -0.0953  0.6300
 3317SOL     OW21412   2.340   0.055   1.892 -0.0069  0.6389  0.6473
 3317SOL    HW121413   2.299   4.704   1.852  1.0873  1.0053 -1.2017
 3317SOL    HW221414   2.414   0.059   1.831 -0.3522  0.5578  0.2216
 3318SOL     OW21415   4.565   2.976  16.792  0.6945  0.1505  0.3406
 3318SOL    HW121416   4.551   2.900  16.848 -2.4489  0.8552  0.5137
 3318SOL    HW221417   4.608   2.939  16.715 -0.9925 -1.3437  0.1256
 3319SOL     OW21418   0.231   0.904  15.181  0.0553  0.4163  0.0627
 3319SOL    HW121419   0.172   0.842  15.138 -0.5065  0.2445  1.0690
 3319SOL    HW221420   0.318   0.870  15.164 -0.4029 -1.3992  1.3745
 3320SOL     OW21421   2.132   4.082   9.203 -0.1809 -0.2096  0.0059
 3320SOL    HW121422   2.178   4.141   9.263  0.6023 -0.2685 -0.5359
 3320SOL    HW221423   2.039   4.093   9.225 -0.0115  0.7042  0.2593
 3321SOL     OW21424   1.074   2.834   3.224  0.3688  0.0930 -0.0135
 3321SOL    HW121425   1.130   2.823   3.147 -0.7025 -2.2686 -0.4437
 3321SOL    HW221426   1.012   2.893   3.183  0.7554 -1.0279 -2.1648
 3322SOL     OW21427   3.281   0.657   7.008 -0.8016 -0.2038 -0.3013
 3322SOL    HW121428   3.350   0.722   7.002  0.7545 -1.8320  0.0478
 3322SOL    HW221429   3.303   0.620   7.093  0.5494 -0.3637 -0.7339
 3323SOL     OW21430   0.508   4.354   3.871 -0.2959  0.1170  0.3123
 3323SOL    HW121431   0.516   4.315   3.958  0.1176 -0.9368 -0.1874
 3323SOL    HW221432   0.601   4.373   3.860 -0.3195  0.7910  1.2845
 3324SOL     OW21433   3.762   2.759  13.687 -0.1481  0.8755  0.2365
 3324SOL    HW121434   3.806   2.788  13.608 -0.6391  4.1873  1.1996
 3324SOL    HW221435   3.742   2.669  13.659  1.9844  0.4061  0.2443
 3325SOL     OW21436   2.804   4.455  15.645 -0.2515  0.0591 -0.1923
 3325SOL    HW121437   2.869   4.403  15.598 -1.0659 -2.8452  1.9173
 3325SOL    HW221438   2.861   4.502  15.706 -0.6870  0.7727 -0.3289
 3326SOL     OW21439   0.146   3.759  16.779  0.2530 -0.0632  0.0798
 3326SOL    HW121440   0.215   3.773  16.844 -0.1285 -0.0042  0.4776
 3326SOL    HW221441   0.199   3.757  16.700  1.3043 -0.8461  0.7935
 3327SOL     OW21442   2.151   0.949   2.385 -0.1303  0.2064 -0.2128
 3327SOL    HW121443   2.117   1.035   2.361 -1.7431 -1.0747 -2.6142
 3327SOL    HW221444   2.091   0.881   2.354 -3.0109  2.1458  1.1433
 3328SOL     OW21445   2.668   0.149   4.024 -0.1635 -0.9661  0.0224
 3328SOL    HW121446   2.593   0.154   4.083 -1.7103 -0.4669 -2.0029
 3328SOL    HW221447   2.742   0.122   4.079  1.1981 -0.7669 -1.7041
 3329SOL     OW21448   3.440   4.505  16.300  0.2149  0.4474 -0.0079
 3329SOL    HW121449   3.356   4.489  16.344 -0.4537  0.1740 -1.3772
 3329SOL    HW221450   3.442   4.442  16.228  1.5120 -0.6117  0.9686
 3330SOL     OW21451   0.524   0.013  11.048 -0.1561 -0.0250  0.4275
 3330SOL    HW121452   0.548   0.099  11.083 -0.1773 -0.1130  0.6549
 3330SOL    HW221453   0.479   4.701  11.124  0.4263  0.2611  0.9097
 3331SOL     OW21454   3.316   2.645   0.221  0.0977  0.4936  0.1039
 3331SOL    HW121455   3.257   2.569   0.217  0.3678  0.3366 -0.8949
 3331SOL    HW221456   3.385   2.609   0.277  1.4447 -2.5306 -3.5100
 3332SOL     OW21457   2.588   1.023   3.720 -0.3251  0.1957  0.3240
 3332SOL    HW121458   2.593   1.092   3.786 -1.2029  0.6194 -0.0472
 3332SOL    HW221459   2.633   0.951   3.764  1.0335  0.2493 -0.9453
 3333SOL     OW21460   3.606   3.438   6.176 -0.0392  0.7384 -0.1061
 3333SOL    HW121461   3.654   3.452   6.095  1.1770  0.7518  0.6086
 3333SOL    HW221462   3.522   3.470   6.143 -0.3769  1.6777  1.6344
 3334SOL     OW21463   2.234   3.411   2.378  0.7962 -0.4046  0.3644
 3334SOL    HW121464   2.323   3.419   2.412  0.7632 -0.9277  0.5610
 3334SOL    HW221465   2.254   3.378   2.290 -0.4097 -1.7139  0.5802
 3335SOL     OW21466   3.619   2.858   5.643 -0.4901  0.5453 -0.1028
 3335SOL    HW121467   3.683   2.794   5.673 -1.3964 -0.8178 -1.1215
 3335SOL    HW221468   3.536   2.814   5.661 -0.7684  1.7547  1.5031
 3336SOL     OW21469   1.196   1.379   0.804 -0.4227  0.6404  0.0699
 3336SOL    HW121470   1.195   1.380   0.708  2.2254  3.3044  0.0399
 3336SOL    HW221471   1.247   1.456   0.831 -0.2334  1.0638 -1.4935
 3337SOL     OW21472   4.329   0.252   3.300 -0.5424 -0.3745 -0.2249
 3337SOL    HW121473   4.410   0.201   3.303  0.0018  0.4257 -1.5014
 3337SOL    HW221474   4.351   0.329   3.352 -0.8692  0.9015 -1.9898
 3338SOL     OW21475   3.536   3.827   5.336  0.0684  0.0012  0.4679
 3338SOL    HW121476   3.623   3.867   5.332  0.0926 -0.2893 -2.0124
 3338SOL    HW221477   3.486   3.889   5.282  1.0872 -0.7352 -1.3454
 3339SOL     OW21478   0.192   0.126   6.399  0.6751  0.5393  0.0824
 3339SOL    HW121479   0.209   0.081   6.317  0.8672 -1.1104  1.0383
 3339SOL    HW221480   0.189   0.219   6.373 -1.8635  1.1059  2.3560
 3340SOL     OW21481   0.386   0.653  15.124  0.1386 -0.3488 -0.5645
 3340SOL    HW121482   0.349   0.689  15.043  0.7382  3.2571  0.7520
 3340SOL    HW221483   0.440   0.723  15.160  1.4288 -1.4892 -0.3117
 3341SOL     OW21484   2.062   3.633  15.773  0.6188  0.0224  0.1736
 3341SOL    HW121485   2.071   3.722  15.806  0.0414 -1.4288  4.2561
 3341SOL    HW221486   2.110   3.592  15.846  1.4882  1.0260  0.1543
 3342SOL     OW21487   0.635   2.944   4.975 -0.0862 -0.1599 -0.6927
 3342SOL    HW121488   0.615   3.031   5.012 -0.1583  0.1312 -1.4176
 3342SOL    HW221489   0.678   2.905   5.051  0.4003 -1.1835 -1.5017
 3343SOL     OW21490   2.005   2.220   4.468  0.2982  0.3380  0.8934
 3343SOL    HW121491   1.942   2.234   4.397 -0.3651 -1.1385  1.2018
 3343SOL    HW221492   2.092   2.216   4.428  0.8940  0.1585  2.1948
 3344SOL     OW21493   1.356   0.269   4.389  0.2007 -0.1754 -0.4967
 3344SOL    HW121494   1.371   0.185   4.346 -0.8794  0.2025 -1.5969
 3344SOL    HW221495   1.444   0.295   4.415 -0.6750  2.8933 -0.6594
 3345SOL     OW21496   4.478   3.136   4.042 -0.0297 -0.9466 -0.0584
 3345SOL    HW121497   4.386   3.147   4.021  0.5078  1.7136 -0.9458
 3345SOL    HW221498   4.498   3.114   3.950  1.1407 -1.1270  0.2392
 3346SOL     OW21499   1.157   2.996   2.618 -0.1644 -0.1072 -0.1364
 3346SOL    HW121500   1.093   2.978   2.687  1.9469 -1.3799  1.4756
 3346SOL    HW221501   1.106   3.044   2.552 -1.9385 -2.9766 -0.8638
 3347SOL     OW21502   0.914   0.362  15.522  0.2345  0.4397 -0.1151
 3347SOL    HW121503   0.839   0.421  15.528  0.4462  0.5285  1.6539
 3347SOL    HW221504   0.917   0.335  15.430 -0.1083  3.0748 -0.8733
 3348SOL     OW21505   2.581   3.483   3.649  0.3717  0.0720 -0.4415
 3348SOL    HW121506   2.609   3.391   3.660  1.9463  0.8207  1.8328
 3348SOL    HW221507   2.583   3.486   3.554  1.4499  1.0831 -0.3877
 3349SOL     OW21508   2.123   0.158   6.695 -0.7918 -0.0776 -0.1124
 3349SOL    HW121509   2.144   0.176   6.604 -0.5118 -2.6237 -0.5557
 3349SOL    HW221510   2.092   0.067   6.696 -1.5774  0.1914  2.6650
 3350SOL     OW21511   3.918   4.521  17.236  0.4079  0.6335 -0.1418
 3350SOL    HW121512   3.882   4.588  17.294 -0.0835  0.5612 -0.3677
 3350SOL    HW221513   4.009   4.523  17.265  0.3847 -0.1586 -0.0175
 3351SOL     OW21514   0.072   2.904   5.173 -0.0302 -0.1095 -0.3156
 3351SOL    HW121515   0.137   2.884   5.240 -0.2722  3.2925  0.9649
 3351SOL    HW221516   0.127   2.952   5.112 -0.5958 -2.1837 -2.4331
 3352SOL     OW21517   0.491   3.476   2.520 -0.3560  0.2710 -0.6485
 3352SOL    HW121518   0.482   3.544   2.453 -0.7399  0.7311 -0.1254
 3352SOL    HW221519   0.585   3.454   2.519 -0.1283  1.2321 -0.5943
 3353SOL     OW21520   0.342   3.386   4.603  0.2794  0.3457  0.1629
 3353SOL    HW121521   0.418   3.331   4.621 -0.2617 -0.1465  0.9413
 3353SOL    HW221522   0.291   3.400   4.683 -2.6335  1.1616 -1.8220
 3354SOL     OW21523   4.172   3.292  11.084 -0.1497  0.2921  0.0987
 3354SOL    HW121524   4.191   3.272  11.175  0.1936 -1.3170 -0.3378
 3354SOL    HW221525   4.121   3.212  11.069 -1.2684  0.7517  1.4630
 3355SOL     OW21526   4.669   3.794   2.385 -0.0921  0.3734 -0.0665
 3355SOL    HW121527   4.662   3.869   2.444  2.1908  0.3621  0.2224
 3355SOL    HW221528   4.602   3.743   2.430 -1.6786  0.3492 -2.4720
 3356SOL     OW21529   0.785   2.686   2.643  0.5530  0.3927  0.2244
 3356SOL    HW121530   0.867   2.726   2.615  1.7379 -1.6797  0.7402
 3356SOL    HW221531   0.828   2.621   2.699  0.7223  2.3523  2.3572
 3357SOL     OW21532   3.953   1.138   8.803 -0.1698  0.3995  0.0031
 3357SOL    HW121533   3.879   1.146   8.863 -0.9201  0.1949 -0.8975
 3357SOL    HW221534   3.979   1.047   8.814 -1.3342  0.1640  0.7932
 3358SOL     OW21535   4.523   1.263   5.935  0.3930  0.1829  0.6789
 3358SOL    HW121536   4.441   1.215   5.923  0.9176 -0.3028 -0.9606
 3358SOL    HW221537   4.530   1.295   5.845  0.6374 -0.2421  0.5440
 3359SOL     OW21538   2.486   3.576   3.032  0.3951 -0.1718  0.3112
 3359SOL    HW121539   2.422   3.618   2.974 -0.2228 -2.4136 -0.6168
 3359SOL    HW221540   2.425   3.524   3.083  1.3870 -1.2701  0.3835
 3360SOL     OW21541   4.218   0.109   9.995  0.9105  0.1437 -0.1805
 3360SOL    HW121542   4.286   0.148  10.049  2.5208  1.8691 -3.4599
 3360SOL    HW221543   4.229   0.158   9.913  0.0579 -0.2991 -0.5569
 3361SOL     OW21544   1.386   0.496   2.513 -0.5272 -0.6845  0.1510
 3361SOL    HW121545   1.374   0.467   2.604  0.0354 -1.0629  0.1053
 3361SOL    HW221546   1.311   0.457   2.469  2.2038 -2.6481 -2.7851
 3362SOL     OW21547   4.632   3.405   8.811 -0.2211  0.5216 -0.4146
 3362SOL    HW121548   4.571   3.473   8.782  1.1852  2.2620  0.6773
 3362SOL    HW221549   4.700   3.456   8.856 -2.2116  2.0495  0.8242
 3363SOL     OW21550   0.931   3.874   5.728  0.0296 -0.3135 -0.2326
 3363SOL    HW121551   1.021   3.842   5.725  0.5116  1.0642 -0.2723
 3363SOL    HW221552   0.924   3.878   5.824  0.2348  0.9907 -0.2712
 3364SOL     OW21553   3.234   1.719   5.715  0.1458  0.6102  0.2199
 3364SOL    HW121554   3.233   1.711   5.619  0.0629  0.9169  0.1962
 3364SOL    HW221555   3.171   1.652   5.742 -0.1953  0.9160  0.1801
 3365SOL     OW21556   3.152   2.226   2.954  0.3958 -0.0958  0.3390
 3365SOL    HW121557   3.156   2.226   2.858 -2.7356  3.7203  0.1944
 3365SOL    HW221558   3.236   2.183   2.968 -0.4062 -1.2024  1.7755
 3366SOL     OW21559   2.671   3.990   6.167  0.4299 -0.2328 -0.6920
 3366SOL    HW121560   2.613   3.929   6.214 -0.7258 -0.1938 -2.0863
 3366SOL    HW221561   2.758   3.954   6.187 -0.7145 -3.5873 -1.8013
 3367SOL     OW21562   1.572   2.170   9.646  0.5264 -0.5940  0.6003
 3367SOL    HW121563   1.657   2.144   9.683  1.7618  2.2678 -0.2216
 3367SOL    HW221564   1.598   2.228   9.574 -1.0434  1.6172  1.8494
 3368SOL     OW21565   2.696   4.175   3.480  0.0368  0.0027  0.0420
 3368SOL    HW121566   2.658   4.092   3.509  0.0753  0.5788  1.7943
 3368SOL    HW221567   2.663   4.193   3.392  2.3981 -0.5860 -0.9552
 3369SOL     OW21568   4.183   4.060   6.072 -0.0472 -0.0532 -0.1399
 3369SOL    HW121569   4.118   4.129   6.078 -0.4746 -0.5680  0.9846
 3369SOL    HW221570   4.153   3.988   6.127 -2.9868 -0.4259 -2.2172
 3370SOL     OW21571   3.214   3.834  12.721  0.4052 -0.1053  0.0451
 3370SOL    HW121572   3.237   3.877  12.803  0.5358 -2.8124  1.4092
 3370SOL    HW221573   3.158   3.766  12.756  1.0791 -0.2952  0.7650
 3371SOL     OW21574   0.799   0.214   4.302  0.1673 -0.0903 -0.2396
 3371SOL    HW121575   0.731   0.215   4.235 -1.3692 -0.4544  1.3217
 3371SOL    HW221576   0.811   0.120   4.311 -0.0652 -0.2310 -1.4961
 3372SOL     OW21577   2.902   0.270   5.758  0.0312  0.1101  0.0595
 3372SOL    HW121578   2.894   0.182   5.794 -0.6655 -0.0694 -0.5430
 3372SOL    HW221579   2.865   0.311   5.837 -3.0249 -0.0111 -1.2935
 3373SOL     OW21580   0.649   4.435  15.601  0.2201  0.4452  0.4611
 3373SOL    HW121581   0.634   4.489  15.678 -1.5059 -0.3703  0.6719
 3373SOL    HW221582   0.625   4.495  15.530  0.0251 -0.5184 -0.2923
 3374SOL     OW21583   2.392   3.365  17.572 -0.0698  0.4896  0.1613
 3374SOL    HW121584   2.376   3.459  17.567  2.7021  0.8956 -1.0497
 3374SOL    HW221585   2.372   3.346  17.481 -0.3940  0.3484  0.2644
 3375SOL     OW21586   0.330   3.694   6.244 -0.5138 -0.4554  0.4579
 3375SOL    HW121587   0.412   3.711   6.197  0.6932 -0.4151  2.6162
 3375SOL    HW221588   0.286   3.661   6.166  0.2199  0.5059 -0.3672
 3376SOL     OW21589   2.777   0.760   1.226  0.0503 -0.3539  0.6186
 3376SOL    HW121590   2.719   0.823   1.185 -0.5617  0.5614  2.8874
 3376SOL    HW221591   2.718   0.685   1.221 -0.0775 -0.3650  2.4248
 3377SOL     OW21592   1.449   3.493   9.697 -0.5132  0.3840 -0.5675
 3377SOL    HW121593   1.499   3.559   9.745  1.1734  0.6318 -2.6968
 3377SOL    HW221594   1.495   3.415   9.727 -1.1182  0.0827 -0.4270
 3378SOL     OW21595   2.774   2.731   5.298 -0.1795  0.2598  0.2719
 3378SOL    HW121596   2.714   2.805   5.293 -1.2138 -0.7022 -1.4276
 3378SOL    HW221597   2.733   2.665   5.242 -1.2372  1.3738 -0.2721
 3379SOL     OW21598   3.155   1.545   4.170  0.1575  0.5608 -0.2853
 3379SOL    HW121599   3.132   1.510   4.084 -3.5137  1.5532  0.3249
 3379SOL    HW221600   3.197   1.469   4.212  0.4958  1.6809  1.4294
 3380SOL     OW21601   1.245   4.279  15.653  0.3438  0.5409 -0.0006
 3380SOL    HW121602   1.318   4.225  15.685 -0.5388 -0.2689  0.6548
 3380SOL    HW221603   1.288   4.362  15.676 -0.2193  0.6783  0.5504
 3381SOL     OW21604   3.366   1.909   1.265  0.3184 -0.1203  0.5066
 3381SOL    HW121605   3.424   1.890   1.192 -1.3233  0.1629 -0.8761
 3381SOL    HW221606   3.407   1.846   1.324  0.9153  0.6050  0.8667
 3382SOL     OW21607   2.209   2.941   1.898 -0.1093  0.1266  0.6421
 3382SOL    HW121608   2.121   2.943   1.937 -0.3729  1.8845 -0.0586
 3382SOL    HW221609   2.205   3.025   1.852  0.8188  0.1348  0.5800
 3383SOL     OW21610   1.093   2.186  11.371 -0.2822 -0.6777  0.8874
 3383SOL    HW121611   1.027   2.141  11.319  0.0185 -0.5520  0.3935
 3383SOL    HW221612   1.041   2.262  11.396  2.6822  1.6849 -0.0857
 3384SOL     OW21613   0.779   3.379   9.887  0.0521 -0.1349  0.7830
 3384SOL    HW121614   0.801   3.416   9.802 -1.7768  1.8468  1.1784
 3384SOL    HW221615   0.727   3.305   9.853 -0.3056 -0.5802  2.3196
 3385SOL     OW21616   3.499   3.394   4.595 -0.1047 -0.7600  0.3413
 3385SOL    HW121617   3.549   3.345   4.531  3.7305  2.0745  1.1266
 3385SOL    HW221618   3.425   3.418   4.540 -0.0783 -0.7686  0.3023
 3386SOL     OW21619   1.474   2.447   3.140  0.4159  0.3241 -0.2380
 3386SOL    HW121620   1.443   2.528   3.182 -1.0682 -0.4114  0.0646
 3386SOL    HW221621   1.424   2.442   3.059 -1.4490  1.5956  0.8292
 3387SOL     OW21622   3.330   2.213   7.843 -0.0103 -0.2993 -0.4674
 3387SOL    HW121623   3.307   2.304   7.862  0.2575 -0.3527  0.0825
 3387SOL    HW221624   3.420   2.195   7.868  0.3108  1.2823 -0.4821
 3388SOL     OW21625   4.623   3.838  13.558 -0.2853  0.2244  0.9342
 3388SOL    HW121626   4.598   3.929  13.548  0.7343  0.1817 -1.8947
 3388SOL    HW221627   4.535   3.802  13.549 -0.2977  0.7459 -0.9515
 3389SOL     OW21628   3.011   3.895   1.045  0.5916  0.2117  0.1072
 3389SOL    HW121629   2.974   3.974   1.084 -3.6472 -1.6710 -0.0585
 3389SOL    HW221630   2.987   3.920   0.956  0.0427  0.6562  0.3798
 3390SOL     OW21631   2.843   1.350   5.226  0.0366 -0.6232 -0.0929
 3390SOL    HW121632   2.788   1.309   5.293 -0.9138  1.9854  0.7151
 3390SOL    HW221633   2.926   1.339   5.274  0.9110  2.2845 -0.9474
 3391SOL     OW21634   1.046   2.258  10.822  0.3871 -0.5883 -0.3145
 3391SOL    HW121635   1.086   2.237  10.738 -0.2086 -1.5688 -0.3456
 3391SOL    HW221636   0.980   2.318  10.789 -0.7525 -0.8126  1.5665
 3392SOL     OW21637   3.997   1.339   5.850  0.0904 -0.6761 -0.3852
 3392SOL    HW121638   3.912   1.382   5.839  1.0991  1.7909  1.4465
 3392SOL    HW221639   3.966   1.248   5.855 -0.2035 -0.5948 -0.6950
 3393SOL     OW21640   4.638   4.329  14.661 -0.0533 -0.7969  0.2269
 3393SOL    HW121641   4.595   4.373  14.734  1.7947  0.0739  0.8101
 3393SOL    HW221642   4.561   4.306  14.609 -1.8775  3.0732  1.2045
 3394SOL     OW21643   4.237   3.653  12.737 -0.3037  0.2370 -0.4150
 3394SOL    HW121644   4.209   3.742  12.716 -0.4202  0.1822 -0.4957
 3394SOL    HW221645   4.170   3.626  12.800 -0.6225  1.1538 -0.3647
 3395SOL     OW21646   3.061   2.975  15.821  0.1335  0.0054  0.4520
 3395SOL    HW121647   3.009   3.000  15.745 -0.5886 -1.3365  0.5085
 3395SOL    HW221648   3.038   2.882  15.815 -0.3676  0.1741 -0.2038
 3396SOL     OW21649   2.092   0.122   0.193 -0.7397 -0.0358  0.1387
 3396SOL    HW121650   2.008   0.116   0.239  0.0715  1.2881  1.8132
 3396SOL    HW221651   2.062   0.151   0.107  1.0709 -0.9974 -0.8138
 3397SOL     OW21652   1.670   0.617   2.656  0.2129  0.9776 -0.2505
 3397SOL    HW121653   1.675   0.636   2.750  0.4751  0.4659 -0.1619
 3397SOL    HW221654   1.575   0.619   2.653  0.1057 -0.7233  2.0442
 3398SOL     OW21655   2.993   4.546  12.177  0.2213 -0.2921 -0.1276
 3398SOL    HW121656   2.998   4.513  12.087  0.0721  1.3807 -0.7436
 3398SOL    HW221657   3.022   4.472  12.231 -1.6128  0.2425  1.5983
 3399SOL     OW21658   3.861   4.190  14.538 -0.4136 -0.8253 -0.0374
 3399SOL    HW121659   3.913   4.270  14.549  0.1712 -1.2919  0.6571
 3399SOL    HW221660   3.824   4.211  14.452 -2.3833  1.7848  1.4391
 3400SOL     OW21661   2.892   2.237  10.037 -0.5162 -0.1369  0.5068
 3400SOL    HW121662   2.952   2.293  10.086  0.6309 -0.6165 -0.3238
 3400SOL    HW221663   2.920   2.258   9.948  0.2819 -3.1014  0.0481
 3401SOL     OW21664   2.872   3.070   3.847 -0.1994 -0.8958 -0.3239
 3401SOL    HW121665   2.825   3.018   3.913 -0.7968  1.8799  1.4529
 3401SOL    HW221666   2.923   3.137   3.893  0.4199 -1.9209  0.4698
 3402SOL     OW21667   3.004   2.451   7.683 -0.0351  0.0547  0.1306
 3402SOL    HW121668   3.016   2.457   7.588 -1.7389  1.2858  0.0156
 3402SOL    HW221669   2.921   2.495   7.698  0.5348  1.5132 -1.0015
 3403SOL     OW21670   0.746   3.589  16.070 -0.8270  0.2580 -0.3234
 3403SOL    HW121671   0.671   3.647  16.060  0.1089  1.2623 -1.4429
 3403SOL    HW221672   0.771   3.625  16.155  0.2343 -1.0675 -0.0715
 3404SOL     OW21673   0.836   1.700  10.406 -0.2238 -0.4682  0.2028
 3404SOL    HW121674   0.836   1.771  10.470 -2.8266 -0.7112  0.4798
 3404SOL    HW221675   0.742   1.698  10.390 -0.2747 -1.1842  0.6054
 3405SOL     OW21676   1.374   0.434   2.807  0.6870  0.4170 -0.2020
 3405SOL    HW121677   1.324   0.422   2.888  0.9556 -1.0138 -0.2467
 3405SOL    HW221678   1.438   0.364   2.821 -0.2063 -0.2345  0.7091
 3406SOL     OW21679   4.242   3.476   2.045 -0.1665 -0.3416  0.4399
 3406SOL    HW121680   4.195   3.549   2.004 -1.3862 -1.1181  0.4697
 3406SOL    HW221681   4.199   3.396   2.014 -1.2495  0.6776 -0.6528
 3407SOL     OW21682   0.275   2.750  16.826 -0.0731  0.2891 -0.1507
 3407SOL    HW121683   0.202   2.733  16.885 -0.6171 -2.1102 -1.4766
 3407SOL    HW221684   0.330   2.809  16.877  1.0310 -0.6207 -0.2618
 3408SOL     OW21685   2.971   4.612  16.867  0.2597  0.1674  0.0435
 3408SOL    HW121686   2.973   4.535  16.924  2.5966  0.9385  1.0054
 3408SOL    HW221687   2.949   4.689  16.919 -1.7623 -1.9658  2.3774
 3409SOL     OW21688   2.258   0.486  16.566  0.4401  0.0394 -0.2521
 3409SOL    HW121689   2.232   0.579  16.565 -1.0904 -0.3815  0.0552
 3409SOL    HW221690   2.233   0.472  16.475 -0.2997 -1.1526  0.1396
 3410SOL     OW21691   4.182   2.501  10.781  0.3947  0.1010 -0.2616
 3410SOL    HW121692   4.223   2.538  10.703 -0.3376 -2.6678 -1.9970
 3410SOL    HW221693   4.113   2.454  10.733  1.7462  0.0216 -2.1523
 3411SOL     OW21694   4.262   4.261   7.883 -0.1859  0.3504  0.1679
 3411SOL    HW121695   4.202   4.190   7.906  0.9931 -0.5377  0.4841
 3411SOL    HW221696   4.350   4.231   7.906  0.3691  0.6881 -1.4624
 3412SOL     OW21697   1.959   0.837   4.139 -0.0429 -0.8085 -0.5178
 3412SOL    HW121698   1.921   0.758   4.176  0.0130 -1.4706 -1.8733
 3412SOL    HW221699   2.051   0.828   4.164 -0.2803  1.1585  1.0385
 3413SOL     OW21700   4.656   0.842  12.477 -0.5220 -0.3861  0.0164
 3413SOL    HW121701   4.613   0.788  12.544 -0.3056 -2.1445 -1.2589
 3413SOL    HW221702   4.582   0.896  12.448  0.8713  1.4209 -0.1308
 3414SOL     OW21703   0.433   4.505   9.831  0.5413  0.0703 -0.1062
 3414SOL    HW121704   0.364   4.547   9.780  1.8660  2.0930 -0.2148
 3414SOL    HW221705   0.376   4.439   9.872  1.4192 -0.5151  0.1666
 3415SOL     OW21706   3.229   0.850   3.498 -0.5481  0.1264 -0.2232
 3415SOL    HW121707   3.196   0.831   3.586 -0.4081  0.2000 -0.1548
 3415SOL    HW221708   3.219   0.945   3.504 -1.0816  0.1180 -1.0065
 3416SOL     OW21709   3.221   1.302  16.030  0.2227  0.6350 -0.1025
 3416SOL    HW121710   3.151   1.343  15.979 -1.4646 -1.8817  0.1612
 3416SOL    HW221711   3.241   1.377  16.085  0.2538 -0.8432  1.9131
 3417SOL     OW21712   0.907   2.667   8.513 -0.1041 -0.4883  0.2783
 3417SOL    HW121713   0.865   2.749   8.539 -1.6870 -0.8300 -1.1776
 3417SOL    HW221714   0.835   2.615   8.476 -0.6034  1.2304 -1.1490
 3418SOL     OW21715   3.201   1.699  15.419 -0.3287  0.6327  0.0793
 3418SOL    HW121716   3.127   1.714  15.359  0.4649  0.4846 -0.9461
 3418SOL    HW221717   3.235   1.614  15.390 -1.6109 -0.1699  0.9310
 3419SOL     OW21718   4.588   4.097  12.951 -0.2998  0.1222  0.1257
 3419SOL    HW121719   4.651   4.148  13.001 -0.6777  0.9240 -0.2168
 3419SOL    HW221720   4.590   4.009  12.989 -0.1510  0.3566  0.6580
 3420SOL     OW21721   1.762   2.515  11.217  0.1553  0.1989 -0.5228
 3420SOL    HW121722   1.823   2.522  11.291 -1.3217 -0.0808  0.7383
 3420SOL    HW221723   1.832   2.505  11.152  1.5403 -0.3589  1.0527
 3421SOL     OW21724   3.068   0.254   8.781 -0.2286  0.1234  0.1653
 3421SOL    HW121725   2.991   0.270   8.726  2.4851  0.2029 -3.6016
 3421SOL    HW221726   3.142   0.287   8.730 -0.4765  0.7311  0.2109
 3422SOL     OW21727   0.471   0.648   5.786 -0.1260 -0.2003  0.0707
 3422SOL    HW121728   0.466   0.620   5.695  2.2304 -0.0180 -0.0923
 3422SOL    HW221729   0.397   0.600   5.824  1.0194 -1.9389  0.0942
 3423SOL     OW21730   2.790   2.693   7.067 -0.6351 -0.3844  0.5321
 3423SOL    HW121731   2.697   2.697   7.090  0.0104 -2.4105  3.4021
 3423SOL    HW221732   2.780   2.658   6.978  2.2518 -0.5221  0.2858
 3424SOL     OW21733   1.361   2.928   7.738  0.0718  0.2903 -0.3622
 3424SOL    HW121734   1.396   3.006   7.783  0.1086 -0.4951  0.9829
 3424SOL    HW221735   1.444   2.900   7.701 -0.2625 -1.1446 -0.0243
 3425SOL     OW21736   4.472   0.409  15.521  0.0771  0.2791  0.4035
 3425SOL    HW121737   4.403   0.344  15.536  0.6767 -0.0709  1.6218
 3425SOL    HW221738   4.546   0.352  15.539 -0.5805 -1.3408 -1.9856
 3426SOL     OW21739   4.450   3.573  12.990  0.1443  0.3257  0.3604
 3426SOL    HW121740   4.388   3.550  12.920  0.7716  0.9028 -0.3875
 3426SOL    HW221741   4.533   3.536  12.962 -0.4861 -1.3573  0.7568
 3427SOL     OW21742   4.505   1.454   4.571 -0.2871  0.2702  0.0563
 3427SOL    HW121743   4.592   1.453   4.612  0.3263  0.7446 -1.2222
 3427SOL    HW221744   4.476   1.544   4.589 -1.2949  0.3203 -1.7457
 3428SOL     OW21745   0.014   2.887   6.317 -0.3030 -0.0521 -0.8329
 3428SOL    HW121746   0.052   2.875   6.230 -2.4830  0.3401 -1.8602
 3428SOL    HW221747   0.085   2.850   6.369 -1.2231  0.1752  0.5875
 3429SOL     OW21748   3.719   3.065   5.243  0.1019  0.5040 -0.0391
 3429SOL    HW121749   3.808   3.093   5.266  1.2749 -1.8893 -1.7762
 3429SOL    HW221750   3.731   3.023   5.158  0.9232  0.5636  0.0415
 3430SOL     OW21751   0.591   1.144   3.038  0.0983 -0.6200 -0.1445
 3430SOL    HW121752   0.535   1.106   3.106 -1.3170  0.7460 -0.5466
 3430SOL    HW221753   0.649   1.193   3.097 -0.2292  2.0318 -2.0581
 3431SOL     OW21754   1.057   3.191   8.934  0.0308  0.5527 -0.4702
 3431SOL    HW121755   1.071   3.120   8.997 -0.7494  0.7165 -0.1122
 3431SOL    HW221756   0.969   3.163   8.912 -0.4128  0.8334  0.9475
 3432SOL     OW21757   3.102   0.185   3.757 -0.5021 -0.1558  0.2395
 3432SOL    HW121758   3.162   0.111   3.767  0.9085  0.8774 -0.6260
 3432SOL    HW221759   3.155   0.263   3.742  1.4413 -1.5624 -0.1483
 3433SOL     OW21760   3.625   4.523   5.649 -0.0047 -0.0978  0.2827
 3433SOL    HW121761   3.718   4.545   5.662 -0.1633  0.6302  0.1765
 3433SOL    HW221762   3.635   4.444   5.596  2.4548  0.0055  0.5531
 3434SOL     OW21763   4.393   3.582   6.906  0.5058 -0.3214 -0.5840
 3434SOL    HW121764   4.351   3.520   6.846 -0.4654 -0.8182  0.6163
 3434SOL    HW221765   4.441   3.532   6.972 -0.9180 -1.3787 -0.3498
 3435SOL     OW21766   3.830   2.474   6.979  0.0396 -0.1658  0.6495
 3435SOL    HW121767   3.735   2.466   6.967  0.1121 -0.0342 -0.0181
 3435SOL    HW221768   3.833   2.408   7.047 -1.4670 -2.4127 -1.4641
 3436SOL     OW21769   2.163   2.147   2.514 -0.1464  0.2952 -0.0862
 3436SOL    HW121770   2.143   2.240   2.500 -1.3162  0.2938  1.4621
 3436SOL    HW221771   2.104   2.121   2.585  1.0623 -0.7319  0.5375
 3437SOL     OW21772   2.340   2.446   6.122  0.6500 -0.6348 -0.0853
 3437SOL    HW121773   2.255   2.403   6.106 -1.0324  1.8390  2.2126
 3437SOL    HW221774   2.335   2.482   6.033  1.5274  0.0102  0.1265
 3438SOL     OW21775   2.590   4.695  15.946 -0.1090  0.6870  0.4364
 3438SOL    HW121776   2.596   0.022  15.866  0.3358 -0.3483 -0.2225
 3438SOL    HW221777   2.495   4.679  15.944  0.3770 -2.1940 -0.5651
 3439SOL     OW21778   1.669   0.103   3.376 -0.6786  0.4022  0.5696
 3439SOL    HW121779   1.698   0.194   3.381 -1.9326  0.8400 -0.1724
 3439SOL    HW221780   1.663   0.084   3.469 -3.0179  1.1982  0.5669
 3440SOL     OW21781   0.250   2.863   6.975 -0.4173  0.2006  0.2283
 3440SOL    HW121782   0.307   2.870   7.051 -0.0182  1.6536 -0.1883
 3440SOL    HW221783   0.317   2.880   6.908 -2.2256  3.1709 -0.8216
 3441SOL     OW21784   3.251   0.792  10.081 -0.7396  0.5049  0.3371
 3441SOL    HW121785   3.272   0.710  10.125  1.1163  0.3524 -0.8138
 3441SOL    HW221786   3.183   0.824  10.141 -1.8772  0.2220 -0.8129
 3442SOL     OW21787   2.914   1.377   0.012  0.0039 -0.2891 -0.5076
 3442SOL    HW121788   2.909   1.465  17.679 -2.1856 -0.8277 -1.5243
 3442SOL    HW221789   2.824   1.343   0.012 -0.1364  0.0765  0.2840
 3443SOL     OW21790   0.106   0.768   4.098  0.2821 -0.9264 -0.1295
 3443SOL    HW121791   0.023   0.726   4.120 -0.9010  2.0624  1.1748
 3443SOL    HW221792   0.089   0.855   4.133 -0.6407 -1.2845  0.3028
 3444SOL     OW21793   0.859   4.058  14.400  0.2087  0.6130 -0.1102
 3444SOL    HW121794   0.904   4.132  14.440 -0.7137  1.4331 -0.5829
 3444SOL    HW221795   0.769   4.083  14.423  1.0005  0.8779  2.6773
 3445SOL     OW21796   2.973   0.696   2.067  0.4408 -0.2296  0.2303
 3445SOL    HW121797   2.901   0.692   2.005  1.5464  0.3449 -1.0942
 3445SOL    HW221798   3.037   0.737   2.008 -0.9771  1.4012 -0.1793
 3446SOL     OW21799   4.228   1.402   6.783  0.1584 -0.0578  0.1937
 3446SOL    HW121800   4.304   1.426   6.730  0.2327  2.0483  1.2656
 3446SOL    HW221801   4.254   1.459   6.855 -2.7951  0.3735  0.9242
 3447SOL     OW21802   3.831   3.495   9.579 -0.1725  0.0950  0.6374
 3447SOL    HW121803   3.890   3.422   9.602 -0.5440 -0.3670  0.1430
 3447SOL    HW221804   3.890   3.540   9.518 -1.3240  0.3705 -0.2725
 3448SOL     OW21805   3.192   1.153   3.853 -0.0190  0.0574  0.1756
 3448SOL    HW121806   3.146   1.079   3.893 -0.0364  0.2329  0.4716
 3448SOL    HW221807   3.273   1.151   3.904  1.6299 -0.6002 -2.4364
 3449SOL     OW21808   0.649   2.614   5.362  0.0268  0.2067  0.0651
 3449SOL    HW121809   0.633   2.697   5.407  1.2078  1.6769 -2.2415
 3449SOL    HW221810   0.565   2.611   5.317  0.3720  1.4050 -0.6624
 3450SOL     OW21811   3.012   1.304   9.944  0.1434 -0.2886  0.1814
 3450SOL    HW121812   2.958   1.254  10.005  0.9392  0.2244  1.2954
 3450SOL    HW221813   3.081   1.324  10.007 -1.2059  1.6822  1.0348
 3451SOL     OW21814   2.166   3.873   5.507  0.0571  0.3616 -0.1749
 3451SOL    HW121815   2.151   3.887   5.600  0.4665  1.6877 -0.3079
 3451SOL    HW221816   2.233   3.938   5.484  0.0535  1.5471  3.2188
 3452SOL     OW21817   2.987   2.759   3.348  0.1664 -0.3057  0.0049
 3452SOL    HW121818   3.029   2.745   3.263  1.5065  3.3080  0.0613
 3452SOL    HW221819   2.894   2.755   3.327  0.8910 -1.0653 -3.1186
 3453SOL     OW21820   0.646   3.036   6.682 -0.2065  0.5429  0.1500
 3453SOL    HW121821   0.680   3.105   6.626  0.1464  1.2600  1.2363
 3453SOL    HW221822   0.725   3.001   6.724 -0.9476 -0.2836  0.8757
 3454SOL     OW21823   3.298   3.802  11.357  0.0943 -0.2432 -0.1439
 3454SOL    HW121824   3.286   3.897  11.367  2.4672 -0.1151  1.3876
 3454SOL    HW221825   3.212   3.769  11.381  0.1908 -1.1037 -0.9761
 3455SOL     OW21826   4.352   2.420   2.285 -0.1041  0.1692 -0.3675
 3455SOL    HW121827   4.438   2.388   2.261  0.7718  0.0482  2.9238
 3455SOL    HW221828   4.337   2.364   2.361  1.6333  0.0151 -0.1420
 3456SOL     OW21829   4.591   2.503   9.968 -0.7537  0.5615 -0.5043
 3456SOL    HW121830   4.512   2.461   9.932 -2.1802  1.6045  1.4474
 3456SOL    HW221831   4.632   2.431  10.016 -0.3009 -0.4501 -2.3960
 3457SOL     OW21832   0.567   1.371   7.240 -0.0141 -0.6023 -0.0001
 3457SOL    HW121833   0.474   1.355   7.258 -0.0365 -2.1529 -1.5106
 3457SOL    HW221834   0.600   1.310   7.305  1.6859 -0.5360 -0.8036
 3458SOL     OW21835   1.349   0.108   8.182 -0.4281  0.3559  0.5718
 3458SOL    HW121836   1.359   0.043   8.113 -0.5403  2.3618 -1.3378
 3458SOL    HW221837   1.395   0.178   8.137  0.3021 -1.3230 -1.2401
 3459SOL     OW21838   0.164   4.610   5.731 -0.2327  0.3158 -0.1637
 3459SOL    HW121839   0.240   4.555   5.715 -0.9581 -0.1079 -2.1680
 3459SOL    HW221840   0.195   4.697   5.706 -0.6902 -0.1919 -2.5170
 3460SOL     OW21841   1.008   1.033   6.921 -0.1273  0.7657  0.3000
 3460SOL    HW121842   0.933   1.082   6.887 -0.3822  0.8109  0.9228
 3460SOL    HW221843   0.980   1.010   7.010  0.0093 -0.4046  0.0446
 3461SOL     OW21844   0.322   3.155  10.228 -0.3369  0.1109 -0.0269
 3461SOL    HW121845   0.235   3.131  10.198 -0.6194 -1.4138  2.0136
 3461SOL    HW221846   0.340   3.223  10.163  1.5277 -0.8643 -0.5549
 3462SOL     OW21847   0.245   4.657  12.616  0.2379 -0.1000 -0.4911
 3462SOL    HW121848   0.179   4.614  12.671  0.6679 -0.2004 -0.0561
 3462SOL    HW221849   0.305   4.586  12.593  0.0248 -0.2329 -0.6417
 3463SOL     OW21850   3.466   0.188  17.695  0.3158  0.0823  0.4157
 3463SOL    HW121851   3.496   0.279  17.698 -1.3537  0.5978  1.4363
 3463SOL    HW221852   3.394   0.182  17.631  2.6321 -1.6582 -2.0106
 3464SOL     OW21853   4.402   4.406   2.223  0.3242  0.2012  0.1230
 3464SOL    HW121854   4.438   4.378   2.139 -1.5514  0.7783 -0.8759
 3464SOL    HW221855   4.482   4.403   2.275  0.9997 -0.1586 -0.9289
 3465SOL     OW21856   2.930   4.233   6.380  0.3411  0.1292  0.4215
 3465SOL    HW121857   2.875   4.190   6.445  1.0185 -0.8317  0.3654
 3465SOL    HW221858   3.009   4.180   6.394  0.1285 -0.0356  0.9714
 3466SOL     OW21859   3.302   4.313  10.260  0.6739 -0.3067  0.1977
 3466SOL    HW121860   3.284   4.283  10.349 -0.2949  1.9909  0.7830
 3466SOL    HW221861   3.216   4.340  10.227  1.5695  2.1970 -0.0572
 3467SOL     OW21862   1.581   1.601   7.369  0.3492  0.5316  0.0992
 3467SOL    HW121863   1.592   1.508   7.386 -0.7357  0.0029 -2.1444
 3467SOL    HW221864   1.640   1.599   7.294 -1.6718  3.0810 -1.5562
 3468SOL     OW21865   1.939   1.757  15.628 -0.3881 -0.2299 -0.1051
 3468SOL    HW121866   1.926   1.851  15.614 -1.0164 -0.2776  0.1360
 3468SOL    HW221867   1.856   1.717  15.603 -1.4616  0.8375  1.7025
 3469SOL     OW21868   2.733   0.199  14.044  0.1966  0.0998 -0.3260
 3469SOL    HW121869   2.774   0.275  14.003  1.3929 -1.0248 -1.1984
 3469SOL    HW221870   2.717   0.144  13.968  1.0338 -0.5254 -0.0502
 3470SOL     OW21871   2.781   0.012   7.379  0.1431  0.3849 -0.5442
 3470SOL    HW121872   2.857   4.687   7.409  0.2261  1.6408  1.3514
 3470SOL    HW221873   2.710   4.676   7.362  0.3923  0.1134 -0.6096
 3471SOL     OW21874   3.313   4.186   5.661 -0.4568  0.1627  0.0852
 3471SOL    HW121875   3.334   4.226   5.745 -2.5096  0.8114  0.2740
 3471SOL    HW221876   3.223   4.154   5.659 -0.0954 -0.8245 -0.3741
 3472SOL     OW21877   4.339   3.381   5.992  0.2550  0.5363  0.4176
 3472SOL    HW121878   4.250   3.352   6.011 -0.1014  0.9859 -0.5256
 3472SOL    HW221879   4.378   3.294   5.990  2.8985  1.7539 -2.3705
 3473SOL     OW21880   1.043   3.595   9.490 -0.4714 -0.2423 -0.0766
 3473SOL    HW121881   0.979   3.556   9.550 -1.9069  2.8733  0.3834
 3473SOL    HW221882   1.033   3.690   9.489  2.9032  0.1152  0.2354
 3474SOL     OW21883   1.735   3.715   2.016 -0.0448  0.0416 -0.5613
 3474SOL    HW121884   1.677   3.684   2.086 -0.4603  1.0494 -0.4513
 3474SOL    HW221885   1.666   3.739   1.954 -2.4120  0.4422  2.2310
 3475SOL     OW21886   2.977   4.242  16.617 -0.2867 -0.3517 -0.4269
 3475SOL    HW121887   2.984   4.337  16.631  1.3195 -0.7320  1.5096
 3475SOL    HW221888   2.962   4.240  16.523 -0.5532 -1.7400 -0.3538
 3476SOL     OW21889   4.382   2.542   7.716 -0.2822  0.2418  0.4061
 3476SOL    HW121890   4.296   2.568   7.749  0.7869  2.3952  1.4554
 3476SOL    HW221891   4.366   2.456   7.677 -1.1652  0.2169  0.8254
 3477SOL     OW21892   2.071   3.006   2.399 -0.4497  0.3778  0.1006
 3477SOL    HW121893   2.014   2.961   2.463  1.5442 -1.8611  0.3283
 3477SOL    HW221894   2.036   3.095   2.401 -0.5193  0.3408  0.6103
 3478SOL     OW21895   2.127   1.729   5.445  0.0673  0.1273  0.3765
 3478SOL    HW121896   2.099   1.649   5.490  0.8040 -1.2048 -1.5526
 3478SOL    HW221897   2.055   1.742   5.382  1.5798  1.3741 -1.0923
 3479SOL     OW21898   1.566   2.815  13.727 -0.5491  0.3685 -0.1756
 3479SOL    HW121899   1.533   2.904  13.714 -2.3592 -0.1356  1.0753
 3479SOL    HW221900   1.593   2.799  13.636 -1.9102  0.5910 -0.6178
 3480SOL     OW21901   4.475   3.182   8.854 -0.1414 -0.3183 -0.5548
 3480SOL    HW121902   4.540   3.250   8.838 -0.8729  1.1958  2.8462
 3480SOL    HW221903   4.522   3.108   8.892 -1.8404 -1.1910 -0.1517
 3481SOL     OW21904   0.585   3.191   5.953  0.2357 -0.5384 -0.6353
 3481SOL    HW121905   0.514   3.236   6.000 -1.3407 -0.7355 -2.7986
 3481SOL    HW221906   0.583   3.117   6.013  0.1498  2.5196  3.0860
 3482SOL     OW21907   0.022   1.863   1.961 -0.4039 -0.6042  0.0033
 3482SOL    HW121908   0.052   1.947   1.996  1.3413 -0.4870 -1.7805
 3482SOL    HW221909   4.700   1.832   2.038 -0.7689 -0.6545 -0.2409
 3483SOL     OW21910   4.193   1.796   8.922  0.2655  0.1594 -0.7425
 3483SOL    HW121911   4.122   1.855   8.899 -1.5852 -2.7660 -2.5999
 3483SOL    HW221912   4.167   1.708   8.894  2.0665 -1.0824  1.5157
 3484SOL     OW21913   4.409   1.420   6.580  0.3330  0.4309  0.2812
 3484SOL    HW121914   4.499   1.438   6.556  0.8382 -1.2189  0.9186
 3484SOL    HW221915   4.363   1.393   6.500  0.5832 -1.0146  0.6265
 3485SOL     OW21916   2.644   4.001  11.734  0.2376  0.3440 -0.3139
 3485SOL    HW121917   2.566   3.946  11.735  0.7076 -0.2957  1.0788
 3485SOL    HW221918   2.644   4.033  11.824  0.3543  2.0047 -0.9040
 3486SOL     OW21919   1.017   4.663   5.460 -0.2146 -0.0767  0.0646
 3486SOL    HW121920   1.083   4.594   5.466 -0.7649 -0.3717  2.7438
 3486SOL    HW221921   1.079   0.007   5.480 -1.6474  1.5826 -1.3246
 3487SOL     OW21922   0.357   1.680   8.880  0.1698 -0.2822 -0.8161
 3487SOL    HW121923   0.356   1.651   8.971  1.2476  0.9581 -0.4070
 3487SOL    HW221924   0.279   1.736   8.876 -1.1924 -2.1008  0.2685
 3488SOL     OW21925   3.027   4.574  15.765 -0.2632  0.1592  0.0564
 3488SOL    HW121926   3.115   4.578  15.728 -0.8546  2.6066 -1.0616
 3488SOL    HW221927   3.018   4.664  15.796 -0.7732 -0.1245  0.7443
 3489SOL     OW21928   2.681   2.326   7.151 -0.0539  0.0355  0.4068
 3489SOL    HW121929   2.710   2.385   7.220  1.6669  0.5275 -0.7490
 3489SOL    HW221930   2.613   2.381   7.113  0.0365  0.4263  0.8237
 3490SOL     OW21931   2.895   1.500   2.276 -0.0681 -1.1305  1.1955
 3490SOL    HW121932   2.935   1.563   2.336  0.0466  1.5620 -1.7041
 3490SOL    HW221933   2.868   1.560   2.206 -1.0713 -1.7883  1.0197
 3491SOL     OW21934   0.993   1.652   7.175  0.4115  0.2208 -0.5933
 3491SOL    HW121935   0.985   1.579   7.236  1.4009  0.3707 -0.2845
 3491SOL    HW221936   0.951   1.611   7.099  2.4031 -1.2953 -0.8650
 3492SOL     OW21937   2.985   2.649  10.407  0.2683  0.0702 -0.3757
 3492SOL    HW121938   3.075   2.616  10.415  0.4251  0.4170 -0.7425
 3492SOL    HW221939   2.954   2.584  10.344  1.5413  0.1669 -1.1025
 3493SOL     OW21940   2.748   2.045   5.175 -0.1999 -0.0999  0.3037
 3493SOL    HW121941   2.785   2.127   5.143 -0.3747  0.1013  0.6130
 3493SOL    HW221942   2.746   1.990   5.097 -1.1320  1.0282 -0.4640
 3494SOL     OW21943   2.096   1.133   6.781 -0.4023  0.2589  0.8615
 3494SOL    HW121944   2.092   1.042   6.811 -1.9402  0.4243  1.1434
 3494SOL    HW221945   2.165   1.169   6.836  1.3949 -0.3692 -0.9930
 3495SOL     OW21946   3.077   3.632   8.054 -0.1243  0.0848  0.1946
 3495SOL    HW121947   3.028   3.562   8.099 -1.1527  0.6887  0.0208
 3495SOL    HW221948   3.158   3.581   8.060  0.8007  1.5623  0.3349
 3496SOL     OW21949   3.443   3.608   6.035 -0.9295  0.5869  0.4446
 3496SOL    HW121950   3.504   3.614   5.962 -0.9588 -2.5086  0.1666
 3496SOL    HW221951   3.362   3.579   5.994 -1.6325  1.3120  1.3437
 3497SOL     OW21952   2.154   0.261   7.239  0.3732  0.3560  0.1227
 3497SOL    HW121953   2.147   0.253   7.144 -4.1999  0.5812  0.4706
 3497SOL    HW221954   2.127   0.352   7.249 -0.5771  0.1484 -0.5901
 3498SOL     OW21955   3.530   1.255   5.423 -0.1164 -0.1036  0.6376
 3498SOL    HW121956   3.576   1.335   5.447 -2.6209  1.5587 -0.1282
 3498SOL    HW221957   3.601   1.191   5.431  2.2609  2.5074  0.1403
 3499SOL     OW21958   3.231   0.454   0.194  0.6519 -0.5370 -0.3612
 3499SOL    HW121959   3.324   0.476   0.184  0.9389 -0.5318  2.4851
 3499SOL    HW221960   3.193   0.542   0.190  1.1718 -0.2276  1.6801
 3500SOL     OW21961   0.908   3.802   4.453  0.3404  0.2180  0.1966
 3500SOL    HW121962   1.000   3.814   4.430 -0.0095  0.8106 -0.9230
 3500SOL    HW221963   0.858   3.857   4.392 -2.0665  1.7355  3.5543
 3501SOL     OW21964   0.247   3.856   2.028  0.2695  0.2045  0.2389
 3501SOL    HW121965   0.238   3.908   2.109  1.8927 -0.7648  1.0274
 3501SOL    HW221966   0.251   3.764   2.052  0.1437  0.3841  0.9630
 3502SOL     OW21967   1.855   4.023   5.987 -0.1471 -0.1313 -0.3852
 3502SOL    HW121968   1.935   4.000   6.033  0.6397 -1.9163 -2.6388
 3502SOL    HW221969   1.791   4.018   6.058  0.8048 -3.1236  0.2264
 3503SOL     OW21970   0.520   4.015   2.636 -0.6984 -0.0233 -0.3656
 3503SOL    HW121971   0.468   4.033   2.715  0.2375 -1.3343  0.5505
 3503SOL    HW221972   0.606   3.988   2.669 -0.0696 -1.0712 -2.9071
 3504SOL     OW21973   2.122   4.470   7.456  0.4290  0.2856 -0.1402
 3504SOL    HW121974   2.206   4.517   7.460  0.2026  0.7086 -0.2775
 3504SOL    HW221975   2.088   4.441   7.540  1.2119 -1.7246 -0.5289
 3505SOL     OW21976   1.252   0.636   1.008  0.0773  0.1875  0.2210
 3505SOL    HW121977   1.171   0.679   0.979 -0.7792 -2.2186 -0.9527
 3505SOL    HW221978   1.247   0.627   1.103  2.7168  1.7317  0.5046
 3506SOL     OW21979   0.633   0.836   9.354 -0.3972 -0.3700  0.4814
 3506SOL    HW121980   0.679   0.860   9.274 -0.6490 -0.6436  0.2567
 3506SOL    HW221981   0.706   0.808   9.411  1.1350  0.8122 -0.8949
 3507SOL     OW21982   1.236   0.987  17.061 -0.1677 -0.1081  0.5957
 3507SOL    HW121983   1.184   0.985  17.142  3.1495 -1.4561  2.7031
 3507SOL    HW221984   1.300   1.057  17.070 -0.4555  0.0891  1.1339
 3508SOL     OW21985   2.437   2.719  10.019 -0.2250 -0.0604  0.0182
 3508SOL    HW121986   2.425   2.625  10.033  1.1223 -0.2100  0.1731
 3508SOL    HW221987   2.482   2.718   9.934  2.1831 -1.3626  1.3092
 3509SOL     OW21988   4.537   1.138  11.111 -0.1141 -0.2823  0.0202
 3509SOL    HW121989   4.476   1.198  11.068 -0.0629  0.7707  1.4406
 3509SOL    HW221990   4.564   1.081  11.039  0.8894  0.2567 -0.0351
 3510SOL     OW21991   1.757   2.920   9.485 -0.2003 -0.1799 -0.3171
 3510SOL    HW121992   1.815   2.993   9.510 -1.5702  0.3910  1.2218
 3510SOL    HW221993   1.818   2.852   9.457 -0.8983 -0.9657  0.0747
 3511SOL     OW21994   3.847   2.493   8.195  0.1338  0.3525 -0.3553
 3511SOL    HW121995   3.859   2.587   8.184 -1.1914  0.7227  1.3121
 3511SOL    HW221996   3.926   2.454   8.159 -0.7163 -0.5084 -1.3100
 3512SOL     OW21997   2.360   4.211   7.647  0.1560  0.0326 -0.0396
 3512SOL    HW121998   2.279   4.245   7.607 -0.7474  0.0696  1.8251
 3512SOL    HW221999   2.359   4.247   7.735 -0.4410  0.2352 -0.1268
 3513SOL     OW22000   1.601   4.293   3.757  0.2560  0.4824 -0.2749
 3513SOL    HW122001   1.651   4.321   3.680 -0.2899  2.5429  0.1003
 3513SOL    HW222002   1.623   4.201   3.770  1.3045  0.8068  0.3320
 3514SOL     OW22003   2.380   4.265   8.669 -0.0991  0.0897 -0.3473
 3514SOL    HW122004   2.395   4.170   8.675  0.9480  0.3473  1.1810
 3514SOL    HW222005   2.426   4.294   8.748 -0.3537  0.1559 -0.2253
 3515SOL     OW22006   2.585   4.144   8.041 -0.1452  0.5746  0.2437
 3515SOL    HW122007   2.588   4.070   8.101 -1.6502 -1.4477 -2.1328
 3515SOL    HW222008   2.659   4.123   7.984 -0.2601  0.4442  0.1421
 3516SOL     OW22009   2.802   2.825   7.604  0.1099 -0.0764 -0.3255
 3516SOL    HW122010   2.772   2.908   7.566  2.0091  0.7087 -0.1145
 3516SOL    HW222011   2.890   2.821   7.569  0.1624  0.0492 -0.2093
 3517SOL     OW22012   2.368   3.724  15.003  0.2111  0.2723 -0.1841
 3517SOL    HW122013   2.277   3.752  14.994  0.9847  2.9992  0.5587
 3517SOL    HW222014   2.363   3.661  15.075 -1.7517  0.6671  0.0205
 3518SOL     OW22015   3.513   3.905  17.230  0.0508  0.1555 -0.0677
 3518SOL    HW122016   3.431   3.925  17.184 -0.2035  1.0809  0.7818
 3518SOL    HW222017   3.566   3.973  17.188 -1.1634  1.2159  0.1139
 3519SOL     OW22018   4.081   1.778   3.652  0.9699  0.0330  0.1044
 3519SOL    HW122019   4.171   1.784   3.620  1.0600 -0.6692  0.2076
 3519SOL    HW222020   4.043   1.853   3.607  0.9112 -1.0844 -1.6841
 3520SOL     OW22021   0.342   2.968   2.836 -0.4300  0.1831 -0.0491
 3520SOL    HW122022   0.360   3.037   2.772  1.1567  0.0148  0.2260
 3520SOL    HW222023   0.387   2.899   2.788 -0.8356  0.0616 -0.2596
 3521SOL     OW22024   0.013   0.404   3.317  0.4592  0.2428 -0.5002
 3521SOL    HW122025   0.022   0.497   3.297  0.8951  0.2339 -0.3375
 3521SOL    HW222026   0.105   0.385   3.300 -0.6078 -3.7302 -1.9468
 3522SOL     OW22027   0.225   4.415  14.614  0.6358  0.4671  0.6750
 3522SOL    HW122028   0.194   4.506  14.616 -3.6011 -0.9525 -1.4278
 3522SOL    HW222029   0.144   4.365  14.625  0.0426  1.1666 -0.5601
 3523SOL     OW22030   4.672   1.415   9.049 -0.4362  0.3505 -0.3411
 3523SOL    HW122031   0.001   1.401   8.972 -1.9137 -0.0426 -1.3060
 3523SOL    HW222032   4.722   1.475   9.105  0.4401 -0.1129 -0.6224
 3524SOL     OW22033   3.297   0.070  14.456 -0.7304  0.2449  0.2338
 3524SOL    HW122034   3.244   0.087  14.378  3.1486 -1.0509 -2.6940
 3524SOL    HW222035   3.233   0.050  14.524 -1.9015  0.9228 -0.6578
 3525SOL     OW22036   4.009   2.352  10.666 -0.3589  0.3597 -0.0503
 3525SOL    HW122037   3.919   2.325  10.684 -0.3062  1.2938  1.6405
 3525SOL    HW222038   4.060   2.287  10.714 -1.5958 -1.7228 -1.5390
 3526SOL     OW22039   1.986   2.598   8.391  0.1765  0.4450 -0.9038
 3526SOL    HW122040   1.947   2.652   8.322  0.3413  0.4218 -1.0154
 3526SOL    HW222041   2.037   2.536   8.339 -0.2639 -2.3178  1.9495
 3527SOL     OW22042   0.512   0.980   8.452  0.0644  0.4533 -0.4756
 3527SOL    HW122043   0.418   0.997   8.442  0.0032 -0.1382 -0.9145
 3527SOL    HW222044   0.552   1.058   8.415  1.8400 -0.0311  0.4205
 3528SOL     OW22045   2.260   1.544   8.773  0.3873  0.2077 -0.1565
 3528SOL    HW122046   2.344   1.589   8.777 -0.5794  1.9277  1.0286
 3528SOL    HW222047   2.234   1.548   8.681 -1.4534 -0.4372  0.3294
 3529SOL     OW22048   3.580   0.997   4.742 -0.0331  0.2802 -0.1612
 3529SOL    HW122049   3.499   0.996   4.793 -0.3896 -0.7920 -0.7495
 3529SOL    HW222050   3.630   1.068   4.782 -1.1241  0.5808  0.6731
 3530SOL     OW22051   1.459   2.240  10.495  0.1624 -0.3998  0.3965
 3530SOL    HW122052   1.367   2.266  10.487  0.3128  0.5449  1.7935
 3530SOL    HW222053   1.496   2.327  10.481 -0.5251 -0.0430  0.7498
 3531SOL     OW22054   1.303   4.173   1.656  0.0395 -0.0355 -0.5390
 3531SOL    HW122055   1.298   4.088   1.699  4.2437  0.3838  0.7540
 3531SOL    HW222056   1.236   4.156   1.591 -0.2653 -1.0777  0.0471
 3532SOL     OW22057   1.368   2.853  11.100  0.5205  0.0333 -0.1859
 3532SOL    HW122058   1.276   2.842  11.078  0.5479 -0.7400  0.0997
 3532SOL    HW222059   1.407   2.802  11.030 -0.6078 -0.2484 -0.6077
 3533SOL     OW22060   4.507   3.532   4.014 -0.0594 -0.1072  0.8192
 3533SOL    HW122061   4.458   3.611   4.037  0.5721 -0.0172  1.8230
 3533SOL    HW222062   4.580   3.568   3.964 -1.8136  0.3720 -1.4135
 3534SOL     OW22063   0.540   4.533   8.305 -0.2519 -0.1242  0.3124
 3534SOL    HW122064   0.556   4.627   8.315 -1.0302  0.3634 -2.8215
 3534SOL    HW222065   0.450   4.533   8.271 -0.5245 -1.7224  1.0807
 3535SOL     OW22066   3.356   0.074   2.453 -0.3253  0.1614  0.1179
 3535SOL    HW122067   3.323   0.065   2.364  0.4940  1.2145 -0.2793
 3535SOL    HW222068   3.388   0.164   2.445 -1.6987  0.5472 -1.0325
 3536SOL     OW22069   1.402   0.749  12.618  0.8951 -0.6031  0.5340
 3536SOL    HW122070   1.338   0.683  12.591 -0.2484  0.2104  1.2446
 3536SOL    HW222071   1.476   0.715  12.568  0.1500 -1.9292  0.3264
 3537SOL     OW22072   1.310   1.890   4.491  0.3526  0.1824 -0.2788
 3537SOL    HW122073   1.396   1.863   4.523  0.9300  0.9423 -1.1683
 3537SOL    HW222074   1.278   1.932   4.570 -0.5131  1.0597 -1.0857
 3538SOL     OW22075   2.890   1.954   7.649 -0.1937 -0.1369  0.2606
 3538SOL    HW122076   2.898   2.025   7.713  1.2206  0.1078 -0.1852
 3538SOL    HW222077   2.847   1.895   7.711 -0.4240  0.5481  0.7512
 3539SOL     OW22078   2.920   1.428  15.090  0.2406 -0.4890 -0.1755
 3539SOL    HW122079   2.828   1.429  15.063  0.0680  2.4766  0.5335
 3539SOL    HW222080   2.956   1.473  15.013  0.2346 -1.1371 -0.5609
 3540SOL     OW22081   1.574   1.505   3.789 -0.5152 -0.3005  0.2051
 3540SOL    HW122082   1.560   1.475   3.879 -0.2536 -2.5792 -0.5195
 3540SOL    HW222083   1.670   1.499   3.792 -0.3245  1.3167 -2.8895
 3541SOL     OW22084   3.867   3.733   8.763 -0.6035  0.3939 -0.1229
 3541SOL    HW122085   3.899   3.689   8.841  1.3135  1.3331 -0.3795
 3541SOL    HW222086   3.838   3.819   8.793  0.5545  0.6396  0.2603
 3542SOL     OW22087   1.115   0.639  13.794  0.1767 -0.4303  0.2889
 3542SOL    HW122088   1.030   0.649  13.752  0.0076  0.7510  0.9304
 3542SOL    HW222089   1.136   0.731  13.783 -1.3859 -0.1301 -0.1187
 3543SOL     OW22090   3.040   2.327   6.215 -0.2425 -0.1837 -0.4768
 3543SOL    HW122091   3.057   2.240   6.253 -1.0010 -1.2498 -2.5526
 3543SOL    HW222092   3.114   2.378   6.247 -0.0736 -0.6902 -0.0461
 3544SOL     OW22093   3.354   4.716   3.704  0.0632 -0.7037  0.6416
 3544SOL    HW122094   3.397   0.067   3.667  0.7041 -1.7790 -0.8448
 3544SOL    HW222095   3.387   4.647   3.646 -0.8971 -0.1267 -0.5994
 3545SOL     OW22096   2.278   4.629  16.781 -0.1799  0.2559  0.1748
 3545SOL    HW122097   2.238   4.698  16.727  2.5438 -0.8003 -3.1740
 3545SOL    HW222098   2.214   4.559  16.792 -0.2815  0.3500  0.1876
 3546SOL     OW22099   2.891   1.404   3.127  0.0794 -0.9666  0.4846
 3546SOL    HW122100   2.812   1.351   3.121 -0.9105  0.5726 -0.1117
 3546SOL    HW222101   2.919   1.415   3.036 -1.5284  1.6714  0.2913
 3547SOL     OW22102   3.633   3.650  11.771  0.3388  0.0356  0.7749
 3547SOL    HW122103   3.588   3.733  11.753 -1.0806 -1.0315 -0.6730
 3547SOL    HW222104   3.723   3.664  11.743  1.2141  0.5360  3.8361
 3548SOL     OW22105   3.972   4.290  14.833 -0.0395 -0.6310  0.0251
 3548SOL    HW122106   4.009   4.217  14.783  0.5323 -0.9198  0.8662
 3548SOL    HW222107   4.049   4.347  14.829 -1.4868  1.3098 -0.2465
 3549SOL     OW22108   0.157   0.714  12.385  0.1518 -0.0989 -0.2685
 3549SOL    HW122109   0.114   0.734  12.302 -0.0756 -1.7777 -0.5508
 3549SOL    HW222110   0.081   0.734  12.439 -0.7806 -1.0694 -1.2450
 3550SOL     OW22111   0.003   3.412  15.917 -0.0368  0.0477  0.7022
 3550SOL    HW122112   4.683   3.457  15.988 -1.2069 -0.2427  0.1300
 3550SOL    HW222113   4.684   3.327  15.922  0.3335 -0.2112 -0.3638
 3551SOL     OW22114   1.913   2.331   1.764  0.0787 -0.3670  0.0651
 3551SOL    HW122115   1.886   2.381   1.687  0.6240 -2.9184 -1.7773
 3551SOL    HW222116   1.834   2.342   1.818  1.6059  0.0231  2.1932
 3552SOL     OW22117   2.790   1.013   1.752 -0.5433 -0.1116  0.3012
 3552SOL    HW122118   2.700   1.024   1.782 -0.6152  1.2068 -0.3800
 3552SOL    HW222119   2.786   1.003   1.657 -0.8947  1.0318  0.2034
 3553SOL     OW22120   3.223   2.488   2.314  0.2698 -0.2477 -0.5774
 3553SOL    HW122121   3.299   2.480   2.257  1.0343 -0.9006  0.5296
 3553SOL    HW222122   3.270   2.522   2.391  1.8139  0.5859 -1.8756
 3554SOL     OW22123   3.729   2.925  10.420 -0.3109  0.2926  0.1827
 3554SOL    HW122124   3.761   3.015  10.432  2.1293 -0.5161 -0.2612
 3554SOL    HW222125   3.811   2.878  10.433 -0.4505 -0.6974 -2.4015
 3555SOL     OW22126   2.622   0.572  17.592  0.1460 -0.4574  0.0826
 3555SOL    HW122127   2.618   0.654  17.641 -1.0361 -0.0046 -0.7442
 3555SOL    HW222128   2.716   0.558  17.592  0.0721 -0.9152  1.5576
 3556SOL     OW22129   0.721   2.792   7.512 -0.3282  0.0429  0.1508
 3556SOL    HW122130   0.734   2.705   7.473  1.2900  0.4140 -0.1531
 3556SOL    HW222131   0.790   2.841   7.467 -1.2462  1.4837  0.3297
 3557SOL     OW22132   0.539   4.299   7.104 -0.4538 -0.3309  0.0756
 3557SOL    HW122133   0.450   4.327   7.127 -0.8126 -1.8836  0.6135
 3557SOL    HW222134   0.579   4.383   7.127 -0.1523  0.7108 -4.3218
 3558SOL     OW22135   1.794   3.072   2.639 -0.0198 -0.7124  0.0455
 3558SOL    HW122136   1.842   2.997   2.604  3.1941  0.9877  0.7573
 3558SOL    HW222137   1.771   3.029   2.722  0.3375 -0.1129  0.4577
 3559SOL     OW22138   3.290   1.111   3.595 -0.7748  0.0218  0.0075
 3559SOL    HW122139   3.248   1.114   3.681  0.1318  1.5576  0.4023
 3559SOL    HW222140   3.354   1.182   3.605 -0.6865 -0.4165  2.4765
 3560SOL     OW22141   2.778   0.733   2.492 -0.6497 -0.2412 -0.5437
 3560SOL    HW122142   2.811   0.681   2.565 -0.6371  0.1566 -0.2664
 3560SOL    HW222143   2.854   0.761   2.441 -0.6967  1.0078  0.0666
 3561SOL     OW22144   2.871   3.332   4.745  0.1292  0.1456  0.7532
 3561SOL    HW122145   2.874   3.324   4.841  2.5298 -1.2184  0.5517
 3561SOL    HW222146   2.778   3.310   4.732 -0.0417  0.3184  1.6520
 3562SOL     OW22147   3.178   0.196  10.508  0.3816 -0.0441  0.5430
 3562SOL    HW122148   3.217   0.125  10.559 -0.9409 -0.4672  0.9418
 3562SOL    HW222149   3.246   0.264  10.504  1.8157 -1.6859 -2.7838
 3563SOL     OW22150   0.568   1.740  13.094  0.4528  0.5073 -0.1336
 3563SOL    HW122151   0.659   1.712  13.106  0.2015  0.3373  1.3576
 3563SOL    HW222152   0.577   1.835  13.091 -0.6017  0.6684  2.0331
 3564SOL     OW22153   1.494   2.294   7.924 -0.0562 -0.6533 -0.1822
 3564SOL    HW122154   1.529   2.273   8.010  0.1789 -1.5224 -0.4871
 3564SOL    HW222155   1.571   2.288   7.866 -0.3554  1.1104 -0.7560
 3565SOL     OW22156   3.662   3.577   6.441  0.2829 -0.3280  0.0639
 3565SOL    HW122157   3.639   3.495   6.399  0.6993 -1.5128  2.1539
 3565SOL    HW222158   3.576   3.619   6.448  0.9807  1.2171 -0.4348
 3566SOL     OW22159   3.029   2.521   1.439 -0.2524 -0.0295 -0.4038
 3566SOL    HW122160   2.948   2.564   1.411 -1.0638 -0.2199  1.6784
 3566SOL    HW222161   3.073   2.605   1.456 -1.7130  0.5626  0.4959
 3567SOL     OW22162   1.242   1.116   2.960 -0.0001 -0.0422  0.1584
 3567SOL    HW122163   1.310   1.049   2.967  0.0574 -0.1505 -1.3095
 3567SOL    HW222164   1.166   1.068   2.992  0.3706 -1.2368 -0.7534
 3568SOL     OW22165   0.064   3.406   2.285 -0.0252 -0.3902 -0.0731
 3568SOL    HW122166   0.138   3.358   2.322  1.4917  0.5564 -1.9118
 3568SOL    HW222167   0.006   3.386   2.359  0.7477 -0.3956  0.5351
 3569SOL     OW22168   0.335   1.751   6.705  0.0320  0.0827  0.3031
 3569SOL    HW122169   0.258   1.797   6.670 -1.6532 -3.6252 -0.8539
 3569SOL    HW222170   0.381   1.724   6.625 -2.0023  1.1328 -1.2162
 3570SOL     OW22171   1.619   2.344   2.625  0.3281 -0.3305  0.6465
 3570SOL    HW122172   1.558   2.392   2.569  1.8792 -0.0832 -0.8400
 3570SOL    HW222173   1.605   2.258   2.586  2.7887 -0.4504  0.0166
 3571SOL     OW22174   2.798   0.276   9.149  0.2636 -1.2245  0.1311
 3571SOL    HW122175   2.837   0.213   9.088 -1.1218 -0.9789 -1.0378
 3571SOL    HW222176   2.835   0.361   9.122 -0.3081  0.0560  3.4204
 3572SOL     OW22177   3.553   4.638  15.465  0.4001  0.2780  0.3479
 3572SOL    HW122178   3.638   4.671  15.495  0.9787 -1.8929  1.0654
 3572SOL    HW222179   3.591   4.554  15.440 -0.2422 -0.2909  1.2901
 3573SOL     OW22180   3.721   3.198   7.121 -0.5369  0.1408 -0.0754
 3573SOL    HW122181   3.765   3.193   7.036  0.1929 -0.8744  0.3546
 3573SOL    HW222182   3.741   3.289   7.147  3.7500 -0.0194 -2.7566
 3574SOL     OW22183   4.438   2.309  17.304 -0.3719 -1.0951 -0.0741
 3574SOL    HW122184   4.515   2.284  17.254 -0.0531 -0.5401  0.1455
 3574SOL    HW222185   4.441   2.252  17.381  1.5670 -0.7201  0.1170
 3575SOL     OW22186   3.749   1.816   1.524 -0.1865 -0.7520 -0.7068
 3575SOL    HW122187   3.665   1.802   1.479 -0.8671  0.1870  0.2539
 3575SOL    HW222188   3.771   1.908   1.509  1.5271 -1.1428 -0.5725
 3576SOL     OW22189   4.050   1.115  11.574  0.3934 -0.3069 -0.3197
 3576SOL    HW122190   4.104   1.127  11.652  0.4625 -2.9465  0.0583
 3576SOL    HW222191   4.116   1.125  11.506 -1.0789  2.5053 -1.2984
 3577SOL     OW22192   3.781   1.368   2.549 -0.0191  0.1279  0.1627
 3577SOL    HW122193   3.821   1.283   2.567 -1.7700 -0.2716  2.1721
 3577SOL    HW222194   3.856   1.426   2.535  1.3008 -1.8539 -0.9311
 3578SOL     OW22195   4.293   4.490  13.626 -0.2998 -0.1938 -0.2192
 3578SOL    HW122196   4.339   4.435  13.689 -0.0554 -0.4082 -0.5850
 3578SOL    HW222197   4.245   4.538  13.694  1.1723  0.6813  0.1946
 3579SOL     OW22198   2.474   3.500   5.512  0.0062  0.9576  0.6315
 3579SOL    HW122199   2.568   3.519   5.509  0.0803 -0.1570 -2.9816
 3579SOL    HW222200   2.472   3.459   5.426 -1.4030 -0.8197  1.5128
 3580SOL     OW22201   0.284   3.557   9.935  0.3993  0.2522 -0.5035
 3580SOL    HW122202   0.188   3.567   9.941  0.3935  0.1678 -0.4603
 3580SOL    HW222203   0.311   3.615  10.006 -1.5954 -0.9092  1.2308
 3581SOL     OW22204   0.503   3.094   5.653 -0.0520  0.3781 -0.4278
 3581SOL    HW122205   0.538   3.149   5.583  0.2122  1.3425  0.4641
 3581SOL    HW222206   0.534   3.133   5.735  0.7681 -0.5435 -0.2929
 3582SOL     OW22207   1.927   2.394   4.049  0.5788 -0.8514  0.1035
 3582SOL    HW122208   1.867   2.468   4.038 -1.6651 -2.5662  0.8741
 3582SOL    HW222209   1.891   2.353   3.971 -1.8008  1.2298  0.1048
 3583SOL     OW22210   3.864   0.256   8.010 -0.3171 -0.0150 -0.2161
 3583SOL    HW122211   3.875   0.329   8.071  0.9876 -1.5975  1.4645
 3583SOL    HW222212   3.785   0.283   7.963  0.4993  1.2760 -0.8597
 3584SOL     OW22213   1.428   0.689   7.359  0.1167 -0.1570 -0.1501
 3584SOL    HW122214   1.473   0.703   7.442  1.5116  0.1663 -0.9714
 3584SOL    HW222215   1.413   0.780   7.333  1.1728 -0.1228 -0.6191
 3585SOL     OW22216   0.229   0.139   7.908  0.0146  0.1545  0.4955
 3585SOL    HW122217   0.144   0.167   7.874  0.6666 -0.3610 -1.5624
 3585SOL    HW222218   0.204   0.098   7.991 -1.8556  0.2862  0.0073
 3586SOL     OW22219   3.800   0.534   6.699 -0.0440  0.2984  0.4003
 3586SOL    HW122220   3.705   0.543   6.687 -0.2094  1.3085  2.3850
 3586SOL    HW222221   3.820   0.588   6.776  0.0965  0.7173  0.0711
 3587SOL     OW22222   1.806   1.011   9.225 -0.1354 -0.1237  0.5843
 3587SOL    HW122223   1.816   0.968   9.310  2.6732 -1.1371 -0.2534
 3587SOL    HW222224   1.748   1.083   9.249  0.0107  0.3243 -0.4339
 3588SOL     OW22225   1.648   3.781   8.876  0.4961 -0.7787  0.0897
 3588SOL    HW122226   1.719   3.733   8.833  0.4663  1.1265 -2.0397
 3588SOL    HW222227   1.689   3.864   8.902 -1.9999  0.1659  1.0327
 3589SOL     OW22228   1.698   1.328  17.642  0.0584  0.1686  0.4999
 3589SOL    HW122229   1.676   1.309  17.551  1.7977  0.6674 -0.0262
 3589SOL    HW222230   1.762   1.399  17.648  0.1448  0.0876  0.5435
 3590SOL     OW22231   2.916   3.030   4.887 -0.4454 -0.0080  0.0171
 3590SOL    HW122232   2.979   3.067   4.949 -0.5483 -1.0233  0.7268
 3590SOL    HW222233   2.943   2.939   4.895  1.0512  0.4410 -0.0854
 3591SOL     OW22234   2.756   4.018  17.116  0.5469 -0.0408  0.1514
 3591SOL    HW122235   2.718   4.080  17.179  0.1467 -0.0326 -0.1022
 3591SOL    HW222236   2.731   4.057  17.032 -1.3616  0.4217  0.9312
 3592SOL     OW22237   1.906   3.398   4.483  0.4120  0.0443  0.0164
 3592SOL    HW122238   1.898   3.393   4.388  1.1252  1.2926 -0.0972
 3592SOL    HW222239   1.816   3.424   4.504 -0.4291 -2.7130 -0.1420
 3593SOL     OW22240   3.577   0.769   1.946 -0.0625 -0.1530  0.1883
 3593SOL    HW122241   3.655   0.730   1.905 -0.3384  0.6482 -1.0538
 3593SOL    HW222242   3.591   0.746   2.038  0.8792 -1.4478 -0.2755
 3594SOL     OW22243   1.809   2.050   6.876  0.3981 -0.1604 -0.3276
 3594SOL    HW122244   1.795   2.124   6.935  0.8723 -0.4772  0.1895
 3594SOL    HW222245   1.904   2.043   6.884  0.5196  2.8780  0.7704
 3595SOL     OW22246   1.463   4.156   4.292  1.1495 -0.0405 -0.0379
 3595SOL    HW122247   1.384   4.204   4.317  0.4560 -1.8595  1.2511
 3595SOL    HW222248   1.489   4.203   4.213  0.5328  0.9617  0.3585
 3596SOL     OW22249   1.459   2.038   3.989 -0.2502  0.4022 -0.3698
 3596SOL    HW122250   1.524   1.977   3.954  0.9561  1.9309 -0.7539
 3596SOL    HW222251   1.457   2.019   4.083  0.0822  0.7824 -0.2882
 3597SOL     OW22252   3.681   2.563   4.248  0.5060 -0.6118  0.1806
 3597SOL    HW122253   3.713   2.507   4.320  2.3450  0.8354  0.4640
 3597SOL    HW222254   3.591   2.533   4.234 -0.1020  1.1823  0.2989
 3598SOL     OW22255   4.415   3.660   1.899  0.3655 -0.1798  0.1130
 3598SOL    HW122256   4.419   3.585   1.959  0.4924  0.9554  1.5256
 3598SOL    HW222257   4.503   3.693   1.882 -0.1375  2.8917  3.6144
 3599SOL     OW22258   2.951   0.006  11.217 -0.3990 -0.1718 -0.2381
 3599SOL    HW122259   2.917   0.074  11.158 -0.9012 -1.6282 -1.6313
 3599SOL    HW222260   3.031   0.052  11.242 -0.7865  0.0826  0.5530
 3600SOL     OW22261   2.721   3.287   2.431  0.4561 -0.2840 -0.4665
 3600SOL    HW122262   2.628   3.300   2.450  0.1301  0.5286 -2.5764
 3600SOL    HW222263   2.730   3.192   2.437 -2.0269 -0.4434  0.8949
 3601SOL     OW22264   1.216   0.287   6.818 -0.3730  0.0954  0.1183
 3601SOL    HW122265   1.187   0.220   6.880 -0.3055 -0.1116 -0.0725
 3601SOL    HW222266   1.308   0.268   6.800 -0.0198 -0.3940  2.3984
 3602SOL     OW22267   1.271   2.083   5.006 -0.4322  0.2648  0.1770
 3602SOL    HW122268   1.192   2.137   5.014  0.4796  1.2134  2.6052
 3602SOL    HW222269   1.263   2.036   5.088 -1.3101 -1.8625 -1.1391
 3603SOL     OW22270   0.728   3.549  10.093  0.2546 -0.5735  0.5865
 3603SOL    HW122271   0.770   3.489  10.031  1.1542  1.1806 -0.5173
 3603SOL    HW222272   0.680   3.489  10.149 -1.8608 -1.4745 -2.2072
 3604SOL     OW22273   3.813   3.029   8.027 -0.1043  0.1728  0.1048
 3604SOL    HW122274   3.827   2.962   8.094 -0.9209  1.6072  1.7049
 3604SOL    HW222275   3.720   3.046   8.042 -0.5088  0.1852 -2.5160
 3605SOL     OW22276   0.635   1.351  17.318 -0.2550  0.3800 -0.2818
 3605SOL    HW122277   0.564   1.346  17.381 -0.6036 -0.2694 -0.7299
 3605SOL    HW222278   0.663   1.260  17.332 -0.6184  0.4476  0.8864
 3606SOL     OW22279   3.449   2.999   2.590  0.5800 -0.3679 -0.8454
 3606SOL    HW122280   3.509   3.004   2.515  1.6290  0.0248  0.0147
 3606SOL    HW222281   3.510   3.016   2.662  0.5726  0.2040 -0.9709
 3607SOL     OW22282   2.747   0.811   3.801  0.5815 -0.1809  0.1203
 3607SOL    HW122283   2.693   0.788   3.877 -0.3478  3.0330  0.4103
 3607SOL    HW222284   2.736   0.741   3.736 -0.6035  1.1836 -1.1497
 3608SOL     OW22285   1.852   3.692   8.028  0.3072  0.0672 -0.2075
 3608SOL    HW122286   1.848   3.711   8.121  0.6018 -2.2627  0.2835
 3608SOL    HW222287   1.800   3.611   8.026 -1.3458  1.1913 -2.4607
 3609SOL     OW22288   3.016   3.225   7.613  0.6291 -0.1681 -0.4728
 3609SOL    HW122289   3.091   3.284   7.621  0.8365 -0.6411  1.2522
 3609SOL    HW222290   2.942   3.271   7.654  1.5081  1.4299 -0.6938
 3610SOL     OW22291   2.468   2.655   2.506 -0.4564 -0.0917 -0.0251
 3610SOL    HW122292   2.549   2.611   2.535 -1.0351  1.5991  4.1921
 3610SOL    HW222293   2.421   2.587   2.458 -0.9136 -0.4013  0.8666
 3611SOL     OW22294   3.412   3.575   7.504 -0.4195 -0.2504 -0.2092
 3611SOL    HW122295   3.471   3.510   7.542  0.7772  0.5291 -0.7340
 3611SOL    HW222296   3.332   3.542   7.544 -0.4279  1.3623  1.1007
 3612SOL     OW22297   0.990   0.703   6.670  0.0783  0.5080  0.1007
 3612SOL    HW122298   0.914   0.666   6.715 -0.5140  0.2045 -1.1677
 3612SOL    HW222299   1.044   0.716   6.749  1.7983 -1.0687 -0.7962
 3613SOL     OW22300   2.293   3.390   3.101 -0.2697 -0.4034 -0.8799
 3613SOL    HW122301   2.211   3.354   3.134 -1.3094  1.4064 -1.5232
 3613SOL    HW222302   2.326   3.327   3.038  1.3108  0.2161 -0.6748
 3614SOL     OW22303   1.715   2.261   0.954  0.4439  0.3325 -0.1662
 3614SOL    HW122304   1.681   2.205   1.023  1.6383  1.9616  1.7311
 3614SOL    HW222305   1.806   2.258   0.984 -0.3916 -1.9509  2.1213
 3615SOL     OW22306   0.438   4.690   5.762 -0.9925 -0.4761  0.0200
 3615SOL    HW122307   0.414   4.655   5.848 -1.6372 -2.2741 -0.9056
 3615SOL    HW222308   0.423   4.607   5.716 -1.5734  0.3574 -1.2798
 3616SOL     OW22309   1.490   1.459   6.425 -0.3499  0.0509  0.6328
 3616SOL    HW122310   1.586   1.461   6.433 -0.5670 -0.2633  3.2866
 3616SOL    HW222311   1.468   1.370   6.398 -0.4841 -0.3152  1.9517
 3617SOL     OW22312   0.859   3.834   2.280 -0.8595 -0.0157 -0.3031
 3617SOL    HW122313   0.781   3.879   2.246 -2.3906 -2.1559  0.4131
 3617SOL    HW222314   0.924   3.903   2.267 -1.3803  0.8826  1.9560
 3618SOL     OW22315   4.320   3.085   3.826  0.0827 -0.1409  0.1671
 3618SOL    HW122316   4.231   3.108   3.799 -0.1769  0.0729  1.1972
 3618SOL    HW222317   4.312   2.992   3.808  0.8091 -0.1466 -0.1245
 3619SOL     OW22318   4.598   0.316   2.144  0.2504 -0.5048 -0.2424
 3619SOL    HW122319   4.587   0.331   2.050 -2.0599 -0.2146  0.0752
 3619SOL    HW222320   4.688   0.346   2.156  0.3752 -1.9177  2.3480
 3620SOL     OW22321   1.182   2.513  13.250  0.6451  0.2664  0.3370
 3620SOL    HW122322   1.166   2.607  13.249 -0.4785  0.0898  1.1967
 3620SOL    HW222323   1.262   2.507  13.302  1.1274  0.1815 -0.4240
 3621SOL     OW22324   1.022   1.660   9.325 -0.0254  0.1213  0.4460
 3621SOL    HW122325   0.947   1.651   9.267 -0.2363 -0.0466  0.7442
 3621SOL    HW222326   0.987   1.601   9.392  1.5231 -1.5687 -0.2427
 3622SOL     OW22327   1.790   2.003   7.447  0.1951  0.1933  0.0075
 3622SOL    HW122328   1.737   2.020   7.370 -1.1097 -0.7266  0.7053
 3622SOL    HW222329   1.741   2.052   7.513  1.0875 -0.1418  0.9198
 3623SOL     OW22330   3.438   2.633  14.245  0.1066 -0.9778 -0.1697
 3623SOL    HW122331   3.505   2.701  14.238 -2.2598  1.4458  1.0599
 3623SOL    HW222332   3.492   2.555  14.257 -0.6588 -1.8006 -1.9954
 3624SOL     OW22333   2.088   2.801   5.820  0.5297  0.5704 -0.0342
 3624SOL    HW122334   2.007   2.796   5.770 -0.6749  2.3096  1.7813
 3624SOL    HW222335   2.133   2.855   5.755 -1.5180 -1.0748 -2.8337
 3625SOL     OW22336   3.850   0.072  11.649  0.0585 -0.2943 -0.1092
 3625SOL    HW122337   3.903   4.721  11.671  1.6877  1.2814  1.4083
 3625SOL    HW222338   3.787   0.035  11.587 -2.0028  0.7172  1.3758
 3626SOL     OW22339   3.251   0.539   9.651 -0.1484  0.4829  0.1453
 3626SOL    HW122340   3.295   0.459   9.679 -0.5569  0.0858 -0.3317
 3626SOL    HW222341   3.309   0.606   9.686 -0.5826  0.2101  1.3709
 3627SOL     OW22342   0.116   2.314   7.142 -0.9034  0.2782  0.4983
 3627SOL    HW122343   0.162   2.254   7.084 -0.0408  1.1445  0.2944
 3627SOL    HW222344   0.153   2.280   7.224  1.8611 -1.2678 -1.4100
 3628SOL     OW22345   1.812   1.181   7.924  0.2652  0.1206  0.6151
 3628SOL    HW122346   1.877   1.224   7.980 -1.5311  0.5381  2.3862
 3628SOL    HW222347   1.808   1.092   7.961  0.4311 -0.1798 -0.1015
 3629SOL     OW22348   0.118   3.700   6.917 -0.2885 -0.3720  0.2545
 3629SOL    HW122349   0.192   3.639   6.918  0.7602  0.8887 -0.2237
 3629SOL    HW222350   0.048   3.650   6.959 -0.9020  0.5509  0.3342
 3630SOL     OW22351   1.039   3.965  10.292  0.1110 -0.3180 -0.5515
 3630SOL    HW122352   1.102   3.895  10.302  0.7088 -0.0426 -2.3896
 3630SOL    HW222353   1.075   4.001  10.211 -0.3560  2.3486  0.4253
 3631SOL     OW22354   1.479   0.186   7.126 -0.3328  0.3317 -0.0094
 3631SOL    HW122355   1.501   0.209   7.036 -0.2684  0.2765 -0.0079
 3631SOL    HW222356   1.561   0.175   7.174 -1.2378 -2.1256  0.9665
 3632SOL     OW22357   3.726   2.521  10.772 -0.9401 -0.1083 -0.2291
 3632SOL    HW122358   3.698   2.497  10.860  1.1711 -0.0179  0.4675
 3632SOL    HW222359   3.773   2.443  10.744  1.2919  1.0719  0.2650
 3633SOL     OW22360   2.645   3.072   7.568  0.5688  0.0775 -0.4589
 3633SOL    HW122361   2.577   3.125   7.610 -0.5601 -0.7411 -1.2445
 3633SOL    HW222362   2.725   3.105   7.609 -0.6826  1.0969  1.1558
 3634SOL     OW22363   2.175   0.710  11.074 -0.6003  0.3799 -0.6035
 3634SOL    HW122364   2.158   0.684  11.165  0.0989 -1.2757 -0.9387
 3634SOL    HW222365   2.270   0.709  11.077 -0.7056 -0.6274  2.2036
 3635SOL     OW22366   1.722   0.615   0.627  0.7735  0.2090  0.1529
 3635SOL    HW122367   1.688   0.681   0.688 -1.9859  1.9127 -3.2147
 3635SOL    HW222368   1.711   0.653   0.540  2.7098 -1.3631 -0.7726
 3636SOL     OW22369   1.150   2.489   7.006 -0.1781  0.3643  0.1612
 3636SOL    HW122370   1.190   2.574   7.027 -1.4910  1.6489 -2.5453
 3636SOL    HW222371   1.185   2.431   7.073  1.0761  0.2052 -0.6214
 3637SOL     OW22372   0.385   1.435  13.591 -0.0817 -0.3629 -0.1459
 3637SOL    HW122373   0.423   1.422  13.504  1.7025  0.6137  0.4868
 3637SOL    HW222374   0.346   1.521  13.574  1.4674  0.4888  0.6998
 3638SOL     OW22375   1.961   2.116   2.701  0.5144  0.5329  0.3825
 3638SOL    HW122376   1.909   2.058   2.756  1.3881  0.2085  0.8708
 3638SOL    HW222377   1.941   2.202   2.738 -0.9117  0.3107  0.1309
 3639SOL     OW22378   1.145   3.096   4.565  0.0925 -0.2752 -0.4624
 3639SOL    HW122379   1.097   3.177   4.578  1.3089  0.2909  0.4762
 3639SOL    HW222380   1.222   3.121   4.515  0.4704  0.8525  0.6895
 3640SOL     OW22381   1.480   4.548  14.580 -0.2415  0.3594 -0.4345
 3640SOL    HW122382   1.514   4.504  14.503  1.6756  1.3045 -0.1571
 3640SOL    HW222383   1.423   4.616  14.545  0.0040  2.0055  2.3138
 3641SOL     OW22384   4.191   2.966   9.114  0.5078 -0.4780  0.4617
 3641SOL    HW122385   4.167   2.875   9.096  0.7713 -0.0318 -2.2169
 3641SOL    HW222386   4.136   2.997   9.186 -1.0389  0.9803 -1.3353
 3642SOL     OW22387   4.418   4.313   1.222 -0.7785  0.3140 -0.0241
 3642SOL    HW122388   4.422   4.222   1.192  1.0683  1.4346 -3.1275
 3642SOL    HW222389   4.384   4.302   1.311  1.0414  1.4921  0.8101
 3643SOL     OW22390   2.072   4.523   3.112  0.5850 -0.1357  0.2783
 3643SOL    HW122391   1.989   4.564   3.135  0.5814  0.8309 -1.4255
 3643SOL    HW222392   2.041   4.457   3.050  0.7613 -0.1474  0.2031
 3644SOL     OW22393   0.205   4.319   0.292  0.0801 -0.3661 -0.1474
 3644SOL    HW122394   0.213   4.282   0.379 -2.1983 -0.5418 -0.0181
 3644SOL    HW222395   0.249   4.248   0.246 -2.2590  0.7052 -4.0608
 3645SOL     OW22396   1.622   0.348   6.680 -0.1326 -0.3640  0.3537
 3645SOL    HW122397   1.684   0.307   6.620  1.0194  0.7514  0.8000
 3645SOL    HW222398   1.570   0.270   6.701  1.4946 -1.1556  1.4025
 3646SOL     OW22399   0.736   2.741   1.974  0.0078  0.6929  0.3063
 3646SOL    HW122400   0.787   2.795   2.034  0.7688  0.2405  0.0666
 3646SOL    HW222401   0.655   2.724   2.023  1.0705  0.3571  1.9456
 3647SOL     OW22402   2.434   3.437   8.477 -0.5151 -0.2098  0.5299
 3647SOL    HW122403   2.465   3.422   8.567  1.8082  0.0180 -0.2391
 3647SOL    HW222404   2.401   3.527   8.476  0.4947  0.1358 -1.5746
 3648SOL     OW22405   0.724   3.889   1.950 -0.5991  0.1265 -0.4986
 3648SOL    HW122406   0.806   3.938   1.949  0.1644 -1.1196  0.9777
 3648SOL    HW222407   0.672   3.925   1.878  1.1759 -0.0709 -1.8913
 3649SOL     OW22408   4.311   2.994   3.298 -0.1333  0.1898 -0.1067
 3649SOL    HW122409   4.392   2.967   3.343 -1.2232 -0.4151  1.4825
 3649SOL    HW222410   4.337   3.081   3.268  0.8306 -0.8976 -2.4018
 3650SOL     OW22411   3.974   0.455   7.548 -0.0619  0.1393  0.1116
 3650SOL    HW122412   3.945   0.513   7.618 -0.0538 -1.6109  1.5550
 3650SOL    HW222413   3.889   0.424   7.516  0.8891  0.9414 -3.2337
 3651SOL     OW22414   2.443   0.380  17.572  0.1248 -0.1939 -0.1112
 3651SOL    HW122415   2.494   0.329  17.509  1.1981 -1.5882  1.8872
 3651SOL    HW222416   2.498   0.458  17.575  0.9935 -0.7651 -0.9550
 3652SOL     OW22417   1.189   2.146  10.595  0.0674 -0.3289 -0.0846
 3652SOL    HW122418   1.242   2.089  10.650 -0.9359 -1.1253  0.0721
 3652SOL    HW222419   1.144   2.097  10.526 -1.3091  1.2353 -0.2961
 3653SOL     OW22420   2.944   0.924   2.776  0.0218 -0.5628  0.0314
 3653SOL    HW122421   2.924   0.842   2.733  1.3270 -0.4461 -0.8029
 3653SOL    HW222422   2.863   0.938   2.824  0.0958 -0.7793  0.2186
 3654SOL     OW22423   1.290   2.169   9.213 -0.2128 -0.0867 -0.0686
 3654SOL    HW122424   1.251   2.090   9.174 -0.3552  1.4028 -2.9715
 3654SOL    HW222425   1.311   2.229   9.142  0.6849 -0.5802 -0.2171
 3655SOL     OW22426   2.015   4.159   7.160 -0.0045  0.6501 -0.4737
 3655SOL    HW122427   2.095   4.160   7.213  0.7519  0.7093 -1.6031
 3655SOL    HW222428   1.955   4.215   7.209 -0.9065 -1.7180  1.1583
 3656SOL     OW22429   2.730   2.808   5.877  0.2452 -0.3742 -0.2299
 3656SOL    HW122430   2.773   2.885   5.839  0.0846 -0.5790 -0.8382
 3656SOL    HW222431   2.638   2.836   5.872  0.2970 -0.0524  0.7022
 3657SOL     OW22432   3.539   2.670   9.261 -0.5823  0.3884  0.2133
 3657SOL    HW122433   3.510   2.610   9.330 -0.1945 -0.7618 -0.6151
 3657SOL    HW222434   3.519   2.615   9.185 -3.1011 -0.2096  1.2997
 3658SOL     OW22435   2.709   4.300   3.221  0.1667 -0.3651 -0.1463
 3658SOL    HW122436   2.733   4.347   3.140  2.5571 -0.2995  0.5980
 3658SOL    HW222437   2.617   4.325   3.233 -0.0884 -0.8817 -0.9897
 3659SOL     OW22438   2.940   4.089  15.830  0.5024 -0.0519  0.2787
 3659SOL    HW122439   2.848   4.114  15.842 -0.1073 -1.8898 -0.4224
 3659SOL    HW222440   2.952   4.096  15.735 -0.3001 -0.8992  0.1088
 3660SOL     OW22441   2.286   0.233   9.605 -0.1325  0.3241 -0.3117
 3660SOL    HW122442   2.267   0.278   9.687  1.6668  1.6147 -0.5920
 3660SOL    HW222443   2.360   0.288   9.578  1.7314 -2.3871 -0.6784
 3661SOL     OW22444   2.368   1.780   1.727  0.5569 -0.1387 -0.1868
 3661SOL    HW122445   2.461   1.764   1.716  1.2089  2.0998  2.0159
 3661SOL    HW222446   2.345   1.697   1.767 -0.1185  0.6793  1.1120
 3662SOL     OW22447   4.246   3.227   4.842 -0.0205 -0.6022  0.1640
 3662SOL    HW122448   4.286   3.271   4.767  0.1436 -0.3354  0.4064
 3662SOL    HW222449   4.286   3.140   4.836 -0.7965 -1.0875  2.0047
 3663SOL     OW22450   0.829   3.627   5.637  0.3087 -0.0016 -0.2250
 3663SOL    HW122451   0.865   3.705   5.680  2.2814 -0.0942 -1.6713
 3663SOL    HW222452   0.902   3.615   5.576 -0.2355 -1.0416 -0.6677
 3664SOL     OW22453   1.296   2.979   5.300 -0.1161 -0.1086 -0.0907
 3664SOL    HW122454   1.283   3.074   5.291 -1.5709 -0.2420  0.5699
 3664SOL    HW222455   1.227   2.936   5.249 -2.0104  1.7097  0.9101
 3665SOL     OW22456   0.346   2.268   6.254 -1.0859 -0.3160  0.2650
 3665SOL    HW122457   0.335   2.287   6.160  1.6937 -0.2305 -0.0432
 3665SOL    HW222458   0.361   2.174   6.263  4.2422  0.3732 -1.0391
 3666SOL     OW22459   3.801   3.555   3.858  0.5920  0.4213 -0.5275
 3666SOL    HW122460   3.863   3.598   3.800  0.1332 -1.0649 -2.1281
 3666SOL    HW222461   3.755   3.629   3.897 -0.5874 -1.8623  2.4496
 3667SOL     OW22462   3.856   2.710   7.944 -0.4730 -0.5235 -0.3067
 3667SOL    HW122463   3.857   2.750   7.857  0.5268 -0.4221 -0.2524
 3667SOL    HW222464   3.774   2.744   7.979 -0.4256  0.1168 -0.8049
 3668SOL     OW22465   1.237   1.028  11.142 -0.0753  0.2904  0.4940
 3668SOL    HW122466   1.259   0.968  11.214 -0.0294  0.9240  1.0099
 3668SOL    HW222467   1.142   1.027  11.140 -0.0437  0.3796 -0.9690
 3669SOL     OW22468   2.580   1.256   2.168  0.3220  0.0848  0.6240
 3669SOL    HW122469   2.664   1.213   2.151 -0.4740 -1.9095  1.5895
 3669SOL    HW222470   2.531   1.183   2.206  1.1120 -0.4285  0.6648
 3670SOL     OW22471   1.086   0.091   7.015 -0.2904 -0.3228 -0.6235
 3670SOL    HW122472   1.030   0.033   6.963 -1.1070 -0.0905 -0.0063
 3670SOL    HW222473   1.042   0.094   7.100 -1.1769  0.7265 -1.1070
 3671SOL     OW22474   0.381   1.397  10.688  0.2605 -0.3275  0.5154
 3671SOL    HW122475   0.304   1.348  10.657  1.1076 -2.2182  1.3964
 3671SOL    HW222476   0.348   1.487  10.693  0.3371 -0.1142 -2.4182
 3672SOL     OW22477   1.917   4.083   2.224  0.2160 -0.3117  0.2031
 3672SOL    HW122478   1.833   4.042   2.241  0.6309 -2.3301 -2.5682
 3672SOL    HW222479   1.910   4.092   2.129  0.9043  1.3573  0.2967
 3673SOL     OW22480   1.303   4.085   0.663 -0.4266  0.2031 -0.0414
 3673SOL    HW122481   1.372   4.028   0.697 -1.1220 -0.6356 -0.0232
 3673SOL    HW222482   1.288   4.031   0.585 -0.8079 -0.1293  0.2601
 3674SOL     OW22483   3.270   3.013   1.885 -0.2668 -0.9483 -0.1307
 3674SOL    HW122484   3.223   2.988   1.964 -0.7515 -1.1514 -0.4791
 3674SOL    HW222485   3.340   3.069   1.917  0.3190 -1.9252  0.2878
 3675SOL     OW22486   1.243   1.964   2.687  0.2926 -1.0613 -0.2146
 3675SOL    HW122487   1.196   1.975   2.770  1.7626 -3.0581  0.8773
 3675SOL    HW222488   1.212   2.036   2.632  0.3654 -0.5870  0.3593
 3676SOL     OW22489   3.887   0.988   4.526  0.6147  0.3680 -0.2527
 3676SOL    HW122490   3.938   0.993   4.445 -2.4965 -0.5607 -2.2429
 3676SOL    HW222491   3.938   1.050   4.578  0.6309  0.0314  0.1368
 3677SOL     OW22492   0.563   2.980   4.150  0.3870  0.5241  0.3669
 3677SOL    HW122493   0.514   2.989   4.068 -0.8029 -0.8398  0.9307
 3677SOL    HW222494   0.634   3.044   4.141  0.1347  0.4467 -2.1599
 3678SOL     OW22495   3.692   0.086   1.702  0.3323 -0.1941 -0.6876
 3678SOL    HW122496   3.735   0.082   1.788  2.7768  1.3890 -1.8078
 3678SOL    HW222497   3.755   0.145   1.659  2.6112 -2.5395 -0.5519
 3679SOL     OW22498   0.784   4.065   6.733  0.2293 -0.0617 -0.1209
 3679SOL    HW122499   0.766   4.156   6.755  3.1856  0.5726 -0.3101
 3679SOL    HW222500   0.719   4.016   6.782 -1.1160 -0.1086 -1.9520
 3680SOL     OW22501   2.780   1.791  15.079  0.1056 -0.0920 -0.4683
 3680SOL    HW122502   2.787   1.705  15.038 -0.9742 -0.1116 -0.6001
 3680SOL    HW222503   2.688   1.817  15.071  0.0703 -0.3382 -0.8563
 3681SOL     OW22504   0.642   1.229   8.863  0.1800 -0.4042  0.1270
 3681SOL    HW122505   0.703   1.205   8.932  0.5391  2.6015  0.8489
 3681SOL    HW222506   0.630   1.323   8.876  0.7756 -0.3933  0.6034
 3682SOL     OW22507   3.142   4.015   3.331  0.4435  0.3000 -0.4968
 3682SOL    HW122508   3.217   4.063   3.295 -1.5301  2.1646 -2.1204
 3682SOL    HW222509   3.165   4.035   3.421 -1.3036  1.6763 -0.3534
 3683SOL     OW22510   2.773   0.367   4.514  0.2958  0.0122 -0.3336
 3683SOL    HW122511   2.836   0.427   4.473  0.1594  1.5822  1.7154
 3683SOL    HW222512   2.690   0.373   4.467 -0.1763 -0.7367  0.4045
 3684SOL     OW22513   0.518   0.055   2.960  0.3368  0.6125 -0.1986
 3684SOL    HW122514   0.476   0.141   2.961  3.2764  2.0431  0.4184
 3684SOL    HW222515   0.558   0.037   3.046 -1.5833  1.8324  0.9270
 3685SOL     OW22516   3.108   0.136  13.273 -0.2646  0.3434 -0.3585
 3685SOL    HW122517   3.125   0.133  13.179  1.3218  1.7545 -0.1302
 3685SOL    HW222518   3.195   0.125  13.311  0.8212  3.2755 -1.9990
 3686SOL     OW22519   2.276   4.283   6.104 -0.6892  0.4223  0.5509
 3686SOL    HW122520   2.297   4.346   6.174 -1.2588 -0.2510  1.3240
 3686SOL    HW222521   2.281   4.201   6.153 -1.4785  0.7847  1.2414
 3687SOL     OW22522   1.058   0.357   2.462  0.4590 -0.4120  0.5112
 3687SOL    HW122523   1.008   0.423   2.509 -0.1331  0.3847 -1.2578
 3687SOL    HW222524   1.081   0.313   2.544  0.4632  2.7582  2.2126
 3688SOL     OW22525   3.626   0.425   2.818  0.3141  0.3236  0.1252
 3688SOL    HW122526   3.627   0.329   2.812  0.4979  0.1748  2.5330
 3688SOL    HW222527   3.535   0.435   2.848  0.6339 -0.8468  1.4832
 3689SOL     OW22528   1.669   1.761  13.555 -0.0681 -0.1766 -0.2571
 3689SOL    HW122529   1.627   1.759  13.641 -1.3599  0.6444 -0.8536
 3689SOL    HW222530   1.728   1.836  13.567  1.2818 -1.0125 -1.6919
 3690SOL     OW22531   2.260   1.435   3.792  0.3856  0.7502  0.2748
 3690SOL    HW122532   2.183   1.473   3.833  0.0216  0.7910 -0.4430
 3690SOL    HW222533   2.303   1.410   3.874  1.8355  0.0073 -0.6986
 3691SOL     OW22534   2.093   0.366   8.268  0.3128 -0.2401  0.0733
 3691SOL    HW122535   2.023   0.361   8.333  1.0721  2.5843  1.0960
 3691SOL    HW222536   2.051   0.381   8.183 -0.2427 -0.2669  0.3427
 3692SOL     OW22537   0.819   0.111   2.638 -0.1349 -0.4722 -0.0812
 3692SOL    HW122538   0.875   0.035   2.654 -0.6149 -1.1442 -1.5859
 3692SOL    HW222539   0.861   0.168   2.703 -2.0043  0.4180  0.3511
 3693SOL     OW22540   1.166   3.982   7.315 -0.7361  0.2043  0.0418
 3693SOL    HW122541   1.120   3.930   7.380  0.0666 -1.9114 -1.0738
 3693SOL    HW222542   1.116   4.063   7.322 -1.7374 -0.4545  0.4732
 3694SOL     OW22543   4.010   3.076   4.304  0.1061  0.0511 -0.4184
 3694SOL    HW122544   4.100   3.055   4.279  0.3405  0.5018  0.0445
 3694SOL    HW222545   3.975   2.987   4.305  0.0573  0.0644 -0.8483
 3695SOL     OW22546   4.471   4.258   8.382  0.5252 -0.4132 -0.4486
 3695SOL    HW122547   4.512   4.333   8.424 -1.6454  1.5336 -1.7889
 3695SOL    HW222548   4.525   4.191   8.423  0.1373  0.1352  0.9610
 3696SOL     OW22549   0.948   0.916   2.295 -0.2635 -0.2947 -0.0942
 3696SOL    HW122550   0.923   0.964   2.216  0.6616 -0.0055 -0.2051
 3696SOL    HW222551   0.862   0.894   2.331 -0.3250  0.4387  0.2083
 3697SOL     OW22552   1.837   4.230   1.546  0.4998 -0.1479 -0.2238
 3697SOL    HW122553   1.761   4.288   1.550 -0.2268 -1.1127  0.0514
 3697SOL    HW222554   1.796   4.150   1.514  2.9929 -1.9095  0.9719
 3698SOL     OW22555   4.329   2.472  11.567  0.0868  0.4120  0.0474
 3698SOL    HW122556   4.326   2.378  11.581  1.8962 -0.1278 -3.3065
 3698SOL    HW222557   4.336   2.475  11.471  0.1695  0.2486  0.0494
 3699SOL     OW22558   3.066   3.709  11.468 -0.2306 -0.6420 -0.3012
 3699SOL    HW122559   2.989   3.672  11.511 -0.1182  1.6081  1.8115
 3699SOL    HW222560   3.029   3.786  11.426 -0.9391  0.0426  1.5626
 3700SOL     OW22561   3.735   2.486   2.146  0.3611  0.0549  0.1622
 3700SOL    HW122562   3.810   2.503   2.202 -0.3978  0.1333  1.1558
 3700SOL    HW222563   3.776   2.424   2.086 -0.7518  0.2551 -0.7981
 3701SOL     OW22564   2.255   4.434  13.434 -0.5938  0.0993  0.2817
 3701SOL    HW122565   2.163   4.435  13.407 -1.1401  0.3313  2.1625
 3701SOL    HW222566   2.265   4.522  13.471  3.6929  0.9158 -2.7454
 3702SOL     OW22567   3.373   3.120   9.050 -0.1617 -0.7802 -0.4814
 3702SOL    HW122568   3.293   3.150   9.093  1.2957 -0.2263  1.8169
 3702SOL    HW222569   3.334   3.038   9.020 -3.0468  0.4889 -0.2557
 3703SOL     OW22570   0.485   3.171   6.320  0.2326 -0.6286 -0.5666
 3703SOL    HW122571   0.453   3.228   6.251 -1.7470 -0.3993  0.5599
 3703SOL    HW222572   0.523   3.100   6.268  2.5434  1.0749 -1.1706
 3704SOL     OW22573   0.666   0.335   3.909 -0.5681 -0.0168 -0.0998
 3704SOL    HW122574   0.645   0.278   3.983 -0.8372 -0.6240 -0.6392
 3704SOL    HW222575   0.593   0.397   3.900 -0.1088  0.3386 -1.4653
 3705SOL     OW22576   2.610   2.977   7.886  0.0788  0.6579  0.2658
 3705SOL    HW122577   2.576   3.050   7.835 -1.4732 -0.1997  0.0666
 3705SOL    HW222578   2.610   3.027   7.968  0.1905  3.7837 -1.6674
 3706SOL     OW22579   3.849   1.118   5.881  0.7335  0.7310 -0.1275
 3706SOL    HW122580   3.769   1.118   5.829  2.1319  0.6112 -2.2542
 3706SOL    HW222581   3.805   1.099   5.964  2.5834 -0.8396  0.4922
 3707SOL     OW22582   1.040   1.305  11.354  0.0538  0.3709  0.1182
 3707SOL    HW122583   1.130   1.280  11.331  0.2648  1.3067 -0.0778
 3707SOL    HW222584   1.024   1.360  11.277 -0.4418 -2.6494 -1.9517
 3708SOL     OW22585   1.154   2.039  13.381  0.2112  0.3383 -0.3062
 3708SOL    HW122586   1.238   2.082  13.398  1.7619 -1.6330 -3.1114
 3708SOL    HW222587   1.107   2.105  13.330 -0.4312  0.4167  0.3682
 3709SOL     OW22588   1.097   1.320  15.651 -0.3872  0.5311  0.2498
 3709SOL    HW122589   1.037   1.388  15.682 -0.8708  1.0949 -1.9589
 3709SOL    HW222590   1.167   1.374  15.614 -0.5091 -0.1478 -0.9747
 3710SOL     OW22591   3.563   0.077   5.751 -0.3141 -0.1884  0.0203
 3710SOL    HW122592   3.563   0.019   5.675 -0.8519  0.7532 -0.6932
 3710SOL    HW222593   3.649   0.047   5.782  0.3001  1.3000 -0.2122
 3711SOL     OW22594   4.653   4.111   8.507  0.1822  0.1673 -0.5575
 3711SOL    HW122595   4.710   4.178   8.546 -0.2412 -0.2188  0.7534
 3711SOL    HW222596   4.710   4.035   8.513  1.2225  1.2379  3.3076
 3712SOL     OW22597   1.970   0.373   4.444 -0.1147 -0.1621 -0.0225
 3712SOL    HW122598   1.916   0.299   4.417 -0.6441  0.0036  0.5799
 3712SOL    HW222599   1.998   0.345   4.531  3.1721 -1.7103 -1.5707
 3713SOL     OW22600   1.862   0.215   2.087  0.1293  0.7545  0.2339
 3713SOL    HW122601   1.904   0.266   2.156 -0.5674 -1.9053  2.5951
 3713SOL    HW222602   1.901   0.253   2.008  1.0530  2.0730  1.3284
 3714SOL     OW22603   0.785   0.282   5.324 -0.9828  0.2566  0.2137
 3714SOL    HW122604   0.842   0.209   5.301 -0.3976  0.9335 -0.4614
 3714SOL    HW222605   0.793   0.329   5.242 -2.2029 -0.0515 -0.0943
 3715SOL     OW22606   3.692   1.071   0.374  0.0584  0.0988  0.9824
 3715SOL    HW122607   3.672   1.132   0.445 -2.8489 -0.4298  0.6171
 3715SOL    HW222608   3.649   0.993   0.407  0.5889 -1.3382 -1.7334
 3716SOL     OW22609   1.422   1.120   8.198  0.0733 -0.5762  0.0960
 3716SOL    HW122610   1.386   1.146   8.283 -2.0290  0.3619 -1.1052
 3716SOL    HW222611   1.373   1.164   8.129 -4.7396 -0.8653  3.3712
 3717SOL     OW22612   0.947   2.658   9.748 -0.2983  0.0442 -0.2608
 3717SOL    HW122613   0.967   2.655   9.841  0.4296 -1.6067 -0.4682
 3717SOL    HW222614   0.983   2.578   9.711  0.7601  0.4284 -0.0515
 3718SOL     OW22615   4.435   3.222  16.732  0.7603  0.3746  0.2967
 3718SOL    HW122616   4.402   3.185  16.650  0.7284 -0.2010  0.5667
 3718SOL    HW222617   4.478   3.139  16.752  0.0070 -0.4652 -1.4758
 3719SOL     OW22618   4.492   3.620   2.495  0.4326 -0.3118  0.6912
 3719SOL    HW122619   4.511   3.550   2.558 -3.4623 -1.7935  0.2242
 3719SOL    HW222620   4.485   3.575   2.411 -2.4583 -0.0203  0.7591
 3720SOL     OW22621   2.733   3.368   0.596  0.2495  0.1646  0.2214
 3720SOL    HW122622   2.767   3.284   0.628  0.5535 -0.5158 -1.8530
 3720SOL    HW222623   2.640   3.358   0.573  0.4171 -0.1484 -0.3281
 3721SOL     OW22624   1.506   2.788   2.583 -0.0502 -0.1705  0.0285
 3721SOL    HW122625   1.589   2.786   2.629  0.1729 -1.1936 -0.4034
 3721SOL    HW222626   1.488   2.694   2.576 -0.8183 -0.1195  1.3542
 3722SOL     OW22627   2.655   0.686   2.089  0.2710 -0.2966 -0.9724
 3722SOL    HW122628   2.591   0.757   2.096  1.4704  0.6331  0.5554
 3722SOL    HW222629   2.696   0.718   2.009  0.8739 -0.5628 -0.7686
 3723SOL     OW22630   2.365   4.686   4.104  0.1384 -0.4813 -0.6448
 3723SOL    HW122631   2.303   0.021   4.144  2.4144  0.5683  1.2987
 3723SOL    HW222632   2.350   4.707   4.012 -1.7752  0.2851 -0.1588
 3724SOL     OW22633   0.258   0.219   4.833  0.2216 -0.5800 -0.3986
 3724SOL    HW122634   0.181   0.276   4.838  0.2650 -0.4560 -1.1658
 3724SOL    HW222635   0.294   0.235   4.920 -1.0068 -0.8194  0.1621
 3725SOL     OW22636   0.743   1.045  15.235  0.1624  0.6812 -0.2240
 3725SOL    HW122637   0.742   1.140  15.220  1.7359  0.4368 -1.9582
 3725SOL    HW222638   0.836   1.025  15.248  0.0446 -0.4800 -1.1664
 3726SOL     OW22639   4.518   0.601  15.104  0.3524  0.3839  0.5713
 3726SOL    HW122640   4.601   0.640  15.133  1.6261 -2.0392  0.2175
 3726SOL    HW222641   4.545   0.552  15.026  1.2021 -0.0329  1.1325
 3727SOL     OW22642   0.732   1.614   6.697  0.1807 -0.0272  0.1065
 3727SOL    HW122643   0.820   1.627   6.733  0.0771  1.1001 -0.0310
 3727SOL    HW222644   0.743   1.598   6.604  0.5920 -0.4619  0.2326
 3728SOL     OW22645   0.044   2.636  17.070 -0.0314 -0.2522  0.5426
 3728SOL    HW122646   0.064   2.552  17.112  1.4622 -0.5822 -0.8168
 3728SOL    HW222647   0.062   2.690  17.147  1.3546 -1.2788  0.9451
 3729SOL     OW22648   2.738   1.136   0.875  0.2482  1.1689  0.3386
 3729SOL    HW122649   2.752   1.215   0.822 -0.8731  1.4680  0.4823
 3729SOL    HW222650   2.824   1.115   0.912  1.3305  1.0457 -2.2412
 3730SOL     OW22651   3.029   3.412   8.824  0.1972  0.0349  0.2680
 3730SOL    HW122652   3.005   3.328   8.785  0.2676  1.5156 -2.9573
 3730SOL    HW222653   3.088   3.444   8.756 -0.3820 -0.4299 -0.4539
 3731SOL     OW22654   2.814   3.802   3.321 -0.3291  0.1399  0.1026
 3731SOL    HW122655   2.807   3.718   3.275 -1.7050 -0.4083  1.3053
 3731SOL    HW222656   2.900   3.817   3.282  0.3560  0.9508  1.8813
 3732SOL     OW22657   2.684   4.472   0.108  0.3119 -0.1260  0.2270
 3732SOL    HW122658   2.765   4.474   0.057 -1.4645 -0.3798 -2.6578
 3732SOL    HW222659   2.619   4.477   0.038 -1.7299  0.4572  2.1734
 3733SOL     OW22660   1.220   3.659   3.191 -0.1941 -0.7216  0.7314
 3733SOL    HW122661   1.248   3.644   3.282  1.3321 -0.1068  0.3634
 3733SOL    HW222662   1.128   3.679   3.209  0.4120  2.4340  0.2931
 3734SOL     OW22663   2.572   0.794  11.606  0.3215 -0.1103  0.1973
 3734SOL    HW122664   2.512   0.835  11.667 -1.0183 -1.5738 -0.1450
 3734SOL    HW222665   2.657   0.809  11.648  0.6472  0.1468 -0.5436
 3735SOL     OW22666   0.078   2.837  11.019 -0.6242  0.1649 -0.1629
 3735SOL    HW122667   0.108   2.900  11.085 -1.6976 -1.1055  1.5528
 3735SOL    HW222668   0.096   2.877  10.934 -0.9596  2.4176  0.8341
 3736SOL     OW22669   0.844   4.273  16.723 -0.3561  0.0184  0.4037
 3736SOL    HW122670   0.924   4.221  16.731 -0.0158  0.8916  2.5828
 3736SOL    HW222671   0.781   4.202  16.728 -0.0515 -0.3576 -1.2060
 3737SOL     OW22672   3.197   0.952   2.805 -0.3245 -0.2158 -0.2306
 3737SOL    HW122673   3.218   0.908   2.888  0.8673  1.5985  0.4487
 3737SOL    HW222674   3.105   0.933   2.791 -0.4849  0.6721 -0.3747
 3738SOL     OW22675   4.081   0.950   7.838 -0.6032  0.3921  0.0896
 3738SOL    HW122676   4.117   0.980   7.922 -0.7897  0.1916  0.2417
 3738SOL    HW222677   4.077   0.854   7.843 -3.1871  0.6446  2.7108
 3739SOL     OW22678   2.937   0.466   4.315 -0.1486 -0.1285 -0.1548
 3739SOL    HW122679   2.998   0.519   4.264 -2.5489  0.6953 -2.1213
 3739SOL    HW222680   3.005   0.418   4.364 -0.9728 -0.2786  0.8370
 3740SOL     OW22681   1.013   2.497   0.184 -0.2724  0.4108 -0.6811
 3740SOL    HW122682   1.071   2.514   0.259 -0.0845  0.8762 -0.9284
 3740SOL    HW222683   0.968   2.582   0.181 -0.1390  0.5715  1.6704
 3741SOL     OW22684   2.708   0.815  10.481  0.3593  0.0089  0.5325
 3741SOL    HW122685   2.756   0.819  10.564 -1.2933 -0.6825  1.5386
 3741SOL    HW222686   2.639   0.881  10.482  0.6382  0.3454 -3.2452
 3742SOL     OW22687   3.101   2.486  14.690  0.1905  0.2276  0.0620
 3742SOL    HW122688   3.024   2.430  14.678 -0.4412  1.1306 -0.0648
 3742SOL    HW222689   3.062   2.573  14.693  1.0762  0.5360  2.6956
 3743SOL     OW22690   0.733   2.882   5.213 -0.5851  0.0876 -0.2028
 3743SOL    HW122691   0.719   2.803   5.265  1.1889 -1.2438 -1.7868
 3743SOL    HW222692   0.797   2.932   5.264 -0.5667 -1.2158  1.0654
 3744SOL     OW22693   1.367   0.178   5.339  0.2148  0.1913  0.5156
 3744SOL    HW122694   1.453   0.171   5.298 -0.6339  1.0310 -1.4033
 3744SOL    HW222695   1.346   0.271   5.335 -1.8289 -0.2054  1.6696
 3745SOL     OW22696   4.541   0.963   2.349 -0.0516 -0.3245  0.8962
 3745SOL    HW122697   4.461   0.952   2.298  0.1678 -0.5095  0.5948
 3745SOL    HW222698   4.534   0.886   2.406 -1.4230  0.0264  1.1908
 3746SOL     OW22699   2.959   1.596   3.315 -0.3592 -0.0613 -0.0196
 3746SOL    HW122700   3.013   1.646   3.255 -1.3545  1.0522  0.0116
 3746SOL    HW222701   2.928   1.526   3.257  0.3836  1.1476 -1.8851
 3747SOL     OW22702   4.222   4.656   2.223 -0.2658 -0.0388  0.2259
 3747SOL    HW122703   4.304   4.705   2.215 -1.7737  2.2105 -1.6636
 3747SOL    HW222704   4.257   4.567   2.234 -2.4226 -0.9568 -0.3864
 3748SOL     OW22705   1.197   4.536   6.463  0.2756 -0.0542 -0.0990
 3748SOL    HW122706   1.260   4.606   6.480  0.9583 -0.6270 -0.2692
 3748SOL    HW222707   1.182   4.535   6.368 -0.7139  1.2227  0.0439
 3749SOL     OW22708   1.889   3.555  16.052 -0.1220 -0.4064  0.1285
 3749SOL    HW122709   1.984   3.548  16.068 -0.2580  1.6389  1.8282
 3749SOL    HW222710   1.865   3.637  16.094  0.6683 -0.4122  0.5968
 3750SOL     OW22711   4.022   2.959   9.972 -0.2723 -0.0086  0.1395
 3750SOL    HW122712   4.028   3.045   9.932  0.6557 -0.8367 -1.4932
 3750SOL    HW222713   3.935   2.938   9.938 -0.8575  2.6255  0.0772
 3751SOL     OW22714   1.471   2.759   5.250 -0.1985  0.0075 -0.1577
 3751SOL    HW122715   1.398   2.702   5.274 -1.5248  1.3112 -1.0124
 3751SOL    HW222716   1.449   2.845   5.286  1.8234  1.0213 -1.3517
 3752SOL     OW22717   2.888   3.821   4.221  0.5808 -0.0742  0.4520
 3752SOL    HW122718   2.975   3.791   4.250  0.6930 -0.3824 -0.1935
 3752SOL    HW222719   2.858   3.744   4.172 -1.1158  1.1591 -0.4083
 3753SOL     OW22720   4.307   4.364  10.595  0.1935  0.4066  0.1325
 3753SOL    HW122721   4.333   4.442  10.645  3.1627  0.5178 -1.5500
 3753SOL    HW222722   4.212   4.359  10.586  0.1769  1.3830 -0.2353
 3754SOL     OW22723   4.162   2.496   4.369 -0.6197 -0.3267  0.4601
 3754SOL    HW122724   4.180   2.454   4.453 -0.1166 -1.0249  0.0076
 3754SOL    HW222725   4.070   2.521   4.371  0.0177  2.0425  0.1354
 3755SOL     OW22726   0.383   0.607   7.678  0.2418 -0.2593  0.0935
 3755SOL    HW122727   0.455   0.669   7.671  2.4950 -2.5082  3.2077
 3755SOL    HW222728   0.321   0.660   7.728  1.2350  0.6515  0.3639
 3756SOL     OW22729   3.699   3.633   4.402 -0.4300 -0.5266  0.6646
 3756SOL    HW122730   3.711   3.563   4.338 -0.8313 -1.0422  1.1509
 3756SOL    HW222731   3.713   3.707   4.344  0.5101 -0.3510  1.1139
 3757SOL     OW22732   2.117   1.726  15.946  0.7740 -0.5126  0.5886
 3757SOL    HW122733   2.181   1.721  16.017 -0.3494 -1.4182  1.5285
 3757SOL    HW222734   2.034   1.734  15.992  0.5567  0.5291  0.0251
 3758SOL     OW22735   2.703   4.628   9.174  0.0328 -0.0484 -0.3677
 3758SOL    HW122736   2.714   4.701   9.113 -2.3683 -0.5546 -1.3867
 3758SOL    HW222737   2.747   4.558   9.126  1.1491  1.2755 -1.2923
 3759SOL     OW22738   2.299   1.074  13.534 -0.1004  0.4163  0.2135
 3759SOL    HW122739   2.352   1.130  13.592 -1.6184  3.1358 -1.0125
 3759SOL    HW222740   2.358   1.005  13.506 -0.3499  0.9771 -1.6723
 3760SOL     OW22741   3.780   1.235   7.546  0.1704 -0.3981 -0.0086
 3760SOL    HW122742   3.842   1.297   7.507  0.7185 -1.2573 -0.4991
 3760SOL    HW222743   3.718   1.223   7.475 -0.9104  2.3530  0.4695
 3761SOL     OW22744   0.286   3.531  12.953  0.0985 -0.0242  0.9119
 3761SOL    HW122745   0.360   3.483  12.989  0.0316 -0.9740 -0.2192
 3761SOL    HW222746   0.336   3.575  12.885 -1.2947  0.8517  0.4420
 3762SOL     OW22747   3.365   3.378  16.614  0.3061  0.2122  0.1081
 3762SOL    HW122748   3.364   3.427  16.696  0.9442 -2.2854  1.6308
 3762SOL    HW222749   3.302   3.315  16.650  1.5451 -0.6793  0.7395
 3763SOL     OW22750   0.652   1.620  12.300  0.0328 -0.3108  0.0545
 3763SOL    HW122751   0.741   1.654  12.311 -0.4016  0.7970  0.1970
 3763SOL    HW222752   0.612   1.699  12.262 -2.2956 -0.6877  1.7185
 3764SOL     OW22753   3.799   0.091   3.010  0.8527  0.4454 -0.1079
 3764SOL    HW122754   3.867   0.047   3.060  0.0088 -0.2477  0.4430
 3764SOL    HW222755   3.810   0.052   2.923  1.3534 -5.0646  2.4413
 3765SOL     OW22756   3.113   2.476   0.206  0.3267  0.0623  0.1848
 3765SOL    HW122757   3.045   2.529   0.246  0.7021 -0.0457  0.9670
 3765SOL    HW222758   3.080   2.388   0.221  1.4564 -0.3492  0.3095
 3766SOL     OW22759   3.806   0.646   8.535  0.6089  0.2179 -0.1477
 3766SOL    HW122760   3.731   0.688   8.492  0.0812  0.0256  0.5815
 3766SOL    HW222761   3.871   0.716   8.540  0.8663 -0.1233  1.2967
 3767SOL     OW22762   0.643   3.845   8.958  0.2065 -0.0641 -0.3000
 3767SOL    HW122763   0.645   3.917   8.896  0.0325 -1.5316 -2.0150
 3767SOL    HW222764   0.721   3.793   8.937 -0.4580 -1.4681  0.6942
 3768SOL     OW22765   2.657   2.935   9.089  0.4534 -0.4096  0.3040
 3768SOL    HW122766   2.636   2.965   9.177 -4.1199 -1.4331 -0.4720
 3768SOL    HW222767   2.712   2.856   9.096  0.1196 -0.5937  0.8080
 3769SOL     OW22768   0.333   4.363  14.859 -0.0569 -0.6002  0.1150
 3769SOL    HW122769   0.310   4.363  14.766 -0.7812  0.3020  0.3012
 3769SOL    HW222770   0.299   4.447  14.891  0.0713 -0.0057 -1.2822
 3770SOL     OW22771   3.842   0.599   7.750  0.1858  0.5226  0.0044
 3770SOL    HW122772   3.781   0.553   7.692 -0.4407  0.5155  0.6649
 3770SOL    HW222773   3.804   0.686   7.738 -1.2430  0.3027  2.9249
 3771SOL     OW22774   1.983   4.685  17.154  0.7434  0.5189  0.2716
 3771SOL    HW122775   2.078   4.691  17.143  0.9825 -2.0975  1.0078
 3771SOL    HW222776   1.975   4.690  17.249  2.4808 -1.6824  0.5303
 3772SOL     OW22777   1.498   3.803   3.655  0.0471 -0.0804 -0.5258
 3772SOL    HW122778   1.548   3.872   3.699  0.3432 -0.5954 -0.0616
 3772SOL    HW222779   1.538   3.727   3.697 -1.5009  0.4117  1.7977
 3773SOL     OW22780   3.328   1.120   6.658  0.2626  0.3414 -0.1575
 3773SOL    HW122781   3.265   1.071   6.605  0.8463  1.6467 -2.0223
 3773SOL    HW222782   3.412   1.076   6.651  0.2023  0.2638 -0.3906
 3774SOL     OW22783   1.659   4.614  14.769  0.4221 -0.3452  0.2494
 3774SOL    HW122784   1.744   4.602  14.727  0.1585 -0.5015 -0.2382
 3774SOL    HW222785   1.599   4.593  14.698  3.9363 -0.6233 -2.6051
 3775SOL     OW22786   3.801   3.371   5.216 -0.0481 -0.5020 -0.7979
 3775SOL    HW122787   3.820   3.403   5.304 -0.2350  0.3317 -1.0667
 3775SOL    HW222788   3.853   3.291   5.209 -0.0392 -0.5542 -0.0247
 3776SOL     OW22789   3.047   3.533   7.701  0.3176  0.0318  0.0257
 3776SOL    HW122790   3.137   3.514   7.729  0.1013 -2.8955 -1.2853
 3776SOL    HW222791   3.062   3.569   7.614 -2.6038 -1.5651 -1.1634
 3777SOL     OW22792   0.239   2.933  12.575  0.1716  0.7683  0.0276
 3777SOL    HW122793   0.178   2.869  12.540  1.1565 -0.0558 -0.1806
 3777SOL    HW222794   0.194   3.011  12.607  1.5721  0.9682  1.5486
 3778SOL     OW22795   1.583   2.167   5.556  0.1604  0.6436 -0.7572
 3778SOL    HW122796   1.488   2.180   5.555 -0.0438 -0.6347  1.3050
 3778SOL    HW222797   1.603   2.157   5.649 -0.7338 -0.5269 -0.6960
 3779SOL     OW22798   4.650   2.839   3.969  0.4835  0.0753  0.4460
 3779SOL    HW122799   4.716   2.782   3.931  0.8318  0.0837  1.0448
 3779SOL    HW222800   4.575   2.812   3.915 -1.4725  3.1424  1.5781
 3780SOL     OW22801   1.795   4.597   2.649 -0.5915 -0.3853 -0.1919
 3780SOL    HW122802   1.820   4.560   2.564  2.2925 -0.1737  0.5678
 3780SOL    HW222803   1.830   4.685   2.636 -0.9585 -0.4863 -1.9368
 3781SOL     OW22804   0.105   3.354   5.056  0.1953 -0.4566  0.7654
 3781SOL    HW122805   0.041   3.282   5.054 -1.3974  1.0053 -1.7030
 3781SOL    HW222806   0.054   3.415   5.108 -1.6475  1.0183 -2.7305
 3782SOL     OW22807   0.067   3.038  13.596  0.1193  0.1823 -0.4533
 3782SOL    HW122808   0.095   2.987  13.521 -0.4327 -0.1122 -0.4603
 3782SOL    HW222809   0.122   3.116  13.598  0.7300 -0.2690  1.0961
 3783SOL     OW22810   3.574   3.171   8.875 -0.2118  0.8620 -0.5783
 3783SOL    HW122811   3.562   3.262   8.846 -2.4577  0.3208 -1.3122
 3783SOL    HW222812   3.503   3.161   8.939  0.7101  1.1389  0.4884
 3784SOL     OW22813   2.858   3.857   4.877  0.1137  0.1542  0.5759
 3784SOL    HW122814   2.931   3.825   4.930  0.7311  0.8361  0.1394
 3784SOL    HW222815   2.834   3.940   4.919  1.1223  0.6290  0.2266
 3785SOL     OW22816   2.206   2.039   4.191 -0.5783  0.2914  1.0503
 3785SOL    HW122817   2.252   1.960   4.220  0.0526  0.7761  1.3745
 3785SOL    HW222818   2.207   2.090   4.272 -1.5547 -0.3295  1.4580
 3786SOL     OW22819   4.102   0.817  13.875 -0.1177 -0.5967  0.2964
 3786SOL    HW122820   4.112   0.875  13.800  1.5335 -0.1892  0.8418
 3786SOL    HW222821   4.192   0.788  13.886  0.3726  0.3934 -1.1828
 3787SOL     OW22822   1.621   1.656   8.533  0.1773  0.4505 -0.1427
 3787SOL    HW122823   1.539   1.704   8.547  0.8863  1.1182  1.6159
 3787SOL    HW222824   1.642   1.669   8.440 -0.5932  3.2439  0.0812
 3788SOL     OW22825   2.546   0.030   0.963 -0.0550 -0.5417 -0.0253
 3788SOL    HW122826   2.483   4.684   0.954 -1.0631  0.5191 -1.3081
 3788SOL    HW222827   2.606   4.721   1.030  1.1804  0.1957 -0.7472
 3789SOL     OW22828   2.315   4.431   2.028  0.1301  0.3665  0.5023
 3789SOL    HW122829   2.288   4.468   1.944 -0.7584 -0.5594  0.3812
 3789SOL    HW222830   2.272   4.345   2.021 -0.5397  0.8390 -1.3104
 3790SOL     OW22831   3.327   2.551   3.735  0.8939  0.2781 -0.2097
 3790SOL    HW122832   3.339   2.468   3.781  0.4640  0.2258 -0.1947
 3790SOL    HW222833   3.285   2.605   3.802 -0.1184  0.0672 -0.6765
 3791SOL     OW22834   2.348   0.453   7.005  0.5363  0.3528  0.4215
 3791SOL    HW122835   2.379   0.469   7.094  0.8439  1.8207  0.0479
 3791SOL    HW222836   2.352   0.539   6.964  1.5700  0.9072  1.6664
 3792SOL     OW22837   1.782   2.925   6.854 -0.0176  0.0326 -0.0421
 3792SOL    HW122838   1.808   2.935   6.946 -0.1036 -0.6267  0.0574
 3792SOL    HW222839   1.779   2.829   6.850  2.2432 -0.1070  1.1468
 3793SOL     OW22840   0.866   0.405   5.555 -0.0950 -0.0038  0.2556
 3793SOL    HW122841   0.832   0.384   5.468 -1.3323  0.4431  0.6353
 3793SOL    HW222842   0.785   0.412   5.605 -0.2163  0.1477  0.0366
 3794SOL     OW22843   1.816   3.612  16.491 -1.1379  0.1497  0.5849
 3794SOL    HW122844   1.728   3.633  16.523 -1.6935  1.0762 -1.5559
 3794SOL    HW222845   1.833   3.672  16.418  1.5497 -0.7496  0.4697
 3795SOL     OW22846   2.789   1.355  16.855 -0.2863  0.3397  0.4969
 3795SOL    HW122847   2.724   1.399  16.799 -1.2173 -0.0440  1.2773
 3795SOL    HW222848   2.738   1.280  16.887  0.2625 -0.7035 -1.0989
 3796SOL     OW22849   4.553   3.043  14.883  0.5371  0.0322  0.2886
 3796SOL    HW122850   4.641   3.055  14.847 -0.1706 -0.9907 -1.7837
 3796SOL    HW222851   4.530   3.136  14.882  1.2409  0.1935 -0.4366
 3797SOL     OW22852   1.660   2.546   0.958  0.4981 -0.1018 -0.0506
 3797SOL    HW122853   1.604   2.557   1.035  0.4418 -1.1073  0.0599
 3797SOL    HW222854   1.666   2.450   0.959 -0.4186 -0.1461  1.3452
 3798SOL     OW22855   2.839   3.010   7.069 -0.6037 -0.3695  0.1754
 3798SOL    HW122856   2.908   3.011   7.135  0.7517  0.6786 -1.2555
 3798SOL    HW222857   2.853   2.923   7.033 -1.7883  0.0697 -1.3331
 3799SOL     OW22858   3.626   4.378  15.418 -0.7189  0.4545 -0.0170
 3799SOL    HW122859   3.611   4.284  15.427 -0.7839  0.6064  1.4861
 3799SOL    HW222860   3.719   4.367  15.436 -0.5201 -2.9715 -3.2407
 3800SOL     OW22861   4.424   3.063   6.630 -0.8599  0.3974  0.9968
 3800SOL    HW122862   4.461   3.139   6.673  1.0162  0.7573 -1.2446
 3800SOL    HW222863   4.484   2.994   6.658 -1.6097 -0.0024  1.6100
 3801SOL     OW22864   1.472   3.399   3.785 -0.1040 -0.0158 -0.3975
 3801SOL    HW122865   1.509   3.483   3.758 -2.8782  1.6653  1.0801
 3801SOL    HW222866   1.422   3.418   3.864  0.8634 -1.7972  0.6552
 3802SOL     OW22867   0.509   2.602   6.786 -0.1249  0.3760  0.2905
 3802SOL    HW122868   0.500   2.697   6.793 -1.8534  0.3871 -2.0944
 3802SOL    HW222869   0.437   2.570   6.841 -0.4437  0.8069  0.1231
 3803SOL     OW22870   0.533   3.586   7.881 -0.6500 -0.1176  0.4508
 3803SOL    HW122871   0.498   3.624   7.962  0.0585 -1.6782  1.4870
 3803SOL    HW222872   0.588   3.512   7.906  2.2951  1.7249 -0.5865
 3804SOL     OW22873   2.742   2.258   0.472  0.5921  0.0535 -0.3436
 3804SOL    HW122874   2.688   2.287   0.399  2.2444 -0.3355 -1.7228
 3804SOL    HW222875   2.687   2.276   0.548  2.0526 -0.5662  0.8681
 3805SOL     OW22876   1.174   1.202  10.004  0.1410 -0.3944 -0.4620
 3805SOL    HW122877   1.117   1.278   9.991 -1.4732 -1.4404  0.4389
 3805SOL    HW222878   1.130   1.124   9.969 -2.1472  1.0515 -0.7882
 3806SOL     OW22879   3.043   4.514  16.626  0.0538  0.1408  0.0893
 3806SOL    HW122880   2.990   4.558  16.560 -0.6695  0.7213  1.0647
 3806SOL    HW222881   3.015   4.560  16.704 -0.5066  1.9602 -1.1916
 3807SOL     OW22882   2.148   0.758   7.012 -0.4242  0.2223  0.2693
 3807SOL    HW122883   2.225   0.745   6.957  1.2667 -1.0463  2.9458
 3807SOL    HW222884   2.081   0.711   6.963  0.1610  0.3385 -0.6337
 3808SOL     OW22885   3.309   0.446  10.680  0.5528  0.5425  0.1390
 3808SOL    HW122886   3.285   0.409  10.765 -1.4941  2.7212  0.5085
 3808SOL    HW222887   3.258   0.526  10.691 -0.2437  0.1944 -1.0632
 3809SOL     OW22888   2.576   2.433  14.071  0.0470 -0.0728 -0.0600
 3809SOL    HW122889   2.481   2.428  14.068 -0.0683  1.0846  1.8824
 3809SOL    HW222890   2.586   2.528  14.083 -2.4387  0.0344  1.0157
 3810SOL     OW22891   0.620   0.834   1.047 -0.0880 -0.2621 -0.0072
 3810SOL    HW122892   0.554   0.807   1.112  1.0405 -0.4122  1.0889
 3810SOL    HW222893   0.703   0.824   1.094 -0.2027 -0.9667  0.0403
 3811SOL     OW22894   0.923   0.081   3.038 -0.0192  0.8032  0.0523
 3811SOL    HW122895   0.888   0.032   3.112 -1.5465  0.8034 -0.6733
 3811SOL    HW222896   0.953   0.011   2.980 -1.8120  1.5777 -1.8317
 3812SOL     OW22897   1.593   2.007   5.315 -0.1610  0.4333 -0.3981
 3812SOL    HW122898   1.582   2.038   5.405  1.0861  0.4037 -0.2293
 3812SOL    HW222899   1.664   2.061   5.279 -0.8985  1.2292 -0.6627
 3813SOL     OW22900   1.167   0.991   1.204 -0.2174 -0.7042 -0.6493
 3813SOL    HW122901   1.109   0.923   1.238 -0.7951 -0.6760 -1.5835
 3813SOL    HW222902   1.118   1.026   1.129  1.2802 -0.0877 -1.3316
 3814SOL     OW22903   4.447   0.942   2.942 -0.0129 -0.0790  0.0243
 3814SOL    HW122904   4.485   1.018   2.985  0.8190  0.3991 -1.5765
 3814SOL    HW222905   4.494   0.926   2.860  0.3104  1.0367 -0.0061
 3815SOL     OW22906   3.425   3.606   8.611  0.2124 -0.1178  0.4659
 3815SOL    HW122907   3.410   3.700   8.621  2.5607 -0.1436  4.4791
 3815SOL    HW222908   3.506   3.610   8.559  0.6199  1.9544  1.2576
 3816SOL     OW22909   2.940   0.335   1.888 -0.5053  0.7362  0.5623
 3816SOL    HW122910   3.001   0.336   1.962  1.5297 -2.7161 -1.0754
 3816SOL    HW222911   2.899   0.251   1.903  1.5085 -0.6737 -1.7495
 3817SOL     OW22912   2.198   1.336   8.943 -0.7437 -0.0177  0.7921
 3817SOL    HW122913   2.159   1.405   8.997 -2.2480 -1.1471  1.1629
 3817SOL    HW222914   2.248   1.398   8.890 -1.7004 -0.5912 -0.8037
 3818SOL     OW22915   0.125   0.887   9.354 -0.0361 -0.4635  0.3136
 3818SOL    HW122916   0.099   0.971   9.316 -0.3835 -0.2309  1.0809
 3818SOL    HW222917   0.144   0.829   9.280  0.2067  1.3848 -1.0726
 3819SOL     OW22918   2.685   4.187   5.460  0.6488 -0.0225 -0.0680
 3819SOL    HW122919   2.719   4.235   5.536  4.1480 -0.7332 -1.1876
 3819SOL    HW222920   2.729   4.103   5.472  0.9660  0.2357  0.5761
 3820SOL     OW22921   3.709   3.680   7.721  0.3449 -0.8015  0.3822
 3820SOL    HW122922   3.766   3.660   7.795 -0.2202 -0.3912  0.9362
 3820SOL    HW222923   3.730   3.773   7.711 -1.3244 -0.3143  1.3512
 3821SOL     OW22924   0.626   3.311   8.638  0.3936  0.5116  0.2956
 3821SOL    HW122925   0.558   3.300   8.705  0.4474  0.9955  0.4343
 3821SOL    HW222926   0.672   3.389   8.670  0.6104  0.0501  1.1244
 3822SOL     OW22927   0.487   2.270   7.517 -0.3405  0.3432 -0.3941
 3822SOL    HW122928   0.482   2.224   7.600  0.5936  0.6754 -0.1483
 3822SOL    HW222929   0.577   2.304   7.509  0.0271 -0.8869 -1.5886
 3823SOL     OW22930   2.289   0.289  17.177 -0.1687  0.0387 -0.3332
 3823SOL    HW122931   2.306   0.227  17.106 -1.4461 -2.7703  1.8330
 3823SOL    HW222932   2.194   0.288  17.179 -0.1201  1.1117  2.2208
 3824SOL     OW22933   4.315   2.920   6.403 -0.1802 -0.2045  0.3298
 3824SOL    HW122934   4.291   2.994   6.347  0.9319  0.0019  0.1454
 3824SOL    HW222935   4.346   2.963   6.482  0.0525 -0.5167  0.4083
 3825SOL     OW22936   3.583   1.168  15.509  0.3139 -0.2878  0.4103
 3825SOL    HW122937   3.540   1.089  15.541 -0.5952  0.4884  1.1212
 3825SOL    HW222938   3.509   1.210  15.465  0.6946 -0.6083 -0.5157
 3826SOL     OW22939   1.676   4.424  15.117 -0.4196 -0.1247 -0.0437
 3826SOL    HW122940   1.762   4.451  15.149  0.9109 -2.2440 -1.9506
 3826SOL    HW222941   1.653   4.344  15.164 -0.7153 -1.4693 -2.4739
 3827SOL     OW22942   1.485   3.144   7.874 -0.1830 -0.0173  0.0251
 3827SOL    HW122943   1.455   3.226   7.834 -0.8203 -0.2702 -0.0252
 3827SOL    HW222944   1.415   3.140   7.939 -1.1708 -2.0155 -1.1702
 3828SOL     OW22945   3.529   2.209   1.340 -0.1794 -0.1816 -1.0331
 3828SOL    HW122946   3.602   2.166   1.296 -1.3507 -1.5940 -1.5960
 3828SOL    HW222947   3.585   2.256   1.402  0.4848  0.8976 -2.4550
 3829SOL     OW22948   2.955   2.406  10.669 -0.3852 -0.0824 -0.1011
 3829SOL    HW122949   2.910   2.484  10.703  0.4086  0.9674 -1.4914
 3829SOL    HW222950   3.024   2.383  10.731 -0.8446  1.4866  1.0214
 3830SOL     OW22951   2.763   0.075   2.690 -0.2185  0.0762 -0.2728
 3830SOL    HW122952   2.699   0.004   2.681 -1.4692  1.2728 -0.8922
 3830SOL    HW222953   2.700   0.143   2.666 -0.5080 -0.8442 -2.1362
 3831SOL     OW22954   0.966   3.671   3.254 -0.2336  0.1776  0.5599
 3831SOL    HW122955   1.003   3.755   3.282 -2.0291  0.5052  1.9233
 3831SOL    HW222956   0.933   3.631   3.335  0.9901  0.1139  1.0315
 3832SOL     OW22957   0.207   3.038   4.963 -0.2121 -0.8967  0.5558
 3832SOL    HW122958   0.261   2.959   4.952 -0.5769 -1.0182 -0.3283
 3832SOL    HW222959   0.263   3.098   4.914 -0.5382 -0.9315  0.1459
 3833SOL     OW22960   3.455   1.701   7.290  0.1503 -0.3519 -0.0116
 3833SOL    HW122961   3.373   1.675   7.247 -0.4746 -0.4274  1.2020
 3833SOL    HW222962   3.425   1.774   7.344  1.0110  1.0890 -1.4898
 3834SOL     OW22963   2.449   2.504   7.181  0.4700  0.5441  0.0031
 3834SOL    HW122964   2.442   2.570   7.113 -2.8939  1.7696  1.5674
 3834SOL    HW222965   2.482   2.565   7.247 -1.3131  0.1676  1.2395
 3835SOL     OW22966   2.659   2.338   4.793 -0.1702  0.0767 -0.5329
 3835SOL    HW122967   2.625   2.373   4.711  1.9555  1.0879 -0.9710
 3835SOL    HW222968   2.725   2.285   4.749 -0.9027 -1.1001 -0.2191
 3836SOL     OW22969   4.688   3.544  14.856 -0.0732  0.1234  0.2769
 3836SOL    HW122970   0.014   3.588  14.923 -0.8737 -0.6282  1.3820
 3836SOL    HW222971   4.609   3.519  14.904  1.2773 -2.7454  1.0176
 3837SOL     OW22972   4.080   1.885   6.368  0.1561  0.0689  0.1312
 3837SOL    HW122973   4.104   1.963   6.418 -0.7282  0.7102 -0.4453
 3837SOL    HW222974   4.159   1.836   6.390  0.6015  1.4478  1.6576
 3838SOL     OW22975   0.438   4.651  16.905 -0.1392  0.1774 -0.4996
 3838SOL    HW122976   0.534   4.651  16.910 -0.2410  0.2087  1.2742
 3838SOL    HW222977   0.418   4.583  16.841  1.9153 -0.0300 -0.9212
 3839SOL     OW22978   4.569   1.939   0.326  0.0256  0.1692 -0.6092
 3839SOL    HW122979   4.479   1.960   0.350  0.3308 -0.5479  1.1753
 3839SOL    HW222980   4.615   1.962   0.407 -2.7401  1.0103  0.7151
 3840SOL     OW22981   3.444   1.759  13.265  0.3373 -0.4424 -0.6973
 3840SOL    HW122982   3.387   1.802  13.329  1.4289 -0.8421  0.5347
 3840SOL    HW222983   3.471   1.831  13.207 -1.6560  0.6084 -0.3443
 3841SOL     OW22984   1.797   2.178   9.256 -0.0710 -0.3219  0.0682
 3841SOL    HW122985   1.839   2.207   9.337  0.4260  0.3993 -0.4496
 3841SOL    HW222986   1.843   2.234   9.194 -0.6492 -1.5957 -1.4965
 3842SOL     OW22987   4.566   0.518   5.819  0.3645  0.1568 -0.1236
 3842SOL    HW122988   4.482   0.504   5.863  1.1554 -0.7090  1.0855
 3842SOL    HW222989   4.622   0.453   5.860 -0.2588  0.5167  1.2970
 3843SOL     OW22990   4.571   0.381   6.256 -0.2040  0.0769 -0.5913
 3843SOL    HW122991   4.627   0.411   6.327  2.5963 -0.9725 -2.3394
 3843SOL    HW222992   4.502   0.447   6.259  1.1043  1.3463  0.9607
 3844SOL     OW22993   4.079   2.438   4.638 -0.1071  0.5357 -0.4879
 3844SOL    HW122994   4.032   2.358   4.616  2.3949 -1.1183  0.2647
 3844SOL    HW222995   4.011   2.506   4.633 -1.5029 -0.8359 -0.2894
 3845SOL     OW22996   2.351   4.103   7.268  0.1823  0.1274  0.0609
 3845SOL    HW122997   2.298   4.167   7.316 -2.6062 -3.0884  1.3092
 3845SOL    HW222998   2.303   4.020   7.271  1.3156 -0.4735  1.8133
 3846SOL     OW22999   1.027   2.339   2.916  0.0573 -0.3236  0.2774
 3846SOL    HW123000   1.117   2.308   2.911  0.6864  1.1757  2.4417
 3846SOL    HW223001   1.000   2.345   2.824  0.4662  3.2630  0.4012
 3847SOL     OW23002   1.006   2.245   4.402  0.7337  0.3237 -0.1740
 3847SOL    HW123003   0.977   2.180   4.466 -1.9251  2.8218  1.1712
 3847SOL    HW223004   1.019   2.199   4.320  0.3117  0.4528 -0.3092
 3848SOL     OW23005   2.699   4.705  10.966 -0.2915 -0.3637  0.3878
 3848SOL    HW123006   2.648   4.657  10.901 -0.9768 -1.8622  2.0154
 3848SOL    HW223007   2.695   4.642  11.038  1.7044  2.1868  2.7728
 3849SOL     OW23008   2.923   1.590   9.096  0.0784  0.5208  0.7147
 3849SOL    HW123009   2.935   1.516   9.155 -2.3815 -1.6321 -1.4753
 3849SOL    HW223010   2.844   1.563   9.050 -0.7060  2.1029  1.1140
 3850SOL     OW23011   4.053   1.972   3.461  0.3208 -0.1829 -0.0590
 3850SOL    HW123012   4.117   2.018   3.406 -3.1895  2.1832 -2.1891
 3850SOL    HW223013   3.978   1.983   3.402  1.5905  0.0945 -1.6322
 3851SOL     OW23014   2.211   2.346   5.764  0.0122  0.0919 -0.4182
 3851SOL    HW123015   2.272   2.292   5.814 -0.3995  0.4707  0.4964
 3851SOL    HW223016   2.209   2.434   5.802 -2.0121 -0.9437  1.8164
 3852SOL     OW23017   1.920   3.998   3.891  0.4040  0.0171  0.1754
 3852SOL    HW123018   1.946   3.916   3.931  1.3996  0.7962  1.1284
 3852SOL    HW223019   1.974   4.008   3.812  1.3320  2.3439  1.1075
 3853SOL     OW23020   3.405   1.904   4.875 -0.1943 -0.2170 -0.1646
 3853SOL    HW123021   3.401   1.973   4.808  0.5290  1.1306  1.1749
 3853SOL    HW223022   3.381   1.834   4.815  3.3412 -0.6829 -1.0113
 3854SOL     OW23023   0.802   1.951   6.556  0.4971 -0.2105 -0.3122
 3854SOL    HW123024   0.778   2.022   6.496  1.0021 -1.0541 -1.5180
 3854SOL    HW223025   0.815   2.004   6.635 -0.9306  0.8876 -0.8214
 3855SOL     OW23026   4.724   1.186   2.403 -0.4614 -0.3232 -0.2479
 3855SOL    HW123027   4.708   1.190   2.497  0.5821 -3.2436  0.0672
 3855SOL    HW223028   4.654   1.126   2.378 -1.7676  1.4608 -0.8483
 3856SOL     OW23029   4.414   1.230   4.401  0.4826 -0.4653 -0.1384
 3856SOL    HW123030   4.381   1.232   4.311 -0.6429 -1.4127  0.2557
 3856SOL    HW223031   4.416   1.324   4.421 -1.5082 -0.9113  2.0997
 3857SOL     OW23032   2.936   0.618  10.754 -0.6023  0.0966  0.1613
 3857SOL    HW123033   2.916   0.616  10.847  0.0580 -0.8516  0.2853
 3857SOL    HW223034   2.851   0.642  10.716 -0.5689  0.2541  0.1852
 3858SOL     OW23035   2.580   1.173   4.170 -0.0057 -0.0026  0.5707
 3858SOL    HW123036   2.572   1.242   4.105 -0.2920 -0.9589 -0.4061
 3858SOL    HW223037   2.656   1.125   4.136 -0.2509 -0.3353  0.4997
 3859SOL     OW23038   1.068   2.894   8.833 -0.2924 -0.3580  0.3124
 3859SOL    HW123039   1.079   2.801   8.853  0.2660 -0.6080 -1.1023
 3859SOL    HW223040   1.076   2.934   8.919  0.0167  1.9218 -0.7784
 3860SOL     OW23041   2.648   1.418   2.426 -0.0862 -0.3740  0.6285
 3860SOL    HW123042   2.725   1.451   2.380 -1.2477  0.1898 -0.9057
 3860SOL    HW223043   2.639   1.335   2.379  1.3651 -1.5643  2.4261
 3861SOL     OW23044   3.652   3.931  11.193 -0.7150 -0.7941 -0.3813
 3861SOL    HW123045   3.690   3.869  11.130  1.7341  0.1045  0.2116
 3861SOL    HW223046   3.693   3.898  11.274 -1.7312 -0.5803  0.2122
 3862SOL     OW23047   3.047   3.596   2.267  0.1684 -0.2089 -0.9594
 3862SOL    HW123048   2.999   3.514   2.276  1.0104 -0.5775  0.0944
 3862SOL    HW223049   2.974   3.650   2.236 -0.7967 -2.4764 -2.6345
 3863SOL     OW23050   2.965   1.115   8.110  0.0175  0.0506 -0.1964
 3863SOL    HW123051   3.022   1.150   8.179 -0.7410 -0.2645  0.5808
 3863SOL    HW223052   3.031   1.118   8.040  0.5360 -2.5032  0.1847
 3864SOL     OW23053   3.187   0.025   2.213  0.1077  0.0634 -0.1023
 3864SOL    HW123054   3.241   4.679   2.181 -0.3519  0.0730 -0.8837
 3864SOL    HW223055   3.110   4.706   2.248 -0.5678  2.0388  0.9944
 3865SOL     OW23056   3.673   0.786   5.757 -0.0005  0.1224  0.3567
 3865SOL    HW123057   3.598   0.742   5.719  1.9923  0.1552 -3.5842
 3865SOL    HW223058   3.654   0.762   5.848 -0.8865 -0.9873 -0.1291
 3866SOL     OW23059   1.605   3.046   2.937 -0.6598 -0.0173 -0.0031
 3866SOL    HW123060   1.547   3.030   2.862 -0.2392  2.0392 -0.7794
 3866SOL    HW223061   1.625   2.958   2.968  1.5376  0.8070  0.9272
 3867SOL     OW23062   3.194   4.117   6.485 -0.3350  0.3807  0.3906
 3867SOL    HW123063   3.196   4.057   6.559  2.3401  1.2396  0.9945
 3867SOL    HW223064   3.286   4.112   6.461 -0.6349 -0.4135 -0.6079
 3868SOL     OW23065   2.970   3.529   8.287 -0.5495 -0.1145  0.2581
 3868SOL    HW123066   2.961   3.454   8.346 -1.3509  0.0201  0.3109
 3868SOL    HW223067   3.049   3.568   8.325  1.1807 -2.5401 -0.7881
 3869SOL     OW23068   2.679   4.680   3.103  0.2835  0.0277  0.2043
 3869SOL    HW123069   2.686   4.585   3.092  1.7076  0.1100  0.3520
 3869SOL    HW223070   2.597   4.693   3.055 -0.6156  0.5300  1.9108
 3870SOL     OW23071   2.107   3.126   5.894  0.1839  0.1646  0.1829
 3870SOL    HW123072   2.020   3.106   5.930  0.7767 -0.0463  1.4582
 3870SOL    HW223073   2.098   3.155   5.803 -1.2886 -3.9270 -0.9617
 3871SOL     OW23074   2.746   1.441   4.645  0.3424  0.0136 -0.4215
 3871SOL    HW123075   2.729   1.398   4.561 -1.4311  1.8740 -1.0030
 3871SOL    HW223076   2.665   1.436   4.695  0.9490  0.2597  0.5705
 3872SOL     OW23077   1.237   0.092  12.860 -0.4023 -0.2376 -0.2459
 3872SOL    HW123078   1.145   0.088  12.833 -0.5261  2.2979 -0.1994
 3872SOL    HW223079   1.246   0.010  12.908  0.6469 -0.3016 -0.5588
 3873SOL     OW23080   2.653   0.717  15.567  0.1988  0.1341  0.3057
 3873SOL    HW123081   2.732   0.770  15.566  0.7402 -0.6560  1.7480
 3873SOL    HW223082   2.578   0.774  15.586 -0.9034 -1.5198  0.8833
 3874SOL     OW23083   4.252   4.389   4.532 -0.1209 -0.1656  0.1179
 3874SOL    HW123084   4.309   4.431   4.595  1.2729 -1.8586 -0.0127
 3874SOL    HW223085   4.314   4.322   4.501 -1.7001 -0.3817 -2.6273
 3875SOL     OW23086   1.917   0.358   6.057 -0.0792  0.4738  0.3700
 3875SOL    HW123087   1.865   0.396   5.987 -2.0370 -0.2779  1.4012
 3875SOL    HW223088   1.988   0.324   6.003 -0.7668 -0.4534  0.0468
 3876SOL     OW23089   0.907   2.715   8.196  0.4394 -0.2024  0.3166
 3876SOL    HW123090   0.812   2.730   8.194  0.6304  0.6086 -2.7592
 3876SOL    HW223091   0.943   2.803   8.211 -0.8373  0.1378  1.4496
 3877SOL     OW23092   1.244   2.195   5.889  0.4602 -0.4028 -0.4922
 3877SOL    HW123093   1.164   2.146   5.867  0.1160  0.3348 -0.8797
 3877SOL    HW223094   1.210   2.245   5.963  2.8398 -1.2318  1.1632
 3878SOL     OW23095   3.641   4.545  10.235  0.6432  0.1782 -0.1265
 3878SOL    HW123096   3.696   4.606  10.285 -0.3586  2.3133 -1.6250
 3878SOL    HW223097   3.598   4.612  10.182  0.8841  0.9369  0.6378
 3879SOL     OW23098   1.447   0.764   7.645  0.5727 -0.5187  0.3089
 3879SOL    HW123099   1.437   0.748   7.739  0.4728  1.6587  0.6630
 3879SOL    HW223100   1.490   0.849   7.641 -0.2987 -0.1365 -1.1610
 3880SOL     OW23101   0.415   0.493  10.499  0.2495 -0.2898 -0.1796
 3880SOL    HW123102   0.473   0.492  10.422  1.7400  1.4334  0.9000
 3880SOL    HW223103   0.470   0.450  10.564  1.0696  1.7944  0.5066
 3881SOL     OW23104   2.673   2.134   3.801  0.3539  0.4351  0.7825
 3881SOL    HW123105   2.694   2.149   3.709 -0.2986 -2.5464  0.1297
 3881SOL    HW223106   2.763   2.124   3.834  0.1597  0.6460  1.3664
 3882SOL     OW23107   0.164   4.412   6.111 -0.5059  0.4068  0.2396
 3882SOL    HW123108   0.183   4.320   6.090 -0.1744  0.0637  2.0705
 3882SOL    HW223109   0.091   4.406   6.172  0.9646 -1.2744  1.8243
 3883SOL     OW23110   2.106   3.520   4.643 -0.0447  0.3942 -0.4746
 3883SOL    HW123111   2.170   3.538   4.574  0.7861  1.5182  0.5991
 3883SOL    HW223112   2.034   3.491   4.587  0.8406 -1.2790 -0.7306
 3884SOL     OW23113   0.538   2.596  16.797 -0.3162  0.3873  0.0852
 3884SOL    HW123114   0.612   2.640  16.757  0.4432 -0.7412  0.2297
 3884SOL    HW223115   0.554   2.639  16.881 -0.7448  0.1106  0.3122
 3885SOL     OW23116   3.177   1.686   0.874 -0.1465 -0.4039 -0.1961
 3885SOL    HW123117   3.092   1.682   0.831 -0.2970 -0.9925  0.1447
 3885SOL    HW223118   3.213   1.771   0.849  1.5011 -0.8995  0.4119
 3886SOL     OW23119   0.677   2.155   4.689 -0.6745 -0.6244 -0.7968
 3886SOL    HW123120   0.675   2.077   4.633  2.7345 -0.7049 -0.8068
 3886SOL    HW223121   0.753   2.145   4.747  0.9949 -0.7621 -2.9770
 3887SOL     OW23122   4.685   3.322   4.449 -0.2934  0.3477 -0.3684
 3887SOL    HW123123   4.659   3.327   4.357 -0.4396  0.0422 -0.3449
 3887SOL    HW223124   4.701   3.228   4.464 -2.4343  0.2423  1.3132
 3888SOL     OW23125   2.621   4.331   4.703 -0.5552  0.2438 -0.1775
 3888SOL    HW123126   2.690   4.396   4.692  1.9040 -2.1943  0.6415
 3888SOL    HW223127   2.670   4.249   4.711  0.7897  1.1183  0.5391
 3889SOL     OW23128   3.741   2.765   8.241  0.0320 -0.1791  0.2489
 3889SOL    HW123129   3.667   2.757   8.181  1.8746 -1.0710 -1.8622
 3889SOL    HW223130   3.678   2.787   8.310 -1.7356  2.1556 -2.0946
 3890SOL     OW23131   3.442   4.213   7.669  0.4871  0.7796 -0.3125
 3890SOL    HW123132   3.383   4.138   7.677 -1.1839  2.2379  0.8528
 3890SOL    HW223133   3.407   4.276   7.731  0.5459 -0.7303  1.2727
 3891SOL     OW23134   2.437   3.862   6.365 -0.1336 -0.3426 -0.0166
 3891SOL    HW123135   2.419   3.882   6.457  0.2395  1.1054 -0.2492
 3891SOL    HW223136   2.460   3.772   6.387  1.4244 -0.6774 -3.0434
 3892SOL     OW23137   1.372   1.729   1.459 -0.1447  0.2060 -0.2801
 3892SOL    HW123138   1.373   1.703   1.367 -1.4216  0.5633 -0.3908
 3892SOL    HW223139   1.319   1.657   1.492 -0.5908  0.9803  0.6818
 3893SOL     OW23140   4.588   2.431   0.453 -0.5235 -0.0674  0.5385
 3893SOL    HW123141   4.612   2.465   0.367  0.3735  0.0245  0.8238
 3893SOL    HW223142   4.501   2.470   0.465 -0.6393 -0.4310  0.9262
 3894SOL     OW23143   3.082   1.825   8.475  0.2751 -0.2085 -0.6112
 3894SOL    HW123144   3.064   1.763   8.404 -0.1396 -2.3082  1.3367
 3894SOL    HW223145   3.023   1.897   8.454  0.2487  0.2608  1.0506
 3895SOL     OW23146   2.484   3.191   7.780 -0.1002  0.4117  0.4239
 3895SOL    HW123147   2.455   3.231   7.862 -0.7277  1.0244 -0.0953
 3895SOL    HW223148   2.442   3.259   7.728 -1.9220 -1.0211  0.0479
 3896SOL     OW23149   0.713   4.604   9.143  0.2429  0.0651  0.6936
 3896SOL    HW123150   0.684   4.539   9.078 -1.1163  0.3697  0.9819
 3896SOL    HW223151   0.635   4.610   9.199 -0.3449  1.9024 -0.3188
 3897SOL     OW23152   2.328   4.655   6.382  0.6025 -0.3831  0.8244
 3897SOL    HW123153   2.361   4.569   6.359 -0.2727 -0.3058 -0.7341
 3897SOL    HW223154   2.256   4.624   6.437  2.6903 -1.5830  2.9114
 3898SOL     OW23155   4.347   2.158   7.257  0.1977  0.3279 -0.1516
 3898SOL    HW123156   4.436   2.142   7.225  1.0300  3.3448  0.6592
 3898SOL    HW223157   4.340   2.253   7.260  2.2100  0.4631 -0.0165
 3899SOL     OW23158   3.975   0.443   8.619  0.3567 -0.4467 -0.3808
 3899SOL    HW123159   3.933   0.514   8.571  0.7934 -1.0384 -1.6473
 3899SOL    HW223160   3.985   0.492   8.700 -0.2902 -0.7629 -0.1067
 3900SOL     OW23161   3.821   2.377   0.701  0.1518  0.3076 -0.3129
 3900SOL    HW123162   3.804   2.283   0.694  1.4069  0.0565  0.1909
 3900SOL    HW223163   3.915   2.378   0.682 -0.1541 -1.0658 -1.9259
 3901SOL     OW23164   0.549   3.378  14.913 -0.4491  0.1560  0.2971
 3901SOL    HW123165   0.619   3.370  14.979 -0.6712  1.6030  0.6975
 3901SOL    HW223166   0.550   3.471  14.894  0.4413  0.0518 -0.1565
 3902SOL     OW23167   2.649   1.117  15.678  0.4186  0.3199  0.2472
 3902SOL    HW123168   2.692   1.195  15.642 -0.4573  0.3986 -0.6026
 3902SOL    HW223169   2.557   1.135  15.663  0.2393 -0.5501  0.3193
 3903SOL     OW23170   4.009   4.056   5.647  0.3576 -0.5660  0.2575
 3903SOL    HW123171   4.046   4.136   5.686 -0.3900  1.0037 -2.3052
 3903SOL    HW223172   3.953   4.031   5.721  0.0076 -1.0843 -0.1913
 3904SOL     OW23173   2.663   0.089  13.806  0.2142  0.4615  0.8107
 3904SOL    HW123174   2.629   0.004  13.834  0.9315 -0.1519 -0.1902
 3904SOL    HW223175   2.616   0.087  13.723  0.9092 -0.0658  0.4311
 3905SOL     OW23176   2.850   0.579  14.196  0.1553  0.0800  0.0519
 3905SOL    HW123177   2.911   0.573  14.122  1.2549  4.4273  0.5908
 3905SOL    HW223178   2.795   0.652  14.169 -2.9420 -2.6336 -0.9148
 3906SOL     OW23179   1.909   4.443   8.675 -0.2889  0.0691 -0.4029
 3906SOL    HW123180   1.818   4.464   8.655 -0.9058 -0.4118  1.8248
 3906SOL    HW223181   1.903   4.348   8.671  0.0750  0.0311 -0.0996
 3907SOL     OW23182   3.066   1.096   9.001 -0.2532  0.4092 -0.5795
 3907SOL    HW123183   3.128   1.025   9.016  0.7626  1.1596 -1.2744
 3907SOL    HW223184   3.007   1.085   9.075  1.7408  0.2408  0.9796
 3908SOL     OW23185   3.729   2.771   9.487 -0.6478 -0.0501  0.3817
 3908SOL    HW123186   3.725   2.700   9.424  2.0416 -1.7245  2.1010
 3908SOL    HW223187   3.665   2.732   9.547 -1.6840  0.1725 -0.5684
 3909SOL     OW23188   3.189   2.182   1.169 -0.3935  0.8065 -0.0315
 3909SOL    HW123189   3.163   2.140   1.087 -0.9760  2.1198 -0.5150
 3909SOL    HW223190   3.213   2.270   1.140 -0.6772  0.3880 -1.5462
 3910SOL     OW23191   1.891   2.103  16.448  0.1482 -1.1722 -0.3703
 3910SOL    HW123192   1.812   2.067  16.488 -1.2009  0.7219 -1.3292
 3910SOL    HW223193   1.867   2.175  16.390  2.5257 -0.0160  0.0650
 3911SOL     OW23194   3.660   4.656   4.706 -0.1303 -0.4886 -0.1349
 3911SOL    HW123195   3.679   4.566   4.734  2.4018 -0.0800 -0.6129
 3911SOL    HW223196   3.571   4.643   4.672  0.2823 -0.4509 -1.2099
 3912SOL     OW23197   1.420   1.080  17.605  0.1091 -0.2486  0.1544
 3912SOL    HW123198   1.429   1.126  17.522  0.2851  0.3771  0.5217
 3912SOL    HW223199   1.325   1.093  17.605 -0.0409 -1.2906  0.5731
 3913SOL     OW23200   2.328   3.034   4.982  0.8109 -1.3513  0.2935
 3913SOL    HW123201   2.372   3.040   4.897 -0.7132 -2.7834 -0.5855
 3913SOL    HW223202   2.385   2.970   5.024  2.0005  0.8232  1.9955
 3914SOL     OW23203   0.076   0.844   2.228 -0.5107 -0.3442 -0.2065
 3914SOL    HW123204   0.008   0.898   2.269  0.7609  1.4566 -0.4835
 3914SOL    HW223205   0.147   0.850   2.291 -0.0021 -2.0199 -0.6115
 3915SOL     OW23206   0.365   1.589   4.151  0.0331 -0.7724  0.4758
 3915SOL    HW123207   0.377   1.573   4.245 -0.7645  1.0226  0.8881
 3915SOL    HW223208   0.278   1.550   4.142  0.4175 -1.3663 -0.6050
 3916SOL     OW23209   3.872   1.500   5.099  0.0395 -0.0993  0.0974
 3916SOL    HW123210   3.847   1.528   5.011 -0.1483 -0.1095  0.1481
 3916SOL    HW223211   3.946   1.556   5.123  2.1446 -2.9369  0.2681
 3917SOL     OW23212   2.880   3.571   6.129  0.4026 -0.2603 -0.0937
 3917SOL    HW123213   2.875   3.666   6.144 -0.1408 -0.5211  1.3787
 3917SOL    HW223214   2.803   3.555   6.074  0.6596 -0.4666 -0.3968
 3918SOL     OW23215   0.966   0.847  16.718  0.7866 -0.2955  0.2982
 3918SOL    HW123216   0.901   0.784  16.687 -0.2644  1.2352 -0.6449
 3918SOL    HW223217   1.048   0.824  16.676  1.0375  0.0011  0.6286
 3919SOL     OW23218   2.312   2.599   6.618 -0.1399 -0.7336  0.3113
 3919SOL    HW123219   2.331   2.626   6.708  1.6822 -1.2119  0.0697
 3919SOL    HW223220   2.365   2.660   6.567 -1.8149  0.4661 -0.0262
 3920SOL     OW23221   4.200   3.896  11.315  0.2441  0.2194 -0.0655
 3920SOL    HW123222   4.135   3.920  11.249  1.3426  1.0417 -0.8402
 3920SOL    HW223223   4.234   3.985  11.317  0.2080  0.2400 -0.3382
 3921SOL     OW23224   3.281   3.642   5.787 -0.3865 -0.0573 -0.1887
 3921SOL    HW123225   3.235   3.725   5.802  3.8471  1.5906  3.7834
 3921SOL    HW223226   3.357   3.672   5.738 -1.5026 -0.0535 -1.9332
 3922SOL     OW23227   2.615   4.428  10.301  0.0604  0.4123 -0.1571
 3922SOL    HW123228   2.611   4.340  10.338  0.6592  0.4121 -0.0806
 3922SOL    HW223229   2.710   4.438  10.299 -0.0140  1.2051  0.2386
 3923SOL     OW23230   1.539   4.212   1.544 -0.1113  0.1652 -0.7732
 3923SOL    HW123231   1.451   4.184   1.569  0.9807 -2.4299  0.1845
 3923SOL    HW223232   1.525   4.306   1.532 -1.3097 -0.0423 -1.0442
 3924SOL     OW23233   3.414   0.576  16.011 -0.2400  0.1391  0.1601
 3924SOL    HW123234   3.386   0.577  16.103 -0.4750 -0.5042  0.0947
 3924SOL    HW223235   3.334   0.542  15.972 -0.5734 -0.6934  1.5787
 3925SOL     OW23236   4.136   2.654   3.473 -0.4236  0.4004 -0.3805
 3925SOL    HW123237   4.107   2.731   3.423  1.9819  2.2959  1.1148
 3925SOL    HW223238   4.075   2.586   3.447  1.0872 -1.3341  0.6173
 3926SOL     OW23239   1.280   3.173   0.646 -0.0169 -0.5451 -0.0897
 3926SOL    HW123240   1.359   3.212   0.682 -0.8105  1.6036 -0.7013
 3926SOL    HW223241   1.307   3.185   0.555 -0.2415 -0.9186 -0.2048
 3927SOL     OW23242   3.721   4.335   1.257 -0.2133 -0.3769 -0.2120
 3927SOL    HW123243   3.716   4.240   1.267  0.8976 -0.5423 -1.2473
 3927SOL    HW223244   3.701   4.354   1.165  4.4267  0.2197 -1.0707
 3928SOL     OW23245   2.314   1.111   5.434 -0.1068  0.0439 -0.1831
 3928SOL    HW123246   2.268   1.153   5.507  1.0118  0.1144  0.4754
 3928SOL    HW223247   2.243   1.065   5.389 -0.8017 -0.6358  1.6470
 3929SOL     OW23248   3.850   0.758   8.985  0.7590 -0.0690  0.5336
 3929SOL    HW123249   3.757   0.756   9.006  0.7949  0.0286  0.7018
 3929SOL    HW223250   3.880   0.766   9.076  1.5270  1.7215  0.1295
 3930SOL     OW23251   1.179   0.203   7.905 -0.5604  0.2339 -0.0355
 3930SOL    HW123252   1.217   0.145   7.839 -0.8117  0.4719 -0.3934
 3930SOL    HW223253   1.219   0.287   7.884 -1.0854  1.3425  3.4544
 3931SOL     OW23254   3.285   1.459   5.075 -0.4632  0.0189  0.4593
 3931SOL    HW123255   3.195   1.457   5.107 -0.1290 -2.9370  1.2159
 3931SOL    HW223256   3.274   1.427   4.985 -1.6150  3.1840 -0.5306
 3932SOL     OW23257   2.350   2.325   0.711 -0.7876  0.3957  0.2969
 3932SOL    HW123258   2.309   2.393   0.763  0.9790  1.4710  0.2653
 3932SOL    HW223259   2.336   2.252   0.771 -0.9182  0.1465 -0.0298
 3933SOL     OW23260   2.531   1.541   3.143  0.7448 -0.4479  0.0598
 3933SOL    HW123261   2.495   1.538   3.231  0.0376 -3.3329 -0.3438
 3933SOL    HW223262   2.470   1.603   3.103  0.4036 -1.3566 -0.8275
 3934SOL     OW23263   4.132   0.056   0.706 -0.1457  0.7154 -0.2530
 3934SOL    HW123264   4.228   0.058   0.709 -0.2133  3.0480  0.5450
 3934SOL    HW223265   4.112   4.721   0.778 -1.9162  0.6116 -0.8273
 3935SOL     OW23266   1.450   2.610   8.114  0.1524  0.2691 -0.3845
 3935SOL    HW123267   1.460   2.551   8.188 -0.9574  0.6106  0.0391
 3935SOL    HW223268   1.401   2.681   8.157 -1.1348 -0.8498  0.0034
 3936SOL     OW23269   3.934   0.414   9.009  0.2393  0.2751 -0.0666
 3936SOL    HW123270   3.918   0.368   9.092  3.0988 -0.7952 -0.0868
 3936SOL    HW223271   3.843   0.420   8.980  0.5795 -1.2914 -1.4886
 3937SOL     OW23272   3.325   2.805  13.242  0.0770 -0.2339 -0.4201
 3937SOL    HW123273   3.366   2.885  13.276  1.6866 -1.5560  0.6941
 3937SOL    HW223274   3.392   2.743  13.269 -0.3635 -0.0288  1.1706
 3938SOL     OW23275   4.381   0.199   4.018  0.0987 -0.2389  0.0848
 3938SOL    HW123276   4.472   0.196   3.989  0.8849 -0.5397  2.6443
 3938SOL    HW223277   4.346   0.120   3.975  0.4564 -0.9309  1.0588
 3939SOL     OW23278   1.589   0.906   2.468  0.3918 -0.1720  0.2499
 3939SOL    HW123279   1.680   0.924   2.445  0.4686 -0.3335  0.4383
 3939SOL    HW223280   1.582   0.826   2.417 -1.3105  1.0057 -1.3734
 3940SOL     OW23281   4.227   0.069   5.012 -0.1255 -0.2832  0.3726
 3940SOL    HW123282   4.263   0.009   5.077  1.6781 -1.1541 -1.3967
 3940SOL    HW223283   4.310   0.068   4.963  0.3626  2.7976  1.1189
 3941SOL     OW23284   3.944   2.580   7.586 -0.0811 -0.6920  0.4885
 3941SOL    HW123285   3.875   2.583   7.520 -0.0297 -1.2420  0.4086
 3941SOL    HW223286   3.976   2.670   7.583 -1.0131 -0.4030 -0.9886
 3942SOL     OW23287   0.152   3.641   0.956 -0.5170  0.5382  0.9276
 3942SOL    HW123288   0.220   3.661   0.892  0.2495 -0.6202  1.3709
 3942SOL    HW223289   0.159   3.546   0.946  0.5100  0.8385 -1.2792
 3943SOL     OW23290   1.268   4.699   9.089  0.1310 -0.3200 -0.1083
 3943SOL    HW123291   1.178   4.676   9.114 -0.3184  1.6367  0.0884
 3943SOL    HW223292   1.252   0.053   9.038  0.4361 -1.6786 -2.2958
 3944SOL     OW23293   2.402   3.530   3.840 -0.2792 -0.1779 -1.2227
 3944SOL    HW123294   2.422   3.518   3.748  3.6538 -1.4298 -0.1904
 3944SOL    HW223295   2.488   3.557   3.873 -0.1826 -1.7138 -0.2090
 3945SOL     OW23296   1.391   3.943  11.733 -0.0258  0.4784  0.4410
 3945SOL    HW123297   1.421   3.996  11.807 -0.3310  2.5621 -0.9426
 3945SOL    HW223298   1.307   3.984  11.711 -0.3617 -0.7312 -0.5436
 3946SOL     OW23299   4.386   3.009   2.486  0.4619  0.3782 -0.3853
 3946SOL    HW123300   4.309   2.956   2.507  2.3648 -2.0665  0.3906
 3946SOL    HW223301   4.399   3.051   2.571 -2.6787 -1.5250  1.0590
 3947SOL     OW23302   1.395   4.281   6.404  0.7082  0.5719  0.2525
 3947SOL    HW123303   1.397   4.340   6.480 -1.6267  1.7373 -0.5915
 3947SOL    HW223304   1.450   4.209   6.435 -0.5018 -0.5503 -0.2290
 3948SOL     OW23305   1.059   1.882   6.553 -1.0225  0.0654 -0.0312
 3948SOL    HW123306   0.970   1.899   6.523 -1.6524 -0.4031  1.5898
 3948SOL    HW223307   1.047   1.812   6.618 -0.2082  1.1143  1.2484
 3949SOL     OW23308   0.759   4.130   7.748  1.0135  0.1726 -0.0624
 3949SOL    HW123309   0.720   4.184   7.679  0.7777 -1.5678 -1.3170
 3949SOL    HW223310   0.782   4.203   7.804 -0.5548  0.0692  0.7109
 3950SOL     OW23311   3.187   0.128   8.489 -0.0082 -0.1136  0.4792
 3950SOL    HW123312   3.168   0.121   8.396 -1.4519 -1.1257  0.8469
 3950SOL    HW223313   3.100   0.148   8.522  0.7012  0.7700  1.8454
 3951SOL     OW23314   4.383   1.167  10.460 -0.1935 -0.2464 -0.0056
 3951SOL    HW123315   4.414   1.164  10.551  1.3163  0.0043 -0.5176
 3951SOL    HW223316   4.348   1.255  10.449  1.1430  0.4521  1.3724
 3952SOL     OW23317   3.163   1.846   1.746 -0.3466 -0.3842  0.7549
 3952SOL    HW123318   3.134   1.929   1.783  1.1752  0.1524  0.7281
 3952SOL    HW223319   3.210   1.818   1.825  1.1336 -1.6649 -0.5811
 3953SOL     OW23320   1.163   3.375   3.175 -0.1752  0.3355  0.2428
 3953SOL    HW123321   1.165   3.461   3.132 -0.1407  0.1844 -0.0562
 3953SOL    HW223322   1.208   3.389   3.258 -1.0264 -2.2204  1.1337
 3954SOL     OW23323   4.378   0.114   1.214 -0.1824  0.0385 -0.6257
 3954SOL    HW123324   4.349   0.023   1.203 -2.2812  0.6887 -0.3667
 3954SOL    HW223325   4.364   0.159   1.131  0.8546  2.5782  0.6026
 3955SOL     OW23326   3.351   4.396   2.952 -0.1626 -0.3581  0.2196
 3955SOL    HW123327   3.259   4.417   2.969 -0.2016  0.9823 -1.7251
 3955SOL    HW223328   3.384   4.387   3.042  2.4304  1.2945 -0.5591
 3956SOL     OW23329   2.806   3.790  14.590 -0.0804  0.2250  0.1177
 3956SOL    HW123330   2.812   3.819  14.681 -0.4816 -2.0811  0.8815
 3956SOL    HW223331   2.834   3.863  14.535 -0.8492  0.4918  0.0703
 3957SOL     OW23332   3.664   3.830   3.250  0.3149  0.3351  0.3053
 3957SOL    HW123333   3.627   3.917   3.266 -2.6725 -1.5093  3.5906
 3957SOL    HW223334   3.627   3.793   3.330 -1.1977  2.4834  0.6085
 3958SOL     OW23335   1.056   4.422   7.524  0.2959  0.2476 -0.1557
 3958SOL    HW123336   1.093   4.468   7.599 -0.0706  1.4174 -0.7042
 3958SOL    HW223337   0.978   4.475   7.509  0.3170 -0.4577 -2.9063
 3959SOL     OW23338   1.100   4.039  14.990  0.2107  0.5735 -0.3115
 3959SOL    HW123339   1.075   3.952  15.023 -0.5528  0.2196 -1.8141
 3959SOL    HW223340   1.065   4.014  14.904  1.1958 -1.3231 -0.1625
 3960SOL     OW23341   3.875   3.153   6.443 -0.0920 -0.0256  0.2551
 3960SOL    HW123342   3.899   3.061   6.446  1.4871  0.3996  0.8799
 3960SOL    HW223343   3.784   3.128   6.429 -0.8444  0.7284  3.9219
 3961SOL     OW23344   2.797   3.628   3.096 -0.1971 -0.3887 -0.1530
 3961SOL    HW123345   2.710   3.591   3.084 -0.9583  0.2699  3.1949
 3961SOL    HW223346   2.814   3.653   3.005 -1.1530 -0.1618 -0.2692
 3962SOL     OW23347   2.425   1.351   6.548 -0.6647 -0.0895 -0.1325
 3962SOL    HW123348   2.331   1.333   6.544 -0.5125 -1.2804  1.5777
 3962SOL    HW223349   2.437   1.332   6.642 -0.6658 -1.7232 -0.4653
 3963SOL     OW23350   3.385   1.072   9.358 -0.1077 -0.5483 -0.0787
 3963SOL    HW123351   3.445   1.080   9.432 -1.2288  0.8696  0.6970
 3963SOL    HW223352   3.311   1.120   9.396 -0.1043  0.1699 -0.9881
 3964SOL     OW23353   1.303   0.556   8.221 -0.8354  0.0654 -0.0064
 3964SOL    HW123354   1.369   0.493   8.251  0.8019  1.8445  0.1173
 3964SOL    HW223355   1.295   0.622   8.289  0.7330  0.6125 -0.3492
 3965SOL     OW23356   1.060   2.153   3.205  0.5734 -0.1893  0.3026
 3965SOL    HW123357   1.090   2.241   3.227  0.8183 -0.1592 -0.1629
 3965SOL    HW223358   1.150   2.127   3.186  0.5932 -0.3435  0.6060
 3966SOL     OW23359   4.129   2.189   1.850  0.1897  0.1014  0.3145
 3966SOL    HW123360   4.166   2.247   1.917 -2.2960  1.1051  0.7868
 3966SOL    HW223361   4.060   2.162   1.910  1.5035  2.1960  2.7668
 3967SOL     OW23362   4.603   1.380  10.395  0.1596  0.4156  0.1080
 3967SOL    HW123363   4.677   1.441  10.387  1.4749 -1.4292 -2.1251
 3967SOL    HW223364   4.634   1.305  10.344 -0.5424 -0.6307  1.2403
 3968SOL     OW23365   2.358   4.244   6.927 -0.1812  0.5096 -0.0954
 3968SOL    HW123366   2.325   4.316   6.873  2.0165 -0.3790 -2.6376
 3968SOL    HW223367   2.326   4.274   7.012  6.0337  0.0563  2.4071
 3969SOL     OW23368   2.193   2.448   8.716  0.4365  0.0884  0.0996
 3969SOL    HW123369   2.228   2.512   8.653 -1.3843  0.4666 -0.5330
 3969SOL    HW223370   2.130   2.417   8.652  0.3367  0.4392  0.0248
 3970SOL     OW23371   1.443   2.793   1.129 -0.2830  0.5140  0.0924
 3970SOL    HW123372   1.404   2.773   1.044  0.3413 -1.0250  0.1588
 3970SOL    HW223373   1.475   2.709   1.163  0.7303 -0.3806 -3.0999
 3971SOL     OW23374   4.419   0.374   8.081 -0.4270 -0.0116 -0.2729
 3971SOL    HW123375   4.487   0.308   8.068  0.2608  0.2620  1.9845
 3971SOL    HW223376   4.432   0.401   8.172  0.3610  1.6349 -0.8677
 3972SOL     OW23377   4.516   3.795  10.857 -0.3087  0.0467 -1.1196
 3972SOL    HW123378   4.456   3.863  10.824 -0.8728  0.2454  0.2998
 3972SOL    HW223379   4.461   3.767  10.931  1.9017 -1.8259 -0.2065
 3973SOL     OW23380   1.153   1.400   0.534  0.0120  0.1707 -0.3670
 3973SOL    HW123381   1.164   1.379   0.441 -2.2637  0.5263 -0.7132
 3973SOL    HW223382   1.160   1.495   0.537  2.9879 -0.0571 -0.4356
 3974SOL     OW23383   3.745   2.527   7.393 -0.3492  0.9446 -0.0722
 3974SOL    HW123384   3.664   2.478   7.412  0.3234  0.2561  1.0754
 3974SOL    HW223385   3.796   2.452   7.360 -1.4450 -0.5473  1.6044
 3975SOL     OW23386   2.912   3.377   9.475  0.1105  0.5885  0.2327
 3975SOL    HW123387   2.978   3.359   9.542 -0.6348  0.3522  0.9121
 3975SOL    HW223388   2.910   3.292   9.432  0.1826 -0.7269  2.8095
 3976SOL     OW23389   1.624   1.473   4.051 -0.4145  0.3344 -0.1714
 3976SOL    HW123390   1.620   1.562   4.085  1.1256  0.2518  0.2378
 3976SOL    HW223391   1.697   1.444   4.106 -0.1885 -0.0731 -0.6771
 3977SOL     OW23392   3.051   0.854   9.644  0.1253 -0.0129  0.5479
 3977SOL    HW123393   3.018   0.848   9.555  1.1658 -4.1848  0.4711
 3977SOL    HW223394   3.105   0.934   9.639 -0.7977  0.4756 -1.5215
 3978SOL     OW23395   3.302   3.402   4.799  0.0177 -0.3580  0.2493
 3978SOL    HW123396   3.389   3.383   4.762 -0.0660 -0.0830 -0.0972
 3978SOL    HW223397   3.261   3.315   4.795  1.4831 -1.0808  0.9339
 3979SOL     OW23398   4.687   2.092   8.220  0.4414  0.1544  0.2780
 3979SOL    HW123399   4.714   2.021   8.162  1.4103  0.2080  0.6642
 3979SOL    HW223400   0.032   2.087   8.285 -1.3480 -0.8880  2.1759
 3980SOL     OW23401   4.239   3.475   8.277  0.0596 -0.1507 -0.3040
 3980SOL    HW123402   4.235   3.440   8.188 -1.3605 -2.8844  0.8443
 3980SOL    HW223403   4.244   3.570   8.265 -0.7657 -0.4158 -2.7723
 3981SOL     OW23404   4.622   3.137  12.559  0.3658  1.0421 -0.0705
 3981SOL    HW123405   4.599   3.086  12.481  2.6407  1.5404 -1.0417
 3981SOL    HW223406   4.648   3.066  12.618 -0.9601  0.9413  0.4090
 3982SOL     OW23407   1.590   0.562  17.405 -0.4627  0.1157  0.3305
 3982SOL    HW123408   1.546   0.518  17.333  1.5947  1.1221 -1.5500
 3982SOL    HW223409   1.520   0.576  17.469 -1.0863  0.3918 -0.4189
 3983SOL     OW23410   1.337   1.606   6.252 -0.3054  0.1243  0.5430
 3983SOL    HW123411   1.356   1.694   6.284 -0.7532  1.4981 -2.9352
 3983SOL    HW223412   1.405   1.548   6.284  1.4491  2.1205  0.4031
 3984SOL     OW23413   0.688   2.450   9.223 -0.4883 -0.5083 -0.2393
 3984SOL    HW123414   0.697   2.531   9.273 -1.8571  0.4777 -1.5696
 3984SOL    HW223415   0.601   2.457   9.184 -1.5779 -0.7435  2.1736
 3985SOL     OW23416   0.220   1.655   2.053 -0.6774  0.1229  0.5595
 3985SOL    HW123417   0.147   1.710   2.025 -3.0311 -3.3945 -0.3244
 3985SOL    HW223418   0.180   1.587   2.109 -0.6241  0.0599  0.5212
 3986SOL     OW23419   2.877   2.557   0.352  0.4432  0.2881 -0.1496
 3986SOL    HW123420   2.877   2.645   0.313 -2.6304  0.4268  0.1669
 3986SOL    HW223421   2.855   2.573   0.444 -3.2403 -2.7763 -0.5044
 3987SOL     OW23422   2.351   0.888  16.402  0.4090  0.7065 -0.3171
 3987SOL    HW123423   2.433   0.874  16.449  0.6711 -1.3034 -1.3704
 3987SOL    HW223424   2.382   0.901  16.312  1.7047 -1.0939 -0.1223
 3988SOL     OW23425   4.614   1.498   7.222 -0.3932 -0.2853 -0.0473
 3988SOL    HW123426   4.666   1.481   7.144  0.4585  0.6198  0.3190
 3988SOL    HW223427   4.652   1.581   7.252 -0.5071  0.3006 -1.5374
 3989SOL     OW23428   1.552   0.169   2.525  0.5775 -0.1061 -0.8364
 3989SOL    HW123429   1.466   0.145   2.491  0.6050 -0.7531 -0.4598
 3989SOL    HW223430   1.604   0.147   2.447  0.7536 -1.9321 -0.2103
 3990SOL     OW23431   2.982   0.446   9.687 -0.3058 -0.2875  0.2703
 3990SOL    HW123432   3.066   0.487   9.669 -1.0733  0.0793 -2.3883
 3990SOL    HW223433   2.982   0.451   9.783 -0.0651 -0.6818  0.2918
 3991SOL     OW23434   2.913   4.387  17.356 -0.2156 -0.1638 -0.2141
 3991SOL    HW123435   2.855   4.461  17.375 -0.2741 -0.0841 -0.7045
 3991SOL    HW223436   3.000   4.427  17.364 -0.5059  0.5275 -0.5145
 3992SOL     OW23437   3.531   3.562   6.779  0.2874  0.4940  0.0593
 3992SOL    HW123438   3.614   3.610   6.772  1.3769 -1.2158  1.0548
 3992SOL    HW223439   3.536   3.533   6.870  0.6601 -0.8243 -0.3803
 3993SOL     OW23440   1.612   3.127   5.235  0.0343  0.0779 -0.1566
 3993SOL    HW123441   1.642   3.079   5.158 -3.1384 -0.2941 -1.1178
 3993SOL    HW223442   1.548   3.180   5.189 -0.3177  0.8565  1.2412
 3994SOL     OW23443   2.799   3.292   6.864 -0.8974  0.1219  0.4310
 3994SOL    HW123444   2.770   3.206   6.896  0.2947 -0.6451 -0.5774
 3994SOL    HW223445   2.797   3.295   6.769  3.0570  1.5844  0.4061
 3995SOL     OW23446   1.745   4.548  11.314  0.0853 -0.0945  0.1351
 3995SOL    HW123447   1.795   4.492  11.373  0.3691  0.0699  0.0510
 3995SOL    HW223448   1.818   4.562  11.253 -0.1013  1.5865  0.2941
 3996SOL     OW23449   0.431   2.903  11.791  0.3092 -0.3357 -0.6349
 3996SOL    HW123450   0.356   2.955  11.762 -0.9265 -1.2291  0.9833
 3996SOL    HW223451   0.401   2.814  11.771 -1.4726  0.7630 -2.9200
 3997SOL     OW23452   1.614   0.613   3.725 -0.3448 -0.4923  0.3228
 3997SOL    HW123453   1.639   0.702   3.748 -1.2753 -0.2477  0.3773
 3997SOL    HW223454   1.534   0.623   3.674  0.3499 -0.6595 -0.8141
 3998SOL     OW23455   1.139   1.588  13.335  0.1365 -0.0407  0.4198
 3998SOL    HW123456   1.107   1.677  13.343 -0.8501 -0.3376 -0.2673
 3998SOL    HW223457   1.226   1.600  13.374  0.1050  0.5440  0.3030
 3999SOL     OW23458   0.106   0.951   6.917 -0.7264  0.1160  0.4720
 3999SOL    HW123459   0.079   0.956   7.009  0.5312  2.8102  0.7029
 3999SOL    HW223460   0.118   1.044   6.896  0.5213  0.0904  1.0952
 4000SOL     OW23461   1.126   2.355  13.636  0.4543 -0.2721  0.0389
 4000SOL    HW123462   1.119   2.264  13.665  0.8232  0.1218  1.3669
 4000SOL    HW223463   1.034   2.372  13.616  0.2851 -0.9026  0.2827
 4001SOL     OW23464   0.157   2.621   7.769 -0.2662 -0.3132  0.2936
 4001SOL    HW123465   0.066   2.617   7.798 -0.3817  0.6247  0.0567
 4001SOL    HW223466   0.202   2.666   7.840  2.3577  0.3786 -1.8052
 4002SOL     OW23467   1.740   2.194  11.475  0.7100 -0.4211 -0.0422
 4002SOL    HW123468   1.754   2.288  11.463  0.1868 -0.1977  1.0397
 4002SOL    HW223469   1.644   2.190  11.476  0.6066  1.5907 -1.6528
 4003SOL     OW23470   0.892   3.214   3.388  0.1907 -0.4183 -0.0963
 4003SOL    HW123471   0.969   3.175   3.347  0.9333  2.1694 -1.1302
 4003SOL    HW223472   0.821   3.203   3.325 -1.6395 -2.5174  2.3351
 4004SOL     OW23473   2.791   3.408  10.018 -0.4556 -0.1593  0.2364
 4004SOL    HW123474   2.723   3.349  10.049 -1.4846  0.5177 -0.7146
 4004SOL    HW223475   2.868   3.366  10.057 -0.1705 -0.9829 -1.1849
 4005SOL     OW23476   0.838   0.689   5.220 -0.4892  0.9571  0.0273
 4005SOL    HW123477   0.840   0.697   5.124 -2.3895  1.8489  0.0681
 4005SOL    HW223478   0.918   0.736   5.245  0.2776 -0.3840  0.1177
 4006SOL     OW23479   0.983   3.259   8.055  0.4091  0.3832  0.6018
 4006SOL    HW123480   1.011   3.227   8.141 -1.2807  0.3907  1.1438
 4006SOL    HW223481   0.899   3.295   8.083  0.1717  2.1500 -2.3949
 4007SOL     OW23482   2.841   0.195   8.060 -0.1198  0.3943  0.7402
 4007SOL    HW123483   2.909   0.211   7.994 -0.6728  0.5072  0.1948
 4007SOL    HW223484   2.762   0.186   8.005  1.3804  0.1515 -1.3862
 4008SOL     OW23485   1.184   3.428   8.501 -0.3388  0.2712  0.3134
 4008SOL    HW123486   1.184   3.334   8.520  1.7322  0.2787  0.3820
 4008SOL    HW223487   1.270   3.445   8.539  1.1170 -1.9884 -1.9237
 4009SOL     OW23488   1.676   2.330   8.833  0.3955  0.5284  0.6462
 4009SOL    HW123489   1.685   2.420   8.865  0.5499  0.0808  1.8586
 4009SOL    HW223490   1.766   2.301   8.851  1.3252  3.1657  0.2933
 4010SOL     OW23491   4.112   2.898  14.171  0.2514  0.1766 -0.6040
 4010SOL    HW123492   4.089   2.813  14.134 -0.1128  0.3518 -0.7822
 4010SOL    HW223493   4.159   2.940  14.099  1.2747  2.4654  1.4302
 4011SOL     OW23494   0.704   3.973  14.994  0.3711  0.1391 -0.6309
 4011SOL    HW123495   0.637   3.974  14.925  0.4157  1.1132 -0.6531
 4011SOL    HW223496   0.757   4.043  14.957  0.1292  0.5165 -0.2719
 4012SOL     OW23497   0.838   2.580  15.684  0.0240 -0.3991 -0.3574
 4012SOL    HW123498   0.880   2.607  15.603 -0.4805  1.0812 -0.1346
 4012SOL    HW223499   0.759   2.535  15.654  0.2946  0.4396 -2.2787
 4013SOL     OW23500   1.335   0.875   4.072  0.4794 -0.0417  0.4472
 4013SOL    HW123501   1.241   0.858   4.074  0.3618  0.5940  0.3758
 4013SOL    HW223502   1.346   0.869   3.978  0.6631  2.7646  0.2834
 4014SOL     OW23503   1.107   2.108  13.728 -0.5349 -0.0986 -0.2551
 4014SOL    HW123504   1.060   2.032  13.694  0.0431  0.4727 -2.2789
 4014SOL    HW223505   1.075   2.107  13.818 -1.5028  2.3505 -0.5715
 4015SOL     OW23506   3.834   4.181   9.602  0.7373  0.3975 -0.1051
 4015SOL    HW123507   3.811   4.186   9.695 -2.5410 -2.8092 -0.7285
 4015SOL    HW223508   3.766   4.126   9.563  0.4390 -0.7674  2.0564
 4016SOL     OW23509   1.553   1.017   7.604 -0.1227  0.4460 -0.3439
 4016SOL    HW123510   1.566   1.049   7.515 -0.9070 -0.7724 -0.8842
 4016SOL    HW223511   1.476   1.066   7.634 -0.2819 -1.2422  2.0401
 4017SOL     OW23512   1.113   1.058  16.810 -0.0658 -0.6227  0.6619
 4017SOL    HW123513   1.081   0.976  16.771 -1.0707 -0.0809  0.3381
 4017SOL    HW223514   1.132   1.028  16.899 -0.6283 -2.3390  0.2120
 4018SOL     OW23515   3.783   2.773  10.687 -0.4698  0.4466 -0.3118
 4018SOL    HW123516   3.768   2.687  10.728  0.6682  0.7428  0.7292
 4018SOL    HW223517   3.775   2.751  10.595  0.1811 -0.3340 -0.1879
 4019SOL     OW23518   1.058   2.182   7.243 -0.1673  0.4557 -0.3547
 4019SOL    HW123519   0.977   2.130   7.243 -0.8283  1.4910  0.8423
 4019SOL    HW223520   1.074   2.183   7.149 -1.3363 -0.5665 -0.5590
 4020SOL     OW23521   2.998   2.877  11.811 -0.0618  0.3552  0.1125
 4020SOL    HW123522   3.025   2.959  11.852 -2.9542  2.0433 -1.3096
 4020SOL    HW223523   2.907   2.888  11.839  0.2679 -0.5372  1.5348
 4021SOL     OW23524   3.807   3.456   7.250 -0.4384  0.5891  0.0538
 4021SOL    HW123525   3.813   3.491   7.339  2.2954  3.2016 -1.1451
 4021SOL    HW223526   3.897   3.469   7.220  0.4120  0.2770  2.4462
 4022SOL     OW23527   1.559   2.619   4.348 -0.2436 -0.7937  0.7669
 4022SOL    HW123528   1.483   2.676   4.338 -0.6627 -1.0939  2.2332
 4022SOL    HW223529   1.603   2.648   4.427  1.1777 -2.0134  0.4169
 4023SOL     OW23530   4.030   2.937  16.510 -0.1432 -0.0834  0.4532
 4023SOL    HW123531   3.943   2.972  16.529  0.3871  1.3083  0.3362
 4023SOL    HW223532   4.074   2.972  16.587  0.0536  0.5092  0.0783
 4024SOL     OW23533   2.189   0.213   6.430  0.1226 -0.1448  0.3084
 4024SOL    HW123534   2.209   0.126   6.396 -0.2674 -0.0780 -0.0942
 4024SOL    HW223535   2.227   0.273   6.365  1.6244 -1.1332  0.2800
 4025SOL     OW23536   1.242   4.576  14.329  0.0135 -0.5030  0.3883
 4025SOL    HW123537   1.316   4.518  14.313  1.3229  1.1192  0.4975
 4025SOL    HW223538   1.176   4.536  14.273  1.0252  0.9032 -1.8140
 4026SOL     OW23539   2.332   2.836   6.072 -0.4429 -0.2690  0.9359
 4026SOL    HW123540   2.352   2.758   6.021  0.3483 -1.2090  2.6832
 4026SOL    HW223541   2.412   2.887   6.065 -2.5451  2.2437 -4.8041
 4027SOL     OW23542   4.240   0.212   6.017 -0.1666 -0.3828  0.2010
 4027SOL    HW123543   4.325   0.171   6.005 -0.7726 -2.0213  1.4936
 4027SOL    HW223544   4.236   0.206   6.112  1.8278  0.5450  0.3448
 4028SOL     OW23545   2.329   2.450   2.382  0.7460 -0.5272  0.0032
 4028SOL    HW123546   2.285   2.412   2.307  0.5358  0.6184 -0.4581
 4028SOL    HW223547   2.399   2.385   2.390  2.0353  0.7502 -0.8955
 4029SOL     OW23548   3.510   4.057   5.022 -0.2437  0.2089  0.9360
 4029SOL    HW123549   3.457   4.019   5.092 -0.3426  0.1445  0.8269
 4029SOL    HW223550   3.601   4.049   5.049  0.0795  2.5594  0.5309
 4030SOL     OW23551   2.424   1.278  15.201 -0.0088  0.0790 -0.1354
 4030SOL    HW123552   2.448   1.366  15.231  3.8699 -0.4017 -1.8860
 4030SOL    HW223553   2.502   1.223  15.204  0.5894  0.8969 -0.8371
 4031SOL     OW23554   4.013   3.212   5.591 -0.0533 -0.2026  0.0951
 4031SOL    HW123555   3.988   3.198   5.682  1.0266  1.3038  0.6002
 4031SOL    HW223556   4.101   3.248   5.585 -0.3230  0.4569  0.1719
 4032SOL     OW23557   1.244   0.908   7.278  0.7750 -0.1628  0.3392
 4032SOL    HW123558   1.193   0.844   7.328 -2.8171  0.5314 -2.4409
 4032SOL    HW223559   1.215   0.990   7.319 -0.9652  0.6360 -2.4867
 4033SOL     OW23560   1.104   0.540  17.300  0.0764 -0.0375  0.3276
 4033SOL    HW123561   1.104   0.470  17.366  0.6925 -0.1622  0.1952
 4033SOL    HW223562   1.196   0.537  17.272  0.2624  0.3960  0.8928
 4034SOL     OW23563   3.308   1.345   4.821  0.0905  0.7240  0.7268
 4034SOL    HW123564   3.232   1.288   4.831 -0.1915  1.3443  2.1104
 4034SOL    HW223565   3.331   1.327   4.730 -1.5706  0.5583  0.3472
 4035SOL     OW23566   1.434   1.036   4.281  0.1973  0.0904  0.0626
 4035SOL    HW123567   1.385   1.110   4.316  0.7177  0.6581 -0.4132
 4035SOL    HW223568   1.382   1.001   4.209 -0.5244 -1.7755  1.4788
 4036SOL     OW23569   2.510   3.583   4.323  0.5599 -0.3377 -0.8553
 4036SOL    HW123570   2.528   3.631   4.242  1.8085  1.6090  0.5868
 4036SOL    HW223571   2.602   3.561   4.340  0.1442 -2.9799 -2.0203
 4037SOL     OW23572   1.188   4.471  15.109 -0.3326  0.0480  0.4268
 4037SOL    HW123573   1.191   4.381  15.078 -1.0833  0.2829 -0.3180
 4037SOL    HW223574   1.139   4.452  15.189 -3.0254  0.6429 -1.0921
 4038SOL     OW23575   3.637   0.978   3.567 -0.2208 -0.4950 -0.5819
 4038SOL    HW123576   3.717   0.932   3.541  0.0733 -0.4416  0.2338
 4038SOL    HW223577   3.664   1.029   3.644 -0.5734 -0.5760 -0.4050
 4039SOL     OW23578   2.482   4.609   8.661 -0.4435  0.3950  0.3272
 4039SOL    HW123579   2.400   4.565   8.639 -0.8027  0.5724  1.2892
 4039SOL    HW223580   2.541   4.534   8.672  1.9101  2.0412 -1.0976
 4040SOL     OW23581   1.494   0.984   6.541  0.4571  0.2391  0.3215
 4040SOL    HW123582   1.428   0.918   6.522  1.2212 -0.6201  0.6685
 4040SOL    HW223583   1.538   0.942   6.615  0.3373 -0.9204 -0.2764
 4041SOL     OW23584   0.462   0.811   3.225  0.0552 -0.6551  0.0942
 4041SOL    HW123585   0.454   0.905   3.242  0.6583 -0.3651 -1.2798
 4041SOL    HW223586   0.375   0.786   3.258 -0.2688 -1.1255 -1.1359
 4042SOL     OW23587   3.531   3.903   3.855  0.7380  0.0328  0.1346
 4042SOL    HW123588   3.508   3.937   3.769  3.8916 -1.3508 -1.2667
 4042SOL    HW223589   3.617   3.945   3.862 -0.3509  2.1522  0.5098
 4043SOL     OW23590   4.639   4.547  16.294 -0.3030 -0.1281 -0.7732
 4043SOL    HW123591   4.725   4.549  16.252 -0.2377 -1.2493 -0.6795
 4043SOL    HW223592   4.613   4.455  16.296  0.8760 -0.3833  1.9932
 4044SOL     OW23593   3.141   0.694   2.278 -0.0203 -0.3723 -0.4755
 4044SOL    HW123594   3.071   0.719   2.218  0.7140  0.5130 -0.9662
 4044SOL    HW223595   3.123   0.745   2.358 -1.1521 -0.4868 -0.6574
 4045SOL     OW23596   1.849   0.775   3.063 -0.4061 -0.1894 -0.1479
 4045SOL    HW123597   1.886   0.695   3.100  1.0874 -0.0184 -1.2780
 4045SOL    HW223598   1.914   0.791   2.994 -0.4981 -0.4816 -0.3028
 4046SOL     OW23599   3.975   0.849   8.557  0.3968 -0.3702  0.0146
 4046SOL    HW123600   4.010   0.882   8.639 -0.4513  0.0465  0.2139
 4046SOL    HW223601   4.056   0.836   8.508  0.2992 -0.9339  0.0035
 4047SOL     OW23602   1.110   1.798  16.848  0.2165  0.2055 -0.5100
 4047SOL    HW123603   1.169   1.826  16.918 -0.6975  0.6819  0.0790
 4047SOL    HW223604   1.039   1.752  16.893 -0.7059  1.8597 -0.2786
 4048SOL     OW23605   0.800   0.254   8.331  0.7286 -0.1349 -0.5329
 4048SOL    HW123606   0.771   0.280   8.243  1.0989  3.8418  0.5075
 4048SOL    HW223607   0.770   0.328   8.384 -0.9636 -0.1813 -1.4250
 4049SOL     OW23608   1.417   1.308   4.219  0.5611  0.2358 -0.2604
 4049SOL    HW123609   1.408   1.399   4.189  3.7214  0.3233 -0.9400
 4049SOL    HW223610   1.462   1.263   4.147  1.6740 -0.7945  1.0747
 4050SOL     OW23611   0.752   2.536   7.391  0.4942  0.0859  0.3994
 4050SOL    HW123612   0.687   2.524   7.323  0.9413  2.8543 -0.5380
 4050SOL    HW223613   0.763   2.443   7.412  1.5069  0.6563  2.4717
 4051SOL     OW23614   3.070   2.180   9.019 -1.0405 -0.3575 -0.0047
 4051SOL    HW123615   3.070   2.256   9.077 -0.5712  0.8168 -1.5396
 4051SOL    HW223616   2.979   2.149   9.024 -0.7403 -1.2318  0.0840
 4052SOL     OW23617   4.426   2.828   9.160  0.4886  0.2440  0.4224
 4052SOL    HW123618   4.344   2.872   9.140  1.0419  1.7002  1.4113
 4052SOL    HW223619   4.388   2.744   9.186 -1.5604  0.3819 -2.1015
 4053SOL     OW23620   0.154   2.375   1.693  0.7299  0.2736  0.0776
 4053SOL    HW123621   0.183   2.403   1.606  0.0486  0.1073 -0.2029
 4053SOL    HW223622   0.154   2.280   1.690 -1.0122  0.2488  1.2656
 4054SOL     OW23623   1.815   0.418   2.874  0.3393 -0.9423  0.0403
 4054SOL    HW123624   1.721   0.405   2.868  0.4700 -1.9881  0.2120
 4054SOL    HW223625   1.814   0.513   2.868 -1.3877 -0.9152  0.8475
 4055SOL     OW23626   3.777   3.451   4.190 -0.4352  0.0670  0.6234
 4055SOL    HW123627   3.816   3.510   4.126 -2.6507  0.1681 -0.6247
 4055SOL    HW223628   3.851   3.391   4.200 -1.5065 -1.3037  0.3524
 4056SOL     OW23629   2.233   3.513   5.144  0.7347  0.1879 -0.0213
 4056SOL    HW123630   2.242   3.478   5.055  1.4126  0.5754 -0.1117
 4056SOL    HW223631   2.234   3.607   5.126  1.3059  0.2072  0.0870
 4057SOL     OW23632   1.402   1.316   7.001 -0.3521  0.4510 -0.3033
 4057SOL    HW123633   1.327   1.279   6.955  0.0368  0.1302 -0.6758
 4057SOL    HW223634   1.435   1.392   6.954  0.3489  0.7302  0.6253
 4058SOL     OW23635   0.392   3.861  14.126 -0.9650 -0.1428  0.2994
 4058SOL    HW123636   0.303   3.878  14.155 -1.3620 -1.1355 -0.3465
 4058SOL    HW223637   0.436   3.826  14.203 -0.2858 -0.3866 -0.1978
 4059SOL     OW23638   1.033   3.214   9.356  0.2489 -0.2179 -0.4784
 4059SOL    HW123639   1.051   3.126   9.390 -0.7802 -0.5534 -0.8138
 4059SOL    HW223640   1.093   3.218   9.282  0.6157  0.9990 -0.1206
 4060SOL     OW23641   1.938   2.004   7.706 -0.1861  0.0145  0.0124
 4060SOL    HW123642   1.886   1.975   7.631 -1.0895  2.0815 -0.1614
 4060SOL    HW223643   1.907   1.948   7.778 -2.5676  1.4229  0.0972
 4061SOL     OW23644   1.627   2.680   1.845 -0.0464  0.0100 -0.9453
 4061SOL    HW123645   1.630   2.714   1.755 -0.6145  0.6042 -0.7368
 4061SOL    HW223646   1.709   2.717   1.876  0.7451 -0.7309 -2.1222
 4062SOL     OW23647   1.463   4.213  12.543  0.1406  0.4990 -0.2177
 4062SOL    HW123648   1.416   4.283  12.588 -2.9074 -0.5402 -1.7847
 4062SOL    HW223649   1.509   4.176  12.618 -1.2156  0.6641  0.6821
 4063SOL     OW23650   2.062   2.457   5.569  0.5028  0.5359 -0.0959
 4063SOL    HW123651   2.147   2.442   5.610 -0.4107 -0.6740  1.3516
 4063SOL    HW223652   2.007   2.451   5.647  1.6164  0.7351  0.7142
 4064SOL     OW23653   0.339   3.706  12.132 -0.0278  0.2233  0.3267
 4064SOL    HW123654   0.269   3.726  12.194  1.4121  0.6639  1.8211
 4064SOL    HW223655   0.366   3.792  12.101 -0.7629  0.5223  0.5103
 4065SOL     OW23656   0.222   4.214   4.471  0.3252 -0.1222  0.5000
 4065SOL    HW123657   0.230   4.186   4.380 -1.3264 -0.0181  0.3213
 4065SOL    HW223658   0.131   4.187   4.484  0.0486  0.2597 -0.5962
 4066SOL     OW23659   3.401   2.720  15.188 -0.3900  0.1020  0.3237
 4066SOL    HW123660   3.350   2.670  15.251 -0.1163 -2.1416 -1.2104
 4066SOL    HW223661   3.410   2.800  15.239  3.6733  1.0669 -1.8832
 4067SOL     OW23662   0.512   0.987   6.745  0.0428 -0.0068  0.6135
 4067SOL    HW123663   0.481   1.059   6.799  0.2971  1.7162 -1.5491
 4067SOL    HW223664   0.582   1.032   6.697  0.7497 -0.1668  1.4950
 4068SOL     OW23665   0.861   1.952   6.120 -0.4235  0.5075  0.3545
 4068SOL    HW123666   0.778   1.999   6.112 -0.5305  0.1514 -0.6680
 4068SOL    HW223667   0.894   1.967   6.031  2.6218  0.0692  1.4090
 4069SOL     OW23668   2.335   4.222  11.580  0.2059 -0.3802  0.4648
 4069SOL    HW123669   2.303   4.163  11.512  0.7091  2.0153 -1.8873
 4069SOL    HW223670   2.410   4.261  11.534 -0.4601  1.9023  1.3276
 4070SOL     OW23671   1.290   4.459   7.167 -0.3998  0.2608 -0.2547
 4070SOL    HW123672   1.298   4.540   7.116  1.5697 -1.1083 -2.0986
 4070SOL    HW223673   1.325   4.482   7.253 -0.2694 -1.3552  0.1287
 4071SOL     OW23674   2.488   1.360   8.561 -0.4059 -0.2476 -0.2988
 4071SOL    HW123675   2.492   1.361   8.657  0.5388  1.1542 -0.3510
 4071SOL    HW223676   2.548   1.289   8.542  1.3446  1.9664 -3.0280
 4072SOL     OW23677   2.577   2.341   8.979  0.1120  0.2441 -0.3294
 4072SOL    HW123678   2.564   2.323   9.072 -0.7773 -1.4723 -0.7883
 4072SOL    HW223679   2.487   2.346   8.947  0.0865  0.1147 -0.2770
 4073SOL     OW23680   2.856   2.633  16.893  0.4522  0.0152  0.2366
 4073SOL    HW123681   2.836   2.704  16.832 -0.8880 -2.2902 -1.9644
 4073SOL    HW223682   2.786   2.652  16.956  1.2541 -1.4608  1.5498
 4074SOL     OW23683   2.412   1.648  14.750  0.4063  0.3920 -0.1538
 4074SOL    HW123684   2.419   1.591  14.827 -2.4258  1.3523  0.8382
 4074SOL    HW223685   2.432   1.580  14.686 -2.3714  0.3406 -0.9808
 4075SOL     OW23686   1.769   0.968  13.600  0.1408 -0.3709 -0.0818
 4075SOL    HW123687   1.842   1.007  13.551 -0.7250  2.1021  0.6353
 4075SOL    HW223688   1.786   0.995  13.690  0.4571 -2.2279  0.4218
 4076SOL     OW23689   1.327   0.418   5.749  0.1108 -0.2127  0.4957
 4076SOL    HW123690   1.297   0.458   5.831 -0.1920  0.1762  0.1975
 4076SOL    HW223691   1.242   0.385   5.722 -1.0317  2.1006  1.2802
 4077SOL     OW23692   2.049   2.769  17.664 -0.3079 -0.3108  0.1804
 4077SOL    HW123693   2.139   2.777  17.695  0.2675  1.5431 -1.8963
 4077SOL    HW223694   2.068   2.787  17.571 -1.8789  1.7912  0.2485
 4078SOL     OW23695   1.229   2.337   3.350 -0.7294 -0.4478  0.1608
 4078SOL    HW123696   1.193   2.400   3.288 -0.9884 -2.0887 -1.3500
 4078SOL    HW223697   1.313   2.303   3.319 -0.8436 -0.4730 -0.1195
 4079SOL     OW23698   2.414   4.686   2.982 -0.3504  0.6342 -0.0406
 4079SOL    HW123699   2.407   4.713   2.890  1.8042 -2.1972 -1.0462
 4079SOL    HW223700   2.347   0.014   3.024 -0.6787  1.0508 -1.0972
 4080SOL     OW23701   1.270   3.209   5.154 -0.5602  0.8067 -0.1177
 4080SOL    HW123702   1.307   3.186   5.069 -2.1820  0.6890 -0.7927
 4080SOL    HW223703   1.179   3.223   5.128 -0.3848  0.5564 -0.8563
 4081SOL     OW23704   0.931   1.783  10.133  0.1860 -0.0905 -0.6277
 4081SOL    HW123705   0.915   1.728  10.209  2.4810 -0.3935 -0.3583
 4081SOL    HW223706   0.854   1.766  10.079 -1.1059  0.5448  1.0213
 4082SOL     OW23707   2.843   3.991  16.241  0.6425  0.4237 -0.7437
 4082SOL    HW123708   2.907   3.979  16.171  1.2902  1.1735 -0.2849
 4082SOL    HW223709   2.894   3.956  16.314  2.2930 -1.4546 -2.7877
 4083SOL     OW23710   0.536   1.604   3.130 -0.5023  0.6308 -0.0242
 4083SOL    HW123711   0.572   1.628   3.045 -0.6077  0.6154 -0.0731
 4083SOL    HW223712   0.573   1.674   3.185 -0.4630 -0.9621  1.9865
 4084SOL     OW23713   4.082   2.532  11.097  0.6271  0.8049  0.1278
 4084SOL    HW123714   4.035   2.474  11.156 -1.3326  3.1696  0.9045
 4084SOL    HW223715   4.012   2.596  11.085  0.0425 -0.0550 -1.1099
 4085SOL     OW23716   1.234   1.536   2.590  1.0757 -0.2926  0.1359
 4085SOL    HW123717   1.321   1.498   2.602  0.1928 -2.7011 -1.0043
 4085SOL    HW223718   1.261   1.623   2.562 -1.6715  0.5645  0.1641
 4086SOL     OW23719   3.615   4.322   3.472 -0.1474 -0.1019 -0.4262
 4086SOL    HW123720   3.603   4.236   3.433  0.1338 -0.5153  0.3834
 4086SOL    HW223721   3.696   4.345   3.427 -0.6062  1.1790 -0.5947
 4087SOL     OW23722   3.196   1.277  10.577 -0.7094  0.1429 -0.0854
 4087SOL    HW123723   3.101   1.288  10.585 -0.7736 -1.5382  1.4564
 4087SOL    HW223724   3.234   1.363  10.595  0.7678 -0.1466 -1.8883
 4088SOL     OW23725   0.396   4.002   8.646  0.3298 -0.0001  0.4006
 4088SOL    HW123726   0.452   3.935   8.686 -0.1299  0.3452  1.6158
 4088SOL    HW223727   0.410   4.069   8.713 -0.4708  1.1722 -0.6002
 4089SOL     OW23728   3.259   3.365   2.900  0.0385  1.1441  0.6921
 4089SOL    HW123729   3.269   3.364   2.805  0.2584 -0.3757  0.7268
 4089SOL    HW223730   3.171   3.403   2.895 -0.4980 -0.3653 -1.8369
 4090SOL     OW23731   4.645   2.939   1.660 -0.1025 -0.0801 -0.1611
 4090SOL    HW123732   4.556   2.967   1.639 -0.0066  0.5496  0.2681
 4090SOL    HW223733   4.638   2.929   1.755  1.2726  1.5321  0.1098
 4091SOL     OW23734   4.639   3.948   1.575  0.7804 -0.5206  0.0524
 4091SOL    HW123735   4.571   3.943   1.508  0.7667 -1.8537  0.1607
 4091SOL    HW223736   4.721   3.920   1.535 -0.2045 -1.9629 -0.9442
 4092SOL     OW23737   1.304   2.053   7.684 -0.5635  0.2239 -0.1404
 4092SOL    HW123738   1.283   2.047   7.591  1.7679  0.9083 -0.7096
 4092SOL    HW223739   1.250   2.125   7.716 -0.6489  0.8889 -1.7802
 4093SOL     OW23740   1.926   0.420  14.791 -0.5922 -0.4489  0.6352
 4093SOL    HW123741   1.947   0.512  14.773 -0.6261 -0.6915 -0.6279
 4093SOL    HW223742   1.897   0.423  14.883  1.7043 -0.8080  1.3777
 4094SOL     OW23743   3.479   3.617  13.179 -0.0178 -0.4451 -0.5965
 4094SOL    HW123744   3.527   3.671  13.241  0.8277  1.3948 -2.8149
 4094SOL    HW223745   3.502   3.531  13.212 -3.5032 -0.1935  2.5063
 4095SOL     OW23746   2.704   3.356  16.665  0.0120 -0.9448  0.1375
 4095SOL    HW123747   2.775   3.396  16.615  0.6475  0.6826  2.3054
 4095SOL    HW223748   2.622   3.383  16.623  0.4991 -1.6511 -1.2499
 4096SOL     OW23749   2.278   3.670   7.510 -0.3193  0.3178 -0.0726
 4096SOL    HW123750   2.255   3.732   7.441 -0.9869 -1.2797 -1.2926
 4096SOL    HW223751   2.366   3.699   7.533 -0.0897 -0.9978  0.7443
 4097SOL     OW23752   2.884   0.785   5.401  0.0105  0.2405 -0.0162
 4097SOL    HW123753   2.838   0.741   5.473  1.6925 -0.2566  0.7588
 4097SOL    HW223754   2.893   0.877   5.426 -1.3450  0.9966 -2.3224
 4098SOL     OW23755   4.522   0.887  12.137 -0.0227  0.4609  0.0650
 4098SOL    HW123756   4.431   0.872  12.112  0.3260 -2.4895  0.6599
 4098SOL    HW223757   4.533   0.973  12.096  0.6473  0.0822 -0.5385
 4099SOL     OW23758   1.998   3.309   2.083  0.0432  0.7365  0.0547
 4099SOL    HW123759   1.999   3.403   2.103  1.6394  1.0143 -1.2939
 4099SOL    HW223760   1.903   3.297   2.075 -0.3646  3.3050  0.9230
 4100SOL     OW23761   3.843   3.040  14.657  0.3597  0.0189  0.0210
 4100SOL    HW123762   3.853   3.088  14.740  0.6483  0.8151 -0.4802
 4100SOL    HW223763   3.926   2.997  14.635 -1.5167 -3.6735  0.2854
 4101SOL     OW23764   1.328   0.450  17.561 -0.4662 -0.4283  0.3948
 4101SOL    HW123765   1.310   0.543  17.546 -2.6481 -1.0138 -0.5810
 4101SOL    HW223766   1.245   0.421  17.599 -0.2729  1.2213  2.0675
 4102SOL     OW23767   1.713   0.860   3.776  0.0685 -0.3580 -0.1789
 4102SOL    HW123768   1.693   0.951   3.755  1.9845  0.3218  1.0054
 4102SOL    HW223769   1.804   0.870   3.804 -0.4832  0.9316  1.1993
 4103SOL     OW23770   3.084   0.427  17.025 -0.2376  0.2120  0.2059
 4103SOL    HW123771   3.153   0.371  17.060 -0.9037 -0.7066  0.0686
 4103SOL    HW223772   3.122   0.514  17.033 -1.6559  0.6780  1.9686
 4104SOL     OW23773   1.610   2.638   6.547 -0.5617  0.2288 -0.1702
 4104SOL    HW123774   1.680   2.616   6.608  0.4418  0.0865 -1.3779
 4104SOL    HW223775   1.647   2.692   6.477  0.2114  0.3060  0.3118
 4105SOL     OW23776   0.465   1.653   6.468  0.1378 -0.6691  0.5229
 4105SOL    HW123777   0.433   1.629   6.381 -0.5797 -1.4629  0.9949
 4105SOL    HW223778   0.560   1.643   6.463  0.5912  3.3740  0.9983
 4106SOL     OW23779   2.555   2.303   1.023  0.0509  0.0877 -0.0265
 4106SOL    HW123780   2.497   2.227   1.026 -0.1775  0.2984  0.9472
 4106SOL    HW223781   2.521   2.370   1.082  1.2850 -1.3053  2.2636
 4107SOL     OW23782   1.812   0.045   8.720  0.4574  0.3501  0.0105
 4107SOL    HW123783   1.906   0.030   8.706  0.0929 -0.2293 -1.7417
 4107SOL    HW223784   1.771   4.684   8.718  1.4989 -0.0743 -2.5115
 4108SOL     OW23785   4.698   3.512   7.029  0.1824  0.7858 -0.0053
 4108SOL    HW123786   4.613   3.489   7.066  1.1011 -2.2557  0.2286
 4108SOL    HW223787   0.010   3.424   7.023 -1.6547 -0.1233  1.6779
 4109SOL     OW23788   2.201   1.011   5.015  0.3595  0.1279  0.6381
 4109SOL    HW123789   2.123   0.970   4.978  0.8885 -2.5749  2.5511
 4109SOL    HW223790   2.178   1.102   4.999  0.5906  0.1832  0.6229
 4110SOL     OW23791   3.110   0.687   5.616  0.2072  0.4096  0.1563
 4110SOL    HW123792   3.199   0.697   5.649 -0.3136  0.3045  1.5885
 4110SOL    HW223793   3.103   0.749   5.544 -0.1024 -0.1830 -0.3171
 4111SOL     OW23794   3.002   3.387   5.964  0.1222  0.2560  0.3498
 4111SOL    HW123795   2.955   3.461   6.003  0.2266  0.4364  0.1350
 4111SOL    HW223796   2.973   3.402   5.874  2.1214 -1.5162 -0.5824
 4112SOL     OW23797   3.385   0.554   1.983 -0.1291 -0.0557  0.3360
 4112SOL    HW123798   3.340   0.507   1.913  0.9639 -0.3800 -0.1492
 4112SOL    HW223799   3.447   0.601   1.928  0.1018  0.2159  0.8350
 4113SOL     OW23800   2.597   0.226   7.307 -0.3637  0.0863  0.2691
 4113SOL    HW123801   2.586   0.200   7.216 -1.1337 -2.1108  0.9837
 4113SOL    HW223802   2.658   0.159   7.340  0.7086  0.2763 -1.3404
 4114SOL     OW23803   4.166   2.749   6.822 -0.4041  0.7715  0.4655
 4114SOL    HW123804   4.154   2.655   6.834 -0.9393  0.8635  0.6637
 4114SOL    HW223805   4.157   2.759   6.728  0.2782 -1.0571  0.2021
 4115SOL     OW23806   0.587   0.876   2.937  0.1400  0.1931  0.7242
 4115SOL    HW123807   0.590   0.971   2.928 -0.0714 -0.1421 -3.2301
 4115SOL    HW223808   0.495   0.854   2.923 -0.0029  1.3683 -0.2518
 4116SOL     OW23809   3.726   0.694   5.062 -0.3067 -0.1948 -0.3675
 4116SOL    HW123810   3.699   0.711   4.972  2.1325  1.9233 -0.6854
 4116SOL    HW223811   3.773   0.775   5.079  0.6110 -0.6727 -0.6421
 4117SOL     OW23812   2.592   2.991  16.663  0.0546  0.3774  0.0674
 4117SOL    HW123813   2.526   2.930  16.629  1.5514 -0.6459 -0.9931
 4117SOL    HW223814   2.616   2.948  16.745  0.6356 -0.1237 -0.3663
 4118SOL     OW23815   4.625   3.325  12.828 -0.0206 -0.0506  0.6307
 4118SOL    HW123816   4.660   3.395  12.883 -3.1580  0.5256  1.8801
 4118SOL    HW223817   4.566   3.287  12.893 -1.0103  0.7209  0.1843
 4119SOL     OW23818   2.251   1.612   4.519 -0.3205  0.0671  0.1009
 4119SOL    HW123819   2.181   1.674   4.541  0.2539  0.8875 -0.3980
 4119SOL    HW223820   2.219   1.524   4.538  0.6858  0.2284  2.5697
 4120SOL     OW23821   4.333   2.647   1.844 -0.0985 -0.4984 -0.3307
 4120SOL    HW123822   4.284   2.620   1.765 -2.2851 -0.0891  0.8800
 4120SOL    HW223823   4.417   2.602   1.832 -0.7167 -2.3950  2.4974
 4121SOL     OW23824   4.136   2.012   6.637 -0.5523 -0.1268 -0.3343
 4121SOL    HW123825   4.066   2.039   6.697 -0.6803  2.0798 -1.4630
 4121SOL    HW223826   4.205   1.984   6.697  0.3436  0.5683 -1.0396
 4122SOL     OW23827   2.903   4.117  11.810  0.5224  0.7322 -0.1193
 4122SOL    HW123828   2.871   4.028  11.796  0.4430  0.7495 -0.0468
 4122SOL    HW223829   2.973   4.087  11.868 -1.7860 -1.5907  1.4621
 4123SOL     OW23830   1.506   1.092   2.092  0.3036 -0.2983  0.6834
 4123SOL    HW123831   1.539   1.164   2.145  1.6939 -0.5437  0.1416
 4123SOL    HW223832   1.549   1.115   2.010 -1.1008  3.2952  0.9695
 4124SOL     OW23833   0.327   1.948   5.230 -0.8506  0.1344 -0.3770
 4124SOL    HW123834   0.251   1.894   5.251 -1.5803  1.2258 -0.2026
 4124SOL    HW223835   0.398   1.889   5.206 -0.8228  0.6813 -1.6462
 4125SOL     OW23836   4.606   0.667  13.990  0.2965  0.5797  0.3607
 4125SOL    HW123837   4.694   0.662  13.953  0.5495  2.2409  0.7002
 4125SOL    HW223838   4.553   0.598  13.951  0.3880  1.0964 -0.6688
 4126SOL     OW23839   2.242   0.400   3.214 -0.1254 -0.4626 -0.3545
 4126SOL    HW123840   2.313   0.363   3.161  0.5484  1.0979 -0.5284
 4126SOL    HW223841   2.266   0.492   3.220  0.3593 -0.3882 -3.4020
 4127SOL     OW23842   2.780   2.714  12.238  0.0047 -0.8761 -0.1428
 4127SOL    HW123843   2.853   2.776  12.242 -0.6484 -0.1508  0.6739
 4127SOL    HW223844   2.830   2.649  12.286 -0.3787  0.5819  2.2256
 4128SOL     OW23845   0.227   4.378  13.607 -0.3176 -0.3863 -0.8079
 4128SOL    HW123846   0.179   4.429  13.673  0.6766 -0.9509  0.3698
 4128SOL    HW223847   0.201   4.288  13.624 -1.3822  0.3367  1.3634
 4129SOL     OW23848   3.796   1.120   3.233 -0.1554  0.2934 -0.0243
 4129SOL    HW123849   3.729   1.077   3.179 -1.1317 -0.1713  1.5459
 4129SOL    HW223850   3.878   1.081   3.201 -0.0699 -0.2682  0.8930
 4130SOL     OW23851   0.991   2.975   7.975 -0.9100  0.3116  0.1369
 4130SOL    HW123852   0.919   2.992   8.036 -0.3148  1.4394  0.5271
 4130SOL    HW223853   0.952   2.911   7.916  0.0213 -2.5720  2.6845
 4131SOL     OW23854   2.696   3.960  16.852 -0.7885  0.0470  0.3733
 4131SOL    HW123855   2.746   3.884  16.882  1.1824  1.6976  1.3003
 4131SOL    HW223856   2.611   3.917  16.850 -0.4195 -0.6448 -0.2150
 4132SOL     OW23857   3.034   4.571   0.080 -0.0874 -0.1826  0.4514
 4132SOL    HW123858   3.015   4.512   0.154  2.0790 -0.5082  0.7588
 4132SOL    HW223859   3.105   4.521   0.041 -0.8081  0.0286 -1.1189
 4133SOL     OW23860   3.209   0.106   8.155 -0.4819  0.4699 -0.2056
 4133SOL    HW123861   3.174   0.101   8.066 -2.6437  1.1762  0.6107
 4133SOL    HW223862   3.141   0.049   8.191 -1.0218  0.9693 -0.4411
 4134SOL     OW23863   2.590   1.765   2.505 -0.5228  0.3044  0.1426
 4134SOL    HW123864   2.648   1.830   2.465 -1.9618  0.5416 -1.5514
 4134SOL    HW223865   2.561   1.718   2.427 -0.7545  1.4343 -0.4597
 4135SOL     OW23866   3.673   3.302   4.402 -0.4759 -0.1402  0.2124
 4135SOL    HW123867   3.656   3.219   4.357 -0.3112  0.3625 -0.7661
 4135SOL    HW223868   3.687   3.354   4.323  2.1002  0.0816  0.8291
 4136SOL     OW23869   4.174   4.670   7.312 -0.3139 -0.0757 -0.4133
 4136SOL    HW123870   4.183   0.036   7.288  2.0577 -0.1514  0.1827
 4136SOL    HW223871   4.260   4.641   7.280 -0.4994 -0.7280 -0.3316
 4137SOL     OW23872   2.177   2.919   4.505  0.2777  0.3476  0.0400
 4137SOL    HW123873   2.098   2.958   4.543 -0.6223 -2.8412  1.4423
 4137SOL    HW223874   2.243   2.984   4.529 -1.4395  2.4417 -0.9290
 4138SOL     OW23875   1.081   4.517  15.377 -0.1785  0.3280 -0.6025
 4138SOL    HW123876   1.109   4.608  15.392 -0.4079  0.8004 -2.9905
 4138SOL    HW223877   1.097   4.483  15.465  2.4269  1.7631 -0.5187
 4139SOL     OW23878   2.317   3.496  15.639  0.3378 -0.4049  0.2834
 4139SOL    HW123879   2.406   3.465  15.621  1.4550  2.9347  0.1395
 4139SOL    HW223880   2.334   3.550  15.715  3.3374 -0.2125 -0.5494
 4140SOL     OW23881   1.879   0.491   0.782 -0.0848  0.1837 -0.6915
 4140SOL    HW123882   1.820   0.534   0.720 -0.0345  1.1160 -0.0882
 4140SOL    HW223883   1.955   0.470   0.727  0.0258 -1.9965  0.2802
 4141SOL     OW23884   0.691   1.111   6.545 -0.5864  0.6988 -0.1803
 4141SOL    HW123885   0.725   1.036   6.496  0.6186  1.3409 -0.3440
 4141SOL    HW223886   0.653   1.148   6.465 -0.1271  2.4455  0.4048
 4142SOL     OW23887   3.323   4.130  16.331  0.4573  0.4150 -0.4825
 4142SOL    HW123888   3.329   4.149  16.425 -1.4644  0.1978 -0.3223
 4142SOL    HW223889   3.274   4.206  16.302 -0.8292 -0.2337  0.0052
 4143SOL     OW23890   1.329   1.137   3.782 -0.8347  0.1738  0.2625
 4143SOL    HW123891   1.392   1.173   3.720 -0.6316  2.5873  1.8813
 4143SOL    HW223892   1.377   1.128   3.864 -0.4806 -3.4044 -0.3238
 4144SOL     OW23893   3.296   2.981   3.710 -0.3131  0.0291 -0.2170
 4144SOL    HW123894   3.333   3.055   3.758  0.4388 -0.7115  0.3389
 4144SOL    HW223895   3.253   2.941   3.786  1.2900  1.1742  1.2902
 4145SOL     OW23896   4.683   3.897  11.169 -0.2796 -0.1146 -0.3336
 4145SOL    HW123897   4.621   3.946  11.223 -1.3058 -0.1965 -1.4556
 4145SOL    HW223898   4.719   3.967  11.114 -0.6181  2.0092  2.1488
 4146SOL     OW23899   2.416   0.983   4.051 -0.6539 -0.0012 -0.0124
 4146SOL    HW123900   2.328   1.010   4.077 -0.9209 -1.7390  0.8884
 4146SOL    HW223901   2.476   1.042   4.096 -1.7779  1.5288 -0.5407
 4147SOL     OW23902   0.987   2.863   4.277  0.2588 -0.3373  0.4016
 4147SOL    HW123903   0.962   2.777   4.312  0.1573 -0.7450 -0.6431
 4147SOL    HW223904   0.967   2.852   4.184 -0.9113 -3.6745  1.0366
 4148SOL     OW23905   3.949   0.646   3.362 -0.1899  0.2755 -0.1053
 4148SOL    HW123906   4.018   0.581   3.378 -0.4309 -0.3867 -1.7706
 4148SOL    HW223907   3.920   0.635   3.271  0.9142 -0.9162 -0.3232
 4149SOL     OW23908   0.931   4.536   8.312  0.3898  0.0497  0.4195
 4149SOL    HW123909   0.952   4.625   8.282  1.2455 -0.5779 -0.8160
 4149SOL    HW223910   1.015   4.492   8.298  0.3039  0.3050 -0.8700
 4150SOL     OW23911   1.193   4.660   9.947 -0.2031  0.7359  0.2448
 4150SOL    HW123912   1.216   4.685   9.858 -0.9951  1.2325  0.1787
 4150SOL    HW223913   1.247   0.001   9.990  2.1934 -1.2876  0.3060
 4151SOL     OW23914   2.442   3.403   4.743  0.3868 -0.8397 -0.1782
 4151SOL    HW123915   2.391   3.379   4.820 -1.4110  1.4179 -0.6494
 4151SOL    HW223916   2.435   3.327   4.685  1.7080 -1.0999 -0.0058
 4152SOL     OW23917   0.219   1.678   5.343 -0.3965  0.0809 -0.5169
 4152SOL    HW123918   0.158   1.723   5.285  1.1654  0.3243 -1.9504
 4152SOL    HW223919   0.145   1.634   5.386  0.5862  0.0666  1.1537
 4153SOL     OW23920   2.917   1.504  12.434 -0.5677 -0.5226 -0.0517
 4153SOL    HW123921   2.923   1.482  12.527  2.7812  0.3274 -0.0668
 4153SOL    HW223922   2.845   1.452  12.398 -0.0893 -1.5907  0.5563
 4154SOL     OW23923   1.851   0.313   1.236 -0.0095  0.0283  0.3255
 4154SOL    HW123924   1.938   0.346   1.217  0.8797 -1.4463  1.9032
 4154SOL    HW223925   1.816   0.323   1.147 -2.6374 -0.8854  1.2458
 4155SOL     OW23926   1.796   2.149   8.461 -0.0915  0.0198  0.6007
 4155SOL    HW123927   1.726   2.123   8.521  0.3834 -2.0385  0.2728
 4155SOL    HW223928   1.823   2.073   8.410 -0.0859  1.4702 -1.5738
 4156SOL     OW23929   2.727   3.017   2.570  0.1371 -0.0331 -0.4190
 4156SOL    HW123930   2.800   2.983   2.622 -0.4386  2.3728  2.0064
 4156SOL    HW223931   2.730   2.960   2.493 -0.1720 -3.5653  2.1728
 4157SOL     OW23932   0.072   0.725   8.570 -0.2171 -0.1843 -0.5232
 4157SOL    HW123933   0.064   0.642   8.618 -0.0462  0.0147 -0.1548
 4157SOL    HW223934   0.129   0.694   8.499  1.3745  2.3592 -0.3248
 4158SOL     OW23935   4.412   0.893   5.436  0.1347 -0.3461 -0.5183
 4158SOL    HW123936   4.488   0.910   5.381 -1.3195  0.8590 -2.1749
 4158SOL    HW223937   4.354   0.875   5.362 -3.1145  0.0826  1.9308
 4159SOL     OW23938   2.125   1.653   1.531  0.3727 -0.1941  0.4450
 4159SOL    HW123939   2.041   1.612   1.511  0.9866 -0.9112 -0.7110
 4159SOL    HW223940   2.130   1.717   1.460  1.5998 -0.4349  0.3207
 4160SOL     OW23941   2.167   1.267   6.537  0.5695 -0.0310  0.0744
 4160SOL    HW123942   2.157   1.265   6.441 -0.3535 -0.2529  0.1748
 4160SOL    HW223943   2.099   1.201   6.550 -0.7029  1.5226  1.3770
 4161SOL     OW23944   0.388   3.332  10.037  0.2147  0.5914  0.4139
 4161SOL    HW123945   0.412   3.264   9.974 -1.0218 -1.0173  1.6907
 4161SOL    HW223946   0.361   3.407   9.983  0.4769 -0.2690 -0.9174
 4162SOL     OW23947   1.433   3.639  14.515  0.4156 -0.1626 -0.5199
 4162SOL    HW123948   1.518   3.634  14.470  0.3611 -0.5531 -0.5779
 4162SOL    HW223949   1.461   3.714  14.568  1.9711 -1.1579  0.0877
 4163SOL     OW23950   0.100   2.481   8.615  0.1409 -0.6461  0.0917
 4163SOL    HW123951   0.037   2.505   8.683  1.3152  1.2422  0.5044
 4163SOL    HW223952   0.146   2.420   8.673  0.0050  1.1424  2.0681
 4164SOL     OW23953   3.600   0.855   4.174  0.3443 -0.3396  0.8459
 4164SOL    HW123954   3.557   0.898   4.248  0.6729 -0.8174  1.3140
 4164SOL    HW223955   3.673   0.802   4.208  0.4561 -0.1779  0.8599
 4165SOL     OW23956   2.461   0.413   7.731  0.8004  0.7322 -0.1924
 4165SOL    HW123957   2.503   0.484   7.683 -1.0621  1.4844 -0.7246
 4165SOL    HW223958   2.438   0.452   7.815 -0.4543 -1.0281  0.2807
 4166SOL     OW23959   3.368   2.542   7.538 -0.5453  0.2547 -0.1470
 4166SOL    HW123960   3.431   2.603   7.576  1.1116 -0.2782 -2.0643
 4166SOL    HW223961   3.420   2.462   7.547  3.1242  2.8179  1.2430
 4167SOL     OW23962   0.851   0.500  16.894  0.0645 -0.0753 -0.3971
 4167SOL    HW123963   0.925   0.553  16.923 -2.7461  3.1035  0.8941
 4167SOL    HW223964   0.838   0.515  16.800 -2.2107  2.8219  0.4024
 4168SOL     OW23965   2.854   4.040   5.070  0.1098 -0.4455  0.1600
 4168SOL    HW123966   2.816   3.962   5.108 -1.4603  0.3908  0.3137
 4168SOL    HW223967   2.791   4.104   5.102 -0.2626  0.2536 -1.9276
 4169SOL     OW23968   4.577   2.573   8.751  0.1113  0.8585 -0.0059
 4169SOL    HW123969   4.599   2.562   8.843  1.1851  0.7271 -0.2676
 4169SOL    HW223970   4.496   2.524   8.741  0.5314 -0.2004  1.8424
 4170SOL     OW23971   0.342   3.894   5.947 -0.3161 -0.6175 -0.1791
 4170SOL    HW123972   0.390   3.837   6.008 -0.1555 -1.0421 -0.7044
 4170SOL    HW223973   0.385   3.977   5.965 -2.4246  0.6760 -1.1836
 4171SOL     OW23974   4.679   2.296  13.586 -0.0847 -0.2509  0.0652
 4171SOL    HW123975   4.638   2.271  13.669 -1.5151 -1.6392 -1.0824
 4171SOL    HW223976   0.043   2.281  13.616 -0.4239 -0.5276  0.9626
 4172SOL     OW23977   0.828   1.852  13.958 -0.2382  0.0382  0.4668
 4172SOL    HW123978   0.768   1.802  14.013 -0.9185  1.0178  0.6233
 4172SOL    HW223979   0.814   1.942  13.987 -1.3050  0.3090 -0.9123
 4173SOL     OW23980   0.782   3.656   0.443 -0.1245 -0.3025  0.5842
 4173SOL    HW123981   0.798   3.566   0.414 -0.1576 -0.0191 -0.3300
 4173SOL    HW223982   0.691   3.664   0.413 -0.4954 -0.3492  1.7173
 4174SOL     OW23983   0.541   3.201   2.870  0.2418  0.1847 -0.1770
 4174SOL    HW123984   0.603   3.198   2.942  0.3456  0.5881 -0.2491
 4174SOL    HW223985   0.515   3.293   2.866  2.2652  0.7088 -1.2209
 4175SOL     OW23986   3.613   0.719   9.102  0.0290 -0.2304  0.0388
 4175SOL    HW123987   3.585   0.749   9.189  0.0583 -0.0704 -0.0073
 4175SOL    HW223988   3.549   0.648   9.097 -0.7290  0.5976 -1.9962
 4176SOL     OW23989   2.653   2.770   3.860  0.5657  0.2168 -0.4915
 4176SOL    HW123990   2.616   2.683   3.845  0.8157  0.1210 -0.5436
 4176SOL    HW223991   2.746   2.752   3.871 -0.3244 -3.2409  1.5123
 4177SOL     OW23992   3.981   1.306   3.146 -0.1437  0.3871 -0.4010
 4177SOL    HW123993   3.897   1.261   3.149 -0.1983  0.4512 -0.9557
 4177SOL    HW223994   3.994   1.318   3.240  1.1226 -0.4236 -0.4634
 4178SOL     OW23995   0.986   0.748   6.406  0.2440  0.0403 -0.1139
 4178SOL    HW123996   0.983   0.740   6.501  0.6156 -0.3788 -0.1362
 4178SOL    HW223997   0.996   0.657   6.378 -2.6347  0.0713 -1.1946
 4179SOL     OW23998   3.895   0.274   0.683  0.0019  0.0249  0.3018
 4179SOL    HW123999   3.833   0.227   0.627 -1.1970 -0.4967  2.0725
 4179SOL    HW224000   3.963   0.206   0.688  1.4408  1.3976 -0.4423
 4180SOL     OW24001   4.150   0.423   9.322 -0.1570  0.0325  0.3487
 4180SOL    HW124002   4.072   0.468   9.291  0.4012  0.9446  0.2827
 4180SOL    HW224003   4.099   0.382   9.392 -1.5348  0.9139 -0.1376
 4181SOL     OW24004   0.519   4.261   6.562  0.1442  0.0955 -0.0436
 4181SOL    HW124005   0.512   4.217   6.477 -0.6999  0.8204 -0.3440
 4181SOL    HW224006   0.613   4.272   6.567  0.0976  0.7649 -0.6503
 4182SOL     OW24007   1.710   1.311   3.390 -0.0640  0.0169 -0.0282
 4182SOL    HW124008   1.802   1.334   3.399 -0.5610  1.5327  1.2755
 4182SOL    HW224009   1.702   1.268   3.305  0.4840 -0.6220  0.2466
 4183SOL     OW24010   3.020   2.399  10.238  0.5218  0.4174  0.1371
 4183SOL    HW124011   3.069   2.335  10.289  0.8025  1.9111  1.7497
 4183SOL    HW224012   3.090   2.455  10.203  1.2229 -0.6839 -0.2194
 4184SOL     OW24013   0.151   4.399   2.891 -0.2299 -0.1507 -0.8312
 4184SOL    HW124014   0.223   4.456   2.865 -0.1505 -0.2703 -0.8784
 4184SOL    HW224015   0.185   4.346   2.963 -0.2652 -0.1481 -0.8127
 4185SOL     OW24016   2.821   2.391   8.250  0.4406  0.0701  0.0393
 4185SOL    HW124017   2.906   2.397   8.207  1.4658 -1.1489  1.8557
 4185SOL    HW224018   2.847   2.396   8.342 -0.2631 -0.5220  0.2745
 4186SOL     OW24019   3.842   3.615   7.937  0.2812 -0.8476 -0.2582
 4186SOL    HW124020   3.899   3.539   7.927  2.6722  0.8647  0.1941
 4186SOL    HW224021   3.904   3.688   7.944 -1.0001  0.3138 -1.0490
 4187SOL     OW24022   4.314   1.674   5.248 -0.3865  0.0575  0.2019
 4187SOL    HW124023   4.290   1.659   5.339  3.0250  3.0816  1.6375
 4187SOL    HW224024   4.361   1.758   5.251  0.6275 -0.4718 -1.0429
 4188SOL     OW24025   3.251   3.140  13.259 -0.1424 -0.2340  0.3880
 4188SOL    HW124026   3.302   3.106  13.333 -1.3803 -0.6443  1.0659
 4188SOL    HW224027   3.181   3.182  13.309 -0.5332 -0.6597  0.1994
 4189SOL     OW24028   2.404   2.551   5.413  0.3247 -0.1480 -0.1629
 4189SOL    HW124029   2.341   2.513   5.351 -0.6210 -0.7175  1.1586
 4189SOL    HW224030   2.424   2.633   5.367 -0.4575  0.8888  1.3268
 4190SOL     OW24031   2.513   3.064   8.735 -0.4509  0.1381 -0.0367
 4190SOL    HW124032   2.491   3.152   8.706 -0.0178  0.3581  0.3137
 4190SOL    HW224033   2.595   3.084   8.781 -0.1765 -0.0064 -0.4633
 4191SOL     OW24034   3.316   1.825  15.997 -0.4484 -0.5868  0.4030
 4191SOL    HW124035   3.397   1.839  16.045  0.0746  0.3327 -0.7584
 4191SOL    HW224036   3.274   1.910  15.988  1.9631  0.4439 -1.0802
 4192SOL     OW24037   2.768   4.363  10.579  0.1188  0.0226 -0.2188
 4192SOL    HW124038   2.713   4.317  10.517  0.2919 -1.4545  0.7152
 4192SOL    HW224039   2.853   4.324  10.558  0.4762  1.0182 -0.6578
 4193SOL     OW24040   2.512   0.774   2.564 -1.1012  0.0919 -0.2137
 4193SOL    HW124041   2.588   0.812   2.518 -0.6325 -2.1760 -1.3544
 4193SOL    HW224042   2.479   0.850   2.610 -2.5872 -2.0746  2.2798
 4194SOL     OW24043   3.491   0.226   4.624  0.2146  0.0362  0.1117
 4194SOL    HW124044   3.538   0.203   4.544  0.0543 -2.5070  0.7469
 4194SOL    HW224045   3.546   0.179   4.686  0.0760 -2.0143 -1.3009
 4195SOL     OW24046   3.549   2.924   3.214 -0.1279 -0.6790 -0.1150
 4195SOL    HW124047   3.541   2.905   3.308  0.8514 -0.3381  0.0365
 4195SOL    HW224048   3.456   2.933   3.195 -0.2320 -0.1524  0.6329
 4196SOL     OW24049   4.554   2.908   8.944  0.2345 -0.5742 -0.1718
 4196SOL    HW124050   4.546   2.833   8.885  1.6068  0.2919 -1.4656
 4196SOL    HW224051   4.524   2.867   9.025  0.4946  0.7983  0.6138
 4197SOL     OW24052   3.615   4.055   7.458  0.0715  0.3957 -0.2940
 4197SOL    HW124053   3.586   3.968   7.485 -1.3744  0.8114 -0.4878
 4197SOL    HW224054   3.570   4.108   7.523 -0.3854 -1.3212  0.8040
 4198SOL     OW24055   1.208   0.888   7.598 -0.1943  0.0664  0.1050
 4198SOL    HW124056   1.297   0.854   7.609 -0.8567 -2.0821 -1.0581
 4198SOL    HW224057   1.156   0.815   7.633  3.3568 -2.9556 -0.9701
 4199SOL     OW24058   0.314   3.523   6.569 -0.2889 -0.2731 -0.2222
 4199SOL    HW124059   0.399   3.563   6.584 -0.9734  1.2909 -0.5903
 4199SOL    HW224060   0.343   3.432   6.558 -0.8137 -0.3536 -0.9750
 4200SOL     OW24061   2.856   2.882  16.643 -0.3286  0.4997  0.2916
 4200SOL    HW124062   2.866   2.954  16.706 -1.4293 -0.2333  1.3005
 4200SOL    HW224063   2.768   2.897  16.606 -1.2907 -2.0048  1.6113
 4201SOL     OW24064   0.804   2.071   8.610  0.4279 -0.6960 -0.3723
 4201SOL    HW124065   0.836   2.010   8.544  2.4829 -1.6961  1.5336
 4201SOL    HW224066   0.882   2.100   8.658  0.8213 -1.0739 -0.7844
 4202SOL     OW24067   2.576   0.921   1.126  0.2161  0.6395  0.2125
 4202SOL    HW124068   2.539   0.996   1.080 -2.6495 -1.0699 -0.2626
 4202SOL    HW224069   2.493   0.880   1.147 -0.3190  1.7876  0.3266
 4203SOL     OW24070   0.838   1.286   2.293  0.0112  0.4106 -0.1003
 4203SOL    HW124071   0.779   1.318   2.361  0.4946  0.3253  0.3635
 4203SOL    HW224072   0.907   1.350   2.312  0.3114 -0.5713  2.1710
 4204SOL     OW24073   2.812   3.926   6.736 -0.0652  0.8360  0.2069
 4204SOL    HW124074   2.829   4.013   6.772 -0.7665  1.6268 -1.3228
 4204SOL    HW224075   2.724   3.916   6.772  0.3165 -2.5554  0.1973
 4205SOL     OW24076   4.122   1.687   7.428 -0.0405  0.1434 -0.1840
 4205SOL    HW124077   4.036   1.693   7.385 -0.5094 -1.5647  0.5384
 4205SOL    HW224078   4.146   1.780   7.432  0.1249  0.0790  0.2331
 4206SOL     OW24079   2.581   0.647   6.170  0.3358  0.2066 -0.3937
 4206SOL    HW124080   2.569   0.604   6.254  2.9131 -0.8740 -0.5942
 4206SOL    HW224081   2.640   0.720   6.191 -2.1190  2.0712  0.0014
 4207SOL     OW24082   1.575   1.243   6.715 -0.0380 -0.4785 -0.3524
 4207SOL    HW124083   1.665   1.224   6.691  0.2686 -0.4362  0.7445
 4207SOL    HW224084   1.527   1.171   6.673 -0.1215 -1.0323  0.6925
 4208SOL     OW24085   0.950   0.689  17.686 -0.1937  0.2085 -0.2947
 4208SOL    HW124086   0.950   0.595  17.666 -0.1063  0.8376 -3.1791
 4208SOL    HW224087   0.860   0.701   0.014  1.0669  3.3112  2.1381
 4209SOL     OW24088   2.794   2.532   8.471 -0.6686 -0.0167 -0.0737
 4209SOL    HW124089   2.868   2.504   8.525 -2.1497  0.1792  2.0470
 4209SOL    HW224090   2.718   2.522   8.528 -1.5541 -0.4831 -1.3312
 4210SOL     OW24091   0.999   0.273   6.637 -0.1315 -0.3814  0.5458
 4210SOL    HW124092   1.081   0.297   6.680 -0.0356 -1.9236  1.2238
 4210SOL    HW224093   0.989   0.187   6.679 -0.7058 -1.1653 -1.1980
 4211SOL     OW24094   4.255   2.885   3.035 -0.0467 -0.0926 -0.3365
 4211SOL    HW124095   4.220   2.966   2.999 -1.1589  0.7059  2.6222
 4211SOL    HW224096   4.255   2.916   3.125 -0.0326 -1.0357 -0.0161
 4212SOL     OW24097   1.388   2.697   3.193  0.2825  0.3946 -0.0083
 4212SOL    HW124098   1.365   2.731   3.107  0.4676 -2.2169 -1.1024
 4212SOL    HW224099   1.339   2.759   3.247 -2.0902 -0.4460 -1.2297
 4213SOL     OW24100   2.273   2.665   7.632 -0.2283  0.1756 -0.6435
 4213SOL    HW124101   2.274   2.598   7.701 -2.5461 -0.1606 -0.9352
 4213SOL    HW224102   2.280   2.726   7.705 -1.5816 -0.9584  0.4343
 4214SOL     OW24103   4.581   3.774  15.463  0.8027  0.2071  0.1113
 4214SOL    HW124104   4.642   3.782  15.390 -0.4910 -0.6963 -1.0667
 4214SOL    HW224105   4.609   3.690  15.499 -2.2517 -0.8316  0.0646
 4215SOL     OW24106   3.364   0.063   5.143 -0.3001 -0.4940  0.8354
 4215SOL    HW124107   3.271   0.063   5.122 -0.3500  2.1029  1.0619
 4215SOL    HW224108   3.397   0.150   5.122 -0.3720 -0.5187  0.6272
 4216SOL     OW24109   3.133   0.978   5.116  0.2088  0.0806  0.8049
 4216SOL    HW124110   3.219   0.969   5.157  0.0385 -1.8370  0.7305
 4216SOL    HW224111   3.096   0.891   5.133  0.9242 -0.2274  0.8049
 4217SOL     OW24112   2.170   4.468  11.553 -0.3657  0.4758  0.2135
 4217SOL    HW124113   2.209   4.387  11.520 -1.9870 -0.2030 -0.0115
 4217SOL    HW224114   2.233   4.535  11.526  1.3759 -0.7003  1.3885
 4218SOL     OW24115   1.506   1.255   5.609  0.1168  0.1579  0.1383
 4218SOL    HW124116   1.459   1.202   5.545  0.7346 -0.8526  0.5163
 4218SOL    HW224117   1.428   1.300   5.642  1.5960  1.6342  1.6506
 4219SOL     OW24118   1.839   3.036   5.947 -0.1051 -0.2819 -0.1357
 4219SOL    HW124119   1.793   3.097   6.005  0.3771 -0.7515  0.7294
 4219SOL    HW224120   1.779   3.015   5.875  0.5438 -0.3164 -0.6679
 4220SOL     OW24121   4.444   2.888   0.430  0.2099 -0.0658 -0.6337
 4220SOL    HW124122   4.514   2.904   0.367  0.4611 -0.3604 -0.4256
 4220SOL    HW224123   4.437   2.962   0.490 -2.2944 -2.0398  1.4835
 4221SOL     OW24124   0.975   4.513   4.882  0.1754  0.2657  0.4463
 4221SOL    HW124125   0.900   4.491   4.825  0.4917  0.6231 -0.1094
 4221SOL    HW224126   0.989   4.427   4.921 -0.2599  0.3933  0.8849
 4222SOL     OW24127   1.481   1.231   9.762  0.0978 -0.1507 -0.5163
 4222SOL    HW124128   1.554   1.225   9.824 -0.5202 -1.0340  0.1218
 4222SOL    HW224129   1.467   1.136   9.756 -2.8213  0.3235 -0.9796
 4223SOL     OW24130   2.364   1.228   2.544  0.1998 -0.3994  0.2183
 4223SOL    HW124131   2.372   1.286   2.468 -2.0535 -0.0695  0.2182
 4223SOL    HW224132   2.322   1.285   2.608  1.3474  0.4106  0.2511
 4224SOL     OW24133   2.792   2.093   3.270 -0.0240 -0.6161 -0.2968
 4224SOL    HW124134   2.871   2.089   3.218  2.6132  0.1051  3.6653
 4224SOL    HW224135   2.751   2.012   3.238 -3.3690  1.2022 -0.6532
 4225SOL     OW24136   2.862   4.638   1.097 -0.6745 -0.3598  0.0899
 4225SOL    HW124137   2.774   4.648   1.132 -1.3119 -0.5523 -1.4737
 4225SOL    HW224138   2.866   4.543   1.092  0.6524 -0.2593 -0.8096
 4226SOL     OW24139   3.378   0.364   2.893  0.1535 -0.4080 -0.2324
 4226SOL    HW124140   3.287   0.335   2.881  0.8019 -2.8510  0.8264
 4226SOL    HW224141   3.370   0.393   2.984 -1.4492 -1.6446  0.0324
 4227SOL     OW24142   3.014   2.483   0.670  0.1228 -0.3146  0.0979
 4227SOL    HW124143   2.996   2.390   0.664 -1.9920  0.1593 -1.0913
 4227SOL    HW224144   3.106   2.485   0.645 -0.2114  1.8587 -0.9686
 4228SOL     OW24145   4.564   2.958   4.251  0.3060 -0.0909  0.1413
 4228SOL    HW124146   4.537   3.028   4.191  0.0351 -2.3192 -2.3017
 4228SOL    HW224147   4.618   2.902   4.196  0.2444  1.4513 -1.4992
 4229SOL     OW24148   3.729   2.401  13.035 -0.2359 -0.3020 -0.3300
 4229SOL    HW124149   3.645   2.427  12.998 -1.1358 -0.5386  1.5739
 4229SOL    HW224150   3.702   2.366  13.120 -1.3002  0.1942 -0.4687
 4230SOL     OW24151   1.214   3.157   8.562 -0.0222 -0.0905 -0.1153
 4230SOL    HW124152   1.148   3.091   8.582  0.0812 -0.1884 -0.0946
 4230SOL    HW224153   1.283   3.101   8.526  0.5514 -0.0897  0.9852
 4231SOL     OW24154   3.112   3.098  12.954 -0.1850 -0.5849  0.3808
 4231SOL    HW124155   3.181   3.087  12.888  0.9643  0.4055  1.4116
 4231SOL    HW224156   3.125   3.027  13.016  0.6636  0.3882  1.3305
 4232SOL     OW24157   4.582   3.018   4.503  0.9484  0.5873 -0.3901
 4232SOL    HW124158   4.575   2.989   4.412  1.2587  0.5056 -0.3858
 4232SOL    HW224159   4.489   3.023   4.526  0.9898 -1.2579  0.2430
 4233SOL     OW24160   4.003   3.378   7.935 -0.0658  0.1526 -0.9422
 4233SOL    HW124161   4.043   3.292   7.922  0.7750  0.5621 -1.0589
 4233SOL    HW224162   4.075   3.434   7.905  0.6438  1.1756  2.7238
 4234SOL     OW24163   1.861   1.385   7.742  0.5933 -0.3180 -0.7138
 4234SOL    HW124164   1.864   1.345   7.829  3.8730  1.4979 -0.0186
 4234SOL    HW224165   1.830   1.312   7.688 -3.9248  1.3547 -0.4309
 4235SOL     OW24166   1.715   1.849   7.773 -0.1133  0.2506 -0.3413
 4235SOL    HW124167   1.646   1.805   7.724  1.1889 -0.5625 -1.4328
 4235SOL    HW224168   1.669   1.876   7.853  0.0777  0.8592 -0.4392
 4236SOL     OW24169   0.520   2.777   2.164  0.1595  0.0405  0.1416
 4236SOL    HW124170   0.496   2.868   2.180  1.5138  0.2610  0.9656
 4236SOL    HW224171   0.525   2.737   2.251  0.8031  0.7306  0.4225
 4237SOL     OW24172   0.264   3.280   0.794 -0.3372 -0.0055 -0.7795
 4237SOL    HW124173   0.332   3.309   0.855 -0.4022  0.3728 -0.8843
 4237SOL    HW224174   0.269   3.185   0.795  0.9032  0.0719  0.2785
 4238SOL     OW24175   2.094   2.162  11.844  0.0282 -0.4211  0.1194
 4238SOL    HW124176   2.177   2.117  11.828  0.5428  1.1920 -1.7543
 4238SOL    HW224177   2.075   2.132  11.933 -2.4184 -0.5822 -0.4408
 4239SOL     OW24178   0.178   4.691   7.037 -0.0201 -0.3696 -0.4245
 4239SOL    HW124179   0.158   4.639   7.115  2.5168  0.5602  0.8284
 4239SOL    HW224180   0.142   0.051   7.060  0.3540 -0.1232 -0.7546
 4240SOL     OW24181   4.339   1.736   3.372 -0.4855 -0.4462  0.4852
 4240SOL    HW124182   4.422   1.779   3.349  0.2826 -1.3451  1.5490
 4240SOL    HW224183   4.345   1.744   3.468 -2.0116  2.7959  0.2982
 4241SOL     OW24184   4.547   2.639   3.252 -0.2332  0.2460 -0.0556
 4241SOL    HW124185   4.554   2.734   3.240  2.0756  0.3260  1.9609
 4241SOL    HW224186   4.495   2.640   3.332 -0.8811 -0.1298 -0.4682
 4242SOL     OW24187   4.698   3.550  16.728  0.2147  0.3122 -0.3557
 4242SOL    HW124188   4.616   3.598  16.715 -0.5579 -0.7595  0.5997
 4242SOL    HW224189   0.042   3.616  16.732 -0.1332  0.8142 -2.3448
 4243SOL     OW24190   3.294   0.457  15.769  0.7641  0.0724  0.1435
 4243SOL    HW124191   3.288   0.362  15.773 -0.7883  0.1551 -0.2026
 4243SOL    HW224192   3.273   0.473  15.677 -2.2584  0.2822  0.8566
 4244SOL     OW24193   1.889   0.095   8.308  0.4456  0.0840  0.4540
 4244SOL    HW124194   1.873   0.171   8.364 -2.5630 -0.8825  0.9386
 4244SOL    HW224195   1.800   0.061   8.303  0.5962 -0.4624  1.3754
 4245SOL     OW24196   4.026   3.948  11.126 -0.4232 -0.5852  0.2691
 4245SOL    HW124197   3.963   3.888  11.085 -2.3470  0.8768  1.0571
 4245SOL    HW224198   4.003   4.027  11.077  0.9837  0.1326  0.7566
 4246SOL     OW24199   3.405   1.052   4.285  0.5027  0.3629  0.1253
 4246SOL    HW124200   3.345   0.978   4.283  0.4935  0.3576  0.6094
 4246SOL    HW224201   3.415   1.068   4.378 -0.6398 -2.1329  0.6854
 4247SOL     OW24202   1.811   3.306   0.203 -0.0098  0.3758  0.9351
 4247SOL    HW124203   1.749   3.254   0.253  0.9516  1.2478  3.0392
 4247SOL    HW224204   1.844   3.355   0.278  0.0456  3.6390 -1.2184
 4248SOL     OW24205   4.138   3.645  16.086  0.3544 -0.1377  0.3909
 4248SOL    HW124206   4.087   3.574  16.045  0.9009 -0.7435  0.7644
 4248SOL    HW224207   4.163   3.604  16.168  0.5451 -0.2962  0.2526
 4249SOL     OW24208   3.465   4.015   8.894  0.5386 -0.6205 -0.2624
 4249SOL    HW124209   3.461   4.110   8.881  1.6885 -0.7301 -1.4628
 4249SOL    HW224210   3.549   4.002   8.939 -0.5094  0.1400  1.9203
 4250SOL     OW24211   3.952   4.560  11.720 -0.0817 -0.4493 -0.3511
 4250SOL    HW124212   4.033   4.511  11.713  0.9069  1.1847 -0.2429
 4250SOL    HW224213   3.909   4.496  11.776  1.1689 -2.1586 -1.3449
 4251SOL     OW24214   4.632   1.123   5.550 -0.1784  0.2589  0.4613
 4251SOL    HW124215   4.635   1.214   5.580  1.8901  0.2727  0.1871
 4251SOL    HW224216   4.558   1.083   5.596 -0.1248  1.0055  1.2072
 4252SOL     OW24217   1.766   3.896   0.191 -0.1094 -0.0274  0.0777
 4252SOL    HW124218   1.737   3.856   0.110 -1.7231  1.9730 -0.3482
 4252SOL    HW224219   1.794   3.986   0.174 -0.0744 -0.2378 -0.9641
 4253SOL     OW24220   2.698   1.900   1.495  0.5816 -0.7370  0.3422
 4253SOL    HW124221   2.727   1.836   1.430  1.8962 -0.5422  0.7274
 4253SOL    HW224222   2.689   1.843   1.572 -0.2602 -0.3458  0.5273
 4254SOL     OW24223   4.531   3.802   8.097 -0.1413 -0.0073 -0.1724
 4254SOL    HW124224   4.508   3.711   8.115 -1.5932  0.4753  0.3977
 4254SOL    HW224225   4.451   3.841   8.132  0.3084 -0.8637  1.8585
 4255SOL     OW24226   1.417   0.022  14.870  0.5072  0.1256 -0.2852
 4255SOL    HW124227   1.411   0.049  14.778 -0.1305 -0.0203 -0.2851
 4255SOL    HW224228   1.324   0.023  14.893  0.8522  0.3154  1.1036
 4256SOL     OW24229   4.408   4.319  14.519 -0.4777 -0.6111  0.0893
 4256SOL    HW124230   4.440   4.333  14.430  0.8207  1.2834  0.8692
 4256SOL    HW224231   4.314   4.335  14.506 -0.1823  2.1708  1.3789
 4257SOL     OW24232   2.018   3.127  11.454  0.3983 -0.0150 -0.9997
 4257SOL    HW124233   1.955   3.196  11.432 -1.1328 -0.7080  1.1391
 4257SOL    HW224234   2.094   3.150  11.402  0.3911  2.8656  0.3044
 4258SOL     OW24235   3.425   1.960   2.668  0.0006  0.6062 -0.3247
 4258SOL    HW124236   3.388   1.904   2.736  1.7787  0.0419  0.1674
 4258SOL    HW224237   3.344   1.984   2.622 -0.7460  1.8042  1.5946
 4259SOL     OW24238   3.395   3.004  13.442 -0.3085  0.0434 -0.7062
 4259SOL    HW124239   3.479   2.964  13.465 -0.9498  0.3446  2.2166
 4259SOL    HW224240   3.380   3.052  13.524  1.2073  1.3425 -1.2062
 4260SOL     OW24241   3.658   1.578   3.731 -0.8524  0.5933  0.0602
 4260SOL    HW124242   3.609   1.515   3.678 -1.9316  0.2817  1.4482
 4260SOL    HW224243   3.746   1.544   3.716 -1.0358 -0.1175  0.5925
 4261SOL     OW24244   1.006   4.375  15.895 -0.1133 -0.1091 -0.0288
 4261SOL    HW124245   1.007   4.434  15.820 -1.4654  1.2750  1.0536
 4261SOL    HW224246   1.071   4.305  15.881 -0.0500 -0.1115  0.2885
 4262SOL     OW24247   1.236   0.256  13.959 -0.0353  0.3037  0.1589
 4262SOL    HW124248   1.221   0.161  13.954 -0.8433  0.4929 -1.1346
 4262SOL    HW224249   1.292   0.258  13.882 -0.6080  0.4393 -0.2571
 4263SOL     OW24250   2.830   1.090  11.128 -0.2599 -0.2037  0.4803
 4263SOL    HW124251   2.925   1.093  11.118 -0.7851  0.7590 -4.1443
 4263SOL    HW224252   2.817   1.022  11.194 -1.4835 -1.0251 -0.6376
 4264SOL     OW24253   0.280   2.267   3.876  0.3641 -0.4456 -0.3461
 4264SOL    HW124254   0.212   2.250   3.941  1.5753 -1.5700  0.6248
 4264SOL    HW224255   0.342   2.195   3.876  0.2390 -0.5581  1.5340
 4265SOL     OW24256   2.019   0.887   2.875  0.3624  0.1640 -0.2273
 4265SOL    HW124257   2.090   0.905   2.814 -2.0486  5.0525 -1.6105
 4265SOL    HW224258   1.961   0.954   2.838 -0.0946 -1.4740 -2.4273
 4266SOL     OW24259   1.637   2.734   0.445  0.3423  0.6251 -0.1236
 4266SOL    HW124260   1.639   2.714   0.539 -0.3605 -0.2995 -0.3107
 4266SOL    HW224261   1.652   2.829   0.451  0.8428  0.6854 -2.3331
 4267SOL     OW24262   3.786   4.266   3.941  0.9632  0.5027 -0.3699
 4267SOL    HW124263   3.847   4.330   3.977  1.4404 -0.2513  0.1531
 4267SOL    HW224264   3.708   4.262   3.995  0.5034  0.5248 -1.0260
 4268SOL     OW24265   3.984   0.309   6.265 -0.3700  0.1896 -0.2771
 4268SOL    HW124266   3.966   0.329   6.173 -1.0038  0.2699 -0.1356
 4268SOL    HW224267   4.077   0.329   6.266 -0.3279 -0.0028 -0.5020
 4269SOL     OW24268   1.889   4.418   4.913 -0.1826  0.1468  0.0457
 4269SOL    HW124269   1.864   4.403   5.004 -0.3236 -0.2997 -0.0673
 4269SOL    HW224270   1.974   4.377   4.929 -1.0218 -0.5935  2.6711
 4270SOL     OW24271   2.098   1.613   6.946 -0.1619  0.3665  0.0289
 4270SOL    HW124272   2.173   1.645   6.896 -0.7870  0.8317 -0.6160
 4270SOL    HW224273   2.138   1.607   7.033 -0.2171  1.3362  0.1236
 4271SOL     OW24274   0.807   0.235   2.397 -0.0458 -0.0445  0.1707
 4271SOL    HW124275   0.786   0.199   2.483 -0.0959  1.1654  0.6499
 4271SOL    HW224276   0.902   0.239   2.410  0.2429 -1.6984 -1.3763
 4272SOL     OW24277   0.690   0.467   5.134  0.1171 -0.4969 -0.1420
 4272SOL    HW124278   0.606   0.465   5.088 -0.3351  0.1226  0.6571
 4272SOL    HW224279   0.718   0.558   5.142 -2.1715  0.0699  1.2678
 4273SOL     OW24280   3.872   1.158  15.624  0.1436 -0.3589 -0.1615
 4273SOL    HW124281   3.916   1.098  15.685 -0.2233 -0.1031  0.3590
 4273SOL    HW224282   3.797   1.178  15.680  0.5473  1.3577 -0.2565
 4274SOL     OW24283   1.792   0.790   9.060  0.0818 -0.1113 -0.7196
 4274SOL    HW124284   1.801   0.786   9.155  1.1067 -0.6667 -0.8337
 4274SOL    HW224285   1.886   0.782   9.041  0.3227 -1.2497  0.9429
 4275SOL     OW24286   3.600   3.616   5.802  0.7725  0.0694 -0.3158
 4275SOL    HW124287   3.627   3.533   5.761  0.1479 -0.5501  0.5244
 4275SOL    HW224288   3.574   3.662   5.723 -0.0516  0.4131  0.1614
 4276SOL     OW24289   2.629   0.533  15.976 -0.1536  0.1332 -0.0246
 4276SOL    HW124290   2.577   0.470  16.026  0.1304  1.4773  1.9327
 4276SOL    HW224291   2.695   0.475  15.938 -1.0200 -1.9545  1.6970
 4277SOL     OW24292   3.408   4.451   7.482  0.2571  0.2960  0.1290
 4277SOL    HW124293   3.405   4.390   7.556  0.3140 -0.8584 -0.8232
 4277SOL    HW224294   3.474   4.404   7.431  1.5758 -0.8629  2.8696
 4278SOL     OW24295   3.786   3.475   1.320  0.2506  0.0797 -0.1347
 4278SOL    HW124296   3.812   3.423   1.396  0.0798 -0.4795 -0.4571
 4278SOL    HW224297   3.869   3.496   1.276  0.7604  0.4827  1.0286
 4279SOL     OW24298   1.350   4.044   1.078  0.5062 -0.4564 -0.3462
 4279SOL    HW124299   1.311   4.127   1.048 -0.2770 -0.5164  0.4967
 4279SOL    HW224300   1.336   4.052   1.173 -2.5417 -2.2879 -0.6488
 4280SOL     OW24301   3.271   1.399  10.031 -0.3932  0.1863 -0.3706
 4280SOL    HW124302   3.268   1.401   9.935 -2.7337 -1.5425 -0.3349
 4280SOL    HW224303   3.252   1.489  10.055  0.3305  0.8271 -2.1816
 4281SOL     OW24304   4.188   1.132  16.633  0.1095  0.0291 -0.1443
 4281SOL    HW124305   4.169   1.216  16.591  0.4876 -0.0272 -0.4253
 4281SOL    HW224306   4.108   1.110  16.680 -0.4692 -1.4511 -1.8132
 4282SOL     OW24307   4.410   0.283   5.281 -0.1407 -0.2928 -0.0497
 4282SOL    HW124308   4.359   0.333   5.345  0.8618 -0.0038  0.5324
 4282SOL    HW224309   4.384   0.194   5.303  0.6006 -0.8017 -1.2396
 4283SOL     OW24310   2.496   1.908   3.137 -0.8281 -0.2576  0.0010
 4283SOL    HW124311   2.412   1.873   3.169 -1.3387  0.7261 -0.2947
 4283SOL    HW224312   2.481   2.000   3.116 -0.3386 -0.5783 -1.7559
 4284SOL     OW24313   2.360   3.391   7.170 -0.2171 -0.1218  0.3994
 4284SOL    HW124314   2.399   3.397   7.083 -0.1060 -2.7454  0.2435
 4284SOL    HW224315   2.437   3.415   7.222  0.1028  2.2420 -1.1925
 4285SOL     OW24316   0.091   1.597  10.432 -0.1598 -0.3266 -0.4612
 4285SOL    HW124317   0.082   1.654  10.357  3.1236 -0.0546 -0.6750
 4285SOL    HW224318   0.177   1.623  10.467 -0.9101  1.6331 -0.1350
 4286SOL     OW24319   0.691   2.684  15.991  0.2658  0.2951  0.1186
 4286SOL    HW124320   0.720   2.769  15.957  1.1614 -0.9368 -2.2059
 4286SOL    HW224321   0.777   2.646  16.005 -0.1195 -0.2351  1.0780
 4287SOL     OW24322   1.268   1.914  17.017 -0.0308  0.7407 -0.4513
 4287SOL    HW124323   1.339   1.856  17.047 -2.0036 -0.9347  0.9794
 4287SOL    HW224324   1.313   1.993  16.988  1.4300 -0.6015 -1.8582
 4288SOL     OW24325   0.780   3.048  16.417 -0.3477 -0.0691  0.2828
 4288SOL    HW124326   0.694   3.020  16.385 -1.2301  1.9570  0.8576
 4288SOL    HW224327   0.836   2.988  16.368  0.6565  0.8996  0.2416
 4289SOL     OW24328   4.688   0.076   4.767 -0.7718 -0.2924 -0.0627
 4289SOL    HW124329   0.036   0.015   4.776 -1.6644 -1.3707 -0.1088
 4289SOL    HW224330   4.704   0.122   4.685  0.5436  0.9243  0.8812
 4290SOL     OW24331   3.248   0.587   8.871 -0.6949 -0.0361 -0.7497
 4290SOL    HW124332   3.287   0.501   8.856  0.5707  0.4972 -0.5453
 4290SOL    HW224333   3.173   0.557   8.923  0.0245 -0.0285  0.2872
 4291SOL     OW24334   3.708   1.499   1.309  0.1771 -0.1740 -0.5260
 4291SOL    HW124335   3.659   1.543   1.239  0.4497  1.3083  0.1987
 4291SOL    HW224336   3.781   1.561   1.306  0.0338 -0.0558 -1.4511
 4292SOL     OW24337   0.091   3.424  13.972  0.1439  0.2726  0.9791
 4292SOL    HW124338   0.109   3.496  14.031  0.5389  0.9234  0.0675
 4292SOL    HW224339   0.005   3.444  13.933  0.0385 -0.9263  0.5785
 4293SOL     OW24340   2.136   3.101   7.719 -0.1050  0.3435 -0.1071
 4293SOL    HW124341   2.215   3.078   7.671  0.4114  3.2608 -0.6678
 4293SOL    HW224342   2.164   3.103   7.810  1.6534 -0.8622 -0.6357
 4294SOL     OW24343   1.770   3.409   2.500  0.4552 -0.8467 -0.1549
 4294SOL    HW124344   1.717   3.340   2.460  0.6559 -1.5717  0.8169
 4294SOL    HW224345   1.741   3.478   2.441 -0.6032 -2.4756 -1.5689
 4295SOL     OW24346   4.411   1.454   8.999  0.1512 -0.0651 -0.2688
 4295SOL    HW124347   4.398   1.543   9.031  1.5777  0.1231 -0.2340
 4295SOL    HW224348   4.501   1.440   9.028  0.3786  0.9862 -0.4706
 4296SOL     OW24349   3.327   2.140   5.231 -0.1209 -0.1390  0.3655
 4296SOL    HW124350   3.322   2.127   5.326 -0.6746  1.8453  0.6091
 4296SOL    HW224351   3.291   2.058   5.199  1.0172 -1.2377  1.9236
 4297SOL     OW24352   1.404   1.437  13.670 -0.2576 -0.6376 -0.4242
 4297SOL    HW124353   1.362   1.353  13.691  0.2497 -1.0291 -0.9497
 4297SOL    HW224354   1.478   1.439  13.730  0.9340 -1.1029 -1.8605
 4298SOL     OW24355   2.330   1.056  15.543  0.1910 -0.5106  0.6220
 4298SOL    HW124356   2.293   1.028  15.460 -0.6620 -0.4579  0.9841
 4298SOL    HW224357   2.334   1.151  15.531  0.1746 -0.7281 -1.1042
 4299SOL     OW24358   1.554   0.718   4.572 -0.1145 -0.3502  0.0570
 4299SOL    HW124359   1.568   0.751   4.661 -0.3800 -0.9690  0.3338
 4299SOL    HW224360   1.541   0.623   4.582 -1.8734 -0.0258  0.6872
 4300SOL     OW24361   1.763   2.849  12.337 -0.6777  0.2999  0.2438
 4300SOL    HW124362   1.740   2.810  12.421  0.7588  1.2909  1.0916
 4300SOL    HW224363   1.845   2.894  12.359  0.5601 -1.8370 -0.0811
 4301SOL     OW24364   2.761   4.569   4.343 -0.0632  0.0100  0.1600
 4301SOL    HW124365   2.677   4.553   4.300  0.1435  0.0312 -0.2523
 4301SOL    HW224366   2.749   4.662   4.361  2.2198  0.6712 -1.7269
 4302SOL     OW24367   4.339   1.841   6.801  0.0120 -0.0876 -0.1799
 4302SOL    HW124368   4.371   1.806   6.884 -1.1121 -1.3941 -0.2892
 4302SOL    HW224369   4.249   1.811   6.811 -0.0893  0.4022  0.3790
 4303SOL     OW24370   1.122   4.628   2.917 -0.0972 -0.3897  0.0065
 4303SOL    HW124371   1.185   4.696   2.895 -0.7752  0.5517  1.0027
 4303SOL    HW224372   1.172   4.584   2.986 -1.1254 -0.3862  0.7486
 4304SOL     OW24373   3.737   1.400   8.728  0.5251  0.3521  0.7333
 4304SOL    HW124374   3.789   1.391   8.808 -0.5615  1.1074  1.5254
 4304SOL    HW224375   3.777   1.472   8.679  1.2978  0.1663  1.0833
 4305SOL     OW24376   0.288   1.102   8.360  0.4699 -0.2534  0.7318
 4305SOL    HW124377   0.224   1.116   8.429 -0.2309 -1.4015  0.3190
 4305SOL    HW224378   0.300   1.185   8.313 -3.5369  1.0428  2.0546
 4306SOL     OW24379   4.298   3.946   8.145 -0.4700 -0.6217  0.4234
 4306SOL    HW124380   4.218   3.999   8.157 -1.1055 -2.2100  3.1041
 4306SOL    HW224381   4.275   3.863   8.186  0.4275  0.1999  2.6166
 4307SOL     OW24382   3.626   0.796   7.608 -0.2020  0.0557 -0.2213
 4307SOL    HW124383   3.594   0.860   7.544  0.2357 -0.8307 -1.3200
 4307SOL    HW224384   3.553   0.735   7.603 -0.5677  0.4845 -0.1320
 4308SOL     OW24385   0.894   0.698  11.980  0.1752  0.0158 -0.1797
 4308SOL    HW124386   0.900   0.634  12.050  1.2365 -0.1678 -0.4461
 4308SOL    HW224387   0.973   0.681  11.929  0.3817  2.4432 -0.6865
 4309SOL     OW24388   2.366   1.733  16.684  0.7189 -0.2468 -0.0906
 4309SOL    HW124389   2.460   1.718  16.672  0.2651  0.4583 -4.3947
 4309SOL    HW224390   2.353   1.659  16.743  1.1954 -0.1290  0.1625
 4310SOL     OW24391   2.120   1.391   2.394 -0.1177  0.8206  0.5353
 4310SOL    HW124392   2.213   1.415   2.394 -0.0161  0.4431 -1.2908
 4310SOL    HW224393   2.113   1.309   2.344  0.6498  0.3221  1.2325
 4311SOL     OW24394   0.297   3.925   4.410  0.4906 -0.3956 -0.1091
 4311SOL    HW124395   0.270   3.845   4.366 -0.7808  0.6688 -1.2683
 4311SOL    HW224396   0.214   3.974   4.411  1.2385  0.8714 -0.2905
 4312SOL     OW24397   0.961   1.268   4.568 -0.2854 -0.0066 -0.2346
 4312SOL    HW124398   1.031   1.266   4.503 -0.7594 -0.0623 -0.7421
 4312SOL    HW224399   0.974   1.180   4.603  3.5648 -0.0674 -1.7925
 4313SOL     OW24400   2.591   2.166   6.700 -0.1190  0.5702 -0.7721
 4313SOL    HW124401   2.530   2.218   6.752  0.5293 -0.2156  0.7567
 4313SOL    HW224402   2.621   2.234   6.639  1.7664 -0.1010 -0.6063
 4314SOL     OW24403   0.800   4.681   4.298  0.6776 -0.5779  0.3401
 4314SOL    HW124404   0.760   4.604   4.340  0.0829 -1.6894 -2.2513
 4314SOL    HW224405   0.887   4.643   4.282  0.6582 -0.1186 -0.8682
 4315SOL     OW24406   0.597   3.382   4.870 -0.2265  0.5704 -0.1495
 4315SOL    HW124407   0.616   3.409   4.780 -1.2426  0.6520 -0.3474
 4315SOL    HW224408   0.545   3.457   4.899  1.2726  2.3222 -1.9581
 4316SOL     OW24409   4.039   4.264   3.682 -0.5432 -0.0040  0.1001
 4316SOL    HW124410   4.085   4.259   3.766  0.8391  2.5126 -0.5211
 4316SOL    HW224411   3.976   4.336   3.679  0.7167  1.0129 -1.5328
 4317SOL     OW24412   1.172   1.570   1.790 -0.2814  0.4706  0.6098
 4317SOL    HW124413   1.230   1.495   1.806 -0.0053  0.2682 -1.4028
 4317SOL    HW224414   1.189   1.625   1.867  1.1452 -0.2005  0.7834
 4318SOL     OW24415   2.994   1.394   4.582 -0.5088 -0.1302 -0.3092
 4318SOL    HW124416   3.010   1.329   4.513 -1.1657 -1.3290  0.6614
 4318SOL    HW224417   2.899   1.411   4.583 -0.5961 -0.5134 -1.6007
 4319SOL     OW24418   1.894   2.492   4.383  0.2701  0.1543 -1.0119
 4319SOL    HW124419   1.833   2.426   4.349  0.1253 -1.1411  1.7608
 4319SOL    HW224420   1.891   2.482   4.478 -0.4393  0.9281 -0.9557
 4320SOL     OW24421   0.465   2.365  13.255  0.1192 -0.7945  0.1317
 4320SOL    HW124422   0.453   2.457  13.277 -1.7474 -1.0074  0.0249
 4320SOL    HW224423   0.555   2.344  13.279 -0.0858 -1.3540  0.4197
 4321SOL     OW24424   2.410   3.595   6.689  0.6230  0.7360 -0.6094
 4321SOL    HW124425   2.485   3.605   6.630 -0.8753  1.3163 -2.4121
 4321SOL    HW224426   2.413   3.505   6.721 -1.5501  1.1439  0.7028
 4322SOL     OW24427   2.338   2.083   7.332  0.0792 -0.5238 -0.6389
 4322SOL    HW124428   2.244   2.096   7.347  0.0520  0.0781 -1.3466
 4322SOL    HW224429   2.377   2.165   7.363  2.7607 -1.3991 -1.6668
 4323SOL     OW24430   2.662   3.586   5.993  0.2771  0.5590  0.0950
 4323SOL    HW124431   2.619   3.511   5.952  0.8235  0.6697 -0.6987
 4323SOL    HW224432   2.627   3.659   5.941  2.1552  0.4741 -1.2823
 4324SOL     OW24433   2.498   2.136   1.951  0.3998 -0.0985  0.0284
 4324SOL    HW124434   2.558   2.125   1.878  1.5102  1.6322  0.6991
 4324SOL    HW224435   2.425   2.077   1.931  0.7881 -1.0629  1.4599
 4325SOL     OW24436   2.904   4.242  16.373 -0.1785 -0.1253  0.3487
 4325SOL    HW124437   2.880   4.331  16.347 -0.9644 -0.3227  0.3766
 4325SOL    HW224438   2.847   4.198  16.309 -1.9653  2.1437  0.3459
 4326SOL     OW24439   3.790   3.057   0.748 -0.0215 -0.0430 -0.1017
 4326SOL    HW124440   3.776   3.058   0.843  1.6710 -2.8468  0.1794
 4326SOL    HW224441   3.838   2.974   0.742  0.5053 -0.0310  4.1915
 4327SOL     OW24442   1.257   3.839   2.260 -0.4742  0.0537 -0.6116
 4327SOL    HW124443   1.269   3.926   2.298 -4.3028 -0.4574  1.7580
 4327SOL    HW224444   1.175   3.861   2.216 -1.0718 -0.9727  0.0031
 4328SOL     OW24445   1.485   4.679   5.654 -0.1104 -0.1390  0.2510
 4328SOL    HW124446   1.454   4.592   5.629  0.7742 -0.8513  1.6344
 4328SOL    HW224447   1.486   4.674   5.750  0.8426  1.3768  0.3208
 4329SOL     OW24448   3.761   2.761   7.231  0.0043 -0.5121 -0.5517
 4329SOL    HW124449   3.706   2.785   7.306  3.3783 -0.5025  1.9011
 4329SOL    HW224450   3.801   2.676   7.249 -1.0314 -1.3571 -2.2466
 4330SOL     OW24451   0.820   0.269  12.663 -0.0583  0.0863  0.3189
 4330SOL    HW124452   0.857   0.345  12.708  2.4080 -0.0717 -1.4845
 4330SOL    HW224453   0.820   0.299  12.572  2.0637  0.7954  0.5555
 4331SOL     OW24454   1.057   3.844   4.029 -0.1239  0.0578  0.1710
 4331SOL    HW124455   1.017   3.776   4.084 -0.0834 -0.2516 -0.1841
 4331SOL    HW224456   1.105   3.892   4.097  0.5276 -1.8250  1.0439
 4332SOL     OW24457   1.151   3.268   5.664  0.8320 -0.0956 -0.5842
 4332SOL    HW124458   1.155   3.321   5.584  1.6802  1.7106  0.6730
 4332SOL    HW224459   1.161   3.332   5.734 -0.7004  0.8495 -1.2249
 4333SOL     OW24460   0.472   3.707   4.024  0.3069 -0.8318  0.1837
 4333SOL    HW124461   0.503   3.640   4.085 -1.1056 -0.6869  1.0531
 4333SOL    HW224462   0.526   3.683   3.948 -1.6732  0.8906 -1.7652
 4334SOL     OW24463   3.235   0.728   9.411  0.5588 -0.1514  0.4993
 4334SOL    HW124464   3.140   0.723   9.422  0.2961  0.6989 -1.3261
 4334SOL    HW224465   3.273   0.708   9.496  1.5414  0.7153  0.2683
 4335SOL     OW24466   1.665   2.611   2.742 -0.1611 -0.0676 -0.7970
 4335SOL    HW124467   1.739   2.616   2.681 -0.0965 -2.9346 -0.9151
 4335SOL    HW224468   1.627   2.529   2.713  0.0298 -0.8010  1.0663
 4336SOL     OW24469   2.950   2.770   4.907  0.0208  0.5857 -0.4021
 4336SOL    HW124470   2.952   2.706   4.978  0.4620  0.9231 -0.1127
 4336SOL    HW224471   2.907   2.722   4.836  3.0333 -1.3540 -0.8920
 4337SOL     OW24472   4.376   0.159  10.212 -0.1803  0.2918  0.3115
 4337SOL    HW124473   4.444   0.145  10.146 -2.4470 -2.1584 -1.4923
 4337SOL    HW224474   4.397   0.101  10.285  1.1547  0.2634 -0.0989
 4338SOL     OW24475   4.206   4.049   2.466 -0.3573 -0.1563 -0.2950
 4338SOL    HW124476   4.128   4.103   2.463 -0.3417 -0.0456  1.2044
 4338SOL    HW224477   4.174   3.962   2.486 -0.6851  0.5210  2.1238
 4339SOL     OW24478   3.112   2.129   5.673  0.5510 -0.2970  0.3884
 4339SOL    HW124479   3.038   2.069   5.662 -1.3914  2.2496 -0.4546
 4339SOL    HW224480   3.067   2.202   5.715 -0.6769 -1.3249  0.8543
 4340SOL     OW24481   1.006   0.603   5.735  0.4062 -0.3431  0.5141
 4340SOL    HW124482   0.947   0.593   5.809  0.6895  0.6154  0.8655
 4340SOL    HW224483   0.977   0.531   5.679  0.2370 -0.5801  0.9112
 4341SOL     OW24484   0.058   2.221  16.931  0.1181  0.8303 -0.6073
 4341SOL    HW124485   0.144   2.191  16.962  0.1860  1.3408 -0.3037
 4341SOL    HW224486   0.022   2.134  16.916 -0.8329  1.2238 -0.5650
 4342SOL     OW24487   1.870   3.196   8.857  0.7311  0.1994 -0.1683
 4342SOL    HW124488   1.796   3.185   8.797  1.7293 -1.7357 -1.0416
 4342SOL    HW224489   1.878   3.289   8.879 -0.3079  0.6012 -1.4304
 4343SOL     OW24490   0.624   3.947  15.685  0.2010  0.1087 -0.5441
 4343SOL    HW124491   0.590   4.021  15.736  0.8492  0.4361 -0.5771
 4343SOL    HW224492   0.636   3.991  15.600  2.1314 -2.3988 -1.5685
 4344SOL     OW24493   4.314   4.047   3.923 -0.5654 -0.2241 -0.0994
 4344SOL    HW124494   4.340   4.135   3.896  1.0158 -1.1295 -1.5123
 4344SOL    HW224495   4.227   4.052   3.883  0.8356 -1.2384 -3.3306
 4345SOL     OW24496   0.391   0.377   7.197 -0.0580 -0.3951  0.0399
 4345SOL    HW124497   0.454   0.417   7.256 -1.2929 -0.2552  1.2723
 4345SOL    HW224498   0.387   0.421   7.111 -1.2242 -0.3719  0.1098
 4346SOL     OW24499   0.307   0.406   3.245 -0.0839  0.0242 -0.2199
 4346SOL    HW124500   0.402   0.400   3.243 -0.1209 -0.5022 -0.4801
 4346SOL    HW224501   0.289   0.378   3.155 -0.5503  1.3381 -0.5363
 4347SOL     OW24502   2.472   4.446   3.247 -0.1527 -0.5240 -0.0001
 4347SOL    HW124503   2.392   4.498   3.249  0.6170  0.6023  1.3181
 4347SOL    HW224504   2.462   4.444   3.152  2.5381 -2.4098 -0.2669
 4348SOL     OW24505   0.467   2.389  15.779 -0.0286 -0.1716 -0.1087
 4348SOL    HW124506   0.528   2.316  15.772 -1.1312 -0.9151 -2.2323
 4348SOL    HW224507   0.398   2.335  15.817 -0.6201 -0.8190 -2.0958
 4349SOL     OW24508   0.344   0.576   6.701 -0.1783 -0.4160 -0.7126
 4349SOL    HW124509   0.259   0.607   6.670 -0.2990 -1.1922 -1.1451
 4349SOL    HW224510   0.319   0.489   6.733  0.8744 -0.3104  0.3904
 4350SOL     OW24511   3.603   2.552  14.806  0.5524  0.3194  0.1701
 4350SOL    HW124512   3.598   2.553  14.902 -0.8805 -2.2914  0.0900
 4350SOL    HW224513   3.606   2.647  14.795  0.0665 -0.0346 -3.0555
 4351SOL     OW24514   2.292   0.396   1.706  0.1017 -0.4725  0.3709
 4351SOL    HW124515   2.340   0.346   1.772  0.6196  0.8441  1.0016
 4351SOL    HW224516   2.280   0.474   1.761 -1.5637 -0.7744  0.4441
 4352SOL     OW24517   1.995   0.754   2.212  0.2677 -0.2198 -0.2839
 4352SOL    HW124518   1.962   0.738   2.300 -0.1124 -2.9247 -0.9272
 4352SOL    HW224519   1.915   0.801   2.186 -1.1736 -1.3187  2.1420
 4353SOL     OW24520   2.408   2.609   4.471 -0.7507  0.3121  0.4564
 4353SOL    HW124521   2.326   2.640   4.509 -0.9608 -1.0958  1.1689
 4353SOL    HW224522   2.362   2.552   4.409  1.4704 -1.4710  0.4418
 4354SOL     OW24523   3.050   1.825   8.861 -0.1934  0.1319  0.2604
 4354SOL    HW124524   3.124   1.860   8.812  0.2609  0.6046  1.2917
 4354SOL    HW224525   3.085   1.743   8.896 -1.6712 -0.4058  0.4871
 4355SOL     OW24526   4.042   2.904   2.214 -0.2494 -0.8174  0.6129
 4355SOL    HW124527   3.974   2.955   2.171 -0.0452 -0.7663  0.3537
 4355SOL    HW224528   4.108   2.973   2.213 -1.3579  0.2484  0.4757
 4356SOL     OW24529   1.203   0.952   4.511 -0.1765  0.1259 -0.8826
 4356SOL    HW124530   1.286   0.993   4.537  0.6432 -1.3205 -1.2104
 4356SOL    HW224531   1.231   0.869   4.473 -1.7746  0.1980 -2.2356
 4357SOL     OW24532   0.798   3.699   9.230 -0.1975 -0.3030 -0.0261
 4357SOL    HW124533   0.809   3.784   9.187  3.5231 -1.4840 -1.3833
 4357SOL    HW224534   0.741   3.721   9.304 -1.6851 -0.7109 -1.0339
 4358SOL     OW24535   3.614   4.683   7.979  0.0988  0.0046  0.8035
 4358SOL    HW124536   3.694   4.688   8.032  0.2265  1.7495  0.4225
 4358SOL    HW224537   3.583   0.048   7.984  0.6418  0.2822 -0.7940
 4359SOL     OW24538   0.223   1.801   6.136 -0.1460 -0.1757  0.3091
 4359SOL    HW124539   0.186   1.850   6.062  0.1123  1.4779  1.2794
 4359SOL    HW224540   0.224   1.714   6.095 -0.6221  0.7426 -1.6625
 4360SOL     OW24541   2.770   0.493  15.338  0.2167  0.5507  0.0636
 4360SOL    HW124542   2.814   0.546  15.271  1.4670  2.1208  2.1295
 4360SOL    HW224543   2.700   0.545  15.376  1.0812  0.4267  1.8274
 4361SOL     OW24544   4.120   0.079   0.392  0.0180 -0.0985 -0.2869
 4361SOL    HW124545   4.148   0.073   0.483  1.4335  2.2372 -0.5749
 4361SOL    HW224546   4.128   0.173   0.378 -0.4147 -0.0540 -0.2414
 4362SOL     OW24547   1.583   1.269   9.498  0.3573 -0.1034 -0.3837
 4362SOL    HW124548   1.579   1.238   9.588  0.2641  2.0796  0.3522
 4362SOL    HW224549   1.679   1.273   9.496  0.2724  1.9230  0.3414
 4363SOL     OW24550   1.818   2.330  13.776 -0.2729 -0.4725  0.4159
 4363SOL    HW124551   1.824   2.407  13.833  0.4433 -0.2513  0.0363
 4363SOL    HW224552   1.722   2.324  13.777 -0.2950 -0.0677  1.2899
 4364SOL     OW24553   1.374   0.369   1.404 -0.5291  0.1622 -0.0250
 4364SOL    HW124554   1.387   0.290   1.456 -1.5090 -0.0641 -0.1216
 4364SOL    HW224555   1.465   0.395   1.389 -0.0668 -0.8099  1.1250
 4365SOL     OW24556   2.852   0.327  14.476 -0.1719  0.3009  0.0487
 4365SOL    HW124557   2.803   0.345  14.396 -0.5549  1.2613  0.4984
 4365SOL    HW224558   2.892   0.241  14.466 -1.2364 -0.0430 -1.2533
 4366SOL     OW24559   3.964   2.885   6.482 -0.1001 -0.1022 -0.6729
 4366SOL    HW124560   3.976   2.813   6.420  1.6602  0.0456 -0.4946
 4366SOL    HW224561   3.939   2.845   6.565  1.7690 -1.4617 -0.7521
 4367SOL     OW24562   2.152   1.217   9.522 -0.1514 -0.0493  0.3043
 4367SOL    HW124563   2.104   1.297   9.541 -2.9905 -1.5729 -0.4064
 4367SOL    HW224564   2.233   1.260   9.495 -0.8359  1.2803  0.3890
 4368SOL     OW24565   1.960   0.274   4.696 -0.5373 -0.1428  0.1273
 4368SOL    HW124566   2.004   0.201   4.741  0.3737 -1.8755 -3.4867
 4368SOL    HW224567   1.936   0.319   4.776  3.6705  0.5522  1.0093
 4369SOL     OW24568   4.010   0.500   2.521  0.0291  0.1175 -0.0790
 4369SOL    HW124569   4.060   0.426   2.554  1.2998  0.5848 -0.9519
 4369SOL    HW224570   4.047   0.573   2.570  2.3715 -1.3393  0.3257
 4370SOL     OW24571   4.168   3.095   7.168 -0.0472 -0.0505  0.3667
 4370SOL    HW124572   4.078   3.070   7.189 -0.9182  0.7586 -2.3646
 4370SOL    HW224573   4.204   3.013   7.135  1.0226  1.0135 -1.1453
 4371SOL     OW24574   2.414   1.367   5.767  0.1084  0.2649  0.8411
 4371SOL    HW124575   2.477   1.384   5.837  0.7988 -1.8934  0.7430
 4371SOL    HW224576   2.381   1.283   5.799 -1.3744  0.7726  0.6294
 4372SOL     OW24577   2.080   2.088   5.787  0.4441 -0.3519  0.3583
 4372SOL    HW124578   2.145   2.035   5.741 -0.1803  0.3675 -1.3360
 4372SOL    HW224579   2.093   2.176   5.753 -0.6046 -0.4352 -0.2541
 4373SOL     OW24580   1.968   1.870   1.935  0.3885  0.6430  0.7708
 4373SOL    HW124581   2.055   1.831   1.932  0.2825  0.3561  1.4189
 4373SOL    HW224582   1.990   1.960   1.957 -2.3605  0.7769  3.0555
 4374SOL     OW24583   2.312   2.216  11.616  0.2448  0.0473 -0.0815
 4374SOL    HW124584   2.242   2.280  11.624  1.2882  1.1763 -0.0468
 4374SOL    HW224585   2.352   2.220  11.703  0.7500 -2.6147 -0.1897
 4375SOL     OW24586   2.349   1.445   4.308 -0.0042  0.5742 -0.0359
 4375SOL    HW124587   2.349   1.377   4.376 -0.3527  3.3376  2.7460
 4375SOL    HW224588   2.284   1.509   4.338 -1.0421 -1.3797  1.8833
 4376SOL     OW24589   1.102   0.586   1.736 -0.5410  0.0087 -0.3884
 4376SOL    HW124590   1.162   0.589   1.662  1.8569  1.0625  1.6208
 4376SOL    HW224591   1.017   0.601   1.694 -1.3700  0.6854  1.5133
 4377SOL     OW24592   3.689   3.359   5.655 -0.8091 -0.1086 -0.4543
 4377SOL    HW124593   3.663   3.289   5.595 -3.0276 -0.4980  0.9764
 4377SOL    HW224594   3.746   3.406   5.594  0.0072  1.7409  1.7402
 4378SOL     OW24595   1.990   2.199  13.630 -0.4319 -0.1501 -0.5030
 4378SOL    HW124596   1.945   2.252  13.696  0.8505  1.3015 -0.7989
 4378SOL    HW224597   1.961   2.245  13.552 -0.6495  0.5580 -0.0060
 4379SOL     OW24598   0.873   3.446  13.514  0.1846  0.7534 -0.2874
 4379SOL    HW124599   0.921   3.509  13.460 -0.0081  2.3701  1.4248
 4379SOL    HW224600   0.879   3.482  13.603  2.1048 -1.4992  0.4933
 4380SOL     OW24601   2.777   4.457   3.830 -0.1544  0.2226  0.7527
 4380SOL    HW124602   2.821   4.450   3.914 -0.5952 -0.3313  0.9354
 4380SOL    HW224603   2.743   4.547   3.828 -2.0457 -0.5308 -0.8941
 4381SOL     OW24604   2.387   0.347   8.160 -0.1051  0.3037  0.0919
 4381SOL    HW124605   2.319   0.407   8.130  0.3400  2.2276  2.9007
 4381SOL    HW224606   2.392   0.363   8.254  0.1533 -2.3941  0.5290
 4382SOL     OW24607   2.333   4.070   7.913 -0.0380  0.4240  0.1881
 4382SOL    HW124608   2.415   4.077   7.962  0.7249 -0.2531 -0.9796
 4382SOL    HW224609   2.368   4.035   7.831 -0.4196  1.3768 -0.3829
 4383SOL     OW24610   4.017   4.379   1.961  0.0407  0.0688 -0.8539
 4383SOL    HW124611   3.942   4.409   1.910 -2.4099  1.4489  3.5681
 4383SOL    HW224612   3.986   4.306   2.015  0.6485  0.5866  0.2040
 4384SOL     OW24613   4.211   4.519   3.018  0.2172  0.2266 -0.2200
 4384SOL    HW124614   4.190   4.541   2.927  1.7450 -0.3737 -0.7356
 4384SOL    HW224615   4.177   4.429   3.021 -1.7966  0.9916 -0.2449
 4385SOL     OW24616   1.361   0.834   5.496  0.4443  0.2972  0.2669
 4385SOL    HW124617   1.313   0.837   5.579  0.0668  2.2072 -0.0334
 4385SOL    HW224618   1.403   0.748   5.497  0.3491  0.2525  0.4464
 4386SOL     OW24619   4.610   2.506   4.674 -0.2256 -0.3583  0.0249
 4386SOL    HW124620   4.618   2.566   4.600  0.4030  2.0963  2.0988
 4386SOL    HW224621   4.515   2.495   4.670 -0.3925  0.8183  0.6962
 4387SOL     OW24622   0.775   3.883   8.223  0.5642  0.7799 -0.1255
 4387SOL    HW124623   0.740   3.912   8.139 -0.5960  0.4214  0.2299
 4387SOL    HW224624   0.709   3.924   8.278  0.7506  0.2597  0.4893
 4388SOL     OW24625   1.412   0.215   6.184 -0.5867  0.1474  0.6494
 4388SOL    HW124626   1.346   0.152   6.156 -0.2837  0.6804 -1.2628
 4388SOL    HW224627   1.373   0.253   6.263 -0.8261  0.3217  0.4470
 4389SOL     OW24628   1.859   2.798   6.484  0.4036  0.2051 -0.2853
 4389SOL    HW124629   1.948   2.794   6.521  0.8266  1.3054 -1.1881
 4389SOL    HW224630   1.844   2.892   6.499  0.4246  0.2863 -0.7730
 4390SOL     OW24631   0.112   2.316   6.635 -0.3943 -0.4844  0.4271
 4390SOL    HW124632   0.171   2.240   6.632  0.7595  0.4991 -1.5963
 4390SOL    HW224633   0.178   2.384   6.645  1.5321 -2.0684 -1.2429
 4391SOL     OW24634   1.346   3.467  12.112  0.2054  0.7383  0.2683
 4391SOL    HW124635   1.332   3.412  12.189 -0.1864  1.5370  0.7697
 4391SOL    HW224636   1.440   3.484  12.117  0.1729  0.5227  1.5261
 4392SOL     OW24637   4.591   0.268   2.455  0.1292 -0.0264  0.5394
 4392SOL    HW124638   4.499   0.282   2.432  0.3093 -0.8903 -0.6619
 4392SOL    HW224639   4.619   0.230   2.373 -1.1283  0.3090 -0.0517
 4393SOL     OW24640   1.679   1.669   1.263  0.4051 -0.0467  0.1156
 4393SOL    HW124641   1.601   1.624   1.232  0.4502  0.9970 -1.5344
 4393SOL    HW224642   1.643   1.734   1.324 -0.6872 -2.6849  2.2547
 4394SOL     OW24643   0.552   1.677   7.748  0.8031 -0.4030 -0.7133
 4394SOL    HW124644   0.515   1.606   7.694 -0.4015 -0.1530 -0.1942
 4394SOL    HW224645   0.512   1.660   7.833  1.7689 -0.9038 -0.3595
 4395SOL     OW24646   0.873   4.223   8.861 -0.2719 -0.5100  0.1153
 4395SOL    HW124647   0.824   4.292   8.817  0.6474 -0.7861 -1.3296
 4395SOL    HW224648   0.815   4.149   8.845 -0.7102 -0.0948 -0.2017
 4396SOL     OW24649   1.997   2.483   7.765 -0.0825  0.0804 -0.3239
 4396SOL    HW124650   1.931   2.476   7.834  1.4857  0.1655  1.1866
 4396SOL    HW224651   2.044   2.400   7.759  1.1552  0.6676  1.0851
 4397SOL     OW24652   2.721   0.789   8.430 -0.3408 -0.5123  0.1779
 4397SOL    HW124653   2.643   0.739   8.405 -0.4212 -0.6107  0.6079
 4397SOL    HW224654   2.727   0.861   8.368 -3.6474  0.4791  1.0035
 4398SOL     OW24655   2.491   4.310   4.954 -0.3309  0.1275 -0.1778
 4398SOL    HW124656   2.517   4.371   4.886  0.7979  0.9916  1.0225
 4398SOL    HW224657   2.554   4.306   5.026 -0.0861  1.7545 -0.3134
 4399SOL     OW24658   2.855   4.386   1.235 -0.0616  0.5301  0.7575
 4399SOL    HW124659   2.911   4.461   1.256  2.0590 -0.8538  0.1238
 4399SOL    HW224660   2.802   4.394   1.314 -1.5500  0.7021 -0.2680
 4400SOL     OW24661   3.292   1.201   5.520 -0.3711 -0.8990 -0.1167
 4400SOL    HW124662   3.375   1.228   5.480  0.4205 -0.3410  1.8894
 4400SOL    HW224663   3.278   1.269   5.585  0.1861 -0.3316 -0.5911
 4401SOL     OW24664   2.468   2.457   9.842 -0.0453 -0.6077  0.1111
 4401SOL    HW124665   2.561   2.474   9.824 -0.4387 -0.1489 -1.5193
 4401SOL    HW224666   2.467   2.427   9.933  0.0980  1.3107  0.7459
 4402SOL     OW24667   0.596   3.953  10.332 -1.0048  0.5074 -0.2850
 4402SOL    HW124668   0.673   3.910  10.296 -2.9356 -2.6396 -0.5879
 4402SOL    HW224669   0.598   3.902  10.413 -0.3869  0.3686 -0.3899
 4403SOL     OW24670   3.659   2.484   3.446 -0.5072  0.3010  0.1789
 4403SOL    HW124671   3.565   2.498   3.459 -0.6323 -0.9784  0.6383
 4403SOL    HW224672   3.688   2.575   3.439 -0.4853  0.3727  1.1495
 4404SOL     OW24673   2.711   3.931   9.158 -0.1868 -0.1843  0.5418
 4404SOL    HW124674   2.708   3.835   9.166  0.0191 -0.2542 -0.1694
 4404SOL    HW224675   2.677   3.956   9.243  0.6994 -1.5813  1.3073
 4405SOL     OW24676   3.855   0.537   1.345 -0.1791  0.1508  0.1369
 4405SOL    HW124677   3.874   0.580   1.262 -0.4082 -0.7342 -0.3754
 4405SOL    HW224678   3.786   0.476   1.320  1.4574 -0.8367 -1.9678
 4406SOL     OW24679   3.501   1.403   5.699  0.9196  0.1165 -0.2605
 4406SOL    HW124680   3.589   1.441   5.702  1.5326 -1.3862  0.6960
 4406SOL    HW224681   3.528   1.311   5.708 -0.5042 -0.3376 -0.6807
 4407SOL     OW24682   3.082   3.422   9.100  0.5423 -0.0530  0.0734
 4407SOL    HW124683   3.090   3.421   9.004  1.5268 -1.4504  0.1765
 4407SOL    HW224684   2.987   3.430   9.107  0.5421 -0.4104  0.4924
 4408SOL     OW24685   1.541   3.813   6.763  0.7216 -0.3913  0.2511
 4408SOL    HW124686   1.626   3.770   6.773  0.2867 -1.1145  0.8273
 4408SOL    HW224687   1.471   3.751   6.782  0.5262 -0.5098 -0.8757
 4409SOL     OW24688   1.805   3.371   7.841  0.4876 -0.3938  0.1607
 4409SOL    HW124689   1.826   3.282   7.812  1.3349  0.5540 -2.1678
 4409SOL    HW224690   1.759   3.396   7.761 -1.4786  0.5350  1.5598
 4410SOL     OW24691   3.608   2.770   0.880 -0.2351  0.6786 -0.0018
 4410SOL    HW124692   3.696   2.751   0.847  0.3744  2.9754  0.3217
 4410SOL    HW224693   3.621   2.860   0.909  1.8008  0.3509  0.1002
 4411SOL     OW24694   3.220   2.815   4.824 -0.2258 -0.1222  0.0583
 4411SOL    HW124695   3.215   2.722   4.847 -1.4753 -0.3017 -0.9168
 4411SOL    HW224696   3.132   2.847   4.843 -1.1358 -4.1650  2.6867
 4412SOL     OW24697   2.282   3.732   0.908  0.6120  0.3073 -0.1590
 4412SOL    HW124698   2.327   3.804   0.954 -0.5578  2.5374 -2.4730
 4412SOL    HW224699   2.209   3.779   0.868 -0.2834 -1.0520 -0.1116
 4413SOL     OW24700   0.257   2.698   8.522  0.2703  0.1892 -0.6290
 4413SOL    HW124701   0.215   2.624   8.566 -1.3162  2.8341  2.3122
 4413SOL    HW224702   0.200   2.695   8.445 -1.9190 -0.2408  0.9978
 4414SOL     OW24703   2.338   2.663   8.307 -0.1048 -0.4399  0.2503
 4414SOL    HW124704   2.267   2.684   8.246  1.2760  1.6536 -0.6158
 4414SOL    HW224705   2.365   2.585   8.258 -1.0906 -2.1415  2.3697
 4415SOL     OW24706   0.125   1.192   7.128 -0.0061 -0.0466  0.2448
 4415SOL    HW124707   0.210   1.179   7.084 -1.5973 -1.0023 -2.5439
 4415SOL    HW224708   0.128   1.140   7.208  0.7428  0.7334  0.7263
 4416SOL     OW24709   4.525   3.149   5.924  0.0426  0.2759 -0.4772
 4416SOL    HW124710   4.537   3.098   6.004 -1.7699  3.0056  1.5338
 4416SOL    HW224711   4.532   3.083   5.855 -0.0127  0.8902 -1.0731
 4417SOL     OW24712   0.188   2.421  17.240  0.4413  0.0603  0.1039
 4417SOL    HW124713   0.249   2.385  17.305  0.9573  1.6542  0.5028
 4417SOL    HW224714   0.234   2.497  17.205 -1.7254  0.6743 -1.3967
 4418SOL     OW24715   4.658   1.711  13.693  0.2677  0.5738 -0.1170
 4418SOL    HW124716   4.661   1.616  13.699  1.4848  0.7371  1.7411
 4418SOL    HW224717   4.564   1.728  13.697  0.1735 -0.0263  0.0983
 4419SOL     OW24718   2.034   1.226   5.575 -0.8710 -0.0937  0.5603
 4419SOL    HW124719   1.988   1.309   5.558 -0.0274 -0.2327 -2.5293
 4419SOL    HW224720   1.967   1.175   5.529  1.9697 -3.1923 -0.0945
 4420SOL     OW24721   3.630   1.593   7.854 -0.3161  0.2150 -0.2625
 4420SOL    HW124722   3.598   1.638   7.932 -0.3674  0.7864 -0.6175
 4420SOL    HW224723   3.689   1.535   7.902 -0.3272 -1.3144 -2.0978
 4421SOL     OW24724   3.371   4.029   5.236  0.3939  0.0350  0.1593
 4421SOL    HW124725   3.413   4.089   5.298  0.5110  0.2571 -0.1337
 4421SOL    HW224726   3.279   4.055   5.242  0.4358  0.2792 -0.2610
 4422SOL     OW24727   2.754   0.470   2.881  0.1206  0.0814 -0.2141
 4422SOL    HW124728   2.733   0.510   2.965 -0.0674  0.5032 -0.4582
 4422SOL    HW224729   2.679   0.491   2.825  0.9653 -1.2806 -1.8362
 4423SOL     OW24730   3.947   1.299   6.998  0.5556  0.6199 -0.1057
 4423SOL    HW124731   3.901   1.380   6.979  0.5165  0.2758 -1.4906
 4423SOL    HW224732   3.877   1.234   7.009  2.4746 -1.1646  1.7371
 4424SOL     OW24733   4.112   0.677   7.792  0.4363 -0.0529  0.2825
 4424SOL    HW124734   4.148   0.685   7.704 -0.7916 -1.2972 -0.3360
 4424SOL    HW224735   4.018   0.659   7.783  0.5574 -0.4148 -0.2719
 4425SOL     OW24736   0.238   1.010   6.441  0.9785  0.4752 -0.4479
 4425SOL    HW124737   0.207   0.979   6.526 -2.0637  0.3480 -1.5911
 4425SOL    HW224738   0.157   1.046   6.406 -0.4134 -1.8734  0.3706
 4426SOL     OW24739   3.924   1.993  11.028 -0.7952  0.2290  0.1451
 4426SOL    HW124740   3.875   1.911  11.031  0.0234 -0.4426 -4.7641
 4426SOL    HW224741   3.945   2.009  10.936  1.0934 -0.4580  0.4511
 4427SOL     OW24742   3.906   2.963   2.834  0.4906  0.2895  0.2520
 4427SOL    HW124743   3.878   2.914   2.911 -0.6862 -1.6229 -1.4095
 4427SOL    HW224744   3.983   3.009   2.867  0.6541  2.4395 -3.0734
 4428SOL     OW24745   2.667   2.157   7.642  0.3601  0.2541  0.0869
 4428SOL    HW124746   2.746   2.149   7.696  1.3681  0.1561 -1.4252
 4428SOL    HW224747   2.678   2.108   7.561  0.0913 -0.6676  0.6066
 4429SOL     OW24748   3.241   0.425   2.565 -0.1734  0.2004  0.6892
 4429SOL    HW124749   3.294   0.377   2.501 -1.2547 -1.6614  1.1723
 4429SOL    HW224750   3.304   0.489   2.599  1.2203  0.4321 -2.3324
 4430SOL     OW24751   3.013   3.803   4.578 -0.4100 -0.2373  0.0877
 4430SOL    HW124752   2.940   3.807   4.639  1.2690  2.6532  1.9332
 4430SOL    HW224753   3.071   3.864   4.626  1.7936 -1.3808 -1.1228
 4431SOL     OW24754   1.302   4.033  11.053 -0.2269  0.1317 -0.1792
 4431SOL    HW124755   1.246   4.086  11.109 -1.4248  0.7579 -1.9534
 4431SOL    HW224756   1.251   4.038  10.971  2.7638  0.4390 -2.0074
 4432SOL     OW24757   0.554   4.213   3.110  0.2535  0.1398  0.0335
 4432SOL    HW124758   0.531   4.220   3.018  3.0201 -1.9233 -0.7942
 4432SOL    HW224759   0.464   4.226   3.140 -0.1894  2.6953 -2.4599
 4433SOL     OW24760   4.569   0.578   3.049 -0.4438 -0.3650  0.1788
 4433SOL    HW124761   4.618   0.657   3.070 -1.5321  0.5603 -0.7096
 4433SOL    HW224762   4.513   0.571   3.126  0.4048  0.2860  0.8430
 4434SOL     OW24763   0.015   3.141  13.918  0.2456  0.2042 -0.0230
 4434SOL    HW124764   0.076   3.089  13.971  0.0920  0.5398  0.4786
 4434SOL    HW224765   0.059   3.226  13.928 -0.4363  0.7128 -1.4293
 4435SOL     OW24766   3.605   4.433   9.219 -0.2459  0.0402 -0.4245
 4435SOL    HW124767   3.621   4.406   9.129  1.1356 -0.8086  0.0599
 4435SOL    HW224768   3.683   4.485   9.241 -0.9590  1.2880 -0.8521
 4436SOL     OW24769   4.272   0.957   2.681 -0.0230 -0.3541  0.0380
 4436SOL    HW124770   4.277   1.027   2.616  3.3947  0.5862  1.3109
 4436SOL    HW224771   4.263   0.879   2.626  0.3520 -0.9837  0.8720
 4437SOL     OW24772   4.585   4.312   7.595  0.0236  0.2701 -0.5892
 4437SOL    HW124773   4.652   4.285   7.657 -2.5977 -2.7954  0.9056
 4437SOL    HW224774   4.624   4.294   7.509  1.5337  0.6172  0.0240
 4438SOL     OW24775   1.110   1.063   3.414  0.0809 -0.0989  0.4648
 4438SOL    HW124776   1.054   1.134   3.444 -1.8838 -1.0783 -0.9194
 4438SOL    HW224777   1.194   1.110   3.414  0.1668 -0.2569  2.0167
 4439SOL     OW24778   0.237   1.129  11.701  0.1533  0.0533  0.9589
 4439SOL    HW124779   0.200   1.176  11.776 -1.6975 -1.7335  1.1683
 4439SOL    HW224780   0.332   1.142  11.702  0.2315 -0.4640  0.5093
 4440SOL     OW24781   4.584   0.668   4.142  0.6197  0.5617 -0.8302
 4440SOL    HW124782   4.623   0.597   4.091  0.7460 -0.2637  0.4209
 4440SOL    HW224783   4.603   0.637   4.230 -0.5644 -2.5907 -1.7017
 4441SOL     OW24784   0.278   1.281   5.523  0.0942  0.2816 -0.7376
 4441SOL    HW124785   0.335   1.355   5.503 -1.0518  0.8526 -1.8966
 4441SOL    HW224786   0.343   1.228   5.570  0.0393 -1.2384 -2.3881
 4442SOL     OW24787   1.584   0.978   8.722 -0.4153 -0.9595 -0.2885
 4442SOL    HW124788   1.616   1.003   8.808 -1.0555  0.4502 -0.4541
 4442SOL    HW224789   1.522   1.051   8.722  0.8897  0.1419 -1.4149
 4443SOL     OW24790   3.233   0.102   5.595  0.2358  0.1938  0.6711
 4443SOL    HW124791   3.314   0.150   5.575  0.3518  0.7942  2.5838
 4443SOL    HW224792   3.214   0.121   5.687  0.9840 -1.1542  1.0934
 4444SOL     OW24793   0.864   0.647   1.522  0.2092  0.5174  0.7215
 4444SOL    HW124794   0.774   0.678   1.515  0.3278  0.4901 -0.7962
 4444SOL    HW224795   0.862   0.554   1.503 -0.8375  0.4451  1.1889
 4445SOL     OW24796   4.056   3.031   1.119  0.0848  0.0509 -0.6791
 4445SOL    HW124797   4.117   2.997   1.053  0.1894 -0.2839 -0.4105
 4445SOL    HW224798   4.051   2.960   1.182 -0.8348  0.2700 -0.5061
 4446SOL     OW24799   1.326   3.691  11.698 -0.2473 -0.2624 -0.2393
 4446SOL    HW124800   1.350   3.771  11.744 -1.5816 -0.4836  0.8066
 4446SOL    HW224801   1.331   3.722  11.607  1.5179  1.4016  0.4187
 4447SOL     OW24802   2.358   0.090  16.327 -0.1682 -0.2931 -0.1454
 4447SOL    HW124803   2.428   0.136  16.374  0.5199 -0.5140 -0.9594
 4447SOL    HW224804   2.323   0.166  16.280  1.4736  1.7959  1.9657
 4448SOL     OW24805   4.222   2.844  11.813 -0.0981  0.1353 -0.1328
 4448SOL    HW124806   4.276   2.876  11.741  0.8906 -1.3961 -0.0517
 4448SOL    HW224807   4.267   2.761  11.825  0.0099  0.1616 -0.3446
 4449SOL     OW24808   1.131   2.393   7.413  0.1037  0.2890  0.5224
 4449SOL    HW124809   1.104   2.312   7.369 -2.3136 -0.0301  2.5718
 4449SOL    HW224810   1.150   2.371   7.505 -2.1107  0.7829  1.1036
 4450SOL     OW24811   3.705   4.064   2.895  0.1220 -0.1575  0.1936
 4450SOL    HW124812   3.722   4.083   2.802 -0.5086 -1.7940 -0.2599
 4450SOL    HW224813   3.747   3.980   2.915  2.4735  1.0880  0.4784
 4451SOL     OW24814   2.036   4.690   2.880 -0.4477  0.4481  0.1827
 4451SOL    HW124815   2.114   4.719   2.833  0.5833 -1.1461  0.9069
 4451SOL    HW224816   2.049   4.721   2.970 -1.7778  0.5523  0.3294
 4452SOL     OW24817   4.270   2.953   4.219  0.1134 -0.0046  0.4131
 4452SOL    HW124818   4.365   2.941   4.220  0.2613  1.1623  0.4619
 4452SOL    HW224819   4.248   2.884   4.156 -0.0545  1.7815 -1.4919
 4453SOL     OW24820   4.314   1.576   2.783  0.6681 -0.1406 -0.1207
 4453SOL    HW124821   4.260   1.595   2.706  0.2476  1.0126  0.4549
 4453SOL    HW224822   4.246   1.548   2.844 -0.4727 -0.2956 -1.4681
 4454SOL     OW24823   0.145   1.416   1.734 -0.0957 -0.1077 -0.7355
 4454SOL    HW124824   0.133   1.470   1.657 -0.3616 -1.5730 -1.7279
 4454SOL    HW224825   0.230   1.448   1.762 -0.7506  1.5514 -0.6739
 4455SOL     OW24826   3.128   0.345   7.268  0.5234 -0.1514  0.7000
 4455SOL    HW124827   3.141   0.259   7.229  4.1389  0.1827  1.1854
 4455SOL    HW224828   3.039   0.369   7.242  0.0737 -0.2660  2.1067
 4456SOL     OW24829   1.857   4.709   7.290 -0.3316  0.4689  0.3383
 4456SOL    HW124830   1.815   0.063   7.257  0.0847  0.3459 -0.4667
 4456SOL    HW224831   1.781   4.673   7.337  0.3593  1.4524  2.1904
 4457SOL     OW24832   3.041   2.568   5.108  0.6191  0.4481  0.8738
 4457SOL    HW124833   3.018   2.477   5.129 -1.0579  0.5902 -0.2730
 4457SOL    HW224834   3.127   2.568   5.067 -1.3313  0.8810 -3.2124
 4458SOL     OW24835   2.698   4.459  16.068 -0.2486  0.0097  0.3176
 4458SOL    HW124836   2.643   4.516  16.014 -1.8613 -1.1534  0.7248
 4458SOL    HW224837   2.774   4.444  16.012 -0.4399 -1.6338  0.5058
 4459SOL     OW24838   3.540   2.436   2.446  0.2620  0.7850 -0.0163
 4459SOL    HW124839   3.477   2.500   2.480  3.0653  2.0978  2.7781
 4459SOL    HW224840   3.610   2.499   2.429 -1.3562  2.3189 -1.0388
 4460SOL     OW24841   3.542   2.900  16.075 -0.2173  0.6056  0.3020
 4460SOL    HW124842   3.495   2.942  16.147  0.3551  0.7548  0.5808
 4460SOL    HW224843   3.625   2.885  16.119 -0.5362  1.0632  1.0470
 4461SOL     OW24844   2.770   0.959   8.256 -0.7050  0.1235  0.0571
 4461SOL    HW124845   2.702   0.999   8.202 -1.5274 -2.2949 -0.7146
 4461SOL    HW224846   2.836   1.025   8.234 -1.4959  1.1350  0.7436
 4462SOL     OW24847   4.473   4.720   4.252  0.0470 -0.5691 -0.2859
 4462SOL    HW124848   4.513   0.057   4.191 -1.9246 -0.3305 -1.3515
 4462SOL    HW224849   4.383   4.720   4.220  0.2835  0.0060 -0.9598
 4463SOL     OW24850   4.217   4.128   8.368  0.1206  0.5037 -0.3647
 4463SOL    HW124851   4.253   4.079   8.443  1.4572 -0.9254 -1.9270
 4463SOL    HW224852   4.288   4.192   8.367  1.8917 -1.4780 -3.0863
 4464SOL     OW24853   0.862   4.206   1.668  0.3397  0.2355 -0.5823
 4464SOL    HW124854   0.905   4.291   1.678  1.9489 -0.4502 -1.6758
 4464SOL    HW224855   0.812   4.227   1.589 -0.1637  1.2876  0.0111
 4465SOL     OW24856   3.729   1.450   5.375 -0.3527  0.5917  0.1073
 4465SOL    HW124857   3.649   1.504   5.369 -1.2158 -0.6824  0.2213
 4465SOL    HW224858   3.787   1.516   5.412  0.9574 -0.1242 -0.6853
 4466SOL     OW24859   3.875   1.368  16.899  0.5311 -0.3426  0.4658
 4466SOL    HW124860   3.838   1.378  16.986 -3.8696 -1.2497 -1.2970
 4466SOL    HW224861   3.964   1.401  16.907 -0.2515  1.4471  1.7397
 4467SOL     OW24862   3.435   4.438   4.386 -0.1105  0.1519  0.9735
 4467SOL    HW124863   3.497   4.379   4.429  1.5155  2.1216  1.2935
 4467SOL    HW224864   3.381   4.463   4.461 -0.7801 -2.3118  1.3204
 4468SOL     OW24865   3.731   4.047   2.622  0.3348 -0.0527  0.1083
 4468SOL    HW124866   3.773   3.965   2.596 -0.5497 -0.6549  0.5801
 4468SOL    HW224867   3.650   4.033   2.574  2.5519 -3.8376 -2.5112
 4469SOL     OW24868   2.303   0.931  16.106 -0.0145 -0.3981  0.5067
 4469SOL    HW124869   2.350   0.994  16.052 -1.7699  1.1701  0.8080
 4469SOL    HW224870   2.215   0.956  16.079  0.2094  0.8900  0.9645
 4470SOL     OW24871   1.878   0.748   5.062 -0.4571  0.0343 -0.0312
 4470SOL    HW124872   1.787   0.776   5.064 -1.3486 -2.8968  0.6953
 4470SOL    HW224873   1.896   0.770   4.970  0.7627  0.1776  0.2328
 4471SOL     OW24874   3.555   2.155   2.770  0.0315 -0.0503  0.1222
 4471SOL    HW124875   3.511   2.087   2.718 -1.0600 -0.0716  1.0735
 4471SOL    HW224876   3.628   2.169   2.709  0.6814  1.3055  1.2246
 4472SOL     OW24877   3.887   3.293   9.147  0.2894  0.1739  0.5018
 4472SOL    HW124878   3.803   3.325   9.179  0.7624 -0.8324  2.7191
 4472SOL    HW224879   3.932   3.266   9.227 -2.7171 -2.8994  1.1491
 4473SOL     OW24880   2.892   2.312   4.168 -0.0007  0.4524  0.4988
 4473SOL    HW124881   2.967   2.261   4.137 -0.8377  0.8748 -2.1875
 4473SOL    HW224882   2.847   2.340   4.088  1.1474 -0.9425 -0.6173
 4474SOL     OW24883   1.179   4.087   6.365  0.2739 -0.1822  0.1130
 4474SOL    HW124884   1.251   4.136   6.325  1.0881 -0.3995  1.3193
 4474SOL    HW224885   1.225   4.004   6.378  1.7833  0.3513 -1.7416
 4475SOL     OW24886   3.866   2.699   6.205 -0.1432 -0.0896  0.1246
 4475SOL    HW124887   3.933   2.655   6.258  0.9741  2.3665  0.7356
 4475SOL    HW224888   3.920   2.748   6.143 -1.4100  1.0238 -0.0971
 4476SOL     OW24889   3.825   0.430   5.489  0.1731 -0.2745 -0.4063
 4476SOL    HW124890   3.775   0.484   5.428 -0.0356 -0.1282 -0.1107
 4476SOL    HW224891   3.799   0.344   5.456  1.1023  0.6369 -3.5310
 4477SOL     OW24892   0.529   0.918   2.452  0.1464  0.6228  0.0091
 4477SOL    HW124893   0.518   1.006   2.418  3.7362  1.1860  0.2211
 4477SOL    HW224894   0.580   0.886   2.377  0.7934 -0.4863  0.9190
 4478SOL     OW24895   3.548   0.519   4.691  0.1064  0.4401  0.3395
 4478SOL    HW124896   3.553   0.424   4.695 -3.3206  0.1933 -0.7549
 4478SOL    HW224897   3.453   0.521   4.681 -0.0553 -0.6265  1.6849
 4479SOL     OW24898   4.049   1.630   6.078  0.1846 -0.7531 -0.3976
 4479SOL    HW124899   4.102   1.568   6.129  1.3118 -0.7503 -1.5745
 4479SOL    HW224900   4.119   1.681   6.038 -0.0586  0.1204  0.2724
 4480SOL     OW24901   4.329   0.484   5.990  0.3197  0.2515 -0.0997
 4480SOL    HW124902   4.264   0.543   6.028 -1.4024 -0.8932 -1.2834
 4480SOL    HW224903   4.289   0.403   6.023 -3.4467  1.4359 -1.7809
 4481SOL     OW24904   2.460   3.934   7.652 -0.2167 -0.5638  0.3988
 4481SOL    HW124905   2.493   3.907   7.566 -1.4439  0.6657 -0.4523
 4481SOL    HW224906   2.434   4.025   7.637 -1.7005 -1.3858 -2.0150
 4482SOL     OW24907   2.691   3.460   3.314 -0.0496 -0.2116  0.1008
 4482SOL    HW124908   2.732   3.511   3.245 -3.1039  0.6706 -1.0494
 4482SOL    HW224909   2.755   3.464   3.386 -1.1498  0.4898  1.0421
 4483SOL     OW24910   3.671   2.726   6.968 -0.7426 -0.6922  0.3756
 4483SOL    HW124911   3.734   2.654   6.974  0.5498  0.4735  1.0716
 4483SOL    HW224912   3.673   2.770   7.054 -1.5831  0.6742 -0.3023
 4484SOL     OW24913   1.565   2.002   5.842  0.2430  0.0964  0.6300
 4484SOL    HW124914   1.652   1.991   5.803 -0.8936 -3.7804 -0.8127
 4484SOL    HW224915   1.560   2.097   5.851  0.7699 -0.1600  3.3776
 4485SOL     OW24916   2.094   1.270   5.028 -0.0985 -0.3640 -0.2548
 4485SOL    HW124917   2.160   1.291   5.093 -0.4865 -0.6732  0.2411
 4485SOL    HW224918   2.096   1.346   4.970  1.5842 -1.0395 -1.0818
 4486SOL     OW24919   0.863   1.925   5.763 -0.0597 -0.4675 -0.2217
 4486SOL    HW124920   0.954   1.925   5.791 -0.2433 -1.9992  0.3358
 4486SOL    HW224921   0.842   1.832   5.776  0.4297 -0.6421 -0.6712
 4487SOL     OW24922   2.756   2.836   1.905  0.3089  0.1436 -0.3855
 4487SOL    HW124923   2.775   2.930   1.898 -1.9656  0.5458 -1.1555
 4487SOL    HW224924   2.737   2.818   1.997 -0.9643 -1.8604 -1.0257
 4488SOL     OW24925   1.443   0.520   0.656 -0.1636  0.0944 -0.5669
 4488SOL    HW124926   1.425   0.516   0.750 -1.1992  1.1293 -0.7264
 4488SOL    HW224927   1.535   0.543   0.649 -0.2116 -0.3106 -2.5749
 4489SOL     OW24928   2.733   2.467   9.725  0.5160 -0.1923  0.1112
 4489SOL    HW124929   2.658   2.410   9.705  0.9099 -0.6612 -0.0115
 4489SOL    HW224930   2.800   2.400   9.741 -0.4124 -0.4064  3.1019
 4490SOL     OW24931   3.048   0.879   4.782 -0.8125  0.1648 -0.1810
 4490SOL    HW124932   3.026   0.969   4.805 -1.9038  0.0061 -0.6199
 4490SOL    HW224933   3.004   0.828   4.849 -2.3990 -0.6049 -1.8163
 4491SOL     OW24934   0.946   0.310   9.451 -0.6597  0.0233  1.0129
 4491SOL    HW124935   0.889   0.240   9.420  2.1229 -2.1842  0.9424
 4491SOL    HW224936   0.913   0.323   9.540 -1.7145 -0.6865  0.7121
 4492SOL     OW24937   1.422   4.080  16.255  0.0018  0.2406  0.1293
 4492SOL    HW124938   1.396   4.031  16.177  0.9385  1.1255 -0.7296
 4492SOL    HW224939   1.339   4.108  16.294 -0.8066 -1.3161 -0.4892
 4493SOL     OW24940   4.663   0.182   4.073 -0.5068 -0.8254 -0.0634
 4493SOL    HW124941   0.005   0.134   4.121 -0.5650 -0.4000  0.4543
 4493SOL    HW224942   4.660   0.125   3.996  0.9687  0.6629 -1.2293
 4494SOL     OW24943   4.042   1.034   4.312 -0.6802 -0.1441  0.6289
 4494SOL    HW124944   4.071   1.102   4.252  0.2474  0.4554  1.7762
 4494SOL    HW224945   4.051   0.959   4.253  4.4705  1.3285 -0.4102
 4495SOL     OW24946   1.572   2.021   9.988 -0.2956 -0.6197 -0.4056
 4495SOL    HW124947   1.640   1.953   9.982  0.8633  0.6162 -1.2059
 4495SOL    HW224948   1.603   2.074  10.061 -3.2417  1.9543 -1.0297
 4496SOL     OW24949   1.060   3.791   1.922  0.0040 -0.9140 -0.2734
 4496SOL    HW124950   1.058   3.696   1.937  1.3758 -0.4799  2.6591
 4496SOL    HW224951   0.970   3.820   1.940 -0.1091 -0.2752 -1.8732
 4497SOL     OW24952   3.360   4.489   6.189  0.1167  0.4779  0.3825
 4497SOL    HW124953   3.308   4.472   6.267 -0.5198  2.5425  0.4224
 4497SOL    HW224954   3.440   4.485   6.242  0.6996  0.1148 -0.5363
 4498SOL     OW24955   3.579   1.986   8.634 -0.2022 -0.2401  0.3893
 4498SOL    HW124956   3.526   1.989   8.554 -1.0245  2.4197  1.0405
 4498SOL    HW224957   3.628   1.908   8.609  1.1476  0.5698  0.5168
 4499SOL     OW24958   1.122   1.290   5.440  0.0644 -0.3802  0.2675
 4499SOL    HW124959   1.184   1.363   5.441 -2.2927  1.6060  0.1843
 4499SOL    HW224960   1.108   1.270   5.533 -2.2808  1.7304  0.3315
 4500SOL     OW24961   0.713   2.047  13.527 -1.0149 -0.2091  0.5950
 4500SOL    HW124962   0.634   1.999  13.553 -1.1992  0.0641  0.5425
 4500SOL    HW224963   0.783   2.014  13.582 -0.2754  0.0898 -0.1670
 4501SOL     OW24964   0.949   3.390   7.389 -0.8188 -0.5917 -0.0846
 4501SOL    HW124965   0.860   3.368   7.417 -1.0133 -1.2176 -1.2205
 4501SOL    HW224966   0.976   3.306   7.353  0.8445 -0.5687  1.1250
 4502SOL     OW24967   0.945   4.640  14.903  0.2552  0.5036  0.0667
 4502SOL    HW124968   1.013   4.671  14.963  0.3264  0.4012  0.0403
 4502SOL    HW224969   0.879   4.709  14.899  1.1038  1.2294 -1.1775
 4503SOL     OW24970   1.520   0.149  14.642 -0.1487  0.4985 -0.0321
 4503SOL    HW124971   1.453   0.120  14.581 -1.3598  1.4265  0.8454
 4503SOL    HW224972   1.548   0.237  14.621  4.0850 -0.9874 -0.6715
 4504SOL     OW24973   3.045   4.398  11.929  0.2837 -0.0759  0.5361
 4504SOL    HW124974   3.101   4.406  11.852 -1.8760 -1.2176 -1.1717
 4504SOL    HW224975   3.020   4.306  11.919 -1.0414  0.4637 -1.1260
 4505SOL     OW24976   4.429   0.016   0.743  0.5468 -0.6800 -0.2661
 4505SOL    HW124977   4.490   4.673   0.715  0.6251  0.1120 -1.9878
 4505SOL    HW224978   4.412   0.061   0.660  0.9109 -1.0571 -0.5455
 4506SOL     OW24979   1.646   0.243   4.068  0.4828 -0.2585  0.0272
 4506SOL    HW124980   1.613   0.289   3.990  2.0012  3.1579  1.4231
 4506SOL    HW224981   1.673   0.158   4.034 -0.6084 -0.6805  0.2105
 4507SOL     OW24982   0.517   0.306  15.825 -0.0227 -0.4723 -0.3845
 4507SOL    HW124983   0.544   0.387  15.782 -0.0876 -0.2653 -0.0377
 4507SOL    HW224984   0.434   0.328  15.867  1.5130  1.3219  1.7498
 4508SOL     OW24985   3.534   0.214  11.376  0.0813  0.6257  0.0902
 4508SOL    HW124986   3.445   0.231  11.405 -0.5751  0.2192 -1.6983
 4508SOL    HW224987   3.525   0.127  11.335  2.1579 -0.2900  1.5863
 4509SOL     OW24988   2.050   4.055   2.800 -0.0818  0.0064  0.0131
 4509SOL    HW124989   1.956   4.072   2.804 -0.1611  0.1138 -2.1807
 4509SOL    HW224990   2.059   4.028   2.709  0.4714 -2.5515  0.8308
 4510SOL     OW24991   4.062   0.442  11.265  0.2850 -0.0934  0.4647
 4510SOL    HW124992   4.102   0.509  11.319 -0.2878  0.6644 -0.0488
 4510SOL    HW224993   4.101   0.480  11.186 -1.4089  0.3513 -0.1658
 4511SOL     OW24994   2.622   4.015  11.476  0.4362  0.1069  0.4597
 4511SOL    HW124995   2.534   3.979  11.467  1.1625 -1.6985  0.4269
 4511SOL    HW224996   2.641   3.998  11.568 -1.1976  2.8046  1.2976
 4512SOL     OW24997   0.923   1.206   3.031  0.9503 -0.3824 -0.5220
 4512SOL    HW124998   0.966   1.282   2.990 -0.9563  0.7580 -0.3930
 4512SOL    HW224999   0.863   1.252   3.089 -0.2873 -0.0347 -2.0855
 4513SOL     OW25000   4.244   2.619   3.047 -0.1166 -0.1637 -0.5810
 4513SOL    HW125001   4.244   2.588   3.138  1.4503  0.2721 -0.4342
 4513SOL    HW225002   4.255   2.714   3.057  1.8803 -0.5174  0.5336
 4514SOL     OW25003   3.633   2.600   2.706 -0.1646 -0.1092  0.2414
 4514SOL    HW125004   3.651   2.690   2.731 -1.7964 -0.1079  1.3886
 4514SOL    HW225005   3.708   2.550   2.738  0.4296 -0.3661 -1.5186
 4515SOL     OW25006   0.177   3.010  13.345  0.3510  0.1490  0.0090
 4515SOL    HW125007   0.127   2.995  13.265 -0.1305  0.7628  0.1911
 4515SOL    HW225008   0.235   3.076  13.308 -1.3253  0.8949 -1.2712
 4516SOL     OW25009   3.117   3.036   3.500  0.6274  0.2864  0.0162
 4516SOL    HW125010   3.189   3.014   3.559  0.4661 -0.1497  0.0489
 4516SOL    HW225011   3.167   3.016   3.421 -2.1737  0.1800 -1.7345
 4517SOL     OW25012   3.090   2.244   5.064 -0.2074 -0.1588  0.6164
 4517SOL    HW125013   3.143   2.204   5.132  3.3583  1.9657 -0.8775
 4517SOL    HW225014   3.019   2.277   5.119 -1.0702  0.6820 -0.9813
 4518SOL     OW25015   0.917   1.225   5.960 -0.0461 -0.3953 -0.0950
 4518SOL    HW125016   0.891   1.247   5.871  3.0023 -1.6446 -1.2614
 4518SOL    HW225017   0.938   1.134   5.940  0.4919  0.5621 -3.7454
 4519SOL     OW25018   3.140   3.073   5.505 -0.5762  0.1682  0.0044
 4519SOL    HW125019   3.223   3.090   5.549 -1.2729  0.6734  1.1248
 4519SOL    HW225020   3.156   3.089   5.411 -1.1258 -1.3808 -0.3467
 4520SOL     OW25021   2.053   1.003   8.617  0.0843 -0.0631  0.3756
 4520SOL    HW125022   2.088   0.935   8.675 -1.8083 -0.7361  0.7273
 4520SOL    HW225023   2.071   1.086   8.661 -0.7869 -0.0720  0.7414
 4521SOL     OW25024   0.402   1.465  12.250 -0.7656 -0.2921 -0.3369
 4521SOL    HW125025   0.396   1.479  12.345 -1.0397  0.9978 -0.5421
 4521SOL    HW225026   0.417   1.554  12.218  1.6274 -0.5774 -0.0250
 4522SOL     OW25027   1.006   2.077  17.205  0.3389 -0.0702  0.3268
 4522SOL    HW125028   1.099   2.103  17.206  0.1797  0.4847  0.9874
 4522SOL    HW225029   0.985   2.113  17.119  1.3014 -2.8128 -1.0313
 4523SOL     OW25030   0.388   3.828   5.478 -0.7978  0.1141  0.0266
 4523SOL    HW125031   0.452   3.867   5.419 -1.3573  0.4869 -0.3404
 4523SOL    HW225032   0.431   3.861   5.557  0.6133  2.4843 -1.7189
 4524SOL     OW25033   1.755   0.812   6.942  0.0089  0.2121 -0.0073
 4524SOL    HW125034   1.825   0.793   6.879 -0.7000 -1.4376 -0.2904
 4524SOL    HW225035   1.807   0.805   7.022 -0.0582 -1.1023 -0.0717
 4525SOL     OW25036   4.127   2.592   7.805  0.3563 -0.4650 -0.6565
 4525SOL    HW125037   4.077   2.583   7.886  0.9613 -0.8469 -0.3310
 4525SOL    HW225038   4.059   2.576   7.738 -1.8007  0.3405  1.3521
 4526SOL     OW25039   3.168   4.095   3.639  0.0733  0.0758  0.5176
 4526SOL    HW125040   3.144   4.186   3.619 -0.1221 -0.6859 -2.6759
 4526SOL    HW225041   3.078   4.064   3.647  0.1867 -0.8399 -2.0207
 4527SOL     OW25042   2.887   0.503  11.810 -0.4109 -0.5565 -1.0667
 4527SOL    HW125043   2.821   0.538  11.751  1.6339  0.5427 -2.7147
 4527SOL    HW225044   2.913   0.422  11.766 -1.8277 -1.1760 -0.7622
 4528SOL     OW25045   2.806   4.652   8.069  0.2595  0.1195  0.0217
 4528SOL    HW125046   2.846   0.006   8.033 -1.5255  0.8755 -0.2840
 4528SOL    HW225047   2.753   4.617   7.997  0.5328 -1.1231  0.4173
 4529SOL     OW25048   0.876   1.853  17.201 -0.3023  0.4126  0.0947
 4529SOL    HW125049   0.934   1.918  17.239  2.7426 -1.7790 -0.8015
 4529SOL    HW225050   0.815   1.842  17.274 -0.6008  0.5082 -0.1406
 4530SOL     OW25051   1.194   0.601   4.596  0.0645 -0.7356  0.6018
 4530SOL    HW125052   1.241   0.518   4.602  0.3822 -0.8479 -3.3561
 4530SOL    HW225053   1.246   0.644   4.528  0.0450  0.9139  1.6227
 4531SOL     OW25054   2.296   0.455  14.598 -0.0795 -0.2682  0.4612
 4531SOL    HW125055   2.229   0.405  14.552  1.0093 -0.7013 -0.6712
 4531SOL    HW225056   2.271   0.412  14.680  0.3797 -0.9239  0.2541
 4532SOL     OW25057   4.256   1.173  10.816  0.3804  0.2376  0.3005
 4532SOL    HW125058   4.255   1.169  10.912  1.9771 -0.6318  0.2732
 4532SOL    HW225059   4.307   1.252  10.801  0.1016  0.9219  2.9700
 4533SOL     OW25060   0.127   1.444  12.269  0.3116  0.0145  0.4488
 4533SOL    HW125061   0.221   1.459  12.271  0.2345  0.3909  1.2366
 4533SOL    HW225062   0.117   1.348  12.268 -0.1718  0.1292 -3.7356
 4534SOL     OW25063   2.695   0.483   9.342  0.4056  0.1516 -0.2165
 4534SOL    HW125064   2.667   0.539   9.269  0.0012 -0.2363 -0.3587
 4534SOL    HW225065   2.721   0.556   9.398 -0.4875 -0.2243  0.6924
 4535SOL     OW25066   0.124   2.355  15.101  0.2600 -0.1074  0.0401
 4535SOL    HW125067   0.083   2.441  15.111 -2.6953 -1.3322 -1.2971
 4535SOL    HW225068   0.148   2.345  15.193  0.5450 -1.3141 -0.1606
 4536SOL     OW25069   4.548   4.483   6.541  0.0658 -0.0677 -0.0787
 4536SOL    HW125070   4.571   4.574   6.558 -0.5333  0.1401 -0.3747
 4536SOL    HW225071   4.625   4.465   6.487  0.2067 -0.5804  0.2889
 4537SOL     OW25072   1.566   1.280   7.985 -0.1172 -0.1203  0.2224
 4537SOL    HW125073   1.575   1.209   8.049 -0.1047  0.6059  1.0265
 4537SOL    HW225074   1.654   1.285   7.948  0.7093 -4.0390  1.6242
 4538SOL     OW25075   1.951   1.437   8.498  0.5416 -0.0504  0.7827
 4538SOL    HW125076   1.928   1.352   8.460 -1.3436  1.7125 -2.0022
 4538SOL    HW225077   2.045   1.419   8.499  0.4758 -0.4476 -0.4046
 4539SOL     OW25078   2.339   4.619   4.938  0.2291  0.5079 -0.2025
 4539SOL    HW125079   2.255   4.637   4.895  0.1067 -0.3407 -0.3120
 4539SOL    HW225080   2.401   4.600   4.867  1.4474 -2.1070  1.5930
 4540SOL     OW25081   2.195   4.586   8.824 -0.3264 -0.4042  0.4254
 4540SOL    HW125082   2.204   4.503   8.871 -2.9296 -0.8567  0.1420
 4540SOL    HW225083   2.114   4.619   8.864 -0.7217  1.5782 -1.9921
 4541SOL     OW25084   4.577   3.317   0.323  0.0225 -0.1566 -0.0645
 4541SOL    HW125085   4.580   3.223   0.342  1.8332 -0.3318 -1.2927
 4541SOL    HW225086   4.610   3.357   0.404 -0.5011  1.1168 -0.4948
 4542SOL     OW25087   4.360   2.284   7.645  0.9047 -0.6644 -0.3310
 4542SOL    HW125088   4.344   2.212   7.705 -0.1354  0.6846  1.0141
 4542SOL    HW225089   4.447   2.257   7.614  1.4609  1.6308 -0.7678
 4543SOL     OW25090   0.125   1.148   1.658 -0.1281  0.5534  0.1644
 4543SOL    HW125091   0.178   1.135   1.736 -2.0796 -2.2876  1.0103
 4543SOL    HW225092   0.117   1.244   1.654  1.1990  0.7222  1.6382
 4544SOL     OW25093   3.093   0.783   8.286 -0.1089 -0.5784 -0.5513
 4544SOL    HW125094   3.139   0.840   8.349 -2.1357 -0.5112  0.8689
 4544SOL    HW225095   3.148   0.785   8.208  0.7926  0.5737  0.1083
 4545SOL     OW25096   3.549   1.242   1.227  0.4873 -0.1552 -0.1458
 4545SOL    HW125097   3.603   1.317   1.251 -1.4341  1.8555 -2.2732
 4545SOL    HW225098   3.586   1.172   1.282  2.0904  0.9573  0.1989
 4546SOL     OW25099   4.490   4.228   7.240 -0.3281 -0.3410  0.7259
 4546SOL    HW125100   4.523   4.168   7.173  1.4913  0.1823  1.1503
 4546SOL    HW225101   4.558   4.289   7.268 -0.0144 -0.0808 -0.5921
 4547SOL     OW25102   0.785   3.636   2.012  0.6347 -0.1550 -0.1071
 4547SOL    HW125103   0.859   3.614   1.954  0.7112  0.6443 -0.3173
 4547SOL    HW225104   0.759   3.725   1.985 -0.7986 -0.5807 -0.0954
 4548SOL     OW25105   4.152   3.045  16.744  0.4063  0.3931  0.0163
 4548SOL    HW125106   4.184   2.963  16.781  0.9466  1.6567  2.4173
 4548SOL    HW225107   4.063   3.047  16.779  1.0832  1.8399  1.6947
 4549SOL     OW25108   4.010   4.446  15.777 -0.3435  0.4978 -0.1332
 4549SOL    HW125109   3.954   4.499  15.833  0.4443  1.3972 -0.1990
 4549SOL    HW225110   4.080   4.425  15.840  0.3211 -1.0363 -1.3953
 4550SOL     OW25111   0.495   3.030   3.862  0.0664 -0.9787  0.2713
 4550SOL    HW125112   0.525   2.941   3.841 -1.4932 -1.0489 -1.6973
 4550SOL    HW225113   0.452   3.057   3.781 -1.1272 -0.4794  1.0737
 4551SOL     OW25114   3.977   0.981  12.452 -0.4446 -0.1485  0.2812
 4551SOL    HW125115   3.937   0.959  12.536  1.4633 -1.6958  0.7860
 4551SOL    HW225116   4.047   1.036  12.488 -1.4342  1.8934 -0.9148
 4552SOL     OW25117   4.225   0.128  13.754 -0.2535 -0.2697 -0.5878
 4552SOL    HW125118   4.297   0.109  13.694  1.5220 -2.2253  2.1346
 4552SOL    HW225119   4.222   0.045  13.803 -0.1750 -0.0715 -0.2520
 4553SOL     OW25120   2.920   3.345  13.466  0.9810  0.2931 -0.0177
 4553SOL    HW125121   2.939   3.253  13.486  1.4378  0.4139  0.1096
 4553SOL    HW225122   2.829   3.343  13.438  0.9890 -1.5962  0.0403
 4554SOL     OW25123   3.200   0.217   6.577 -0.5491  0.0522 -0.2684
 4554SOL    HW125124   3.165   0.202   6.665 -1.1817 -3.2840 -1.0781
 4554SOL    HW225125   3.279   0.162   6.577  0.1658  1.0696 -0.3924
 4555SOL     OW25126   3.562   4.288   4.105  0.7111  0.1586 -0.1058
 4555SOL    HW125127   3.474   4.263   4.076 -0.3853  2.9235  0.8286
 4555SOL    HW225128   3.542   4.355   4.170 -0.7928  0.1228 -0.5298
 4556SOL     OW25129   0.389   1.967   6.241  0.2201  0.2818  0.2261
 4556SOL    HW125130   0.480   1.940   6.252  0.1447 -0.1055 -0.1153
 4556SOL    HW225131   0.353   1.892   6.194  2.2240 -0.2024 -0.5315
 4557SOL     OW25132   3.018   1.550   5.813 -0.6737  0.2081  0.8417
 4557SOL    HW125133   2.949   1.610   5.843  0.7813  1.7597  1.0785
 4557SOL    HW225134   3.021   1.477   5.874  3.7112 -1.4767 -1.3599
 4558SOL     OW25135   3.222   3.546   6.863  0.0155  0.0628 -0.1747
 4558SOL    HW125136   3.307   3.502   6.858 -0.1937 -0.1807 -1.5038
 4558SOL    HW225137   3.179   3.504   6.938 -1.3469  2.1045  0.1727
 4559SOL     OW25138   4.163   3.924  12.698  0.5844  0.8075  0.4545
 4559SOL    HW125139   4.240   3.950  12.749  0.3603 -0.9502  1.6970
 4559SOL    HW225140   4.164   3.994  12.633 -0.9185  1.9129  1.6560
 4560SOL     OW25141   3.387   2.039   1.556  0.3736  0.6609  0.2641
 4560SOL    HW125142   3.395   1.961   1.611 -0.5481 -1.5856 -2.7866
 4560SOL    HW225143   3.458   2.098   1.582 -1.4799  2.4029  1.2874
 4561SOL     OW25144   4.283   4.584   1.189  0.3048 -0.0422  0.3741
 4561SOL    HW125145   4.232   4.601   1.268  1.6181 -1.3046  1.4781
 4561SOL    HW225146   4.329   4.503   1.209 -0.0678 -0.2686  0.3162
 4562SOL     OW25147   3.540   3.123  15.815  0.1964  0.1989 -0.6443
 4562SOL    HW125148   3.601   3.051  15.832  0.2120  0.1011 -1.1202
 4562SOL    HW225149   3.488   3.140  15.894 -0.2875 -0.5573 -0.7978
 4563SOL     OW25150   3.375   2.992   8.715  0.1742  0.2604  0.4041
 4563SOL    HW125151   3.460   2.986   8.758  0.1683 -3.0079 -0.0552
 4563SOL    HW225152   3.334   3.056   8.774  3.0763  1.0056  1.6254
 4564SOL     OW25153   4.330   3.345   8.481 -0.1317 -0.7865  0.5213
 4564SOL    HW125154   4.411   3.386   8.449  0.6043 -1.8493  1.0151
 4564SOL    HW225155   4.274   3.387   8.417 -0.6160 -1.7805  0.2976
 4565SOL     OW25156   4.416   2.767   2.110  0.1534  0.0804  0.1136
 4565SOL    HW125157   4.410   2.765   2.014 -0.5117 -0.4656  0.1695
 4565SOL    HW225158   4.505   2.732   2.118  1.2966  2.8947 -0.0092
 4566SOL     OW25159   2.136   2.645  11.479  0.6715 -0.2770 -0.1591
 4566SOL    HW125160   2.185   2.611  11.553 -0.2923  2.6594  1.8218
 4566SOL    HW225161   2.057   2.593  11.488  1.6943 -2.2329 -2.5631
 4567SOL     OW25162   1.677   0.801   5.873 -0.8631 -0.0020 -0.4277
 4567SOL    HW125163   1.742   0.801   5.943 -0.3143  1.4007 -0.9478
 4567SOL    HW225164   1.602   0.770   5.924 -0.9312 -0.7589 -0.9872
 4568SOL     OW25165   3.343   3.574   4.982 -0.1354 -0.3117  0.0527
 4568SOL    HW125166   3.433   3.595   4.959  0.0050  1.7780  2.5110
 4568SOL    HW225167   3.318   3.519   4.908  2.8193 -0.4408 -0.8456
 4569SOL     OW25168   0.640   1.110   6.980 -0.1624  0.2782  0.2777
 4569SOL    HW125169   0.699   1.131   6.908  1.6365 -1.1644  1.3466
 4569SOL    HW225170   0.634   1.014   6.985 -0.0524  0.2402 -0.2580
 4570SOL     OW25171   3.150   1.667  11.996  0.7694  0.4138  0.1839
 4570SOL    HW125172   3.176   1.685  11.906 -0.7050  2.0090  0.0624
 4570SOL    HW225173   3.236   1.636  12.024  0.5004  0.1118  0.6668
 4571SOL     OW25174   3.368   1.341   6.520 -0.2438  0.0970  0.3768
 4571SOL    HW125175   3.358   1.248   6.537 -3.4473  0.5549  0.8557
 4571SOL    HW225176   3.315   1.347   6.440 -1.3653  2.0598  1.2692
 4572SOL     OW25177   2.213   3.483  10.086  0.5925 -0.0670  0.1724
 4572SOL    HW125178   2.174   3.553  10.139  0.2679 -1.1175  1.3142
 4572SOL    HW225179   2.183   3.412  10.143  2.1296 -0.4447  0.5173
 4573SOL     OW25180   3.366   0.466   1.084  0.1909 -0.2453  0.1661
 4573SOL    HW125181   3.436   0.501   1.029  1.8618 -1.5734  1.4928
 4573SOL    HW225182   3.289   0.459   1.027 -0.1388  0.8382  0.4710
 4574SOL     OW25183   0.454   0.564   1.216  0.6824  0.4068 -0.2584
 4574SOL    HW125184   0.405   0.556   1.134 -1.7072 -2.0432  1.4222
 4574SOL    HW225185   0.442   0.653   1.250 -0.6945  0.4912 -0.9399
 4575SOL     OW25186   4.155   1.580   8.692  0.6809 -0.0404  0.5895
 4575SOL    HW125187   4.062   1.586   8.712  0.1933 -0.2725 -1.5632
 4575SOL    HW225188   4.149   1.490   8.659 -1.2808  0.1206  0.5043
 4576SOL     OW25189   2.808   3.188   6.260 -0.2073  0.2140  0.7217
 4576SOL    HW125190   2.759   3.177   6.342 -1.1909  1.3050  0.2831
 4576SOL    HW225191   2.888   3.139   6.278 -0.8169 -0.8529  0.4954
 4577SOL     OW25192   2.622   3.492   9.467  0.1649 -0.0294 -0.6033
 4577SOL    HW125193   2.705   3.454   9.496 -0.1538  0.5800  1.0651
 4577SOL    HW225194   2.576   3.419   9.424  0.1327 -0.4282  0.1177
 4578SOL     OW25195   2.288   0.587   8.001  0.0433  0.5581  0.6421
 4578SOL    HW125196   2.297   0.637   8.081  0.3957  1.1494  0.2316
 4578SOL    HW225197   2.308   0.652   7.933 -0.6381  0.5061  0.3856
 4579SOL     OW25198   1.346   0.865   3.749 -0.0859 -0.2914 -0.6193
 4579SOL    HW125199   1.315   0.954   3.733  1.2206  0.3243  0.3399
 4579SOL    HW225200   1.413   0.856   3.681  0.6592  1.6869 -0.1351
 4580SOL     OW25201   4.482   0.990  10.295 -0.3803  0.5097  0.0685
 4580SOL    HW125202   4.511   0.920  10.355 -0.7261  1.3363  1.2081
 4580SOL    HW225203   4.455   1.062  10.352 -1.4203  1.5511 -1.7719
 4581SOL     OW25204   3.468   3.567  11.518  0.4497 -0.0289 -0.1977
 4581SOL    HW125205   3.400   3.607  11.571  0.7158 -1.2005  1.0262
 4581SOL    HW225206   3.516   3.516  11.583  1.8287  2.1024  0.4550
 4582SOL     OW25207   1.046   3.189  10.944 -0.3947  0.1875  0.3157
 4582SOL    HW125208   0.980   3.120  10.942 -0.3559  0.1819 -0.7789
 4582SOL    HW225209   1.092   3.167  11.025  0.9696 -3.4083 -1.4600
 4583SOL     OW25210   2.698   0.213   2.194  0.0051 -0.0446  0.0529
 4583SOL    HW125211   2.690   0.187   2.103  1.9033  3.7499 -1.1952
 4583SOL    HW225212   2.606   0.220   2.218 -0.0356  0.5586 -0.2879
 4584SOL     OW25213   0.364   4.581   3.746 -0.1055 -0.3473  0.1468
 4584SOL    HW125214   0.401   4.528   3.816 -1.2235 -3.2589 -1.4495
 4584SOL    HW225215   0.282   4.534   3.731 -0.2252 -0.6730  1.8471
 4585SOL     OW25216   4.350   0.232   4.653  0.5598  0.3655  0.7478
 4585SOL    HW125217   4.424   0.291   4.643  1.7285 -1.1766  0.3111
 4585SOL    HW225218   4.331   0.248   4.746  0.7572  0.8659  0.7018
 4586SOL     OW25219   4.019   3.285  16.331 -0.0134 -0.6000  0.4373
 4586SOL    HW125220   4.102   3.332  16.318  0.6357 -1.4282  1.5925
 4586SOL    HW225221   3.966   3.319  16.259 -0.1450  0.2675  0.9448
 4587SOL     OW25222   3.941   2.205   4.500 -0.2927  0.4994  0.1028
 4587SOL    HW125223   4.026   2.171   4.471  0.4127  0.5523  2.0743
 4587SOL    HW225224   3.882   2.135   4.471 -0.6104  0.6135  0.4812
 4588SOL     OW25225   0.133   2.798  17.271 -0.2460 -0.6420 -0.4337
 4588SOL    HW125226   0.225   2.772  17.277  0.2732  1.5172  0.5842
 4588SOL    HW225227   0.122   2.842  17.355  0.2677 -2.3249  0.5120
 4589SOL     OW25228   3.347   2.472   0.623 -0.3492 -0.2647 -0.1488
 4589SOL    HW125229   3.384   2.490   0.537 -2.3260 -1.5499 -1.2519
 4589SOL    HW225230   3.420   2.502   0.678  0.1916 -0.7759 -0.5919
 4590SOL     OW25231   3.496   0.053   4.261  0.1474  0.1141  0.5171
 4590SOL    HW125232   3.490   0.148   4.251  0.3184  0.4432  3.5467
 4590SOL    HW225233   3.503   0.021   4.171 -0.1752  0.6756  0.2942
 4591SOL     OW25234   3.457   3.895   8.621 -0.2158  0.3517  0.0667
 4591SOL    HW125235   3.533   3.950   8.602  0.9609 -0.9894  0.8747
 4591SOL    HW225236   3.430   3.938   8.702  1.3911  0.8594  0.3310
 4592SOL     OW25237   1.586   0.425   4.570 -1.6302 -0.0772 -0.4290
 4592SOL    HW125238   1.505   0.409   4.619 -1.2025  0.3927  0.4351
 4592SOL    HW225239   1.599   0.337   4.536 -0.4872 -0.5875  1.2953
 4593SOL     OW25240   1.521   4.561   4.125 -0.2501  0.7597  0.1241
 4593SOL    HW125241   1.556   4.564   4.036 -0.7703  2.3665 -0.0379
 4593SOL    HW225242   1.562   4.483   4.161  0.0300 -0.1547 -2.1590
 4594SOL     OW25243   0.189   2.066  15.591  0.1117 -0.0736 -0.0541
 4594SOL    HW125244   0.153   2.143  15.548 -1.0252 -0.6095 -0.0807
 4594SOL    HW225245   0.169   2.080  15.683 -0.1719  0.6624 -0.2344
 4595SOL     OW25246   4.193   0.524   8.272  0.5345 -0.4730  0.8194
 4595SOL    HW125247   4.124   0.467   8.305 -0.1279 -0.5918 -0.7816
 4595SOL    HW225248   4.184   0.518   8.177  0.8562  2.0940  0.6310
 4596SOL     OW25249   3.678   4.212  10.085 -0.2501 -0.7552  0.0564
 4596SOL    HW125250   3.771   4.213  10.107  0.6811  2.2400 -3.9990
 4596SOL    HW225251   3.673   4.151  10.011  0.6136 -0.4313 -0.2743
 4597SOL     OW25252   3.331   2.254   6.793 -0.2826  0.1720  0.5977
 4597SOL    HW125253   3.256   2.308   6.769 -0.1934 -0.8110 -1.8802
 4597SOL    HW225254   3.350   2.202   6.715  1.7148  0.1666  1.0999
 4598SOL     OW25255   3.676   4.680  11.474 -0.3880  0.0322  0.4659
 4598SOL    HW125256   3.734   4.614  11.437  1.3072  1.2933  0.8787
 4598SOL    HW225257   3.600   4.665  11.417  1.0271  0.6377 -1.5403
 4599SOL     OW25258   2.450   4.512   9.086  0.3295  0.4002 -0.3933
 4599SOL    HW125259   2.378   4.571   9.109  0.5820  1.0838 -1.3221
 4599SOL    HW225260   2.526   4.547   9.133  0.5224  0.0198 -0.4199
 4600SOL     OW25261   2.332   3.007   3.040 -0.3074  0.4975 -0.6118
 4600SOL    HW125262   2.241   2.980   3.048 -0.1584  0.4172  0.7073
 4600SOL    HW225263   2.361   2.930   2.990 -0.1445 -0.3286  0.7648
 4601SOL     OW25264   3.894   4.448   1.698 -0.3375 -0.4987 -0.1929
 4601SOL    HW125265   3.947   4.370   1.681 -0.6280 -0.3451 -1.8140
 4601SOL    HW225266   3.907   4.502   1.619  2.8194  0.3602  0.8887
 4602SOL     OW25267   0.660   1.210   3.451 -0.2003  0.5822 -0.1600
 4602SOL    HW125268   0.753   1.193   3.470 -0.7431 -0.1792  1.8383
 4602SOL    HW225269   0.663   1.295   3.494 -3.0885  0.3053  0.5622
 4603SOL     OW25270   3.937   1.662   1.374  0.0076 -0.0049 -0.2165
 4603SOL    HW125271   3.900   1.674   1.462  0.0592 -0.4805 -0.1299
 4603SOL    HW225272   4.018   1.710   1.387  0.0643  0.2660 -1.6214
 4604SOL     OW25273   0.795   0.421  14.951 -0.0467 -0.2937 -0.2803
 4604SOL    HW125274   0.804   0.369  15.032 -0.1390  1.3247  0.7649
 4604SOL    HW225275   0.847   0.497  14.975 -0.9408  0.0568  0.5429
 4605SOL     OW25276   1.401   2.342  14.653 -0.6741  0.4596 -0.6850
 4605SOL    HW125277   1.307   2.353  14.639 -0.9867 -2.8741 -1.2640
 4605SOL    HW225278   1.428   2.425  14.692  0.5420 -0.9076  1.4166
 4606SOL     OW25279   3.534   3.421   2.374  0.6208 -0.2319 -0.1030
 4606SOL    HW125280   3.440   3.427   2.388  0.6338  0.4605 -0.2896
 4606SOL    HW225281   3.564   3.512   2.376  1.4305 -0.5163  0.9332
 4607SOL     OW25282   3.690   4.244  15.062  0.6196 -0.0134  0.0015
 4607SOL    HW125283   3.716   4.247  14.970 -0.7387  0.6104 -0.3663
 4607SOL    HW225284   3.735   4.167  15.099 -0.6122  0.1910  1.9479
 4608SOL     OW25285   3.585   3.334   4.983 -0.2376  0.2001 -0.1823
 4608SOL    HW125286   3.637   3.306   5.058  2.3492  0.6343 -1.7837
 4608SOL    HW225287   3.497   3.307   5.008  0.4005 -0.6713  1.1266
 4609SOL     OW25288   0.186   3.456   4.144 -0.3443  0.2419  0.2352
 4609SOL    HW125289   0.113   3.398   4.170 -0.1265  0.0051  0.3157
 4609SOL    HW225290   0.261   3.410   4.179  0.7645  1.2308 -0.8499
 4610SOL     OW25291   4.163   0.095   8.790 -0.4742 -0.0786  0.0970
 4610SOL    HW125292   4.211   0.175   8.813 -0.4538 -0.8003  2.6137
 4610SOL    HW225293   4.135   0.074   8.879 -0.5683 -1.0666 -0.1734
 4611SOL     OW25294   2.524   0.277   9.171  0.2304  0.5364  0.0557
 4611SOL    HW125295   2.617   0.264   9.150  0.1676  1.2655 -0.7003
 4611SOL    HW225296   2.544   0.340   9.241  1.3212 -0.7636  0.9118
 4612SOL     OW25297   0.193   3.277  13.605 -0.3826  0.1953  0.7700
 4612SOL    HW125298   0.186   3.318  13.518  0.6766  0.2965  0.7273
 4612SOL    HW225299   0.250   3.330  13.660  2.2505 -0.2827 -1.4540
 4613SOL     OW25300   3.635   0.544   8.746  0.1570  0.6229 -0.2913
 4613SOL    HW125301   3.707   0.592   8.705  0.6861 -0.4348 -0.6162
 4613SOL    HW225302   3.557   0.591   8.716 -0.4543 -1.3589 -1.8438
 4614SOL     OW25303   4.588   3.736   4.500 -0.2584 -0.1510 -0.5472
 4614SOL    HW125304   4.632   3.738   4.585  2.6216 -1.4479 -2.0292
 4614SOL    HW225305   4.639   3.665   4.462  0.2610 -0.6876  1.1857
 4615SOL     OW25306   1.313   3.952   5.707 -0.4117 -0.0206  0.0147
 4615SOL    HW125307   1.368   4.025   5.734  3.0882 -1.0543 -4.4007
 4615SOL    HW225308   1.233   3.984   5.749 -0.8737  0.6838 -1.4299
 4616SOL     OW25309   1.594   2.984   4.725  0.0238 -0.4495  0.3436
 4616SOL    HW125310   1.507   2.981   4.686  1.4114  0.5082 -2.8327
 4616SOL    HW225311   1.651   2.933   4.667 -1.4255 -1.5419 -0.1140
 4617SOL     OW25312   0.749   3.139   4.089  0.6808  0.2240 -0.1204
 4617SOL    HW125313   0.804   3.112   4.016 -0.2216  0.9202 -1.0456
 4617SOL    HW225314   0.802   3.204   4.135  0.3202 -0.2142  0.9271
 4618SOL     OW25315   4.041   2.943  12.433 -0.3463  0.7459  0.6546
 4618SOL    HW125316   4.115   3.005  12.438 -0.5871  1.0274  0.7713
 4618SOL    HW225317   4.016   2.949  12.341 -0.0474 -1.2196  0.4652
 4619SOL     OW25318   2.508   0.241   1.116 -0.1888 -0.1070  0.5515
 4619SOL    HW125319   2.534   0.165   1.063 -1.5358  0.1923 -0.5166
 4619SOL    HW225320   2.491   0.297   1.040  0.8146  0.2308  0.5796
 4620SOL     OW25321   4.448   4.152   2.554  0.3794 -0.3057  0.0384
 4620SOL    HW125322   4.445   4.225   2.492  2.5368 -0.1285  0.1616
 4620SOL    HW225323   4.372   4.101   2.525  1.4484 -1.2888 -1.0141
 4621SOL     OW25324   2.834   4.057  14.183  0.5480 -0.2865  0.2462
 4621SOL    HW125325   2.748   4.055  14.140 -0.1179 -0.3732  1.5745
 4621SOL    HW225326   2.886   4.077  14.106 -2.0558  1.2296 -1.1278
 4622SOL     OW25327   0.587   4.070   9.114 -0.5934 -0.1627 -0.5365
 4622SOL    HW125328   0.509   4.118   9.087  0.5588  2.0496  0.1212
 4622SOL    HW225329   0.567   3.988   9.070 -2.9099  0.0345  0.1379
 4623SOL     OW25330   3.433   0.814   6.461 -0.0239  0.3485 -0.6909
 4623SOL    HW125331   3.340   0.804   6.482  0.1528 -3.5311 -1.8906
 4623SOL    HW225332   3.458   0.726   6.436  1.6130 -0.2766  3.1299
 4624SOL     OW25333   0.135   0.982   5.640  0.1345 -0.4795 -0.4389
 4624SOL    HW125334   0.105   0.939   5.720 -1.0009 -1.9568 -1.6880
 4624SOL    HW225335   0.068   1.047   5.620 -1.6323 -1.0017  3.7552
 4625SOL     OW25336   0.650   3.432   6.905  0.3315 -0.0182  0.1634
 4625SOL    HW125337   0.633   3.361   6.968 -2.2882 -0.9106 -1.5530
 4625SOL    HW225338   0.705   3.382   6.845  0.4825  0.2431  0.0856
 4626SOL     OW25339   0.349   4.689   7.724  0.0670 -0.2906 -0.7758
 4626SOL    HW125340   0.284   4.621   7.711  0.4081 -0.7374 -0.1564
 4626SOL    HW225341   0.304   0.029   7.778 -1.9914 -2.9444  0.7344
 4627SOL     OW25342   2.743   0.154   1.937  0.8052 -0.4713 -0.1898
 4627SOL    HW125343   2.811   0.087   1.941  1.1002 -0.0705  1.5592
 4627SOL    HW225344   2.671   0.122   1.883  0.5160  0.3700 -0.3072
 4628SOL     OW25345   3.873   2.652   4.687 -0.0886 -0.7781  0.7124
 4628SOL    HW125346   3.797   2.707   4.668 -0.4463 -1.1300  1.1045
 4628SOL    HW225347   3.862   2.629   4.779 -0.3768 -2.1932  0.3337
 4629SOL     OW25348   2.722   3.755  12.260  0.2529  0.3282  0.0174
 4629SOL    HW125349   2.691   3.743  12.170  0.0850  0.5603  0.0429
 4629SOL    HW225350   2.646   3.806  12.290  0.2053  0.3651 -0.1639
 4630SOL     OW25351   1.180   0.016   2.190  0.2433  0.4551 -0.3377
 4630SOL    HW125352   1.103   4.689   2.167  0.8023 -0.8145  0.7068
 4630SOL    HW225353   1.233   0.009   2.111 -0.4704  0.5256 -0.8288
 4631SOL     OW25354   0.040   0.341   4.905  0.8598 -0.0936  0.1503
 4631SOL    HW125355   4.698   0.399   4.940  0.4134 -0.9996  0.8015
 4631SOL    HW225356   0.024   0.264   4.960  0.3072  1.7366  2.5297
 4632SOL     OW25357   3.938   1.007   6.291 -0.1287  0.1428  0.4977
 4632SOL    HW125358   3.906   1.090   6.326 -1.2597 -0.0827  0.0107
 4632SOL    HW225359   3.864   0.985   6.234 -0.5994 -0.2590  1.2608
 4633SOL     OW25360   1.082   0.819   0.929 -0.0564  0.1881  0.1518
 4633SOL    HW125361   1.095   0.847   0.838 -1.1081  0.5838  0.1218
 4633SOL    HW225362   1.040   0.892   0.974 -0.0083 -0.6611  1.5545
 4634SOL     OW25363   0.682   0.621   2.912  0.8693  0.3567  0.1415
 4634SOL    HW125364   0.647   0.658   2.831  0.3010  1.1147  0.7289
 4634SOL    HW225365   0.768   0.585   2.892  1.0177  1.7775 -1.8516
 4635SOL     OW25366   2.229   3.784   5.069  0.3640 -0.0679 -0.0986
 4635SOL    HW125367   2.195   3.837   4.997 -3.8480  1.0508  2.7093
 4635SOL    HW225368   2.322   3.795   5.050 -0.2190  1.8160 -1.8172
 4636SOL     OW25369   0.119   4.616   6.796 -0.1323  0.1986  0.1130
 4636SOL    HW125370   0.136   4.654   6.882  0.6644  3.9066 -1.7017
 4636SOL    HW225371   0.185   4.662   6.745 -1.4622 -0.1051 -1.8688
 4637SOL     OW25372   2.510   4.658   2.105  0.4643  0.3214  0.5873
 4637SOL    HW125373   2.463   4.587   2.061  0.5298  0.7500 -0.1744
 4637SOL    HW225374   2.445   0.002   2.095  1.7112  1.2530 -1.1199
 4638SOL     OW25375   1.392   2.775   4.082  0.7226 -0.6018 -0.0213
 4638SOL    HW125376   1.461   2.775   4.015  0.5611  0.9278 -0.1871
 4638SOL    HW225377   1.396   2.869   4.099 -0.5797 -0.4221 -0.6759
 4639SOL     OW25378   2.304   4.146   0.791 -0.2071  0.0440  0.0953
 4639SOL    HW125379   2.343   4.143   0.704 -0.1482  1.0827  0.0822
 4639SOL    HW225380   2.249   4.224   0.783 -0.6268 -0.2683 -0.0731
 4640SOL     OW25381   3.699   2.545   3.801 -0.0491  0.0405 -0.1762
 4640SOL    HW125382   3.792   2.567   3.810 -0.2398  1.3586 -1.4865
 4640SOL    HW225383   3.690   2.569   3.709  2.1980  1.1898 -0.1085
 4641SOL     OW25384   1.575   0.184  14.010 -0.2374 -0.0239 -0.3669
 4641SOL    HW125385   1.579   0.093  14.040  0.3806 -0.0823 -0.6347
 4641SOL    HW225386   1.524   0.218  14.083 -2.0508  0.3902 -1.8322
 4642SOL     OW25387   4.330   2.507   0.705 -0.2461 -0.0527 -0.1042
 4642SOL    HW125388   4.388   2.557   0.763  2.0137 -2.2851 -0.4408
 4642SOL    HW225389   4.337   2.564   0.628  0.8158 -0.5466 -0.3588
 4643SOL     OW25390   2.300   4.124   4.952  0.4878 -0.0884 -0.1360
 4643SOL    HW125391   2.349   4.206   4.943 -0.1108  0.2110 -0.6531
 4643SOL    HW225392   2.344   4.091   5.030 -1.6537  0.2704  1.2247
 4644SOL     OW25393   2.885   3.547  14.507  0.3364 -0.3966  0.0311
 4644SOL    HW125394   2.862   3.637  14.530 -0.6430  0.2905 -3.6239
 4644SOL    HW225395   2.817   3.547  14.441 -1.8674  2.2665  2.3040
 4645SOL     OW25396   1.631   2.982   5.777 -0.2428 -0.3164 -0.4944
 4645SOL    HW125397   1.628   2.948   5.688 -1.0314 -1.6100  0.0212
 4645SOL    HW225398   1.550   3.033   5.771  1.0540  1.6383 -1.3671
 4646SOL     OW25399   3.056   2.065   0.933  0.0824  0.1918 -0.0566
 4646SOL    HW125400   2.984   2.128   0.934  0.6780  0.8378  1.8657
 4646SOL    HW225401   2.993   1.994   0.943 -0.3579  1.0005  2.9115
 4647SOL     OW25402   1.006   3.603   4.675  0.4142  0.1631 -0.4206
 4647SOL    HW125403   0.924   3.639   4.644  0.1672  0.1467  0.2089
 4647SOL    HW225404   1.068   3.665   4.637 -1.2181  2.2583  0.3646
 4648SOL     OW25405   4.468   2.319   1.922 -0.0025 -0.6913  0.0025
 4648SOL    HW125406   4.381   2.320   1.963 -0.3451 -1.5108 -0.6962
 4648SOL    HW225407   4.478   2.395   1.865  2.2213 -0.7635  0.2897
 4649SOL     OW25408   3.920   2.822   4.317 -0.3634  0.3093 -0.8071
 4649SOL    HW125409   3.951   2.759   4.253  0.2397 -0.3929  0.1795
 4649SOL    HW225410   3.827   2.819   4.295 -0.7586  4.3455  0.3359
 4650SOL     OW25411   0.091   3.851   3.697 -0.1135 -0.2666  0.0964
 4650SOL    HW125412   0.168   3.906   3.713 -0.5876 -0.2560  2.4739
 4650SOL    HW225413   0.104   3.824   3.607 -0.5180 -0.1903  0.0144
 4651SOL     OW25414   2.523   3.346   8.715 -0.3286 -0.1963  0.4272
 4651SOL    HW125415   2.452   3.371   8.774 -0.7159  0.6912 -0.4276
 4651SOL    HW225416   2.586   3.417   8.726 -0.7353  0.4439 -1.5093
 4652SOL     OW25417   2.534   1.825   9.381  0.1912  0.0704  0.2444
 4652SOL    HW125418   2.581   1.782   9.453 -0.1956  2.3150  1.8469
 4652SOL    HW225419   2.565   1.785   9.299  2.5001  0.4361  0.9365
 4653SOL     OW25420   0.998   1.116  10.445 -0.1613  0.3940  0.3392
 4653SOL    HW125421   0.929   1.172  10.480  0.7544  0.3957  2.1098
 4653SOL    HW225422   1.054   1.171  10.389  1.6417  2.0072  3.7536
 4654SOL     OW25423   1.043   2.644   9.391 -0.1847  0.0465 -0.4823
 4654SOL    HW125424   1.000   2.612   9.470  0.3249  1.8546  0.5158
 4654SOL    HW225425   1.044   2.565   9.337 -3.0188 -1.1221  1.1902
 4655SOL     OW25426   4.559   3.307   1.608  0.0237  0.3732  0.3304
 4655SOL    HW125427   4.555   3.311   1.703 -1.2269  0.3956  0.2791
 4655SOL    HW225428   4.533   3.389   1.567 -2.1166 -1.0508 -1.2162
 4656SOL     OW25429   2.639   0.118  10.411  0.3006 -0.0363  0.1681
 4656SOL    HW125430   2.679   0.047  10.462 -0.2454  0.5937  1.4760
 4656SOL    HW225431   2.590   0.065  10.350  0.5553 -1.8642  1.5486
 4657SOL     OW25432   2.738   4.331   2.714 -0.4791  0.8631  0.2376
 4657SOL    HW125433   2.774   4.252   2.674  0.0173  1.5445 -0.6666
 4657SOL    HW225434   2.762   4.394   2.646 -1.1221  1.5028  0.6143
 4658SOL     OW25435   4.283   1.624  15.213 -0.6107  0.0230 -0.2149
 4658SOL    HW125436   4.362   1.648  15.165 -1.1965  2.4330  0.0083
 4658SOL    HW225437   4.222   1.695  15.189  0.1414  1.1227  1.1151
 4659SOL     OW25438   4.455   4.284   3.028 -0.1650  0.1925  0.8326
 4659SOL    HW125439   4.549   4.274   3.012 -0.3157  2.3013 -1.4296
 4659SOL    HW225440   4.443   4.379   3.022 -1.9212  0.1925  4.2257
 4660SOL     OW25441   0.564   1.951  16.444  0.2156 -0.4416  0.3781
 4660SOL    HW125442   0.495   1.897  16.406 -0.5969  0.9948 -0.2118
 4660SOL    HW225443   0.502   2.008  16.490  0.9518  2.3687 -2.0648
 4661SOL     OW25444   2.637   0.897   3.253 -0.6922 -0.4461 -0.7332
 4661SOL    HW125445   2.672   0.986   3.258 -1.2942 -0.2220 -0.5053
 4661SOL    HW225446   2.657   0.854   3.336  2.6673  1.0133 -0.8234
 4662SOL     OW25447   2.964   2.934   9.181  0.0393 -0.0126  0.0912
 4662SOL    HW125448   2.941   2.843   9.197  3.7388 -0.9226  0.2130
 4662SOL    HW225449   3.044   2.938   9.128 -0.3473 -1.0982 -0.5658
 4663SOL     OW25450   1.408   0.144   1.537  0.1005  0.3463 -0.2539
 4663SOL    HW125451   1.478   0.115   1.479  0.6476  0.5526  0.2969
 4663SOL    HW225452   1.433   0.090   1.612  0.8569  2.3103  0.9192
 4664SOL     OW25453   1.539   4.082   8.578 -0.9299  0.1946 -0.5510
 4664SOL    HW125454   1.485   4.021   8.629 -0.4772 -1.1088 -1.6255
 4664SOL    HW225455   1.493   4.162   8.602  0.0735  1.1222 -1.7348
 4665SOL     OW25456   0.091   3.314   9.911  0.1160  0.2709 -0.4234
 4665SOL    HW125457   0.048   3.397   9.927 -1.0453 -0.8585  2.2226
 4665SOL    HW225458   0.163   3.329   9.849 -1.5630  1.1171 -2.1663
 4666SOL     OW25459   4.038   4.278  11.453 -0.8411  0.1877 -1.0755
 4666SOL    HW125460   4.022   4.202  11.509  1.0016 -0.6101 -1.6140
 4666SOL    HW225461   4.102   4.319  11.511 -0.9426  0.3756 -1.0962
 4667SOL     OW25462   4.223   2.201   7.013  0.0770 -0.4159 -0.1772
 4667SOL    HW125463   4.165   2.138   6.970 -2.3178  0.5074  1.7403
 4667SOL    HW225464   4.222   2.175   7.105 -0.2584 -3.4506 -1.0248
 4668SOL     OW25465   2.947   2.118  10.775  0.2222  0.2724  0.3290
 4668SOL    HW125466   2.895   2.194  10.800 -0.8342 -0.5542  0.6478
 4668SOL    HW225467   3.031   2.164  10.775 -0.1405  0.9163  0.9655
 4669SOL     OW25468   0.211   2.930  10.000  0.1115  0.3470  0.0102
 4669SOL    HW125469   0.144   2.863   9.985  1.0013 -0.3645 -0.7297
 4669SOL    HW225470   0.157   3.008  10.016 -1.7975 -1.1242  0.6909
 4670SOL     OW25471   0.158   0.787   7.812 -0.4519  0.5264  0.5514
 4670SOL    HW125472   0.192   0.788   7.722 -0.1128  0.5596  0.6815
 4670SOL    HW225473   0.105   0.866   7.800  1.6320  1.7590 -0.4939
 4671SOL     OW25474   2.703   0.577  17.059  0.1417  0.0330  0.0625
 4671SOL    HW125475   2.653   0.578  16.977 -1.0666  0.1109  0.7987
 4671SOL    HW225476   2.764   0.503  17.060 -1.5087 -1.3097  1.8248
 4672SOL     OW25477   1.548   0.361   8.091  0.5128  0.7983 -0.0543
 4672SOL    HW125478   1.577   0.452   8.086 -1.4323  1.3702 -0.9821
 4672SOL    HW225479   1.553   0.345   8.185 -3.6128 -0.7948 -0.1337
 4673SOL     OW25480   0.188   2.075   8.857 -0.7134 -0.1336 -0.0234
 4673SOL    HW125481   0.158   1.994   8.898 -1.1145 -0.3219 -0.6931
 4673SOL    HW225482   0.232   2.052   8.775  0.1365  0.9312  0.1282
 4674SOL     OW25483   0.910   1.095   0.085  0.0962 -0.2634 -0.4136
 4674SOL    HW125484   0.873   1.066   0.001 -0.5302  0.5487 -0.4163
 4674SOL    HW225485   0.950   1.017   0.124  0.3102  0.5887  1.0772
 4675SOL     OW25486   0.585   2.506  15.564  0.0009 -0.4605 -0.5201
 4675SOL    HW125487   0.538   2.483  15.645  1.2351 -0.4596  0.1998
 4675SOL    HW225488   0.554   2.432  15.513  1.8389 -0.6946 -1.2651
 4676SOL     OW25489   0.481   3.053   8.058  0.4074 -0.2152  0.1871
 4676SOL    HW125490   0.398   3.094   8.034 -0.1560 -0.3930  1.8916
 4676SOL    HW225491   0.452   2.965   8.079  0.3899 -0.8781 -2.5429
 4677SOL     OW25492   2.478   0.152   6.277  0.2625  0.3515 -0.3047
 4677SOL    HW125493   2.439   0.090   6.339 -0.7167 -0.4943 -1.7716
 4677SOL    HW225494   2.546   0.190   6.333  0.7352 -1.4924  0.3852
 4678SOL     OW25495   0.866   1.098   2.111  0.8298 -0.4716  0.2367
 4678SOL    HW125496   0.870   1.165   2.179  0.0425 -0.2616  0.0857
 4678SOL    HW225497   0.942   1.120   2.059  0.7556  0.9671  0.7413
 4679SOL     OW25498   1.818   4.249  14.930 -0.2196 -0.7427  1.2959
 4679SOL    HW125499   1.773   4.290  14.856  0.2244 -1.0360  0.8592
 4679SOL    HW225500   1.815   4.315  14.999  0.9770 -0.0375  0.6749
 4680SOL     OW25501   0.769   0.932   8.423  0.0374  0.9724 -0.1624
 4680SOL    HW125502   0.805   0.904   8.338  0.8678  0.7549  0.2580
 4680SOL    HW225503   0.676   0.914   8.414  0.1177  0.5841 -0.2572
 4681SOL     OW25504   1.461   4.641   3.393  0.2883  0.2720 -0.1955
 4681SOL    HW125505   1.546   4.678   3.368  0.1893 -0.0560 -1.0239
 4681SOL    HW225506   1.407   4.718   3.375 -1.3762 -0.7823  0.3296
 4682SOL     OW25507   4.646   0.251  17.355  0.1621 -0.4842 -0.2113
 4682SOL    HW125508   4.659   0.341  17.326  0.3704 -0.8676 -1.3045
 4682SOL    HW225509   0.003   0.224  17.395  0.7125  3.0048  0.9690
 4683SOL     OW25510   1.343   4.174   6.820 -0.2913 -0.3450  0.0696
 4683SOL    HW125511   1.259   4.130   6.810 -0.4893 -0.7417  3.5562
 4683SOL    HW225512   1.389   4.111   6.876  0.5055  0.2785  0.1065
 4684SOL     OW25513   3.818   4.304   8.168  0.1672  0.3011  0.1493
 4684SOL    HW125514   3.833   4.242   8.240 -0.3792 -0.7380 -0.6223
 4684SOL    HW225515   3.750   4.361   8.203 -0.6760  0.9765 -2.6118
 4685SOL     OW25516   2.115   4.217   2.013 -0.5226 -0.1589  0.1336
 4685SOL    HW125517   2.075   4.229   1.927 -2.2908 -0.7330  0.8693
 4685SOL    HW225518   2.163   4.139   1.986  3.5838  1.4773  2.6022
 4686SOL     OW25519   0.343   3.816   7.773 -0.2765  0.4768 -0.3807
 4686SOL    HW125520   0.393   3.893   7.801 -1.3595  0.1425  2.4519
 4686SOL    HW225521   0.417   3.755   7.775 -0.1123  0.5264 -4.3935
 4687SOL     OW25522   1.735   1.141   9.858 -0.0640  0.0772 -0.2788
 4687SOL    HW125523   1.821   1.117   9.824  0.5392 -0.7746  1.8270
 4687SOL    HW225524   1.738   1.091   9.940  0.6116 -0.5888 -0.7206
 4688SOL     OW25525   3.346   2.945   8.257  0.3532  0.4935  0.6978
 4688SOL    HW125526   3.260   2.903   8.258  1.2437 -1.3636 -0.3006
 4688SOL    HW225527   3.345   2.999   8.178 -1.6020 -0.3362  0.1611
 4689SOL     OW25528   2.639   1.586  12.919 -0.3362 -0.1027 -0.2505
 4689SOL    HW125529   2.607   1.625  13.001 -0.5823  0.3952 -0.5842
 4689SOL    HW225530   2.657   1.667  12.873  3.7209  0.3157  2.0629
 4690SOL     OW25531   0.248   3.564   6.005 -0.2763 -0.6787  0.0072
 4690SOL    HW125532   0.182   3.620   5.964  0.7712 -0.6067 -1.5512
 4690SOL    HW225533   0.295   3.533   5.928 -0.3479 -1.0459  0.1097
 4691SOL     OW25534   1.379   2.486   3.897 -0.6075 -0.2447  0.0782
 4691SOL    HW125535   1.316   2.557   3.912  0.4258  0.8175 -0.6450
 4691SOL    HW225536   1.336   2.423   3.838  0.7953 -2.0421  0.9821
 4692SOL     OW25537   4.181   3.636   4.862 -0.1072  0.5836 -0.3944
 4692SOL    HW125538   4.168   3.557   4.915 -1.0314  0.0196 -1.4714
 4692SOL    HW225539   4.271   3.627   4.831  0.5001  3.2004  0.6933
 4693SOL     OW25540   2.651   2.062   6.262  0.4428  0.3573  0.0883
 4693SOL    HW125541   2.681   2.124   6.195 -1.2817  0.2061 -0.8350
 4693SOL    HW225542   2.604   2.130   6.309  0.2263 -0.3682  0.9034
 4694SOL     OW25543   4.705   1.379  10.777  0.3246  0.2152  0.0118
 4694SOL    HW125544   0.063   1.336  10.795  0.1426 -1.3812 -2.8883
 4694SOL    HW225545   4.713   1.446  10.845 -2.1330 -1.4921  1.9792
 4695SOL     OW25546   2.406   1.325   8.075  0.2234  0.5457 -0.1525
 4695SOL    HW125547   2.409   1.304   7.982 -1.3727  1.3569 -0.3806
 4695SOL    HW225548   2.473   1.393   8.080  0.7778 -0.0505  0.5785
 4696SOL     OW25549   4.603   3.532  16.131 -0.0198 -0.2893  0.3156
 4696SOL    HW125550   4.590   3.569  16.218 -1.5113  1.2185 -0.5533
 4696SOL    HW225551   4.522   3.560  16.089 -0.7861 -0.8435  1.4351
 4697SOL     OW25552   4.651   2.170   6.884  0.0154 -0.2286  0.4745
 4697SOL    HW125553   4.700   2.185   6.804 -0.4993  1.0763  0.4017
 4697SOL    HW225554   4.561   2.166   6.851 -0.2269  0.1483  1.0756
 4698SOL     OW25555   0.595   2.359   0.318  0.3489  0.2463 -0.1016
 4698SOL    HW125556   0.637   2.356   0.232  2.1252 -0.6705  0.7946
 4698SOL    HW225557   0.603   2.266   0.341  2.6034  0.0876 -1.5272
 4699SOL     OW25558   0.983   3.258   6.229  0.0006  0.0660  0.2135
 4699SOL    HW125559   1.043   3.225   6.162 -1.1215  0.2543 -0.8645
 4699SOL    HW225560   1.014   3.206   6.304  0.3678 -1.6872 -1.1699
 4700SOL     OW25561   1.665   4.703  14.351 -0.1335  0.2766  0.2093
 4700SOL    HW125562   1.642   4.611  14.338  0.9091  0.0691 -0.2148
 4700SOL    HW225563   1.612   4.719  14.428 -0.0255 -0.7824  0.5057
 4701SOL     OW25564   3.009   3.926   3.009  0.0879  0.2426 -0.1108
 4701SOL    HW125565   3.065   3.999   2.982 -1.2115  1.0128 -0.7038
 4701SOL    HW225566   2.962   3.974   3.076  1.7815  2.6308 -0.6381
 4702SOL     OW25567   4.212   2.525  16.445  0.3202 -0.4086 -0.0735
 4702SOL    HW125568   4.231   2.583  16.371 -3.2087 -0.2975 -0.8531
 4702SOL    HW225569   4.291   2.526  16.500  0.5492 -1.7160 -0.3729
 4703SOL     OW25570   4.135   3.711   6.844 -0.8054  0.0667  0.0409
 4703SOL    HW125571   4.221   3.695   6.883 -1.5306 -3.5110  0.1895
 4703SOL    HW225572   4.144   3.651   6.770  3.7329  1.8669 -0.8948
 4704SOL     OW25573   1.110   2.923   8.566  0.0509  0.1682 -0.6005
 4704SOL    HW125574   1.176   2.859   8.540  1.2278  0.1298  2.5226
 4704SOL    HW225575   1.088   2.896   8.655 -1.2439 -2.0717 -1.6082
 4705SOL     OW25576   0.485   2.737   6.417 -0.0798 -0.3028 -0.1853
 4705SOL    HW125577   0.564   2.789   6.433 -0.1599 -0.3237  0.2607
 4705SOL    HW225578   0.512   2.666   6.359  0.2460  0.3139 -0.7935
 4706SOL     OW25579   3.088   1.581   1.204  0.3594  0.3875  1.2738
 4706SOL    HW125580   3.065   1.488   1.202 -0.1431  0.5654 -0.8985
 4706SOL    HW225581   3.166   1.566   1.257  0.1673  0.0228  1.4577
 4707SOL     OW25582   0.122   3.055   8.419  0.4355 -0.0940 -0.1987
 4707SOL    HW125583   0.066   3.101   8.481  1.7888  2.7018 -1.0435
 4707SOL    HW225584   0.056   3.029   8.354 -0.0011 -0.6275  0.4573
 4708SOL     OW25585   2.663   0.551  10.552  0.0335 -0.5742  0.1547
 4708SOL    HW125586   2.656   0.638  10.514 -1.1403 -1.1052 -0.8373
 4708SOL    HW225587   2.694   0.508  10.473  0.3885  1.2913 -0.7156
 4709SOL     OW25588   2.877   0.288   8.596 -0.1338  0.1091 -0.0038
 4709SOL    HW125589   2.834   0.373   8.592 -3.7563 -1.7753 -2.4198
 4709SOL    HW225590   2.889   0.275   8.502 -1.9786  0.8392 -0.3416
 4710SOL     OW25591   3.208   4.320   8.815  0.4742  0.3919  0.0795
 4710SOL    HW125592   3.290   4.359   8.845 -0.8566  3.1330  0.1751
 4710SOL    HW225593   3.204   4.246   8.876  1.2468 -0.4839 -0.9298
 4711SOL     OW25594   0.452   0.464   6.146 -0.2943  0.8247  0.3545
 4711SOL    HW125595   0.493   0.549   6.127 -0.4412  0.6911 -0.5459
 4711SOL    HW225596   0.506   0.413   6.086 -0.5935  2.1900 -1.0670
 4712SOL     OW25597   0.447   4.365  16.856 -0.5101  0.3270  0.1713
 4712SOL    HW125598   0.364   4.392  16.895 -0.3691 -2.8149  2.6679
 4712SOL    HW225599   0.448   4.269  16.860  1.1264  0.3914  1.5508
 4713SOL     OW25600   0.833   3.929   1.027  0.0583  0.1843  0.7061
 4713SOL    HW125601   0.844   4.011   0.979  0.0493  0.1318  0.6134
 4713SOL    HW225602   0.792   3.966   1.105  1.1771 -1.6961  2.2008
 4714SOL     OW25603   3.604   0.052   3.372 -0.1816  0.0992 -0.3257
 4714SOL    HW125604   3.684   0.010   3.338  0.9334  0.8519  1.3349
 4714SOL    HW225605   3.557   0.080   3.294 -0.4218  0.5114 -0.0341
 4715SOL     OW25606   4.002   0.580   6.508  0.2252 -0.0468  0.1743
 4715SOL    HW125607   4.048   0.497   6.495  3.8250  1.5898  2.5664
 4715SOL    HW225608   3.938   0.555   6.575 -0.6791  0.3638 -0.5277
 4716SOL     OW25609   0.103   0.414   4.629  0.3012  0.1586  0.8134
 4716SOL    HW125610   0.131   0.324   4.610  1.7679  0.6289  0.7659
 4716SOL    HW225611   0.037   0.412   4.698 -1.3425 -2.4840 -0.7811
 4717SOL     OW25612   4.695   0.454   4.032 -0.0813  0.0035  0.0318
 4717SOL    HW125613   4.695   0.361   4.054 -2.2025  0.0854  0.3414
 4717SOL    HW225614   0.014   0.452   3.948  1.8167 -0.8802  1.0453
 4718SOL     OW25615   0.897   2.393  13.427 -0.3380  0.6672 -0.3361
 4718SOL    HW125616   0.882   2.460  13.361 -3.0226 -0.1237 -0.5481
 4718SOL    HW225617   0.962   2.338  13.383  0.6652  1.6462 -0.0699
 4719SOL     OW25618   2.803   2.324   5.051 -0.2772 -0.1029  0.2706
 4719SOL    HW125619   2.794   2.415   5.023  1.4493 -0.4078 -1.2753
 4719SOL    HW225620   2.804   2.285   4.963  1.0202  1.6870 -0.5068
 4720SOL     OW25621   0.546   2.922   4.733  0.4715 -0.1771 -0.3175
 4720SOL    HW125622   0.579   2.898   4.819 -0.7249 -1.7852 -0.3037
 4720SOL    HW225623   0.484   2.992   4.755 -1.7222 -2.0109 -0.6188
 4721SOL     OW25624   4.413   0.684   3.257  0.7015  0.2848 -0.1839
 4721SOL    HW125625   4.480   0.752   3.258 -0.4745  1.4442  0.9963
 4721SOL    HW225626   4.346   0.721   3.200  1.4725 -0.1125 -1.3290
 4722SOL     OW25627   1.286   0.237   3.406 -0.0896  0.9512 -0.3860
 4722SOL    HW125628   1.271   0.242   3.501 -2.1952 -0.0399 -0.6785
 4722SOL    HW225629   1.359   0.298   3.396  0.1272  0.4420 -1.9902
 4723SOL     OW25630   1.317   2.273   4.565  0.1579 -0.2115 -0.3291
 4723SOL    HW125631   1.369   2.204   4.524  1.5078  0.4599  0.2833
 4723SOL    HW225632   1.275   2.303   4.485  1.2819  0.5487 -0.6273
 4724SOL     OW25633   2.504   4.070  14.041 -0.0906 -0.2239 -0.0093
 4724SOL    HW125634   2.472   4.088  13.953  1.7961 -2.6005 -1.1845
 4724SOL    HW225635   2.545   4.154  14.061 -0.0672 -0.5636  1.3805
 4725SOL     OW25636   3.414   2.011   8.409 -0.2542  1.0103  0.2457
 4725SOL    HW125637   3.439   2.051   8.326 -0.6849  0.2878 -0.2405
 4725SOL    HW225638   3.396   1.922   8.379  1.1109  0.0988  2.1182
 4726SOL     OW25639   0.618   3.652   3.164 -0.0303 -0.2980 -0.1802
 4726SOL    HW125640   0.550   3.603   3.118 -2.3253  3.6134 -1.0588
 4726SOL    HW225641   0.687   3.640   3.099 -0.2765 -0.4152 -0.4180
 4727SOL     OW25642   2.535   4.575  15.155  0.1404  0.6233  0.1861
 4727SOL    HW125643   2.547   4.555  15.063 -0.7769 -0.7271  0.3619
 4727SOL    HW225644   2.583   4.501  15.193 -1.1437 -0.0716  0.4555
 4728SOL     OW25645   4.185   1.112   6.261  0.0546  0.0182 -0.3351
 4728SOL    HW125646   4.225   1.093   6.346  0.7927 -0.3384 -0.7617
 4728SOL    HW225647   4.096   1.087   6.282 -0.7639  3.9687  0.9470
 4729SOL     OW25648   4.547   3.500   1.189 -0.2682  0.0292 -0.2816
 4729SOL    HW125649   4.499   3.582   1.199  1.3578  0.8457  0.7475
 4729SOL    HW225650   4.565   3.486   1.282  0.4932 -1.5327 -0.6543
 4730SOL     OW25651   3.683   3.531  12.113 -0.2404  0.4292 -0.2119
 4730SOL    HW125652   3.696   3.481  12.194 -1.5046 -0.7348 -0.7332
 4730SOL    HW225653   3.774   3.553  12.095  0.7061 -1.8618  1.8071
 4731SOL     OW25654   0.034   3.069   2.125 -0.0519 -0.3922 -0.1705
 4731SOL    HW125655   0.103   3.096   2.185  0.1123 -0.6262 -0.2569
 4731SOL    HW225656   4.705   3.008   2.175 -0.8678  0.7405  0.3347
 4732SOL     OW25657   3.055   2.927   8.733 -0.2298  0.7243  0.1840
 4732SOL    HW125658   3.100   2.852   8.694  1.1188  1.5282  0.1999
 4732SOL    HW225659   2.991   2.877   8.783  1.0668  0.3751  1.5004
 4733SOL     OW25660   2.823   1.965   7.387  0.3026  0.0406  0.3466
 4733SOL    HW125661   2.734   1.930   7.379  0.4307 -0.6045  1.7740
 4733SOL    HW225662   2.832   1.952   7.481 -0.4235  1.1709  0.5783
 4734SOL     OW25663   3.707   2.271   2.577 -0.3650 -0.5666  0.1314
 4734SOL    HW125664   3.662   2.335   2.521 -1.6874 -1.5685  0.0596
 4734SOL    HW225665   3.780   2.242   2.523  0.3279 -0.5324  1.0457
 4735SOL     OW25666   2.722   2.548   5.937  0.6197  0.4950  0.9323
 4735SOL    HW125667   2.731   2.639   5.908  2.7889 -0.0473 -0.0385
 4735SOL    HW225668   2.750   2.551   6.029 -4.3853  0.8879  2.4407
 4736SOL     OW25669   3.460   3.152   3.861 -0.3776 -0.1695 -0.3508
 4736SOL    HW125670   3.529   3.215   3.881 -0.5413  0.2324 -1.0116
 4736SOL    HW225671   3.427   3.122   3.945 -2.1096 -1.6708 -1.5639
 4737SOL     OW25672   4.429   1.312   7.378 -0.3347  0.0690 -0.5895
 4737SOL    HW125673   4.372   1.341   7.449  1.2253  1.5668  0.0434
 4737SOL    HW225674   4.517   1.322   7.414  0.2919 -0.9831 -1.8222
 4738SOL     OW25675   1.883   2.034   0.003  0.1312  0.8977  0.3345
 4738SOL    HW125676   1.803   2.001   0.044 -1.1319  1.4966 -1.6120
 4738SOL    HW225677   1.930   2.086   0.068 -1.3926  2.7985 -0.0728
 4739SOL     OW25678   0.690   4.350   7.583 -0.4521 -0.1809  0.9339
 4739SOL    HW125679   0.748   4.404   7.529 -1.3190  0.5529  0.7387
 4739SOL    HW225680   0.629   4.410   7.626 -0.6383  0.2514  0.0841
 4740SOL     OW25681   2.216   4.325   8.913  0.1703 -0.5110 -0.1954
 4740SOL    HW125682   2.229   4.269   8.836  0.9138 -0.5337 -0.0529
 4740SOL    HW225683   2.279   4.286   8.974  2.9239  0.5817 -2.3482
 4741SOL     OW25684   1.684   2.576   8.955  0.2210 -0.0968  0.0672
 4741SOL    HW125685   1.600   2.615   8.976 -0.1438 -0.5878 -0.4728
 4741SOL    HW225686   1.730   2.656   8.929  0.2444 -0.9538 -2.5760
 4742SOL     OW25687   2.312   0.609   2.432  0.3844  0.0498 -0.5180
 4742SOL    HW125688   2.251   0.581   2.500 -1.2464  0.3748 -1.8349
 4742SOL    HW225689   2.353   0.689   2.463  2.6384 -0.4673 -2.1626
 4743SOL     OW25690   1.490   4.400  12.340  0.1777 -1.3128  0.3703
 4743SOL    HW125691   1.398   4.412  12.363 -0.1587 -1.7684 -0.7273
 4743SOL    HW225692   1.512   4.317  12.382 -1.7757 -1.0433  1.9367
 4744SOL     OW25693   3.389   4.570  14.165 -0.6494  0.8625  0.3104
 4744SOL    HW125694   3.370   4.664  14.168  0.6786  1.1931 -1.8015
 4744SOL    HW225695   3.351   4.549  14.080 -1.4941 -1.2915  1.2321
 4745SOL     OW25696   3.812   2.162   6.790  0.7251  0.5006  0.3205
 4745SOL    HW125697   3.750   2.168   6.863  0.5854 -0.6578  0.3044
 4745SOL    HW225698   3.775   2.084   6.749 -1.3876  0.6773  1.9144
 4746SOL     OW25699   3.188   0.738   1.648  0.3203 -0.4744 -0.2099
 4746SOL    HW125700   3.137   0.671   1.603 -0.6044  0.9467 -1.2635
 4746SOL    HW225701   3.274   0.696   1.656  0.2462 -0.8293 -1.3030
 4747SOL     OW25702   0.843   2.689   3.226 -0.0757  0.3439  0.2947
 4747SOL    HW125703   0.842   2.594   3.227  2.1109  0.3264  0.2412
 4747SOL    HW225704   0.938   2.699   3.227 -0.1010  0.5540  1.2391
 4748SOL     OW25705   0.041   1.624  10.974  0.0904  0.7403  0.6221
 4748SOL    HW125706   4.715   1.702  10.996 -3.5673 -1.6105  0.3671
 4748SOL    HW225707   0.083   1.597  11.056 -0.9475 -0.6350  0.6875
 4749SOL     OW25708   1.762   0.886  14.324  0.1522 -0.2232  0.5174
 4749SOL    HW125709   1.682   0.936  14.309  1.1562  1.0180 -0.6903
 4749SOL    HW225710   1.760   0.823  14.253  0.0202  0.1427  0.1964
 4750SOL     OW25711   2.773   3.021  13.265  0.4896 -0.0805 -0.3300
 4750SOL    HW125712   2.765   3.016  13.169  0.5913 -2.6431 -0.2021
 4750SOL    HW225713   2.761   2.930  13.292  0.6242  0.4177  1.3718
 4751SOL     OW25714   3.159   2.698   2.106 -0.5642  0.5801 -0.1627
 4751SOL    HW125715   3.137   2.633   2.172  0.3059  1.3354  0.8667
 4751SOL    HW225716   3.145   2.641   2.030  0.1884 -1.5309  1.3033
 4752SOL     OW25717   2.995   4.109   7.452  0.2420 -0.0595  0.4303
 4752SOL    HW125718   3.030   4.142   7.534 -0.2124 -1.1125  1.0550
 4752SOL    HW225719   3.064   4.136   7.392  0.7129  0.8157  1.3826
 4753SOL     OW25720   2.845   0.443  12.482  0.1923  0.0758  0.0906
 4753SOL    HW125721   2.928   0.487  12.462  0.5891 -0.1322  1.2479
 4753SOL    HW225722   2.882   0.381  12.544 -0.9196 -0.0514  0.6232
 4754SOL     OW25723   1.483   4.489  11.272  0.2056  0.1234  0.2300
 4754SOL    HW125724   1.571   4.519  11.293  0.4445 -0.9620  0.7959
 4754SOL    HW225725   1.496   4.433  11.196  1.2019 -2.1192  2.0431
 4755SOL     OW25726   4.418   2.607   3.493  1.0082 -0.2653  0.0169
 4755SOL    HW125727   4.417   2.537   3.559  0.2397  0.9751  1.3091
 4755SOL    HW225728   4.325   2.622   3.474 -0.3262 -4.5673  3.0346
 4756SOL     OW25729   2.322   2.475   7.839  0.0528 -0.9222 -0.0990
 4756SOL    HW125730   2.325   2.401   7.778 -2.3575 -0.7594 -0.4154
 4756SOL    HW225731   2.381   2.443   7.908  0.2239  1.2532  0.7755
 4757SOL     OW25732   2.136   2.490   3.136  0.2218 -0.0907 -0.1045
 4757SOL    HW125733   2.206   2.429   3.162  2.2689  1.9675 -0.8089
 4757SOL    HW225734   2.181   2.568   3.169 -1.4852  1.1524 -0.7660
 4758SOL     OW25735   4.295   3.759  11.045  0.1243  0.1061  0.4060
 4758SOL    HW125736   4.202   3.743  11.060  0.1197 -1.2590 -0.9891
 4758SOL    HW225737   4.318   3.830  11.104 -1.8183  1.2277 -0.2019
 4759SOL     OW25738   2.975   1.125   6.148  0.0030  0.2876  0.3337
 4759SOL    HW125739   2.906   1.165   6.202 -1.1269  1.1779 -1.7741
 4759SOL    HW225740   2.918   1.076   6.088  0.9503 -1.0963  0.5718
 4760SOL     OW25741   1.566   4.449   1.891  0.5306 -0.3985  0.0120
 4760SOL    HW125742   1.581   4.423   1.800 -0.7553  1.8768 -0.8580
 4760SOL    HW225743   1.476   4.420   1.904  0.4259  0.0736  0.3365
 4761SOL     OW25744   4.248   3.230  16.126  0.2122  0.4836 -0.2162
 4761SOL    HW125745   4.329   3.225  16.177  0.2498  0.3827 -0.2858
 4761SOL    HW225746   4.247   3.141  16.092 -0.5221  0.1757  0.6192
 4762SOL     OW25747   2.805   0.748   4.650 -0.5465  0.2897  0.0625
 4762SOL    HW125748   2.766   0.835   4.654 -0.8810  0.1677 -0.5132
 4762SOL    HW225749   2.839   0.725   4.737 -0.2636 -2.1535 -0.6974
 4763SOL     OW25750   0.535   1.016   9.550 -0.0697 -0.2071  0.2666
 4763SOL    HW125751   0.570   0.956   9.485 -1.7295 -0.4580 -0.3835
 4763SOL    HW225752   0.444   0.994   9.569 -0.6651  2.7580  0.9483
 4764SOL     OW25753   3.454   4.433   7.854  0.1026 -0.2830  0.2540
 4764SOL    HW125754   3.480   4.520   7.882 -2.1147  0.5945 -0.4129
 4764SOL    HW225755   3.536   4.388   7.873  0.5550 -0.1378 -1.3860
 4765SOL     OW25756   4.432   3.022  16.506 -0.2746  0.3858  0.6273
 4765SOL    HW125757   4.479   2.954  16.553  1.3254 -0.7076 -2.5777
 4765SOL    HW225758   4.385   2.976  16.436  0.7007 -0.9248  0.8262
 4766SOL     OW25759   3.006   3.082  13.434 -0.7323  0.0629  0.0477
 4766SOL    HW125760   2.946   3.066  13.362 -1.2837 -2.8198  1.1494
 4766SOL    HW225761   2.964   3.030  13.502  1.2122 -0.1078  1.1354
 4767SOL     OW25762   4.509   2.146   2.974  0.0215 -0.1851 -0.5929
 4767SOL    HW125763   4.567   2.218   2.951  0.7955 -1.2347 -1.9159
 4767SOL    HW225764   4.565   2.079   3.012  2.5852  0.3810 -3.3325
 4768SOL     OW25765   3.324   1.439   0.304  0.0387 -0.2614  0.2042
 4768SOL    HW125766   3.392   1.376   0.280 -1.1858 -1.3964 -0.2531
 4768SOL    HW225767   3.276   1.443   0.221 -0.5475  0.5664  0.5803
 4769SOL     OW25768   0.796   3.161   0.923 -0.1592 -0.0122  0.5056
 4769SOL    HW125769   0.851   3.133   0.996 -0.6286 -0.2226  0.7748
 4769SOL    HW225770   0.864   3.174   0.856  0.2365  0.6495  1.0282
 4770SOL     OW25771   3.569   0.447   3.164  0.1911 -0.0317 -0.2658
 4770SOL    HW125772   3.579   0.354   3.144 -0.4902 -0.8267  3.0690
 4770SOL    HW225773   3.481   0.447   3.203  1.4171  0.5721  2.4784
 4771SOL     OW25774   0.699   4.050   1.213  0.2281 -0.4739  0.2626
 4771SOL    HW125775   0.720   3.989   1.284  2.7289 -0.0542 -0.1200
 4771SOL    HW225776   0.704   4.135   1.256  1.7722 -0.0228 -0.8075
 4772SOL     OW25777   0.101   2.557  16.611  0.1744  0.1925 -0.0011
 4772SOL    HW125778   0.096   2.515  16.525 -3.0222  0.5247  0.0212
 4772SOL    HW225779   0.047   2.489  16.653 -1.1654  0.6658 -0.9546
 4773SOL     OW25780   0.318   1.276   6.884 -0.4844  0.8123  0.5474
 4773SOL    HW125781   0.353   1.205   6.937  0.3891  1.1680  0.4481
 4773SOL    HW225782   0.398   1.325   6.866 -1.1192  0.5058 -3.1735
 4774SOL     OW25783   0.767   2.409   5.161 -0.4430 -0.2803  0.0223
 4774SOL    HW125784   0.851   2.444   5.191  0.9665 -1.6376 -2.3346
 4774SOL    HW225785   0.710   2.430   5.234 -3.2558 -1.8034 -1.7583
 4775SOL     OW25786   4.094   0.194   8.534  0.4741  0.1488  0.1410
 4775SOL    HW125787   4.122   0.144   8.611  0.1214  0.6220  0.5703
 4775SOL    HW225788   4.060   0.278   8.563  0.5085  0.3306 -0.3433
 4776SOL     OW25789   1.486   3.859  17.484  0.4480  0.7318 -0.1967
 4776SOL    HW125790   1.491   3.815  17.569 -2.2025 -0.9954 -0.9305
 4776SOL    HW225791   1.416   3.921  17.503 -1.0697 -0.8374 -0.7006
 4777SOL     OW25792   4.081   0.224  10.246 -0.5084 -0.1352  0.0048
 4777SOL    HW125793   4.155   0.170  10.217 -2.3499 -1.8366 -1.5664
 4777SOL    HW225794   4.129   0.273  10.312 -1.0536 -1.8742  1.6939
 4778SOL     OW25795   2.842   3.721  13.733 -0.7490  0.2047 -0.0260
 4778SOL    HW125796   2.882   3.634  13.726  0.4922  0.6429  1.8366
 4778SOL    HW225797   2.880   3.768  13.659 -3.0782  1.0606 -0.6711
 4779SOL     OW25798   2.629   4.298   4.070 -0.0900 -0.8301  0.1322
 4779SOL    HW125799   2.723   4.312   4.058 -0.0856 -0.5553  0.4596
 4779SOL    HW225800   2.612   4.348   4.150 -0.4550 -0.4909 -0.1569
 4780SOL     OW25801   1.674   1.622   6.283 -0.2877  0.4412  0.2604
 4780SOL    HW125802   1.702   1.563   6.353 -2.3427 -0.7794  0.0462
 4780SOL    HW225803   1.691   1.714   6.305 -1.6930  0.7500  0.0882
 4781SOL     OW25804   4.236   1.902  13.062 -0.0425  0.1206 -0.0788
 4781SOL    HW125805   4.297   1.973  13.084  0.5747 -0.1416 -0.9536
 4781SOL    HW225806   4.167   1.908  13.128  0.2950 -0.6244  0.3399
 4782SOL     OW25807   4.719   1.958  12.851  0.4637  0.0221 -0.1551
 4782SOL    HW125808   4.680   1.903  12.782 -4.7202 -0.4368  3.1199
 4782SOL    HW225809   4.685   2.046  12.833  1.9937  0.6741  0.2242
 4783SOL     OW25810   1.651   1.930   7.197 -0.1006 -0.1202  0.5469
 4783SOL    HW125811   1.746   1.932   7.184 -0.1065 -0.0635  0.5124
 4783SOL    HW225812   1.630   2.015   7.159  2.1542 -0.0939 -0.6237
 4784SOL     OW25813   1.547   0.881   8.193 -0.2137  0.1409  0.0321
 4784SOL    HW125814   1.514   0.971   8.186 -0.2362  0.4007  3.5488
 4784SOL    HW225815   1.506   0.851   8.274 -0.3795 -0.8879 -0.4314
 4785SOL     OW25816   3.428   3.842   7.503  0.1002 -0.3298 -0.1778
 4785SOL    HW125817   3.393   3.753   7.504  0.8825 -0.6382 -0.1721
 4785SOL    HW225818   3.375   3.886   7.570  0.3056  1.3039 -1.0900
 4786SOL     OW25819   2.068   1.942   6.921  0.3269  0.0555  0.6527
 4786SOL    HW125820   2.157   1.960   6.890 -1.2799  0.7575 -3.6217
 4786SOL    HW225821   2.053   1.852   6.894 -0.0390  0.0676  0.8110
 4787SOL     OW25822   2.982   1.010   7.270  0.2754 -0.0023  0.0335
 4787SOL    HW125823   2.902   1.002   7.218 -0.9643 -1.4864  2.1916
 4787SOL    HW225824   3.011   0.920   7.285 -0.8593 -0.3686  0.0109
 4788SOL     OW25825   4.379   4.092   6.557  0.7651  0.5179  0.4664
 4788SOL    HW125826   4.439   4.137   6.617  0.2304  2.3837 -0.3913
 4788SOL    HW225827   4.305   4.154   6.562  0.1231 -0.0742 -1.7615
 4789SOL     OW25828   1.379   4.613  15.239  0.3157 -0.3147  0.2058
 4789SOL    HW125829   1.337   4.657  15.314  1.5151 -0.0411  0.7243
 4789SOL    HW225830   1.306   4.562  15.206 -0.4120  1.4951 -0.9724
 4790SOL     OW25831   2.597   3.951   6.942 -0.1707 -0.4102  0.1320
 4790SOL    HW125832   2.564   3.978   7.028  0.2726  0.5901 -0.0160
 4790SOL    HW225833   2.588   3.857   6.957  2.8092 -0.8095 -0.5996
 4791SOL     OW25834   1.737   2.842   7.115  0.1236  0.0723  0.3907
 4791SOL    HW125835   1.759   2.893   7.193 -0.5025 -0.5538  0.9742
 4791SOL    HW225836   1.732   2.762   7.167 -0.4346 -0.4021 -0.4040
 4792SOL     OW25837   4.665   0.890   4.525  0.5162  0.7342  0.5092
 4792SOL    HW125838   4.602   0.847   4.583 -0.0029 -0.9452 -1.2866
 4792SOL    HW225839   0.021   0.844   4.542 -0.2988 -0.9227 -0.0565
 4793SOL     OW25840   4.182   3.843   8.748 -0.7906  0.9014 -0.2686
 4793SOL    HW125841   4.223   3.777   8.804  0.5373  0.6986 -1.4775
 4793SOL    HW225842   4.184   3.789   8.668  0.7565  0.7286 -0.1145
 4794SOL     OW25843   1.401   4.642   6.584  0.1368  0.1887 -0.2106
 4794SOL    HW125844   1.362   4.556   6.600 -2.7189  1.3130 -1.2143
 4794SOL    HW225845   1.481   4.613   6.541 -0.0288  4.2229 -3.2438
 4795SOL     OW25846   1.689   1.525   2.305  0.3113  0.3018  0.4805
 4795SOL    HW125847   1.721   1.579   2.377 -0.3869  1.0122  0.2637
 4795SOL    HW225848   1.714   1.570   2.224 -0.9499 -2.1114 -1.2520
 4796SOL     OW25849   3.587   0.133   7.032 -0.0210  0.0729  0.1110
 4796SOL    HW125850   3.557   0.151   6.943 -0.3096  1.4551  0.4881
 4796SOL    HW225851   3.594   0.037   7.034 -1.8321 -0.0702 -0.7672
 4797SOL     OW25852   0.046   3.147   3.704 -0.3136  0.3367  0.2876
 4797SOL    HW125853   4.680   3.169   3.687 -1.0554 -2.0943  1.0542
 4797SOL    HW225854   0.086   3.187   3.628  1.5764  1.1906  1.7477
 4798SOL     OW25855   4.543   3.772   4.913 -0.0440 -0.0642  0.4183
 4798SOL    HW125856   4.635   3.797   4.904  0.1539 -1.0126 -0.2228
 4798SOL    HW225857   4.510   3.856   4.946  0.1036 -0.6019  1.9102
 4799SOL     OW25858   3.576   3.930   6.595 -0.2022  0.4373 -0.0671
 4799SOL    HW125859   3.592   3.995   6.663  0.3867  2.6006 -2.2419
 4799SOL    HW225860   3.659   3.885   6.607 -0.3518 -0.3642 -2.0419
 4800SOL     OW25861   4.596   2.669   5.297 -0.0585 -0.3561 -0.3341
 4800SOL    HW125862   4.690   2.668   5.318 -0.2366  2.1110  0.4960
 4800SOL    HW225863   4.597   2.582   5.256  1.3764  0.0604 -1.1679
 4801SOL     OW25864   0.961   0.271   4.017 -1.0542  0.1201  0.4889
 4801SOL    HW125865   0.920   0.185   4.023 -0.2014 -0.4084 -1.2375
 4801SOL    HW225866   0.945   0.298   4.108 -1.0635 -0.9317  0.8059
 4802SOL     OW25867   0.435   2.866  14.222 -0.1829 -0.1150 -0.4320
 4802SOL    HW125868   0.469   2.937  14.276  0.8339 -1.1971  0.3581
 4802SOL    HW225869   0.434   2.902  14.133  2.5740  1.1055  0.0348
 4803SOL     OW25870   4.370   3.707   1.062 -0.1108 -0.5737 -0.0111
 4803SOL    HW125871   4.457   3.689   1.026  0.1094  0.5005 -0.0426
 4803SOL    HW225872   4.345   3.616   1.077 -0.7323 -0.8702 -2.7910
 4804SOL     OW25873   0.260   1.074   4.331  0.6173  0.2713 -0.1035
 4804SOL    HW125874   0.268   1.155   4.381 -0.5859  0.3015  0.0405
 4804SOL    HW225875   0.343   1.027   4.339  0.7264  0.0479 -2.5507
 4805SOL     OW25876   3.110   0.341  11.681 -0.1361 -0.4669 -0.1370
 4805SOL    HW125877   3.141   0.373  11.765  0.3170  0.3560 -0.6239
 4805SOL    HW225878   3.190   0.305  11.644  0.1736 -0.1703  0.2576
 4806SOL     OW25879   3.985   0.314   2.798 -0.3875 -0.5825 -0.2799
 4806SOL    HW125880   4.062   0.269   2.762 -0.1834  0.3107 -0.9621
 4806SOL    HW225881   3.926   0.243   2.773 -3.2900  1.7152  0.1195
 4807SOL     OW25882   2.375   4.616  12.738  0.2965 -0.1266 -0.3755
 4807SOL    HW125883   2.439   4.685  12.754 -2.0420  1.3513  2.4337
 4807SOL    HW225884   2.352   4.633  12.647  0.1918 -0.0804 -0.3402
 4808SOL     OW25885   1.983   2.782   3.239  0.2611 -0.7129 -0.1537
 4808SOL    HW125886   1.987   2.848   3.308  1.1497 -0.0898 -0.7958
 4808SOL    HW225887   1.993   2.838   3.162  2.7889 -1.0617 -0.0913
 4809SOL     OW25888   2.649   2.295   4.335 -0.4663 -0.2548 -0.4567
 4809SOL    HW125889   2.577   2.280   4.274  0.5861  0.7424 -1.9415
 4809SOL    HW225890   2.726   2.299   4.278  0.0472 -0.3225  0.2310
 4810SOL     OW25891   0.470   1.515   4.399 -0.1225 -0.2408 -0.1973
 4810SOL    HW125892   0.537   1.557   4.453 -0.1445  0.7779 -0.9525
 4810SOL    HW225893   0.456   1.425   4.428  0.1653  0.2818  1.5743
 4811SOL     OW25894   3.036   4.119   5.665  0.6072  0.0930  0.1495
 4811SOL    HW125895   2.995   4.104   5.579  0.2817  1.8796 -0.0083
 4811SOL    HW225896   2.974   4.188   5.690  2.9098  1.4483  2.1267
 4812SOL     OW25897   3.800   3.345   2.871  0.2254  0.0871 -0.3171
 4812SOL    HW125898   3.868   3.310   2.813  0.7277 -1.3232  1.1224
 4812SOL    HW225899   3.865   3.349   2.941  0.0507  1.9194 -0.2424
 4813SOL     OW25900   3.157   0.114   7.120  0.3541  0.8553 -0.1725
 4813SOL    HW125901   3.186   0.078   7.204  0.7719  0.7743 -0.3494
 4813SOL    HW225902   3.076   0.066   7.106  0.2686  0.2763  2.2659
 4814SOL     OW25903   1.335   2.033   9.468 -0.1255  0.0304  0.1691
 4814SOL    HW125904   1.359   2.106   9.412  0.4632 -0.3042 -0.0202
 4814SOL    HW225905   1.266   1.986   9.422  0.3629 -1.9013  1.3999
 4815SOL     OW25906   0.007   3.507  13.002  0.5900  0.4344  0.4740
 4815SOL    HW125907   0.099   3.503  12.974 -0.1161 -0.4536 -1.6647
 4815SOL    HW225908   0.019   3.517  13.097  4.7776  0.7162 -0.0657
 4816SOL     OW25909   1.925   0.727   8.176 -0.1315  0.6046 -0.7819
 4816SOL    HW125910   1.842   0.693   8.143  1.1405  0.0972 -3.4818
 4816SOL    HW225911   1.980   0.667   8.126  0.1468  0.4752 -0.3203
 4817SOL     OW25912   0.971   1.170  14.228  0.7018  0.2862 -0.3339
 4817SOL    HW125913   1.041   1.108  14.209 -0.0743 -1.3850  2.3073
 4817SOL    HW225914   0.903   1.114  14.265  1.0814 -0.5771 -0.9360
 4818SOL     OW25915   0.746   1.128  17.335  0.1173 -0.4422  0.5404
 4818SOL    HW125916   0.825   1.153  17.384 -0.3685  0.5773  0.7863
 4818SOL    HW225917   0.780   1.136  17.246 -1.1875  1.6844  0.2562
 4819SOL     OW25918   0.691   3.049  12.369  0.5657 -1.0823 -0.1834
 4819SOL    HW125919   0.700   3.091  12.455  0.5313  2.3772 -1.8802
 4819SOL    HW225920   0.679   2.955  12.384  1.4209 -1.0423  0.8541
 4820SOL     OW25921   2.619   4.254   5.199 -0.2693  0.1231 -0.2691
 4820SOL    HW125922   2.673   4.225   5.273 -1.6728 -0.4026  0.5445
 4820SOL    HW225923   2.539   4.203   5.203  0.2892 -0.7968 -0.7958
 4821SOL     OW25924   1.558   4.335   2.564 -0.0332 -0.2621  0.6915
 4821SOL    HW125925   1.513   4.254   2.537  0.4308 -0.9431  1.9675
 4821SOL    HW225926   1.593   4.308   2.648  0.7939  0.8664  0.7018
 4822SOL     OW25927   1.227   1.383   7.561  0.4397  0.2538  0.3097
 4822SOL    HW125928   1.153   1.428   7.602  0.9475  0.7686  0.6657
 4822SOL    HW225929   1.272   1.337   7.631  1.0918  0.4312  0.0183
 4823SOL     OW25930   1.341   3.879  16.488 -0.6118  0.8143 -0.3805
 4823SOL    HW125931   1.372   3.838  16.569 -2.3654  2.3146  1.0535
 4823SOL    HW225932   1.407   3.946  16.473  0.9303 -0.7547 -0.5005
 4824SOL     OW25933   1.180   2.593   5.858  0.4290  0.1055 -0.1569
 4824SOL    HW125934   1.108   2.651   5.883 -0.6395 -1.6212  0.8072
 4824SOL    HW225935   1.156   2.514   5.908 -0.1291  1.7482  2.1653
 4825SOL     OW25936   0.450   4.333   8.584 -0.1003 -0.0945  0.3142
 4825SOL    HW125937   0.455   4.419   8.542  0.6728  0.7042  2.0279
 4825SOL    HW225938   0.541   4.310   8.606 -0.3451 -2.8740 -1.5253
 4826SOL     OW25939   0.895   1.258  13.731 -0.3949  0.5744  0.1681
 4826SOL    HW125940   0.937   1.233  13.814  1.3810  1.8067 -0.3804
 4826SOL    HW225941   0.967   1.286  13.675  0.4284  0.2074  1.0358
 4827SOL     OW25942   1.776   1.884   6.320  0.1734  0.4635 -0.4143
 4827SOL    HW125943   1.772   1.970   6.279 -3.0083  0.4010 -0.1956
 4827SOL    HW225944   1.851   1.841   6.277  1.5082  1.3466  1.0336
 4828SOL     OW25945   0.738   4.237   8.090  0.5594 -0.2983  0.3034
 4828SOL    HW125946   0.792   4.295   8.036 -0.0650 -0.7615 -0.8259
 4828SOL    HW225947   0.738   4.281   8.175 -0.4658 -1.1708  0.7609
 4829SOL     OW25948   0.886   2.004   2.674  0.5473 -0.0133 -0.3754
 4829SOL    HW125949   0.943   2.004   2.752 -0.2115 -0.7584  0.1786
 4829SOL    HW225950   0.944   2.037   2.605 -1.3783 -0.9672 -2.4012
 4830SOL     OW25951   2.097   1.543  12.804 -0.6741 -0.0104 -0.0131
 4830SOL    HW125952   2.005   1.566  12.812 -1.0383 -1.8667  1.1526
 4830SOL    HW225953   2.134   1.555  12.891  0.1388  1.1559 -0.5210
 4831SOL     OW25954   0.731   3.512   2.273  0.9195 -0.0929 -0.4032
 4831SOL    HW125955   0.657   3.572   2.285 -0.0093 -0.8274 -2.3198
 4831SOL    HW225956   0.774   3.561   2.203  2.4374 -0.8408  0.0130
 4832SOL     OW25957   1.619   2.078   8.867 -0.0731  0.2323  0.2480
 4832SOL    HW125958   1.648   2.166   8.844  2.4535 -0.3254  1.3299
 4832SOL    HW225959   1.707   2.040   8.875  0.3839  1.5246  1.4182
 4833SOL     OW25960   1.320   0.635   2.104 -0.5208 -0.3044 -0.5457
 4833SOL    HW125961   1.243   0.596   2.063 -0.2615 -1.4697  0.0619
 4833SOL    HW225962   1.366   0.673   2.029  1.8415 -1.0861  0.4844
 4834SOL     OW25963   3.793   0.929   2.906  0.6598  0.4040 -0.5426
 4834SOL    HW125964   3.736   0.953   2.979  0.3092 -1.5481 -0.1737
 4834SOL    HW225965   3.841   1.008   2.880  0.7796  0.6113  0.3130
 4835SOL     OW25966   2.364   2.476   1.103  0.1260 -0.0986 -0.2719
 4835SOL    HW125967   2.316   2.546   1.147  2.2733  1.1798  0.0872
 4835SOL    HW225968   2.313   2.452   1.026  0.6952 -0.3814 -0.5618
 4836SOL     OW25969   3.385   4.437   8.400 -0.3651 -0.5757  0.0090
 4836SOL    HW125970   3.379   4.513   8.458  2.6104 -0.3194 -0.0172
 4836SOL    HW225971   3.413   4.364   8.454 -0.1050  0.7493  1.6832
 4837SOL     OW25972   4.403   2.989   4.815  0.0798  0.4197 -0.3432
 4837SOL    HW125973   4.370   2.975   4.903 -1.2071 -1.6256 -1.1455
 4837SOL    HW225974   4.487   2.943   4.810 -0.1404 -0.1420  1.3104
 4838SOL     OW25975   0.749   3.475   4.634 -0.4426  0.5100 -0.1137
 4838SOL    HW125976   0.836   3.499   4.666  0.0302 -1.7026  0.2020
 4838SOL    HW225977   0.781   3.433   4.555 -0.4591 -1.2858  0.8443
 4839SOL     OW25978   4.328   1.245   4.104 -0.3104  0.0828 -0.5750
 4839SOL    HW125979   4.406   1.191   4.093 -0.4637  0.0393 -1.4103
 4839SOL    HW225980   4.338   1.306   4.031 -0.5449 -1.2875 -1.7451
 4840SOL     OW25981   3.017   1.780   6.861 -0.4083 -0.2474 -0.4973
 4840SOL    HW125982   2.953   1.734   6.805  1.1195 -0.6739 -1.8870
 4840SOL    HW225983   2.954   1.789   6.933  0.3386 -0.5481  0.1873
 4841SOL     OW25984   2.418   0.700   9.916 -0.4966  0.1529  0.2076
 4841SOL    HW125985   2.350   0.653   9.964 -0.0031  1.4787  2.1896
 4841SOL    HW225986   2.437   0.763   9.985 -2.6535 -0.2047  1.1027
 4842SOL     OW25987   2.162   2.385   4.652  0.4883 -0.1178 -0.2331
 4842SOL    HW125988   2.170   2.459   4.591  2.0724  1.3563  1.7243
 4842SOL    HW225989   2.116   2.325   4.594  1.3111 -1.5882  0.6411
 4843SOL     OW25990   1.008   0.072  10.078  0.1718  0.4697 -0.6865
 4843SOL    HW125991   1.070   0.008  10.043  1.6936  1.7218 -0.2480
 4843SOL    HW225992   0.964   0.099   9.998  1.6905  0.1452 -1.6173
 4844SOL     OW25993   3.185   3.425  13.943  0.2574  0.1116 -0.1509
 4844SOL    HW125994   3.187   3.330  13.952  0.3809 -0.0189 -1.5205
 4844SOL    HW225995   3.168   3.458  14.031 -0.8029 -1.4965  0.2416
 4845SOL     OW25996   2.106   2.525   3.585 -0.6782 -0.3091  0.0428
 4845SOL    HW125997   2.194   2.562   3.583 -1.2400  0.9803 -0.2981
 4845SOL    HW225998   2.050   2.594   3.551 -0.0391  0.0375 -0.2870
 4846SOL     OW25999   1.523   2.883  12.210 -0.8892 -0.0844  0.3437
 4846SOL    HW126000   1.551   2.970  12.182  1.7168 -1.5052 -1.5702
 4846SOL    HW226001   1.602   2.858  12.258 -1.8952  0.9355  2.5294
 4847SOL     OW26002   2.219   2.571  12.269 -0.4406  0.2959 -0.3045
 4847SOL    HW126003   2.225   2.634  12.341 -0.7124 -0.7324  0.6071
 4847SOL    HW226004   2.302   2.571  12.222 -1.5010  0.8619 -2.2136
 4848SOL     OW26005   0.754   3.561  10.496 -0.1650  0.1118  0.6097
 4848SOL    HW126006   0.781   3.638  10.446  0.1461 -2.0984 -2.5995
 4848SOL    HW226007   0.837   3.514  10.500 -0.7244 -0.9016  0.1284
 4849SOL     OW26008   3.603   2.059   7.614  0.5971 -0.3832  0.4564
 4849SOL    HW126009   3.688   2.067   7.570  0.1501 -0.1065 -0.3582
 4849SOL    HW226010   3.607   1.964   7.623 -3.0237 -0.5937 -0.4800
 4850SOL     OW26011   4.662   1.493   3.806 -0.2274  0.2403  0.0031
 4850SOL    HW126012   4.688   1.581   3.836 -0.2513 -0.6461  2.6599
 4850SOL    HW226013   0.004   1.440   3.849  0.5719  0.1397 -1.3875
 4851SOL     OW26014   0.264   4.187   8.199 -0.3204 -0.2043  0.2779
 4851SOL    HW126015   0.273   4.251   8.128  0.6385 -0.0595  0.5239
 4851SOL    HW226016   0.312   4.229   8.270  1.4267 -0.4281 -0.7430
 4852SOL     OW26017   3.900   4.390   2.980 -0.1279  0.3271  0.1645
 4852SOL    HW126018   3.948   4.382   2.898 -2.9330 -0.6869 -1.3869
 4852SOL    HW226019   3.976   4.359   3.030  1.3881  0.4259 -2.1071
 4853SOL     OW26020   0.831   0.203   3.525  0.4330 -0.5117  0.4006
 4853SOL    HW126021   0.873   0.266   3.584 -0.2771 -0.7808  1.1984
 4853SOL    HW226022   0.847   0.234   3.436 -0.6865 -0.3107  0.2599
 4854SOL     OW26023   2.493   2.866   5.754 -0.2004 -0.4315  0.1348
 4854SOL    HW126024   2.469   2.954   5.725 -1.0788 -0.1726  1.6411
 4854SOL    HW226025   2.450   2.808   5.691 -1.3674  0.5180  0.0467
 4855SOL     OW26026   2.391   0.645   3.251  0.2508 -0.2231 -0.1954
 4855SOL    HW126027   2.447   0.591   3.307  0.7515 -0.9058 -1.3605
 4855SOL    HW226028   2.396   0.731   3.293  0.8932  0.8433 -2.4594
 4856SOL     OW26029   0.312   2.621  14.199  0.2415 -0.2869 -0.6390
 4856SOL    HW126030   0.290   2.641  14.108  0.0849 -1.0108 -0.7594
 4856SOL    HW226031   0.379   2.688  14.212 -1.3552  1.4109 -1.1610
 4857SOL     OW26032   0.526   3.189   4.615  0.4793  0.5230  0.2936
 4857SOL    HW126033   0.507   3.142   4.534  0.2880  1.9682 -0.5026
 4857SOL    HW226034   0.621   3.181   4.621  0.4405 -0.9644 -1.3497
 4858SOL     OW26035   2.627   3.747   7.783 -0.7610 -0.3171 -0.6820
 4858SOL    HW126036   2.660   3.808   7.849 -1.3429 -0.0905 -0.6039
 4858SOL    HW226037   2.585   3.795   7.712  1.7125 -0.0190 -1.9759
 4859SOL     OW26038   2.884   0.916  11.916 -0.6672 -0.1767  0.2890
 4859SOL    HW126039   2.862   0.997  11.869  3.0085  1.6889  1.7914
 4859SOL    HW226040   2.798   0.881  11.894 -0.7477  0.2660 -0.1012
 4860SOL     OW26041   3.629   1.089   4.470  0.3016 -0.1759 -0.2961
 4860SOL    HW126042   3.612   1.005   4.511 -0.2067  0.0937  0.0439
 4860SOL    HW226043   3.724   1.087   4.482  0.3975 -0.6062 -1.1185
 4861SOL     OW26044   0.032   2.188   3.725  0.2424 -0.2256  0.0661
 4861SOL    HW126045   0.085   2.239   3.664 -0.7506  0.1125 -0.5155
 4861SOL    HW226046   4.689   2.250   3.751  0.1826  0.1697 -1.0416
 4862SOL     OW26047   4.085   0.339  13.637  0.3141 -0.4203  0.2694
 4862SOL    HW126048   4.012   0.305  13.585 -0.1494 -0.9796  1.2993
 4862SOL    HW226049   4.115   0.263  13.688 -1.3969  0.3036  2.3455
 4863SOL     OW26050   0.028   1.411   6.990  0.2011  0.4009  0.4976
 4863SOL    HW126051   0.110   1.454   6.965  2.0065 -2.3638  1.7093
 4863SOL    HW226052   0.073   1.336   7.028  0.9610 -0.1641 -1.5440
 4864SOL     OW26053   1.299   1.444   7.911  0.4714  0.5562  0.3544
 4864SOL    HW126054   1.338   1.474   7.829  1.4180  1.4957  1.1460
 4864SOL    HW226055   1.318   1.350   7.903 -2.4387  0.0761 -0.6404
 4865SOL     OW26056   2.984   4.288  15.475 -0.2138  0.5169  1.2496
 4865SOL    HW126057   3.059   4.242  15.437 -3.6116 -2.0602 -2.2872
 4865SOL    HW226058   2.957   4.321  15.389 -1.0707  0.9393  1.6866
 4866SOL     OW26059   1.809   1.543  12.791  0.1036 -0.1761  0.0686
 4866SOL    HW126060   1.821   1.535  12.885  1.1047 -0.3010 -0.0657
 4866SOL    HW226061   1.734   1.486  12.774  0.6775 -0.9293  0.0761
 4867SOL     OW26062   1.490   1.219  14.137  0.5242  0.1758 -0.1500
 4867SOL    HW126063   1.496   1.315  14.136 -2.5455  0.3316 -1.4620
 4867SOL    HW226064   1.508   1.197  14.046  1.3470  0.5930 -0.0884
 4868SOL     OW26065   3.619   3.927   2.243  0.2807  0.0773  0.0164
 4868SOL    HW126066   3.556   3.996   2.260  0.7737  0.9235 -1.6145
 4868SOL    HW226067   3.696   3.956   2.291 -0.9132  1.9375  0.8005
 4869SOL     OW26068   0.945   1.114  13.956 -0.1652 -0.2688  0.2501
 4869SOL    HW126069   0.910   1.160  14.032  0.6002  0.2084  0.3229
 4869SOL    HW226070   0.909   1.029  13.981  1.4196 -0.3153  2.4417
 4870SOL     OW26071   2.489   2.962  15.920  0.0062  0.4834 -1.0340
 4870SOL    HW126072   2.579   2.933  15.928  0.0361  0.9027  0.0251
 4870SOL    HW226073   2.486   2.977  15.825 -0.6030 -0.6196 -1.1986
 4871SOL     OW26074   1.334   2.688   9.933 -0.1866 -0.2221  0.8209
 4871SOL    HW126075   1.253   2.646   9.962  0.1511 -0.6487  1.1521
 4871SOL    HW226076   1.405   2.658   9.990 -2.0876  0.2134  3.4105
 4872SOL     OW26077   2.496   3.392   9.128 -0.0729 -0.0742  0.4530
 4872SOL    HW126078   2.519   3.343   9.207 -1.1317 -1.8411 -0.3499
 4872SOL    HW226079   2.430   3.334   9.091 -0.2257  1.0391 -0.9905
 4873SOL     OW26080   4.159   1.656  10.065  0.3684 -0.1080  0.0517
 4873SOL    HW126081   4.065   1.669  10.053  0.3310  1.1555  1.7516
 4873SOL    HW226082   4.157   1.580  10.123 -0.7838  0.6004  0.9377
 4874SOL     OW26083   3.488   3.307   7.823 -0.0568  0.3719 -0.1692
 4874SOL    HW126084   3.530   3.331   7.906 -0.1894  2.2432 -0.6337
 4874SOL    HW226085   3.552   3.350   7.766  0.2666 -1.1318 -0.9448
 4875SOL     OW26086   1.021   2.896   7.212 -0.4593 -0.0839  0.0333
 4875SOL    HW126087   0.995   2.871   7.123 -0.4321  0.3478 -0.0956
 4875SOL    HW226088   0.994   2.817   7.259 -0.1005 -0.2562 -0.0545
 4876SOL     OW26089   2.948   0.012   6.169  0.6047  0.4501  0.5631
 4876SOL    HW126090   2.916   4.649   6.190 -1.8112  0.6213 -2.4432
 4876SOL    HW226091   3.015   0.015   6.237  2.9530  1.0334 -1.7740
 4877SOL     OW26092   3.891   0.026  12.027 -0.5185  0.2954  0.7650
 4877SOL    HW126093   3.818   0.024  11.966  0.1134 -1.9854  0.0865
 4877SOL    HW226094   3.940   4.672  12.005 -0.0591  0.5168  0.9874
 4878SOL     OW26095   1.232   1.743   2.031  0.1414  0.2947 -0.1602
 4878SOL    HW126096   1.247   1.781   1.945  0.5445 -0.3569 -0.3758
 4878SOL    HW226097   1.318   1.723   2.068 -0.6369 -1.0163  0.9446
 4879SOL     OW26098   0.208   2.336  13.659  0.0936 -0.3705 -0.4422
 4879SOL    HW126099   0.206   2.400  13.730  0.4862 -1.4984  0.5859
 4879SOL    HW226100   0.202   2.394  13.582  0.9474  0.2099 -0.0813
 4880SOL     OW26101   1.210   1.183  13.985 -0.5529  0.2409 -0.6122
 4880SOL    HW126102   1.118   1.157  13.985 -0.6133  0.4465 -1.9561
 4880SOL    HW226103   1.207   1.275  14.011  0.4621  0.6857 -2.0565
 4881SOL     OW26104   0.394   0.406   4.665 -0.5159  0.0515  0.3001
 4881SOL    HW126105   0.323   0.471   4.666 -0.0585  0.5889 -1.6544
 4881SOL    HW226106   0.356   0.338   4.720  0.5203 -0.7841 -0.0140
 4882SOL     OW26107   4.051   4.291   9.031 -0.0755 -0.0727  0.0822
 4882SOL    HW126108   4.069   4.199   9.013 -0.4631  0.3341 -2.4672
 4882SOL    HW226109   4.092   4.334   8.956 -2.4205  0.3646 -0.9724
 4883SOL     OW26110   3.005   2.503   8.979  0.3211  0.0628  0.2054
 4883SOL    HW126111   2.957   2.452   9.045  0.4506  1.4839  1.4034
 4883SOL    HW226112   3.097   2.486   9.002  0.8783  1.5459 -0.9582
 4884SOL     OW26113   4.450   3.086   2.760  0.0670  0.5362  0.0513
 4884SOL    HW126114   4.515   3.092   2.831 -1.9288 -1.4189  2.0593
 4884SOL    HW226115   4.436   2.993   2.775  1.4337  0.2309 -0.5713
 4885SOL     OW26116   3.991   0.819   9.310  0.1796  0.4851  0.6698
 4885SOL    HW126117   3.946   0.890   9.356 -0.3116  0.3470  0.3965
 4885SOL    HW226118   3.938   0.747   9.344 -0.1316  0.1288 -0.5834
 4886SOL     OW26119   1.393   4.139   8.993 -0.0643  0.1445 -0.3267
 4886SOL    HW126120   1.484   4.169   8.991  0.1524 -0.4062  1.3882
 4886SOL    HW226121   1.341   4.220   8.988  0.2395  0.2634 -1.5469
 4887SOL     OW26122   1.747   3.678   3.192 -0.2856  0.5528 -0.2022
 4887SOL    HW126123   1.773   3.702   3.103  0.2913  1.3223  0.1709
 4887SOL    HW226124   1.830   3.684   3.241  0.1225 -0.4964 -0.7682
 4888SOL     OW26125   2.547   4.629   2.662  0.2708 -0.0524 -0.2563
 4888SOL    HW126126   2.493   4.651   2.586 -1.9123  0.3463  1.4055
 4888SOL    HW226127   2.498   4.563   2.711  0.2377  0.6742  0.6856
 4889SOL     OW26128   4.279   1.604  17.154 -0.5123  0.4863  0.3019
 4889SOL    HW126129   4.370   1.604  17.184 -0.2066 -0.0014 -0.6226
 4889SOL    HW226130   4.236   1.546  17.218 -2.2523  0.5451 -0.8131
 4890SOL     OW26131   1.465   3.752   8.657 -0.0385  0.0805  0.2520
 4890SOL    HW126132   1.433   3.686   8.595  1.2135 -0.9965  0.7465
 4890SOL    HW226133   1.532   3.709   8.711 -0.0198  0.2112  0.3318
 4891SOL     OW26134   2.143   0.646   5.138  0.7421 -0.4915  0.1921
 4891SOL    HW126135   2.054   0.624   5.165  0.1187 -0.0542 -1.5067
 4891SOL    HW226136   2.117   0.692   5.058 -0.5917 -0.3721  0.6980
 4892SOL     OW26137   0.202   4.063   2.589 -0.7092 -0.1338 -0.5121
 4892SOL    HW126138   0.250   4.080   2.670  1.0872  1.1953 -1.8379
 4892SOL    HW226139   0.259   4.107   2.525 -2.4716  2.6478 -0.1497
 4893SOL     OW26140   4.043   2.407  16.247 -0.0862  0.2604  0.2191
 4893SOL    HW126141   3.973   2.470  16.236  0.2901  0.8709  1.2660
 4893SOL    HW226142   4.092   2.449  16.318  0.1723  1.8720 -0.9143
 4894SOL     OW26143   4.156   3.571   5.655 -0.2451  0.4646 -0.1101
 4894SOL    HW126144   4.143   3.665   5.661 -4.2346 -0.0986  0.0909
 4894SOL    HW226145   4.097   3.535   5.721 -0.9738 -0.6822 -1.3925
 4895SOL     OW26146   0.499   1.233   9.681  0.3981 -0.3011  0.4771
 4895SOL    HW126147   0.524   1.150   9.641 -1.4747 -0.0874 -1.1576
 4895SOL    HW226148   0.406   1.229   9.657  0.8097  0.0970 -1.1883
 4896SOL     OW26149   4.131   1.108   5.675  0.1464  0.4925  0.9702
 4896SOL    HW126150   4.086   1.024   5.671  1.1535 -0.0920  2.0672
 4896SOL    HW226151   4.075   1.169   5.627  2.9992  0.9699 -1.7785
 4897SOL     OW26152   4.457   0.490  13.854  0.0180 -0.1191 -0.0905
 4897SOL    HW126153   4.457   0.396  13.873  3.2508 -0.2404 -0.5789
 4897SOL    HW226154   4.370   0.501  13.817 -0.1367 -0.2756  0.2244
 4898SOL     OW26155   3.627   1.122   1.547 -0.9439 -0.1045 -0.3163
 4898SOL    HW126156   3.708   1.086   1.510 -1.0619 -3.5924  2.7817
 4898SOL    HW226157   3.569   1.065   1.495  0.9923 -0.8610 -1.6397
 4899SOL     OW26158   2.196   3.609   7.112 -0.3495 -0.0127 -0.1211
 4899SOL    HW126159   2.195   3.616   7.017  2.1794  0.9641 -0.0857
 4899SOL    HW226160   2.250   3.531   7.121  3.6486  2.3000 -3.9652
 4900SOL     OW26161   3.742   1.678   4.909 -0.1432  0.2493  0.1817
 4900SOL    HW126162   3.668   1.650   4.962  0.2942  1.2202  1.3136
 4900SOL    HW226163   3.740   1.763   4.952 -0.7170  0.5695 -0.4883
 4901SOL     OW26164   3.946   2.505   3.372  0.0552  0.3430  0.2285
 4901SOL    HW126165   3.907   2.539   3.292  2.8885 -1.2112 -1.8201
 4901SOL    HW226166   3.861   2.480   3.407  0.5257 -0.7379  0.6186
 4902SOL     OW26167   1.821   1.497   9.649  0.0193  0.3829 -0.4571
 4902SOL    HW126168   1.848   1.429   9.587 -0.6562 -0.1719 -0.1542
 4902SOL    HW226169   1.862   1.573   9.609 -0.3756  1.2506  0.7715
 4903SOL     OW26170   1.125   1.105  17.589 -0.2676  0.0222  0.9543
 4903SOL    HW126171   1.083   1.162  17.524  0.1382  1.4851  1.9794
 4903SOL    HW226172   1.103   1.161  17.663  0.7819  1.1945  0.3962
 4904SOL     OW26173   0.339   2.227  10.500 -0.0170 -0.1288 -0.1713
 4904SOL    HW126174   0.353   2.304  10.446  1.8998 -1.0075 -0.9163
 4904SOL    HW226175   0.303   2.261  10.582  0.2916 -0.7790  0.2305
 4905SOL     OW26176   0.677   2.136  14.676 -0.0820  0.1742  0.1455
 4905SOL    HW126177   0.591   2.105  14.648 -0.8617  2.4684 -0.0169
 4905SOL    HW226178   0.649   2.179  14.756 -0.2119 -0.9985  0.7231
 4906SOL     OW26179   1.163   1.804   7.377  0.4067  0.4238  0.0749
 4906SOL    HW126180   1.111   1.822   7.299  0.4284 -1.1980 -0.3212
 4906SOL    HW226181   1.251   1.792   7.339 -0.0533 -1.2219 -0.5015
 4907SOL     OW26182   3.572   1.727   2.777 -0.7782  0.0806  0.0350
 4907SOL    HW126183   3.561   1.649   2.723  2.3002 -0.7672  0.6201
 4907SOL    HW226184   3.508   1.719   2.848  0.6563 -1.0710  1.2043
 4908SOL     OW26185   0.003   3.456   6.564 -0.4960 -0.5483 -0.2990
 4908SOL    HW126186   0.068   3.413   6.508  0.6890  0.0289  0.6371
 4908SOL    HW226187   0.010   3.415   6.650 -0.9063 -0.5523 -0.2682
 4909SOL     OW26188   0.563   4.264  15.268  0.2942  0.4218  0.2150
 4909SOL    HW126189   0.651   4.228  15.275  0.0933  0.0264  0.6729
 4909SOL    HW226190   0.531   4.199  15.206  1.6485 -0.2339  0.2055
 4910SOL     OW26191   4.006   3.369  14.318  0.1343 -0.2808  0.2389
 4910SOL    HW126192   3.920   3.375  14.359 -0.2433 -0.3296 -0.5449
 4910SOL    HW226193   3.993   3.277  14.294  0.3681 -0.8639  2.3529
 4911SOL     OW26194   1.532   3.236   3.138  0.4268  0.6717  0.4248
 4911SOL    HW126195   1.483   3.285   3.072 -0.3969 -0.8095 -0.0391
 4911SOL    HW226196   1.558   3.156   3.093 -2.0881  0.8695 -1.3712
 4912SOL     OW26197   2.344   1.202   6.867 -0.1663  0.1762  0.1486
 4912SOL    HW126198   2.406   1.274   6.858  2.0723 -1.4525  2.7886
 4912SOL    HW226199   2.323   1.208   6.960 -2.7510  0.8406 -0.4813
 4913SOL     OW26200   2.489   3.110  12.913 -0.3155 -0.1251 -0.0948
 4913SOL    HW126201   2.436   3.031  12.902  1.1570 -1.2495  0.8615
 4913SOL    HW226202   2.544   3.089  12.988 -0.1126 -1.0669 -0.5131
 4914SOL     OW26203   1.621   1.248   2.654 -1.0191  0.5387  0.0915
 4914SOL    HW126204   1.534   1.237   2.690 -1.9302  2.1467 -1.6304
 4914SOL    HW226205   1.605   1.213   2.566 -1.4144  0.9200  0.0153
 4915SOL     OW26206   0.847   2.627  10.021  0.1510  0.0640  0.1995
 4915SOL    HW126207   0.772   2.568  10.025 -0.2455  0.6450  1.2950
 4915SOL    HW226208   0.850   2.677  10.103  3.7929  1.0829 -0.5612
 4916SOL     OW26209   1.438   2.528   2.557 -0.1417 -0.2000 -0.9450
 4916SOL    HW126210   1.383   2.454   2.583  1.2318 -0.7793  0.2846
 4916SOL    HW226211   1.391   2.568   2.484 -1.6763 -0.1181  0.0853
 4917SOL     OW26212   3.391   2.097   6.573 -0.1135  0.3004 -0.1405
 4917SOL    HW126213   3.387   2.004   6.553 -0.8639  0.1706  0.6208
 4917SOL    HW226214   3.448   2.129   6.503 -0.9482  0.8459 -0.5753
 4918SOL     OW26215   1.437   2.520   9.583  0.3510 -0.0818 -0.2498
 4918SOL    HW126216   1.350   2.500   9.617  0.8795  0.3271  1.3453
 4918SOL    HW226217   1.488   2.440   9.595  0.8918  0.5517  1.7785
 4919SOL     OW26218   0.424   0.606   5.518  0.0382  0.0093 -0.0645
 4919SOL    HW126219   0.507   0.624   5.475  0.3481  0.3186  0.6708
 4919SOL    HW226220   0.375   0.685   5.495 -2.6218 -2.1085 -1.6832
 4920SOL     OW26221   3.447   1.921   4.116  0.2999  0.0214  0.4113
 4920SOL    HW126222   3.392   1.854   4.077 -1.8927  1.5723  0.8657
 4920SOL    HW226223   3.534   1.931   4.078  0.3687 -0.7757  0.3644
 4921SOL     OW26224   0.826   4.375   2.588 -0.1293 -0.1283  0.1175
 4921SOL    HW126225   0.811   4.338   2.675 -0.1454 -2.4911 -0.8930
 4921SOL    HW226226   0.767   4.325   2.533  0.5215 -2.8219  1.8723
 4922SOL     OW26227   3.717   4.247  14.769  0.1261 -0.3686  0.0041
 4922SOL    HW126228   3.805   4.265  14.803 -0.1706 -1.2577  1.2091
 4922SOL    HW226229   3.727   4.172  14.711  1.4339  0.1600 -0.4605
 4923SOL     OW26230   3.324   2.987   1.362 -0.7491 -0.2973 -0.0842
 4923SOL    HW126231   3.293   3.015   1.449  1.2637 -1.2320  0.9415
 4923SOL    HW226232   3.276   2.904   1.357 -0.2211 -0.6888  1.1752
 4924SOL     OW26233   1.171   0.638   2.817 -0.3553 -0.4446  0.3960
 4924SOL    HW126234   1.200   0.711   2.762  0.8943 -0.8457  0.5305
 4924SOL    HW226235   1.234   0.573   2.788 -0.1270 -0.3281  0.6320
 4925SOL     OW26236   0.629   3.686   4.453  0.1363 -0.6459  0.0793
 4925SOL    HW126237   0.621   3.633   4.373  1.0424 -1.5046  0.5621
 4925SOL    HW226238   0.722   3.682   4.474  0.3471 -2.2441 -1.2054
 4926SOL     OW26239   4.019   4.207   4.460  0.0380  0.2090  0.4312
 4926SOL    HW126240   4.096   4.262   4.468 -0.7352  1.1662  1.4357
 4926SOL    HW226241   3.952   4.264   4.499  0.5554  1.1107 -0.0214
 4927SOL     OW26242   3.302   0.062   6.184  0.2849 -1.1001 -0.2647
 4927SOL    HW126243   3.227   0.061   6.243  0.5474  1.5517  0.1416
 4927SOL    HW226244   3.311   4.693   6.177 -3.2495 -1.6506  2.5092
 4928SOL     OW26245   1.782   1.244   8.683  0.1706  0.6724  0.3541
 4928SOL    HW126246   1.864   1.220   8.726 -0.9890 -1.7651  1.2275
 4928SOL    HW226247   1.787   1.179   8.613 -0.0741 -0.8493  1.7557
 4929SOL     OW26248   3.542   3.438   8.823  0.0665  0.0270 -0.2243
 4929SOL    HW126249   3.515   3.530   8.812 -4.2734 -1.3018 -0.5391
 4929SOL    HW226250   3.627   3.454   8.865  0.0648 -2.5570  0.7271
 4930SOL     OW26251   1.671   0.031  10.730  0.0636 -0.2153 -0.3728
 4930SOL    HW126252   1.687   0.006  10.822  2.2600  0.1656 -0.6475
 4930SOL    HW226253   1.621   0.111  10.743 -0.7741 -0.9243  0.7736
 4931SOL     OW26254   1.024   2.441   5.258 -0.3944  0.0360 -0.5535
 4931SOL    HW126255   1.092   2.471   5.198  0.8076 -0.2908  0.6682
 4931SOL    HW226256   1.004   2.524   5.302  1.2233 -0.3622  0.9260
 4932SOL     OW26257   3.445   0.577  12.713  0.0087 -0.0243 -0.1033
 4932SOL    HW126258   3.521   0.632  12.694 -1.0377  1.1902 -0.8469
 4932SOL    HW226259   3.483   0.489  12.710  1.2159  0.4967 -0.0646
 4933SOL     OW26260   1.632   0.929  10.081 -0.2612 -0.0930 -0.1683
 4933SOL    HW126261   1.693   0.981  10.134  0.4681 -0.9243 -0.1958
 4933SOL    HW226262   1.660   0.841  10.107  1.5910  0.6798  0.4744
 4934SOL     OW26263   3.865   1.428   2.197  0.0811 -0.3255 -0.7444
 4934SOL    HW126264   3.928   1.465   2.134  1.4486  1.1020  1.4597
 4934SOL    HW226265   3.913   1.359   2.242  2.5628  1.9839  0.1851
 4935SOL     OW26266   1.559   0.931   6.812 -0.6468  0.0745  0.6983
 4935SOL    HW126267   1.541   1.007   6.868 -1.5519  0.4092 -0.0460
 4935SOL    HW226268   1.645   0.902   6.844  1.5106  3.5520 -1.8392
 4936SOL     OW26269   0.901   0.866   7.765 -0.0437  0.5587  0.2568
 4936SOL    HW126270   0.862   0.805   7.828 -0.7531 -0.6804 -1.3831
 4936SOL    HW226271   0.947   0.805   7.707  0.2694  0.6293  0.4338
 4937SOL     OW26272   3.719   2.649   2.422  0.0173  0.4053  0.1000
 4937SOL    HW126273   3.751   2.667   2.511 -0.7820 -0.2417  0.5131
 4937SOL    HW226274   3.799   2.647   2.370 -1.5036  2.8517 -2.3363
 4938SOL     OW26275   2.511   1.572   0.244  0.7230 -0.4400 -0.2949
 4938SOL    HW126276   2.421   1.604   0.239  1.0325  1.1710  4.6121
 4938SOL    HW226277   2.500   1.483   0.277  0.5819 -0.3288 -0.0442
 4939SOL     OW26278   3.032   2.082   3.150  0.3358  0.1032  0.2099
 4939SOL    HW126279   3.093   2.063   3.222 -0.4125 -0.9505  0.5596
 4939SOL    HW226280   3.089   2.137   3.096 -0.9653  1.2441  0.0180
 4940SOL     OW26281   1.283   0.435  10.510  0.4911  0.0418 -0.6454
 4940SOL    HW126282   1.342   0.466  10.578  1.4257 -0.7836 -1.0834
 4940SOL    HW226283   1.335   0.460  10.433  2.8387 -0.2424  0.8721
 4941SOL     OW26284   1.163   1.006   5.889 -0.6985 -0.4397  0.5359
 4941SOL    HW126285   1.118   0.989   5.972 -0.4717  0.2789  0.8051
 4941SOL    HW226286   1.222   1.078   5.912 -0.5041 -0.6482  0.6829
 4942SOL     OW26287   2.729   2.500   7.418 -0.5479 -0.2291 -0.5586
 4942SOL    HW126288   2.728   2.508   7.513 -1.2702  1.5947 -0.7025
 4942SOL    HW226289   2.654   2.551   7.386 -2.6609 -1.5513  2.3613
 4943SOL     OW26290   1.967   1.544   6.658 -0.5144  0.0063  0.3085
 4943SOL    HW126291   2.033   1.484   6.622 -0.8164  0.1618 -0.5100
 4943SOL    HW226292   1.989   1.627   6.617 -0.3010 -0.5661 -0.7579
 4944SOL     OW26293   1.665   2.406   3.446  0.3416 -0.0234  0.2692
 4944SOL    HW126294   1.679   2.486   3.394 -1.2098 -0.8219 -1.3794
 4944SOL    HW226295   1.745   2.364   3.414  0.2022 -0.1465  0.0819
 4945SOL     OW26296   2.248   0.885   3.720  0.4441 -0.2930  0.0829
 4945SOL    HW126297   2.282   0.877   3.631 -1.1146  2.3002 -0.7435
 4945SOL    HW226298   2.270   0.971   3.756  0.7278  0.8572 -2.8165
 4946SOL     OW26299   1.286   0.056   9.681  0.1504 -0.3462  0.3340
 4946SOL    HW126300   1.334   0.128   9.721  0.3299  0.0220 -0.5471
 4946SOL    HW226301   1.326   0.055   9.594 -0.3479 -1.8945  0.1155
 4947SOL     OW26302   0.841   3.522   1.010 -0.1145 -0.2026  0.1019
 4947SOL    HW126303   0.899   3.527   1.086 -0.4632  1.9917  0.2181
 4947SOL    HW226304   0.754   3.504   1.044  0.5709 -3.6439 -0.0209
 4948SOL     OW26305   4.383   2.830   7.752 -0.1133 -0.1875 -0.2691
 4948SOL    HW126306   4.416   2.746   7.720 -0.4964 -0.3412 -0.2604
 4948SOL    HW226307   4.373   2.865   7.663 -1.7321  0.3854  0.1452
 4949SOL     OW26308   4.248   4.494   5.693  0.2310 -0.3388  0.0152
 4949SOL    HW126309   4.209   4.543   5.621 -0.0436  1.5301  1.4389
 4949SOL    HW226310   4.258   4.563   5.759 -0.8679  0.9415 -1.1457
 4950SOL     OW26311   2.633   1.743   6.168  0.0917  0.4474  0.0910
 4950SOL    HW126312   2.579   1.665   6.163  0.2494  0.3675 -0.4003
 4950SOL    HW226313   2.583   1.819   6.198 -1.7581 -0.1126 -1.6504
 4951SOL     OW26314   3.870   0.465   8.171 -0.0068  0.4344  0.1397
 4951SOL    HW126315   3.815   0.453   8.248 -1.1060  0.2921 -0.6648
 4951SOL    HW226316   3.830   0.543   8.132  2.3861  0.8350 -1.5710
 4952SOL     OW26317   2.956   3.672   9.479  0.5056  0.1430 -0.4703
 4952SOL    HW126318   2.961   3.577   9.489  0.4747  0.0532 -1.3553
 4952SOL    HW226319   3.034   3.687   9.426  0.7034 -1.9321 -0.7395
 4953SOL     OW26320   2.967   1.078   1.000  0.0960 -0.0854  0.5411
 4953SOL    HW126321   3.059   1.096   0.981  0.2093 -2.3984 -1.0841
 4953SOL    HW226322   2.955   0.995   0.954 -2.1340  1.1771 -1.2043
 4954SOL     OW26323   2.665   0.260  13.359 -0.3721 -0.3602  0.0264
 4954SOL    HW126324   2.641   0.327  13.295  1.0598  1.0934  0.9969
 4954SOL    HW226325   2.751   0.293  13.384  0.2596 -1.8131 -0.2580
 4955SOL     OW26326   3.955   2.137   5.598 -0.8139  0.0287 -0.2841
 4955SOL    HW126327   4.003   2.105   5.522 -1.7065 -0.5316 -0.6130
 4955SOL    HW226328   3.970   2.231   5.610 -0.5155 -0.2410  1.4666
 4956SOL     OW26329   4.650   3.377  13.629  0.9191 -0.0738 -0.1354
 4956SOL    HW126330   0.008   3.334  13.648  1.4628  1.8163  1.6854
 4956SOL    HW226331   4.636   3.364  13.535  1.2107 -3.2543  0.2370
 4957SOL     OW26332   0.014   0.492   8.734 -0.2759  0.4049 -0.3261
 4957SOL    HW126333   0.010   0.459   8.824  0.3535  0.0384 -0.4321
 4957SOL    HW226334   0.109   0.489   8.727 -0.0192 -0.6393  3.5034
 4958SOL     OW26335   1.440   3.817   8.274  0.1244 -0.0328  0.4170
 4958SOL    HW126336   1.534   3.802   8.273  0.6182  3.1458 -1.9159
 4958SOL    HW226337   1.399   3.746   8.324 -1.0162  0.4979  0.2494
 4959SOL     OW26338   3.613   2.965   7.422 -0.4307  0.2156 -0.4076
 4959SOL    HW126339   3.577   2.933   7.339  1.5141 -2.4319 -0.2617
 4959SOL    HW226340   3.532   2.974   7.470  0.1454  1.4129  0.3275
 4960SOL     OW26341   1.783   4.072   7.457 -0.3073 -0.0220 -0.1289
 4960SOL    HW126342   1.795   4.156   7.412  0.9298  0.4911  1.1573
 4960SOL    HW226343   1.812   4.107   7.542 -0.7831 -0.1525  0.0856
 4961SOL     OW26344   0.199   3.228   8.904 -0.4987 -0.0300  0.0511
 4961SOL    HW126345   0.132   3.178   8.951 -0.1404  0.8601  1.5315
 4961SOL    HW226346   0.270   3.167   8.928 -2.2331 -1.9156  0.4286
 4962SOL     OW26347   0.709   1.777   3.259 -0.2002 -0.9808  0.1587
 4962SOL    HW126348   0.794   1.801   3.220  0.0229  0.9901  1.8599
 4962SOL    HW226349   0.697   1.859   3.307 -0.5699 -0.1712 -1.3176
 4963SOL     OW26350   1.408   0.124   3.820  0.0024 -0.3917  0.1381
 4963SOL    HW126351   1.323   0.082   3.807  0.4361 -0.4679 -2.3928
 4963SOL    HW226352   1.380   0.212   3.845 -2.1035 -0.8186 -0.7171
 4964SOL     OW26353   0.300   2.812   4.019 -0.6203 -0.2863 -0.1478
 4964SOL    HW126354   0.267   2.883   3.963  0.0223  1.0132  1.1411
 4964SOL    HW226355   0.389   2.815   3.985 -0.2702  0.5463  0.8425
 4965SOL     OW26356   1.132   3.021   9.120  0.1692 -0.2710 -0.0520
 4965SOL    HW126357   1.216   2.983   9.144 -0.1258 -0.8802 -0.0042
 4965SOL    HW226358   1.092   2.937   9.139 -1.1003  0.1599 -0.8563
 4966SOL     OW26359   0.653   4.153  13.101  0.9117 -0.3427  0.2109
 4966SOL    HW126360   0.592   4.085  13.070  0.7607 -0.8451  1.6100
 4966SOL    HW226361   0.626   4.171  13.191  0.9276  0.4901  0.0499
 4967SOL     OW26362   1.796   4.193   8.630  0.0367  0.5667  0.1585
 4967SOL    HW126363   1.715   4.142   8.624  0.1925  0.2442  0.7951
 4967SOL    HW226364   1.818   4.162   8.718 -0.7256 -0.7921 -0.1351
 4968SOL     OW26365   1.372   3.367   9.225  0.3558 -0.2476 -0.7831
 4968SOL    HW126366   1.309   3.327   9.164  1.6440 -1.5274 -1.2827
 4968SOL    HW226367   1.386   3.298   9.290  1.1270  0.6910  0.0355
 4969SOL     OW26368   0.678   0.633   4.019  0.3689  0.4159  0.4290
 4969SOL    HW126369   0.596   0.582   4.020 -0.3747  1.5857 -1.6840
 4969SOL    HW226370   0.736   0.572   4.065 -0.0931  0.1302  0.6374
 4970SOL     OW26371   2.222   3.890   3.257 -0.2184 -0.1658 -0.2356
 4970SOL    HW126372   2.285   3.938   3.204 -1.6444  1.7207 -0.1965
 4970SOL    HW226373   2.190   3.817   3.204  1.7349 -1.9986  1.1012
 4971SOL     OW26374   2.521   3.724   0.686  0.0985 -0.0695 -0.5228
 4971SOL    HW126375   2.458   3.670   0.639 -0.1581 -1.2577  1.2033
 4971SOL    HW226376   2.475   3.734   0.769  1.3939 -0.2780  0.2062
 4972SOL     OW26377   3.896   4.055   0.416 -0.4533  0.0341 -0.3387
 4972SOL    HW126378   3.837   4.129   0.399  0.0349  1.4140  3.7423
 4972SOL    HW226379   3.898   4.058   0.512  1.7518  0.8988 -0.4237
 4973SOL     OW26380   3.956   2.281  12.943  0.5038  0.4378  0.5023
 4973SOL    HW126381   3.882   2.332  12.976 -0.3732 -0.1883 -0.5076
 4973SOL    HW226382   3.979   2.238  13.026 -1.6808  0.3888  1.0971
 4974SOL     OW26383   4.393   1.636   4.087 -0.1905 -0.0777  0.4988
 4974SOL    HW126384   4.425   1.560   4.038 -0.6397  1.8768 -2.8183
 4974SOL    HW226385   4.351   1.700   4.029 -0.1816 -1.7555 -1.3600
 4975SOL     OW26386   4.167   3.740   1.406  0.6605 -0.2502 -0.8235
 4975SOL    HW126387   4.169   3.647   1.426  0.4525 -0.2512 -0.8041
 4975SOL    HW226388   4.148   3.782   1.490  0.4401  0.7907 -1.3829
 4976SOL     OW26389   1.035   0.570   4.191 -0.0094  0.3591 -0.1241
 4976SOL    HW126390   1.012   0.507   4.259  0.5605 -0.6265 -0.8464
 4976SOL    HW226391   1.130   0.581   4.198  0.3004 -1.8303 -1.0922
 4977SOL     OW26392   4.402   4.202   8.731 -0.2713  0.0971 -0.2932
 4977SOL    HW126393   4.358   4.276   8.773  0.2818  0.5269 -0.4635
 4977SOL    HW226394   4.481   4.184   8.782  1.0166  0.0083 -2.2964
 4978SOL     OW26395   0.027   1.355   5.600 -0.1101 -0.6464  0.4570
 4978SOL    HW126396   0.067   1.400   5.675 -1.2880  1.4975 -0.2121
 4978SOL    HW226397   0.103   1.307   5.567  0.1673  0.2660 -0.2171
 4979SOL     OW26398   3.854   3.537   7.491  0.3529  0.5040  0.1252
 4979SOL    HW126399   3.931   3.592   7.499 -0.1750  1.2113  0.3512
 4979SOL    HW226400   3.886   3.465   7.545 -0.1864 -0.3490 -0.6684
 4980SOL     OW26401   2.757   3.105   8.912 -0.1269  0.4787 -0.3743
 4980SOL    HW126402   2.734   3.034   8.971  1.3063  0.9085  0.7033
 4980SOL    HW226403   2.807   3.161   8.972  0.6516 -0.4197 -0.1774
 4981SOL     OW26404   4.004   0.885   2.363 -0.3554 -0.4174 -0.4066
 4981SOL    HW126405   4.034   0.840   2.283  0.9195  0.3543 -0.3603
 4981SOL    HW226406   3.916   0.847   2.362 -0.6228  0.1622  0.9249
 4982SOL     OW26407   4.496   4.548   1.827 -0.0239 -0.2671 -0.2941
 4982SOL    HW126408   4.449   4.465   1.836 -1.2277  0.5849  1.3419
 4982SOL    HW226409   4.512   4.544   1.733  0.6691 -1.5697 -0.1264
 4983SOL     OW26410   4.561   3.572   3.120 -0.0157 -0.5374  0.2566
 4983SOL    HW126411   4.567   3.479   3.144 -1.5353 -0.7315 -0.1472
 4983SOL    HW226412   4.596   3.575   3.031  1.6897 -2.4043  0.8617
 4984SOL     OW26413   3.752   1.486   5.824  0.0912 -0.5300 -0.2567
 4984SOL    HW126414   3.820   1.553   5.824 -0.5544  0.1252  2.0751
 4984SOL    HW226415   3.686   1.548   5.795  0.3935 -0.4892 -0.8697
 4985SOL     OW26416   2.256   1.991   5.018 -0.1056 -0.0643 -0.3909
 4985SOL    HW126417   2.343   1.980   4.981  0.1761  0.1538  0.2133
 4985SOL    HW226418   2.245   1.898   5.037 -0.9183 -0.0961 -0.9748
 4986SOL     OW26419   4.683   2.042   3.169 -0.2294  0.1263  0.4702
 4986SOL    HW126420   4.676   2.113   3.232  1.2505  0.9526 -0.3068
 4986SOL    HW226421   0.049   2.051   3.144 -0.6410  2.7183 -0.0351
 4987SOL     OW26422   3.471   0.611   5.113 -0.5423 -0.2344 -0.3220
 4987SOL    HW126423   3.423   0.635   5.034 -0.7666  1.8254  0.4238
 4987SOL    HW226424   3.556   0.647   5.087 -0.9032  0.6557 -0.2689
 4988SOL     OW26425   3.613   3.056   7.763 -0.2990 -0.1991 -0.0119
 4988SOL    HW126426   3.569   3.124   7.711 -0.9293  0.0213  0.8181
 4988SOL    HW226427   3.672   3.106   7.819 -0.9266  1.3608 -0.7168
 4989SOL     OW26428   1.203   1.176   2.477 -0.9046 -0.7752 -0.7939
 4989SOL    HW126429   1.294   1.154   2.457 -0.4402  1.5882 -1.2950
 4989SOL    HW226430   1.165   1.090   2.464  1.9966 -1.9441 -1.4745
 4990SOL     OW26431   3.298   3.370   1.213  0.7856  0.8075 -0.2671
 4990SOL    HW126432   3.335   3.383   1.300  1.4180 -0.0554 -0.4049
 4990SOL    HW226433   3.375   3.371   1.156  0.2435  1.4458 -0.9915
 4991SOL     OW26434   0.509   2.787   2.710  0.3402 -0.4263  0.5965
 4991SOL    HW126435   0.594   2.744   2.718  1.3386  1.0916 -1.7266
 4991SOL    HW226436   0.464   2.722   2.656  0.0541  2.3185 -2.5027
 4992SOL     OW26437   0.256   3.549   1.943  0.3159  0.1637 -0.1826
 4992SOL    HW126438   0.195   3.476   1.952  0.5272  0.0030 -0.0720
 4992SOL    HW226439   0.295   3.534   1.857  0.2808  1.2979 -0.3943
 4993SOL     OW26440   4.662   1.738  15.565 -0.2511 -0.0513 -0.3471
 4993SOL    HW126441   4.678   1.695  15.649  0.1771  1.4040  0.3270
 4993SOL    HW226442   0.023   1.778  15.554 -1.1152  0.6105 -4.6337
 4994SOL     OW26443   1.375   0.919  10.011  0.3494  0.2381  0.1449
 4994SOL    HW126444   1.461   0.957  10.029  0.2649  1.1037 -1.2472
 4994SOL    HW226445   1.343   0.914  10.101  0.3663  1.1687  0.2042
 4995SOL     OW26446   0.759   1.399   9.368  0.2451  0.0493  0.3578
 4995SOL    HW126447   0.824   1.333   9.394  1.8492  1.0680 -1.0659
 4995SOL    HW226448   0.762   1.392   9.273 -0.8216  0.1842  0.3154
 4996SOL     OW26449   4.079   2.356   0.653 -0.6884  0.2441  0.1254
 4996SOL    HW126450   4.159   2.407   0.666 -2.0764  2.2872  0.6282
 4996SOL    HW226451   4.113   2.266   0.651  1.1000  0.8172  3.5252
 4997SOL     OW26452   3.204   3.872   7.237  0.0617  0.8694 -0.2437
 4997SOL    HW126453   3.127   3.909   7.195  0.6571  1.8321 -0.5006
 4997SOL    HW226454   3.266   3.945   7.229  0.2346  0.4754 -2.4510
 4998SOL     OW26455   0.706   3.280   5.730  0.8650 -0.2506 -0.1558
 4998SOL    HW126456   0.671   3.366   5.753  0.1040 -0.7653  0.6362
 4998SOL    HW226457   0.677   3.226   5.804 -0.6157 -1.1830 -1.4087
 4999SOL     OW26458   3.443   4.077   6.411 -0.4507 -0.4670 -0.7963
 4999SOL    HW126459   3.461   4.076   6.317 -0.4191  1.6104 -0.8308
 4999SOL    HW226460   3.501   4.014   6.453 -1.1833 -0.0765  0.8045
 5000SOL     OW26461   2.825   3.134  15.329 -0.0014 -0.0108  0.2999
 5000SOL    HW126462   2.863   3.096  15.250 -3.2903 -1.6608 -0.4939
 5000SOL    HW226463   2.889   3.204  15.339  0.2918 -0.2253 -0.0780
 5001SOL     OW26464   4.022   2.978   1.895  0.1080  0.1827 -0.8022
 5001SOL    HW126465   3.979   2.902   1.935 -0.0541 -0.7358 -2.7465
 5001SOL    HW226466   4.115   2.957   1.910 -0.1541 -0.1351  0.4097
 5002SOL     OW26467   1.116   2.890   0.255 -0.1589  0.0730 -0.3869
 5002SOL    HW126468   1.209   2.914   0.254 -0.8433  2.7689 -1.0061
 5002SOL    HW226469   1.094   2.928   0.340 -2.0624 -1.2565 -0.2984
 5003SOL     OW26470   0.464   1.399   8.631  0.0637 -0.2667 -0.3295
 5003SOL    HW126471   0.516   1.422   8.708 -1.4372  0.5935  0.4219
 5003SOL    HW226472   0.384   1.394   8.683  1.5074 -4.8842  1.4229
 5004SOL     OW26473   1.272   3.101   4.133 -0.2815  1.2456 -0.3049
 5004SOL    HW126474   1.331   3.079   4.205 -1.7171  0.7073  0.7110
 5004SOL    HW226475   1.332   3.149   4.076 -0.5623 -0.2136 -1.8450
 5005SOL     OW26476   1.479   2.052   6.105  0.3246  0.6795 -0.0503
 5005SOL    HW126477   1.465   1.965   6.142  0.4207  0.6469 -0.0901
 5005SOL    HW226478   1.503   2.033   6.014 -1.0503 -0.0872 -0.2566
 5006SOL     OW26479   3.304   4.586  15.350 -0.4028  0.0296  0.6131
 5006SOL    HW126480   3.370   4.637  15.396  1.6961 -3.0060  0.9368
 5006SOL    HW226481   3.309   4.605  15.256  0.8668  0.9931  0.8755
 5007SOL     OW26482   1.529   2.771   6.208  0.4904  0.3017 -0.0777
 5007SOL    HW126483   1.481   2.755   6.127 -0.4237  0.4796  0.4280
 5007SOL    HW226484   1.515   2.687   6.252  3.1552  0.3193  0.8053
 5008SOL     OW26485   4.137   2.175  10.802  0.0817  0.3583  0.4466
 5008SOL    HW126486   4.221   2.210  10.774  0.5186 -0.1010  1.1873
 5008SOL    HW226487   4.151   2.174  10.897 -2.3297 -0.4938  0.7951
 5009SOL     OW26488   0.671   4.215  15.739  0.2908  0.2596  0.1963
 5009SOL    HW126489   0.663   4.264  15.657  0.6547 -0.4348 -0.2588
 5009SOL    HW226490   0.707   4.287  15.791 -2.1053  0.9507  0.9003
 5010SOL     OW26491   2.189   0.174   1.540  0.0557  0.4234  0.0962
 5010SOL    HW126492   2.195   0.240   1.608  0.3305  0.2696  0.2167
 5010SOL    HW226493   2.228   0.224   1.468  0.8629  0.8911  0.8600
 5011SOL     OW26494   2.140   1.770   3.542  0.3485 -0.0153 -0.5611
 5011SOL    HW126495   2.167   1.705   3.478  0.4475 -1.1366  0.6217
 5011SOL    HW226496   2.045   1.756   3.539  0.8915 -3.4312 -1.4056
 5012SOL     OW26497   2.269   1.991   1.882  0.2624  0.1944  0.1856
 5012SOL    HW126498   2.243   2.075   1.843 -1.0637 -0.3235 -0.0387
 5012SOL    HW226499   2.276   1.933   1.806  0.0937 -0.4117  0.6344
 5013SOL     OW26500   3.885   1.186   2.793 -0.1055  0.6293  0.0344
 5013SOL    HW126501   3.954   1.249   2.772 -0.9336  1.0038 -1.4993
 5013SOL    HW226502   3.892   1.140   2.710  0.3362 -1.0180  0.9972
 5014SOL     OW26503   1.781   1.135   5.475  0.4670 -0.5467 -0.0660
 5014SOL    HW126504   1.717   1.127   5.405  1.6581 -3.0820 -0.8521
 5014SOL    HW226505   1.727   1.115   5.552  1.7387 -1.6624  0.5420
 5015SOL     OW26506   3.370   2.469   6.592 -0.1598  0.6038  0.1735
 5015SOL    HW126507   3.446   2.425   6.630 -0.8464  0.6300  1.5649
 5015SOL    HW226508   3.370   2.554   6.637 -0.8708  0.6990 -0.0044
 5016SOL     OW26509   3.090   2.786   1.388  0.1964  0.1091 -0.5810
 5016SOL    HW126510   3.052   2.869   1.357 -0.3231  0.0780 -0.0304
 5016SOL    HW226511   3.140   2.762   1.310  2.8103  2.6157  0.3082
 5017SOL     OW26512   2.998   0.397  11.417  0.5100 -0.1843 -0.4421
 5017SOL    HW126513   2.986   0.357  11.503  1.3496  0.4541 -0.0174
 5017SOL    HW226514   3.074   0.455  11.427  1.4625 -1.4219 -0.3542
 5018SOL     OW26515   3.193   4.524   4.527  0.0733 -0.1172 -0.5056
 5018SOL    HW126516   3.121   4.484   4.479 -1.1740  2.3300 -0.6873
 5018SOL    HW226517   3.163   4.495   4.613 -0.9887 -0.7193 -1.0957
 5019SOL     OW26518   4.550   0.214  15.036  0.0481  0.5155  0.6849
 5019SOL    HW126519   4.568   0.208  15.130 -0.8993  3.4148  1.0476
 5019SOL    HW226520   4.630   0.261  15.011  0.7371 -2.5792 -3.0883
 5020SOL     OW26521   2.017   3.270   2.460 -0.8065  0.3092  0.0440
 5020SOL    HW126522   2.095   3.313   2.426  0.8421 -2.5374  0.2132
 5020SOL    HW226523   1.953   3.338   2.479 -1.8330 -0.1869 -1.6306
 5021SOL     OW26524   3.031   2.108   2.380 -0.4037  0.3601  0.5296
 5021SOL    HW126525   2.962   2.060   2.335 -0.5226 -0.3107  1.4263
 5021SOL    HW226526   3.107   2.075   2.331  0.2283  2.2423  0.2209
 5022SOL     OW26527   3.048   0.479   9.956  0.6791 -0.1379  0.2132
 5022SOL    HW126528   3.058   0.473  10.051  1.3815  0.1917  0.1538
 5022SOL    HW226529   3.044   0.573   9.940 -1.4261 -0.1190  0.7726
 5023SOL     OW26530   2.129   0.458  16.299  0.1405 -0.1908 -0.0911
 5023SOL    HW126531   2.112   0.414  16.216 -0.0132  1.0466 -0.7012
 5023SOL    HW226532   2.145   0.545  16.264  0.4569 -0.2315 -0.0424
 5024SOL     OW26533   4.050   4.718   9.047  1.1290 -1.0247 -0.6652
 5024SOL    HW126534   3.967   4.690   9.009  0.2877  0.9716 -0.3033
 5024SOL    HW226535   4.032   0.014   9.138  2.8184  2.3241 -1.1266
 5025SOL     OW26536   3.927   1.670   5.814 -0.4068 -0.4582 -0.3106
 5025SOL    HW126537   3.951   1.671   5.907 -1.9202 -0.7665  0.0981
 5025SOL    HW226538   3.935   1.763   5.793 -2.3247  0.0600  1.1554
 5026SOL     OW26539   1.902   3.059   9.101  0.1066 -0.1013  0.1632
 5026SOL    HW126540   1.901   3.109   9.020  0.9186  0.6282  0.6065
 5026SOL    HW226541   1.997   3.053   9.094  0.0461 -1.1089  0.1621
 5027SOL     OW26542   3.380   0.673   5.715  1.0642  0.0185 -0.1811
 5027SOL    HW126543   3.403   0.671   5.808 -0.8813 -0.3236  0.2777
 5027SOL    HW226544   3.427   0.592   5.698  4.6608  2.2954 -1.1573
 5028SOL     OW26545   3.072   3.049   2.651 -0.0802  0.0394 -0.3122
 5028SOL    HW126546   3.001   2.989   2.673  0.2043 -0.2209 -0.1029
 5028SOL    HW226547   3.049   3.126   2.704 -0.1994 -0.7163  0.7309
 5029SOL     OW26548   0.439   1.554   4.895  0.3295  0.4645  0.2580
 5029SOL    HW126549   0.412   1.646   4.891 -0.8586  0.1449  0.6787
 5029SOL    HW226550   0.400   1.532   4.810  1.7734 -0.3315 -0.1958
 5030SOL     OW26551   1.745   2.786  13.481  0.7892 -0.4444 -0.2579
 5030SOL    HW126552   1.823   2.834  13.454  1.3973 -1.7273 -0.7779
 5030SOL    HW226553   1.779   2.699  13.503  0.9212  0.1575  1.8900
 5031SOL     OW26554   0.120   1.945   3.794 -0.3076 -0.0723  0.0457
 5031SOL    HW126555   0.107   2.034   3.760  2.5254  0.8108  1.2843
 5031SOL    HW226556   0.215   1.941   3.790 -0.1883  1.8576  0.8324
 5032SOL     OW26557   0.260   0.654   3.825 -0.0446 -0.5278 -0.0023
 5032SOL    HW126558   0.211   0.678   3.904  0.3638 -0.1988  0.1517
 5032SOL    HW226559   0.200   0.625   3.756  1.4099 -2.1868 -0.5505
 5033SOL     OW26560   2.133   3.010   3.655  0.7319  0.4188 -0.4662
 5033SOL    HW126561   2.220   3.039   3.630  1.5668 -2.8714 -1.3634
 5033SOL    HW226562   2.132   3.054   3.740 -2.5061  0.4944 -0.5353
 5034SOL     OW26563   0.201   0.791   8.926  0.2713  0.4839 -0.1466
 5034SOL    HW126564   0.193   0.866   8.868  0.0921  0.2941 -0.3653
 5034SOL    HW226565   0.279   0.743   8.896 -0.5012 -2.0878  1.9108
 5035SOL     OW26566   3.353   0.877   5.269 -0.0643 -0.5214 -0.7253
 5035SOL    HW126567   3.321   0.792   5.242 -1.0718  0.6260 -3.1167
 5035SOL    HW226568   3.277   0.918   5.310  0.0436 -0.9717 -0.0665
 5036SOL     OW26569   3.716   1.137   6.836  0.2387 -0.0248  0.9936
 5036SOL    HW126570   3.669   1.178   6.763  1.6974  1.2226  0.7561
 5036SOL    HW226571   3.768   1.079   6.780 -2.4193 -1.5265  0.0624
 5037SOL     OW26572   3.387   2.887   9.947 -0.4517  0.7878 -0.1673
 5037SOL    HW126573   3.446   2.853  10.013  0.2291 -1.4947 -1.9563
 5037SOL    HW226574   3.426   2.974   9.938  2.0109 -0.1091  2.0947
 5038SOL     OW26575   3.367   0.047   9.061 -0.1105 -0.3230 -0.3362
 5038SOL    HW126576   3.278   0.024   9.036 -0.1954  0.0688 -0.3958
 5038SOL    HW226577   3.380   4.700   9.122  2.5922  2.9588  2.9560
 5039SOL     OW26578   3.071   3.276   7.953  0.4915 -0.1910 -0.1040
 5039SOL    HW126579   3.114   3.356   7.984 -0.5882  0.2596  0.2403
 5039SOL    HW226580   3.079   3.281   7.857  0.5556  2.8958  0.0471
 5040SOL     OW26581   3.218   1.700  15.087 -0.5131  0.2689 -0.3158
 5040SOL    HW126582   3.282   1.768  15.069  0.5899 -0.9714 -1.0417
 5040SOL    HW226583   3.265   1.647  15.151 -2.0211  0.4160  0.9147
 5041SOL     OW26584   1.045   2.245   5.021 -0.6532  0.3158  0.5103
 5041SOL    HW126585   1.071   2.318   4.964  0.9136  0.9646  2.0422
 5041SOL    HW226586   1.008   2.290   5.097 -0.1048  0.2945  0.7933
 5042SOL     OW26587   1.721   3.197   5.457  0.2876  0.3747  0.3656
 5042SOL    HW126588   1.687   3.162   5.374 -2.3842  0.5365  1.4051
 5042SOL    HW226589   1.657   3.266   5.474  0.1838 -0.3856  2.9700
 5043SOL     OW26590   1.092   4.617   4.278 -0.1207  0.4988  0.7199
 5043SOL    HW126591   1.116   4.551   4.212  0.1079 -0.4570  1.7685
 5043SOL    HW226592   1.174   4.667   4.283  1.1319 -1.6670  1.3757
 5044SOL     OW26593   2.081   0.090   5.174  0.0635  0.1461 -0.1210
 5044SOL    HW126594   2.145   0.019   5.178  0.6494  0.6997  0.3463
 5044SOL    HW226595   2.042   0.097   5.261 -0.0419 -1.7034 -0.0303
 5045SOL     OW26596   3.490   3.216   5.233 -0.1456 -0.0007  0.5035
 5045SOL    HW126597   3.583   3.197   5.245  0.1424  1.2328  0.1933
 5045SOL    HW226598   3.488   3.288   5.296  0.2783  0.6052 -0.1752
 5046SOL     OW26599   0.121   0.355   3.047 -0.0298 -0.0275  0.1038
 5046SOL    HW126600   0.128   0.361   2.952 -1.6623  1.1184  0.0502
 5046SOL    HW226601   0.060   0.428   3.062  1.4678  1.1752  0.2586
 5047SOL     OW26602   0.042   0.955   3.139  0.2239  0.0480  0.1519
 5047SOL    HW126603   0.048   1.051   3.130  0.0683  0.1050  0.6434
 5047SOL    HW226604   0.052   0.928   3.048 -0.1335 -0.9716  0.4258
 5048SOL     OW26605   3.248   1.503   4.514 -0.3378  0.0931  0.0139
 5048SOL    HW126606   3.171   1.449   4.535  0.8777 -0.8236  2.0858
 5048SOL    HW226607   3.317   1.439   4.530 -0.5297 -0.9453 -3.2251
 5049SOL     OW26608   3.201   3.346  13.498  0.1408 -0.8644 -0.5174
 5049SOL    HW126609   3.111   3.322  13.477 -1.0766  0.3807  3.2854
 5049SOL    HW226610   3.218   3.404  13.424  1.0295 -0.2765  0.1454
 5050SOL     OW26611   4.025   2.216   0.927  0.6489  0.3440  0.5861
 5050SOL    HW126612   4.098   2.193   0.869  1.7440 -0.0562  2.1260
 5050SOL    HW226613   3.982   2.131   0.929 -0.3575  0.8252 -0.5776
 5051SOL     OW26614   1.299   0.023  12.368  0.2537  0.6844 -0.1773
 5051SOL    HW126615   1.263   4.662  12.388 -0.0006  0.8623  0.1239
 5051SOL    HW226616   1.378   0.019  12.423 -0.2012  0.4271  0.4553
 5052SOL     OW26617   0.712   3.730   6.764 -0.2193  0.6713  0.9626
 5052SOL    HW126618   0.712   3.646   6.810 -0.4261 -0.7742 -1.6859
 5052SOL    HW226619   0.776   3.773   6.820 -0.7493  2.1450  0.4332
 5053SOL     OW26620   1.988   4.218   5.142  0.0398 -0.2636 -0.3251
 5053SOL    HW126621   2.073   4.259   5.157 -0.9402  1.4162  0.6770
 5053SOL    HW226622   1.932   4.289   5.173  0.7039  0.1956 -0.1874
 5054SOL     OW26623   4.200   1.407   8.164  0.3342 -0.0052  0.3065
 5054SOL    HW126624   4.177   1.338   8.102 -0.2832  1.3622 -0.9966
 5054SOL    HW226625   4.215   1.359   8.245  1.5708 -1.5253 -0.8252
 5055SOL     OW26626   2.673   0.446   4.194 -0.4392 -0.1549  0.3713
 5055SOL    HW126627   2.685   0.500   4.116  1.5000  0.8149  1.3430
 5055SOL    HW226628   2.763   0.422   4.213 -0.3101  0.7750  0.9427
 5056SOL     OW26629   0.833   2.891   4.496  0.4652 -0.3655  0.3804
 5056SOL    HW126630   0.866   2.901   4.407  0.9473 -0.7010  0.5202
 5056SOL    HW226631   0.800   2.801   4.492  1.0738 -0.5462 -0.7103
 5057SOL     OW26632   1.212   1.896  17.313  0.0710 -0.0167 -0.6540
 5057SOL    HW126633   1.294   1.886  17.265  0.3752  1.7637 -0.5038
 5057SOL    HW226634   1.165   1.957  17.256 -3.3378 -1.9493  0.0421
 5058SOL     OW26635   3.409   0.861  10.890  1.0502  0.1334  0.1320
 5058SOL    HW126636   3.452   0.786  10.930  1.1915 -0.8640 -1.8648
 5058SOL    HW226637   3.453   0.866  10.805  0.7926  1.5873  0.0789
 5059SOL     OW26638   1.754   2.090   6.157 -0.3944  0.1101 -0.3099
 5059SOL    HW126639   1.813   2.127   6.092 -0.1534  1.2289  0.5452
 5059SOL    HW226640   1.665   2.101   6.123  0.4318  1.0641 -2.1465
 5060SOL     OW26641   3.560   1.748   9.586 -0.7930  0.3023 -0.2700
 5060SOL    HW126642   3.501   1.777   9.656  0.6070  1.3583  0.4743
 5060SOL    HW226643   3.529   1.796   9.509  0.5858  0.2653 -0.8426
 5061SOL     OW26644   4.626   3.600   3.565  0.4392 -0.6723  0.3281
 5061SOL    HW126645   4.674   3.601   3.648  0.9951 -0.7134  0.0053
 5061SOL    HW226646   4.544   3.639   3.595  0.6258 -0.2713  0.3158
 5062SOL     OW26647   4.481   2.560   4.077  0.5244  0.1099  0.2590
 5062SOL    HW126648   4.419   2.531   4.010  1.1392  3.1838 -1.6623
 5062SOL    HW226649   4.420   2.568   4.149  0.1777  0.1946 -0.0445
 5063SOL     OW26650   2.924   2.940  12.302  0.1434 -0.3967  0.2233
 5063SOL    HW126651   3.010   2.927  12.262  1.2330  1.3515  2.0229
 5063SOL    HW226652   2.945   2.970  12.390  0.2464 -0.8047  0.3375
 5064SOL     OW26653   4.156   4.259   5.792  0.3621  0.5558  0.4499
 5064SOL    HW126654   4.176   4.351   5.777  0.8203  0.1043 -1.6512
 5064SOL    HW226655   4.106   4.266   5.874  1.3560  2.5640  0.8961
 5065SOL     OW26656   3.362   3.250   7.431 -0.1339 -0.1545 -0.4830
 5065SOL    HW126657   3.376   3.162   7.465  1.1660  0.3768  0.3438
 5065SOL    HW226658   3.413   3.246   7.351  0.9583  1.0767  0.1543
 5066SOL     OW26659   2.271   4.558  16.328 -0.1101 -0.2588 -0.3812
 5066SOL    HW126660   2.201   4.588  16.269  0.6851  0.0080 -1.1945
 5066SOL    HW226661   2.321   4.639  16.329 -1.4430  0.6136 -2.6790
 5067SOL     OW26662   1.835   2.608   1.252  0.6833 -0.0568  0.3315
 5067SOL    HW126663   1.834   2.704   1.247  0.3481 -0.1446 -1.4655
 5067SOL    HW226664   1.747   2.593   1.287  0.4179 -0.5577 -0.5445
 5068SOL     OW26665   4.363   2.882   7.499 -0.2034 -0.4594 -0.4913
 5068SOL    HW126666   4.424   2.827   7.449  1.0796  1.1833 -0.7058
 5068SOL    HW226667   4.305   2.910   7.428  0.6059  0.7050 -0.6959
 5069SOL     OW26668   2.789   4.406   6.723  0.5686  0.3003 -0.2767
 5069SOL    HW126669   2.759   4.382   6.636  1.9559  1.3923 -1.0573
 5069SOL    HW226670   2.799   4.317   6.757  1.0089 -0.3402 -2.1185
 5070SOL     OW26671   0.071   1.542   0.022  0.0462 -0.0996  0.7301
 5070SOL    HW126672   0.127   1.615   0.049 -1.5984  1.0342  1.0508
 5070SOL    HW226673   4.709   1.577   0.039 -0.3411 -0.7695  0.1354
 5071SOL     OW26674   2.439   4.657   7.818  0.5371  0.4648  0.2185
 5071SOL    HW126675   2.427   0.001   7.753 -1.7241 -0.0194  0.1198
 5071SOL    HW226676   2.394   4.709   7.885 -0.9452  0.9785 -1.1786
 5072SOL     OW26677   1.976   0.982   3.186  0.1166  0.0832  0.2145
 5072SOL    HW126678   1.983   0.960   3.279  0.5449  0.0964  0.1858
 5072SOL    HW226679   1.924   0.914   3.143  1.1890 -0.4378 -0.2805
 5073SOL     OW26680   4.319   2.354   9.759  0.1240 -0.5933  0.0580
 5073SOL    HW126681   4.340   2.358   9.853  1.8753  0.4436 -0.3658
 5073SOL    HW226682   4.345   2.443   9.732 -0.9737 -0.2409  0.1732
 5074SOL     OW26683   0.761   0.085   7.530 -0.3229 -0.0911  0.5972
 5074SOL    HW126684   0.670   0.060   7.541 -0.5833  0.2331 -0.8256
 5074SOL    HW226685   0.755   0.162   7.473  1.5876 -1.0584 -0.9200
 5075SOL     OW26686   1.659   3.479   6.589  0.5649  0.5845  0.2710
 5075SOL    HW126687   1.736   3.483   6.533 -0.5977  0.7779 -1.3004
 5075SOL    HW226688   1.703   3.471   6.674 -1.6827 -1.4805  1.2547
 5076SOL     OW26689   1.035   0.070   7.565  0.0980  0.0879 -0.1736
 5076SOL    HW126690   0.989   0.082   7.649  0.8231 -2.7322  0.5962
 5076SOL    HW226691   0.965   0.071   7.499  0.6093 -0.4612 -0.7122
 5077SOL     OW26692   0.720   1.870  16.680  0.0851  0.0528 -0.2428
 5077SOL    HW126693   0.808   1.865  16.642 -0.3696  2.4804 -1.6768
 5077SOL    HW226694   0.657   1.883  16.609 -1.1513 -1.2198  0.6274
 5078SOL     OW26695   2.088   3.362   3.721  0.0196 -0.6313  0.2583
 5078SOL    HW126696   2.095   3.328   3.632  0.1717 -1.0203  0.4205
 5078SOL    HW226697   2.153   3.305   3.762  1.7695  1.6694  0.6881
 5079SOL     OW26698   3.503   2.350   1.070 -0.3056 -0.0434 -0.1705
 5079SOL    HW126699   3.505   2.296   1.149  0.0798 -0.1858 -0.2771
 5079SOL    HW226700   3.417   2.390   1.083 -0.4960 -0.7039  0.6044
 5080SOL     OW26701   2.229   0.890   4.646 -1.0379  0.5614  0.4572
 5080SOL    HW126702   2.158   0.870   4.586  0.9848 -4.7604 -0.1413
 5080SOL    HW226703   2.299   0.867   4.586 -2.6394 -1.1136 -0.7429
 5081SOL     OW26704   0.196   3.110   6.010 -0.0795  0.7973 -0.2685
 5081SOL    HW126705   0.149   3.028   5.999 -0.6308  0.8985  1.2887
 5081SOL    HW226706   0.242   3.104   5.926  0.5524 -1.0627  0.2130
 5082SOL     OW26707   4.605   1.257  15.887 -0.2309  0.2998 -0.0934
 5082SOL    HW126708   4.589   1.295  15.801  0.6587 -0.7242 -0.7036
 5082SOL    HW226709   4.696   1.232  15.868 -0.2209  0.6041 -0.4631
 5083SOL     OW26710   2.171   2.814   6.309 -0.3523  0.0189 -0.0470
 5083SOL    HW126711   2.225   2.816   6.230 -1.8996  0.1418 -1.1051
 5083SOL    HW226712   2.087   2.818   6.264  0.0903  1.4115 -0.7326
 5084SOL     OW26713   2.131   3.405   9.228 -0.7734  0.1323  0.2799
 5084SOL    HW126714   2.177   3.398   9.312  0.1615 -0.3472 -0.2719
 5084SOL    HW226715   2.046   3.367   9.252 -1.2747  0.4133 -1.0478
 5085SOL     OW26716   2.923   3.270  10.365 -0.7410 -0.0440  0.1170
 5085SOL    HW126717   2.937   3.256  10.272  2.0677  0.4680  0.4441
 5085SOL    HW226718   2.828   3.279  10.364 -0.7955 -0.2831  2.1243
 5086SOL     OW26719   4.449   0.393   8.782  0.3188  0.4409 -0.3453
 5086SOL    HW126720   4.378   0.455   8.770  0.5205  0.3902 -1.8160
 5086SOL    HW226721   4.407   0.313   8.814 -0.0146  0.5648 -0.4680
 5087SOL     OW26722   3.784   1.135  11.646 -0.0893  0.4946 -0.4025
 5087SOL    HW126723   3.800   1.117  11.739 -0.5604 -0.5077 -0.5199
 5087SOL    HW226724   3.873   1.161  11.621 -0.0261 -1.0249 -1.7701
 5088SOL     OW26725   2.539   2.391   4.550  0.4392 -0.2183 -0.5839
 5088SOL    HW126726   2.497   2.470   4.518  1.6810  0.2686 -1.0292
 5088SOL    HW226727   2.586   2.367   4.471  1.8905  0.0807  0.1720
 5089SOL     OW26728   0.861   2.545   7.063 -0.0252  0.0411  0.0844
 5089SOL    HW126729   0.820   2.474   7.014  2.9449 -1.1736 -0.6236
 5089SOL    HW226730   0.954   2.526   7.056 -0.1951 -0.7955  0.0685
 5090SOL     OW26731   4.553   4.501   4.550  0.3361 -0.6406 -0.6855
 5090SOL    HW126732   4.474   4.547   4.579  0.9321  1.6363 -2.6443
 5090SOL    HW226733   4.613   4.521   4.621 -1.9022 -0.3489  1.1149
 5091SOL     OW26734   0.868   1.897  10.593  0.2781 -0.3352  0.4388
 5091SOL    HW126735   0.897   1.928  10.679 -0.7134 -0.9984  1.0158
 5091SOL    HW226736   0.952   1.863  10.563  0.9107 -1.5183  3.5315
 5092SOL     OW26737   0.378   1.887   3.352  0.8719  0.5249 -0.7001
 5092SOL    HW126738   0.468   1.904   3.381  0.9893 -0.4430 -0.4979
 5092SOL    HW226739   0.382   1.933   3.268  0.5912  0.0787 -0.9638
 5093SOL     OW26740   0.110   1.991   6.709  0.2715  0.8028 -0.1929
 5093SOL    HW126741   0.056   1.922   6.671  2.9522 -0.9715 -0.7594
 5093SOL    HW226742   0.166   2.014   6.635  1.5002  0.0382  0.5076
 5094SOL     OW26743   4.295   3.355   8.032  0.1067  0.2956 -0.1374
 5094SOL    HW126744   4.278   3.381   7.941  1.1189  0.6817 -0.2270
 5094SOL    HW226745   4.272   3.263   8.034  0.1414  0.2542 -1.3479
 5095SOL     OW26746   0.537   3.555   7.371  0.0384  0.2633 -0.6277
 5095SOL    HW126747   0.455   3.524   7.331 -1.4015  0.9484  1.7850
 5095SOL    HW226748   0.506   3.576   7.459  1.3794  3.0446 -0.8177
 5096SOL     OW26749   0.442   0.479   2.736  0.0225  0.4361 -0.3946
 5096SOL    HW126750   0.516   0.465   2.676 -0.0765  0.5049 -0.5324
 5096SOL    HW226751   0.423   0.567   2.705 -0.5640  0.8914  1.2590
 5097SOL     OW26752   0.134   2.257   9.395  0.1890 -0.3496 -0.0616
 5097SOL    HW126753   0.104   2.213   9.474  1.9517 -1.5473 -0.0658
 5097SOL    HW226754   0.176   2.187   9.346 -1.1397 -1.6350  0.6512
 5098SOL     OW26755   3.543   3.172   9.257 -0.0159  0.4384  0.5595
 5098SOL    HW126756   3.561   3.078   9.249 -2.0667  0.1633 -0.9754
 5098SOL    HW226757   3.472   3.177   9.192  0.7250  0.4588 -0.2450
 5099SOL     OW26758   3.001   2.339   4.786  0.0721 -0.1240 -0.7339
 5099SOL    HW126759   3.047   2.307   4.863 -0.1974 -0.6362 -0.7842
 5099SOL    HW226760   3.055   2.329   4.708  0.3576  0.8838 -0.6650
 5100SOL     OW26761   3.605   2.842   7.978  0.2825 -0.4759  0.3410
 5100SOL    HW126762   3.589   2.936   7.981  0.8569 -0.3496 -0.3245
 5100SOL    HW226763   3.533   2.812   8.032 -1.1872  0.5289 -1.0551
 5101SOL     OW26764   0.162   3.876   5.200  0.1336 -0.0576 -0.1218
 5101SOL    HW126765   0.072   3.857   5.175  0.0462  0.2093 -0.0039
 5101SOL    HW226766   0.171   3.966   5.170  1.1196  0.2770  1.2016
 5102SOL     OW26767   4.166   1.239  14.718  0.4438 -0.4017  0.2949
 5102SOL    HW126768   4.203   1.218  14.633  2.0776  1.0474  0.6514
 5102SOL    HW226769   4.157   1.151  14.755 -0.3797 -0.5942 -0.3605
 5103SOL     OW26770   2.336   1.666   5.726 -0.2354  0.2226 -0.5250
 5103SOL    HW126771   2.424   1.694   5.700  0.8410 -0.1398  2.6864
 5103SOL    HW226772   2.342   1.571   5.728  2.0526  0.4478  2.8395
 5104SOL     OW26773   1.098   0.789   5.287  0.2098 -0.0317 -0.6858
 5104SOL    HW126774   1.187   0.779   5.320  0.7463  2.3510 -1.4106
 5104SOL    HW226775   1.096   0.885   5.288 -0.2332 -0.0037 -3.2577
 5105SOL     OW26776   1.695   1.757   0.977  0.1131 -0.5954 -0.1371
 5105SOL    HW126777   1.750   1.679   0.989  0.8415 -0.2330 -1.0709
 5105SOL    HW226778   1.609   1.717   0.964 -1.0374  2.4002 -1.9292
 5106SOL     OW26779   2.318   1.803   4.287  0.1213 -0.0699  0.4944
 5106SOL    HW126780   2.412   1.798   4.267  0.2563  0.0852  1.0856
 5106SOL    HW226781   2.310   1.741   4.359  1.2490  0.0286  0.7054
 5107SOL     OW26782   2.816   0.723   7.699  0.5831 -0.0257  0.4557
 5107SOL    HW126783   2.768   0.658   7.750 -2.8056  1.6294 -0.6352
 5107SOL    HW226784   2.855   0.785   7.760  1.1534 -0.7687  0.8420
 5108SOL     OW26785   1.736   3.354   2.768  0.1808  0.1444  0.0779
 5108SOL    HW126786   1.703   3.264   2.767  0.8359 -0.0686 -2.1328
 5108SOL    HW226787   1.748   3.377   2.676  1.2410  0.8674  0.3947
 5109SOL     OW26788   3.142   0.572   2.805  0.8796  0.1287  0.1897
 5109SOL    HW126789   3.148   0.534   2.717  1.6643 -1.7881  1.0610
 5109SOL    HW226790   3.222   0.624   2.812  1.6353 -1.1501  1.0470
 5110SOL     OW26791   3.689   2.890   6.180  0.2629 -0.2984 -0.4225
 5110SOL    HW126792   3.638   2.915   6.256 -1.0803 -0.4251 -1.2891
 5110SOL    HW226793   3.760   2.828   6.200 -0.9913 -1.3619  0.7029
 5111SOL     OW26794   2.902   0.502   5.599 -0.2181  0.0364  0.2542
 5111SOL    HW126795   2.918   0.423   5.651  0.2888 -0.6665 -0.9668
 5111SOL    HW226796   2.985   0.548   5.604 -0.2800  0.0526  1.0612
 5112SOL     OW26797   0.138   0.153   4.522  0.1620  0.5793  0.1766
 5112SOL    HW126798   0.137   0.142   4.427 -1.9357 -0.8769  0.3552
 5112SOL    HW226799   0.193   0.079   4.550 -1.0430 -0.2674  0.3183
 5113SOL     OW26800   3.425   0.515   8.495 -0.0729  0.0983 -0.5361
 5113SOL    HW126801   3.441   0.608   8.510 -2.1917  0.4004 -0.1421
 5113SOL    HW226802   3.389   0.511   8.406 -0.9083  0.3805 -0.2078
 5114SOL     OW26803   0.724   4.361   8.666  0.1003 -0.1823 -0.6093
 5114SOL    HW126804   0.742   4.384   8.575  1.8584 -1.2513 -0.5232
 5114SOL    HW226805   0.680   4.442   8.692  0.9074  0.2962 -0.7535
 5115SOL     OW26806   2.502   0.530   3.936  0.0089 -0.2093  0.5797
 5115SOL    HW126807   2.490   0.482   4.018 -0.5641 -0.9943  0.0371
 5115SOL    HW226808   2.502   0.620   3.970 -0.7233  0.1979 -0.5195
 5116SOL     OW26809   4.193   1.184  12.461 -0.0555 -0.7609 -0.1544
 5116SOL    HW126810   4.240   1.266  12.447  0.7257 -1.4154 -1.4212
 5116SOL    HW226811   4.201   1.149  12.372  4.5210 -0.3240  0.1179
 5117SOL     OW26812   1.624   4.272  14.722 -0.2307 -0.3529  0.2163
 5117SOL    HW126813   1.545   4.312  14.758 -0.0645 -1.0093  1.2936
 5117SOL    HW226814   1.617   4.188  14.769 -2.3461  1.2923  2.8424
 5118SOL     OW26815   4.356   3.777   0.788  0.7720  0.4624  0.0745
 5118SOL    HW126816   4.319   3.754   0.873  2.2677  0.1945  0.6526
 5118SOL    HW226817   4.367   3.872   0.793  1.2759  0.5321 -2.5194
 5119SOL     OW26818   3.077   0.471   1.697 -0.8954  0.2317  0.4190
 5119SOL    HW126819   3.163   0.472   1.740  0.0027  1.7401 -1.4185
 5119SOL    HW226820   3.017   0.427   1.757 -1.6834 -1.3878 -1.5597
 5120SOL     OW26821   2.356   2.462   4.252 -0.5384  0.0809  0.0651
 5120SOL    HW126822   2.267   2.479   4.223 -1.1756  0.5975  2.2645
 5120SOL    HW226823   2.416   2.511   4.196 -1.0288 -0.0486 -0.5616
 5121SOL     OW26824   4.386   1.433   3.328  0.5077 -0.4489 -0.2755
 5121SOL    HW126825   4.347   1.517   3.306 -0.1500 -0.3330  1.3132
 5121SOL    HW226826   4.470   1.431   3.283 -1.5402  0.0177 -4.1604
 5122SOL     OW26827   4.119   1.782   4.417  0.4697  0.6136 -0.2933
 5122SOL    HW126828   4.098   1.858   4.362  0.7667  1.0744  0.2381
 5122SOL    HW226829   4.044   1.780   4.476  0.6783 -1.4204 -0.0895
 5123SOL     OW26830   3.223   1.389   2.431  0.0517  0.3939 -0.3901
 5123SOL    HW126831   3.268   1.328   2.489 -2.6917  0.3758  1.7068
 5123SOL    HW226832   3.270   1.390   2.348 -0.4646 -0.4614 -0.6949
 5124SOL     OW26833   2.096   4.406  14.754 -0.7182 -0.0990 -0.0829
 5124SOL    HW126834   2.085   4.356  14.674 -0.2706 -0.8538  0.3302
 5124SOL    HW226835   2.181   4.373  14.783 -0.5937  1.7586  1.7030
 5125SOL     OW26836   0.884   3.836   6.549 -0.1667 -0.3247 -0.1065
 5125SOL    HW126837   0.878   3.741   6.559 -0.2263 -0.3489 -0.3671
 5125SOL    HW226838   0.828   3.860   6.622  0.4169  0.2570  0.1426
 5126SOL     OW26839   3.983   4.026  13.640 -0.0851 -0.2590 -0.2934
 5126SOL    HW126840   4.069   4.027  13.596 -0.0252 -0.6143 -0.1867
 5126SOL    HW226841   3.921   4.036  13.568  0.7509  0.1749 -0.9645
 5127SOL     OW26842   4.688   1.355   7.453  0.0819  0.3485  0.1830
 5127SOL    HW126843   4.673   1.439   7.498  0.1265  0.1494  0.5660
 5127SOL    HW226844   4.688   1.400   7.368  0.3479 -0.0521 -0.0308
 5128SOL     OW26845   2.608   1.402  14.801  0.5252  0.1477  0.4720
 5128SOL    HW126846   2.650   1.459  14.736 -0.4741  1.5410  1.0440
 5128SOL    HW226847   2.573   1.334  14.743 -1.5607  0.8853  0.8577
 5129SOL     OW26848   2.626   0.798   4.298  0.2805  0.2818 -0.4583
 5129SOL    HW126849   2.711   0.841   4.301 -0.3219  1.5782 -1.8647
 5129SOL    HW226850   2.654   0.715   4.337  0.9929 -0.0449 -1.6377
 5130SOL     OW26851   3.583   1.158   9.545 -0.2449  0.0409  0.2624
 5130SOL    HW126852   3.588   1.253   9.535  0.1777 -0.1828 -1.7111
 5130SOL    HW226853   3.571   1.151   9.640  0.1319  0.9959  0.3785
 5131SOL     OW26854   0.252   4.322   7.572  0.5820  0.1193  0.2497
 5131SOL    HW126855   0.292   4.337   7.486 -1.3298  0.7142 -0.5348
 5131SOL    HW226856   0.232   4.229   7.556  2.1365 -0.5745  2.3746
 5132SOL     OW26857   2.681   4.587   6.443 -0.2867 -0.2873  0.3294
 5132SOL    HW126858   2.621   4.646   6.396  2.0934  1.8404 -0.0043
 5132SOL    HW226859   2.627   4.528   6.496 -1.7764 -1.2455 -2.2408
 5133SOL     OW26860   1.647   3.586   4.810  0.3286 -0.1496  0.1629
 5133SOL    HW126861   1.701   3.665   4.808  1.6168 -1.0074  0.4736
 5133SOL    HW226862   1.662   3.572   4.904  3.2663  0.1858 -0.2641
 5134SOL     OW26863   1.766   3.652   6.091 -0.1671  0.6242  0.2321
 5134SOL    HW126864   1.693   3.592   6.104 -1.0656  1.3024 -1.7613
 5134SOL    HW226865   1.806   3.610   6.015 -0.4522  1.0007 -0.1253
 5135SOL     OW26866   4.417   1.393  10.753  0.5953  0.2969  0.1485
 5135SOL    HW126867   4.371   1.410  10.671  0.3322 -3.1455 -0.4511
 5135SOL    HW226868   4.512   1.403  10.741  0.7828 -1.5888 -0.0034
 5136SOL     OW26869   3.580   0.551  14.394  0.5593  0.0626  0.1202
 5136SOL    HW126870   3.643   0.624  14.399  1.0502 -0.2910 -0.8733
 5136SOL    HW226871   3.550   0.530  14.482  0.6325 -1.3820 -0.1980
 5137SOL     OW26872   1.337   2.908   2.418 -0.2094 -0.1246 -0.3540
 5137SOL    HW126873   1.294   2.950   2.493  0.5613  0.3143 -0.1645
 5137SOL    HW226874   1.425   2.898   2.455 -0.7137  0.0717  0.9209
 5138SOL     OW26875   3.117   0.932   4.535  0.2515  0.3053  0.1398
 5138SOL    HW126876   3.105   0.927   4.630 -0.6288 -2.1601 -0.1249
 5138SOL    HW226877   3.058   1.006   4.518  0.0859  0.2662  0.5687
 5139SOL     OW26878   1.765   2.590   4.151  0.4656  0.1395  0.0321
 5139SOL    HW126879   1.804   2.600   4.237 -0.1602 -4.0135  0.7940
 5139SOL    HW226880   1.683   2.625   4.185 -1.1698 -1.3902 -2.2783
 5140SOL     OW26881   2.336   1.485  15.768 -0.4973  0.0061  0.1194
 5140SOL    HW126882   2.379   1.450  15.846 -0.0868  1.2489  0.4518
 5140SOL    HW226883   2.360   1.422  15.701  1.5186  1.5005 -0.5689
 5141SOL     OW26884   1.286   2.767   0.899  0.9699 -0.6944  0.1328
 5141SOL    HW126885   1.223   2.826   0.939 -0.1504 -1.9994  0.2864
 5141SOL    HW226886   1.322   2.822   0.829 -0.4461  0.5073  0.3622
 5142SOL     OW26887   3.110   4.337   2.307  0.4284  0.1303  0.8030
 5142SOL    HW126888   3.157   4.310   2.386  1.5130  1.0251  0.4638
 5142SOL    HW226889   3.020   4.312   2.327  0.9144 -1.0356  1.5312
 5143SOL     OW26890   3.432   2.445   2.768 -0.3601  0.1475 -0.4990
 5143SOL    HW126891   3.451   2.353   2.751 -0.3459  0.2664 -1.1193
 5143SOL    HW226892   3.513   2.481   2.730  0.1386  0.2016  0.6004
 5144SOL     OW26893   0.043   4.012  11.916 -0.0532 -0.3184 -0.3117
 5144SOL    HW126894   0.008   4.029  11.828  0.4466  1.1595 -0.2231
 5144SOL    HW226895   4.706   3.941  11.932 -0.1527 -0.6833 -2.3157
 5145SOL     OW26896   3.229   0.753  10.645 -0.2482  0.0577  0.0712
 5145SOL    HW126897   3.323   0.767  10.631  0.0369 -1.2925  0.5744
 5145SOL    HW226898   3.231   0.736  10.740  1.7165 -0.5267 -0.0647
 5146SOL     OW26899   3.928   4.461   9.214 -0.1826 -0.1651  0.3263
 5146SOL    HW126900   3.984   4.415   9.151  0.9824  1.2075  0.3629
 5146SOL    HW226901   3.970   4.545   9.233  0.2930 -0.0708 -1.1506
 5147SOL     OW26902   2.119   1.874  12.719 -0.6400  0.1436 -0.0750
 5147SOL    HW126903   2.111   1.787  12.758  1.7776  0.2848  0.7284
 5147SOL    HW226904   2.098   1.924  12.798  0.7891 -0.5094  0.7152
 5148SOL     OW26905   0.585   1.958  15.587 -0.0096 -0.3064  0.1114
 5148SOL    HW126906   0.541   2.025  15.639  0.3742  0.1195 -0.1053
 5148SOL    HW226907   0.507   1.909  15.560 -1.4627  1.0233  1.9185
 5149SOL     OW26908   0.083   4.586   6.444 -0.1603 -0.2017  0.2657
 5149SOL    HW126909   0.104   4.679   6.455  0.5168 -0.1892 -1.1712
 5149SOL    HW226910   0.164   4.542   6.471 -0.7534 -1.3687  0.1082
 5150SOL     OW26911   0.126   0.507   0.222 -0.3594 -0.0280  0.8082
 5150SOL    HW126912   0.157   0.421   0.193 -0.7349 -0.0341  0.4294
 5150SOL    HW226913   0.172   0.513   0.306  0.5020  1.3884  0.2368
 5151SOL     OW26914   3.907   3.869   7.291 -0.8347  0.0082 -0.0235
 5151SOL    HW126915   3.865   3.859   7.206 -2.3703 -0.2172  0.7546
 5151SOL    HW226916   3.848   3.820   7.348 -2.2094  0.4663 -1.0474
 5152SOL     OW26917   3.601   3.479   2.723 -0.0391  0.1356  0.4694
 5152SOL    HW126918   3.560   3.399   2.693  0.4421 -0.1949  0.6817
 5152SOL    HW226919   3.661   3.451   2.793 -0.1001  0.1300  0.5194
 5153SOL     OW26920   2.024   2.987   2.129 -0.0396  0.0189 -0.9968
 5153SOL    HW126921   2.073   2.974   2.210 -0.2465  0.6239 -0.7761
 5153SOL    HW226922   2.000   3.079   2.135 -0.3311 -0.1798  0.9595
 5154SOL     OW26923   1.501   1.485   6.814  0.0948 -0.6959 -0.4548
 5154SOL    HW126924   1.583   1.521   6.850  0.2864 -1.1203 -0.4671
 5154SOL    HW226925   1.533   1.414   6.758 -0.4849 -0.0816 -1.5641
 5155SOL     OW26926   3.264   0.823   3.786  0.1638  0.1991 -0.5213
 5155SOL    HW126927   3.319   0.789   3.857  1.2842  4.1643  0.4959
 5155SOL    HW226928   3.334   0.863   3.735 -1.3691  1.2206 -1.8214
 5156SOL     OW26929   2.473   3.236  14.364  0.5244 -0.5045 -0.0687
 5156SOL    HW126930   2.545   3.178  14.386 -0.0619 -0.8865  0.8444
 5156SOL    HW226931   2.398   3.179  14.379  0.4629 -0.0257  1.3983
 5157SOL     OW26932   0.877   2.224   0.999  0.0134 -0.0904 -0.1351
 5157SOL    HW126933   0.832   2.287   1.055  2.2384  2.0191 -0.7379
 5157SOL    HW226934   0.961   2.260   0.971  0.4224 -0.1083  1.0538
 5158SOL     OW26935   4.068   1.602   7.089 -0.7101 -0.0463 -0.0704
 5158SOL    HW126936   3.989   1.569   7.046 -1.1597  0.4653  0.3647
 5158SOL    HW226937   4.090   1.677   7.033 -1.0708 -0.2731 -0.5150
 5159SOL     OW26938   0.553   2.424   1.352  0.3132 -0.6307  0.6933
 5159SOL    HW126939   0.510   2.453   1.433  1.8467  0.8058  0.9736
 5159SOL    HW226940   0.644   2.454   1.350  0.4496 -1.0213  1.0185
 5160SOL     OW26941   0.436   2.710   5.207 -0.0647 -0.5886  0.4219
 5160SOL    HW126942   0.429   2.805   5.195  1.9241 -0.5126 -0.0767
 5160SOL    HW226943   0.451   2.678   5.119 -1.4538 -2.8584  1.0045
 5161SOL     OW26944   0.891   0.767   3.530 -0.3025 -0.4613  0.3425
 5161SOL    HW126945   0.878   0.672   3.524 -1.1953 -0.3294  0.2661
 5161SOL    HW226946   0.874   0.780   3.623 -0.3629 -3.0982  0.6992
 5162SOL     OW26947   3.430   4.670   4.564 -0.1849 -0.3770  0.5193
 5162SOL    HW126948   3.452   4.707   4.478 -1.2685 -2.3562 -0.5963
 5162SOL    HW226949   3.338   4.647   4.552 -0.8954  2.0970  1.2697
 5163SOL     OW26950   1.568   0.312   0.402 -0.4882  0.6093  0.3491
 5163SOL    HW126951   1.587   0.236   0.348 -4.1859  1.4409 -2.1573
 5163SOL    HW226952   1.499   0.358   0.354  1.3048  0.9451 -1.9021
 5164SOL     OW26953   0.053   3.242   7.076 -0.0800 -0.2135  0.1514
 5164SOL    HW126954   0.144   3.219   7.088 -0.0617 -1.1749 -1.8350
 5164SOL    HW226955   0.028   3.158   7.038 -0.6246  0.7681 -1.6625
 5165SOL     OW26956   4.571   2.209   9.810  0.2232 -0.5029  0.4850
 5165SOL    HW126957   4.477   2.196   9.825  0.2200 -1.1077 -0.0385
 5165SOL    HW226958   4.597   2.141   9.872 -0.5004 -1.1420  0.1002
 5166SOL     OW26959   2.383   2.538   3.505 -0.6217  0.5974  0.0497
 5166SOL    HW126960   2.393   2.623   3.463 -0.5731  0.4054 -0.3250
 5166SOL    HW226961   2.451   2.530   3.572  0.2662  2.5256 -0.6251
 5167SOL     OW26962   3.280   0.284  11.441  0.6690 -0.1956 -0.0816
 5167SOL    HW126963   3.217   0.228  11.395  0.0321  2.5743 -2.5526
 5167SOL    HW226964   3.248   0.371  11.418 -1.5218 -0.5573  1.5979
 5168SOL     OW26965   2.796   0.198  11.415  0.1594 -0.0559 -0.1192
 5168SOL    HW126966   2.735   0.263  11.378 -0.1797 -0.9456 -1.1471
 5168SOL    HW226967   2.883   0.230  11.391 -0.7802  1.6888 -1.2340
 5169SOL     OW26968   0.988   2.316   3.507 -0.4559 -0.3614 -0.4611
 5169SOL    HW126969   1.054   2.342   3.443  1.4645 -1.1731  1.2174
 5169SOL    HW226970   1.018   2.370   3.580 -1.3226  0.0590 -0.4014
 5170SOL     OW26971   1.567   1.229   2.947 -0.1980  0.0917 -0.1195
 5170SOL    HW126972   1.621   1.308   2.933 -0.8755  0.3242 -1.4064
 5170SOL    HW226973   1.519   1.222   2.864 -0.7111 -0.7845  0.2583
 5171SOL     OW26974   2.365   3.564   4.535  0.7933  0.7830 -0.1737
 5171SOL    HW126975   2.400   3.503   4.600 -1.8514 -0.2042  0.3033
 5171SOL    HW226976   2.423   3.558   4.459  0.1910 -1.2239 -0.4587
 5172SOL     OW26977   0.621   2.738   3.083  0.0182 -0.1158 -0.1121
 5172SOL    HW126978   0.584   2.651   3.098  0.6830 -0.1816  1.1113
 5172SOL    HW226979   0.701   2.730   3.134  0.0947 -0.4883 -0.2868
 5173SOL     OW26980   0.460   2.883   6.798 -0.4689 -0.2201 -0.0099
 5173SOL    HW126981   0.392   2.919   6.742 -0.1683 -0.0043 -0.2346
 5173SOL    HW226982   0.534   2.933   6.764 -0.2843  0.0278  0.7624
 5174SOL     OW26983   1.595   2.145  10.229 -0.2155  0.2793  0.6036
 5174SOL    HW126984   1.664   2.167  10.293  0.6489 -0.3440 -0.1131
 5174SOL    HW226985   1.522   2.195  10.265  0.8161  1.2596  1.3811
 5175SOL     OW26986   4.363   1.663   8.147  0.0454 -0.0625  0.0035
 5175SOL    HW126987   4.343   1.595   8.082 -0.2835 -1.4246  1.5436
 5175SOL    HW226988   4.292   1.646   8.208  0.7540 -2.5112  0.1356
 5176SOL     OW26989   2.239   0.204   4.335  0.1007 -0.3777  0.0351
 5176SOL    HW126990   2.262   0.195   4.428 -0.5362  0.5371  0.2823
 5176SOL    HW226991   2.156   0.157   4.329 -0.1524 -0.0237  0.7440
 5177SOL     OW26992   4.388   2.442   3.699 -0.0977 -0.3262  1.0691
 5177SOL    HW126993   4.466   2.417   3.749 -0.1828 -0.2534  1.2380
 5177SOL    HW226994   4.396   2.388   3.620 -0.2428  0.7654  0.3065
 5178SOL     OW26995   3.823   0.160   2.392 -0.1765  0.3162 -0.1011
 5178SOL    HW126996   3.779   0.199   2.317 -0.1895 -0.2908 -0.4092
 5178SOL    HW226997   3.784   0.075   2.370 -0.2559  0.1987  0.4831
 5179SOL     OW26998   1.348   3.821   2.999 -0.4658  0.3127 -0.2938
 5179SOL    HW126999   1.286   3.889   3.026  1.7005  2.4171 -0.6824
 5179SOL    HW227000   1.312   3.745   3.045  1.5795  0.1848  1.0914
 5180SOL     OW27001   3.433   3.804   3.492 -0.1444 -0.4801  0.7567
 5180SOL    HW127002   3.442   3.898   3.512 -2.2545  0.2603 -1.7931
 5180SOL    HW227003   3.400   3.780   3.578 -3.0858 -0.5925 -0.4015
 5181SOL     OW27004   4.550   2.923   3.449  0.0944  0.7390  0.2367
 5181SOL    HW127005   4.499   2.903   3.528 -1.2123 -3.3267 -1.6093
 5181SOL    HW227006   4.631   2.875   3.463  0.4768  2.3805  3.5705
 5182SOL     OW27007   3.665   3.402   9.260 -0.1060  0.3074 -0.5051
 5182SOL    HW127008   3.595   3.464   9.279  0.7612  1.2235 -0.3445
 5182SOL    HW227009   3.613   3.321   9.259 -2.3974  1.7762  0.6200
 5183SOL     OW27010   4.253   0.562   8.735 -0.1591 -0.1334 -0.2834
 5183SOL    HW127011   4.297   0.644   8.760  1.9636 -1.4114  0.2517
 5183SOL    HW227012   4.172   0.570   8.786  0.5429  0.3374  0.7770
 5184SOL     OW27013   1.583   4.702   5.900 -0.8770  0.1740 -0.1376
 5184SOL    HW127014   1.657   0.036   5.893 -0.7033 -0.1254 -0.8150
 5184SOL    HW227015   1.582   4.686   5.995  0.6112  1.6676  0.1284
 5185SOL     OW27016   1.818   1.813  13.947  0.2395  0.1396  0.8782
 5185SOL    HW127017   1.774   1.774  14.022  1.4316 -2.1817  0.3703
 5185SOL    HW227018   1.756   1.794  13.877  0.6357  0.5955  0.4058
 5186SOL     OW27019   4.424   3.659  15.995 -0.3007 -0.2923  0.4739
 5186SOL    HW127020   4.332   3.663  16.020  0.0074 -0.0081  1.5599
 5186SOL    HW227021   4.436   3.696  15.908 -0.3874  2.1509  1.4972
 5187SOL     OW27022   3.641   0.328   6.392 -0.4110  0.6466 -0.7468
 5187SOL    HW127023   3.682   0.310   6.477 -1.0682  1.7625 -0.1900
 5187SOL    HW227024   3.682   0.265   6.333 -1.7487 -1.8749  0.9519
 5188SOL     OW27025   4.419   1.547  15.477 -0.4289 -0.7924  0.1712
 5188SOL    HW127026   4.367   1.554  15.397 -1.5702  0.4786  1.0337
 5188SOL    HW227027   4.426   1.639  15.502  1.1924 -1.0182  0.5215
 5189SOL     OW27028   1.151   0.875  13.561  0.2423 -0.2449  0.1704
 5189SOL    HW127029   1.059   0.884  13.537  0.4132 -0.4471 -0.5403
 5189SOL    HW227030   1.150   0.877  13.657  0.2215 -1.3117  0.1975
 5190SOL     OW27031   2.464   0.226   4.192  0.6634 -0.5304  0.6090
 5190SOL    HW127032   2.389   0.217   4.251 -0.6062 -0.6221 -1.0180
 5190SOL    HW227033   2.513   0.303   4.221 -1.7601  0.9443  0.8058
 5191SOL     OW27034   3.639   2.751  12.063 -0.7369  0.6428 -0.3461
 5191SOL    HW127035   3.687   2.743  11.981  0.6308 -0.6618  0.5660
 5191SOL    HW227036   3.703   2.741  12.134 -2.7365  3.5254  1.8394
 5192SOL     OW27037   1.666   0.625   8.166  0.4834  0.6291 -0.2049
 5192SOL    HW127038   1.637   0.635   8.075  1.7448  0.5352 -0.6114
 5192SOL    HW227039   1.617   0.698   8.205  3.0445  1.1377  2.0097
 5193SOL     OW27040   2.982   1.118  14.625  0.0119 -0.3626  0.0516
 5193SOL    HW127041   3.024   1.071  14.697 -0.0552  0.8499  0.8867
 5193SOL    HW227042   2.994   1.059  14.551  1.6200 -0.9190  0.7532
 5194SOL     OW27043   0.452   3.862   5.100  0.4638  0.0594 -0.4371
 5194SOL    HW127044   0.474   3.773   5.128 -0.3103  0.2043  0.6248
 5194SOL    HW227045   0.359   3.869   5.119  0.6265  2.0375 -0.3768
 5195SOL     OW27046   3.248   2.416   7.262 -0.3872  0.3056  0.3915
 5195SOL    HW127047   3.188   2.436   7.334  0.6995  1.4168  0.9700
 5195SOL    HW227048   3.215   2.490   7.210  0.9716 -0.3266 -1.3621
 5196SOL     OW27049   1.865   3.284   9.604  0.5811 -0.4312  0.3705
 5196SOL    HW127050   1.828   3.329   9.680 -1.0067  0.0814 -0.7044
 5196SOL    HW227051   1.952   3.261   9.637  0.6133 -0.3951  0.3094
 5197SOL     OW27052   0.893   4.600   5.878 -0.4727  0.3427  0.8535
 5197SOL    HW127053   0.851   4.629   5.797  0.9952 -1.3505 -0.5088
 5197SOL    HW227054   0.981   4.636   5.871 -1.1696  1.5376 -1.6835
 5198SOL     OW27055   4.175   1.468   5.700  0.5565 -0.1861  0.2204
 5198SOL    HW127056   4.109   1.431   5.759  0.5244  0.5601  0.6552
 5198SOL    HW227057   4.241   1.499   5.762 -1.3551  0.6149  1.8764
 5199SOL     OW27058   1.770   0.418   9.012 -0.6404 -0.1804  0.4957
 5199SOL    HW127059   1.862   0.395   8.997 -1.3415 -0.6901 -2.9250
 5199SOL    HW227060   1.771   0.454   9.101 -1.1365  0.3597  0.2801
 5200SOL     OW27061   3.134   4.434  10.072 -0.2186  0.7131 -0.6499
 5200SOL    HW127062   3.058   4.381  10.047 -0.8031  1.3768 -0.2891
 5200SOL    HW227063   3.166   4.464   9.987 -1.1440  2.0248 -0.5370
 5201SOL     OW27064   1.875   4.313   7.400 -0.0433  0.0405 -0.2167
 5201SOL    HW127065   1.791   4.357   7.415  1.1978  2.9714 -2.0108
 5201SOL    HW227066   1.937   4.384   7.414  2.7715 -2.1257 -1.8469
 5202SOL     OW27067   4.668   3.485   4.676  0.3612  0.1904  0.0382
 5202SOL    HW127068   4.678   3.426   4.601  1.1998 -0.1250  0.3931
 5202SOL    HW227069   0.014   3.453   4.731  0.3963  1.4313  0.7148
 5203SOL     OW27070   4.666   3.786   1.846  0.1078  0.1164  0.6526
 5203SOL    HW127071   4.662   3.832   1.929 -2.6797  1.7421 -0.3907
 5203SOL    HW227072   4.647   3.847   1.775  4.2020 -1.4625 -1.8472
 5204SOL     OW27073   2.760   2.259   6.091  0.6758  0.0301  0.4494
 5204SOL    HW127074   2.803   2.303   6.018  1.2832 -2.6406 -0.8146
 5204SOL    HW227075   2.742   2.330   6.151  1.5514  0.8969 -0.3162
 5205SOL     OW27076   1.323   3.816  11.427  0.4347  0.6378  0.1325
 5205SOL    HW127077   1.347   3.909  11.434  0.9264  0.5511 -0.4660
 5205SOL    HW227078   1.372   3.789  11.350 -1.6232 -1.9302 -0.2717
 5206SOL     OW27079   0.886   0.436  14.249 -0.1115  0.3758 -0.6098
 5206SOL    HW127080   0.932   0.357  14.220  1.2970  1.7526 -2.0815
 5206SOL    HW227081   0.804   0.405  14.289  1.6045 -1.3765  1.5278
 5207SOL     OW27082   4.316   4.428  16.260  0.3949 -0.0044 -0.0931
 5207SOL    HW127083   4.270   4.426  16.345  1.0487 -2.0774  0.2153
 5207SOL    HW227084   4.242   4.424  16.200  2.2477 -2.1528 -2.2211
 5208SOL     OW27085   4.460   4.502   6.970 -0.3285  0.1881  0.0121
 5208SOL    HW127086   4.427   4.423   6.926 -0.9808 -0.4752  1.6822
 5208SOL    HW227087   4.548   4.467   6.986  0.0836  1.4719  0.5187
 5209SOL     OW27088   2.722   1.146   5.913 -0.0239 -0.3830 -0.1057
 5209SOL    HW127089   2.695   1.229   5.953 -0.4524 -1.7708  2.4655
 5209SOL    HW227090   2.648   1.091   5.937 -1.6314  1.1784 -1.5305
 5210SOL     OW27091   2.935   3.485   7.019 -0.2638 -0.5022  0.4681
 5210SOL    HW127092   2.868   3.553   7.025  0.6931  0.5630 -0.7605
 5210SOL    HW227093   2.887   3.412   6.981 -0.5119  0.4293 -1.0143
 5211SOL     OW27094   2.053   3.217   3.190 -0.3413 -0.3208 -0.7421
 5211SOL    HW127095   1.978   3.219   3.131 -0.0152 -0.3270 -1.1627
 5211SOL    HW227096   2.036   3.135   3.234 -0.9441  0.1271 -0.1502
 5212SOL     OW27097   0.963   4.420   6.086 -0.0799 -0.1968  0.1475
 5212SOL    HW127098   0.930   4.466   6.009 -0.0817 -0.7023 -0.1578
 5212SOL    HW227099   0.900   4.459   6.145 -2.3324 -0.8435 -1.8259
 5213SOL     OW27100   3.926   0.022   4.916 -0.5418  0.0770  0.7051
 5213SOL    HW127101   3.870   0.014   4.993 -1.2162  1.3660  0.3417
 5213SOL    HW227102   4.012   0.049   4.950  0.3816 -2.1567  0.1626
 5214SOL     OW27103   2.979   3.097   8.192  0.3065 -0.3464 -0.1768
 5214SOL    HW127104   3.030   3.141   8.124 -0.5585 -0.7739 -1.1102
 5214SOL    HW227105   2.994   3.011   8.153 -0.9523 -2.4013  3.9605
 5215SOL     OW27106   0.440   0.614   9.200 -0.2593  0.3414 -0.3275
 5215SOL    HW127107   0.459   0.525   9.230  1.8922  0.6758 -0.6540
 5215SOL    HW227108   0.461   0.672   9.274 -0.9283  0.1499  0.0066
 5216SOL     OW27109   0.059   0.896   2.880  0.0178 -0.3579  0.4193
 5216SOL    HW127110   4.715   0.940   2.831  0.1725 -0.8538 -0.2510
 5216SOL    HW227111   0.060   0.809   2.839 -3.1559  0.0317 -0.4900
 5217SOL     OW27112   0.710   3.604   3.905  0.6131 -0.0344  0.2376
 5217SOL    HW127113   0.741   3.516   3.881 -1.0555 -0.3823 -0.6394
 5217SOL    HW227114   0.720   3.648   3.821  1.3510 -1.5387 -0.4781
 5218SOL     OW27115   2.860   4.492   5.913 -0.1387 -0.1056 -0.1413
 5218SOL    HW127116   2.797   4.547   5.960 -0.6609  0.1387 -1.1253
 5218SOL    HW227117   2.901   4.565   5.867  0.5838 -0.5043 -0.1277
 5219SOL     OW27118   3.707   0.757   4.795  0.4456  0.1174 -0.3004
 5219SOL    HW127119   3.672   0.831   4.746 -1.7205  0.0809  1.1707
 5219SOL    HW227120   3.660   0.684   4.753 -0.8501 -0.1815  1.6915
 5220SOL     OW27121   2.899   1.227   8.499 -0.4557  0.2191  0.2925
 5220SOL    HW127122   2.927   1.211   8.589 -1.4152 -1.1330  0.3528
 5220SOL    HW227123   2.976   1.205   8.446  0.2139  1.2982  0.8069
 5221SOL     OW27124   3.186   0.174   4.543 -0.6405  0.3052  0.1509
 5221SOL    HW127125   3.281   0.180   4.550 -0.5145 -1.5447 -0.1112
 5221SOL    HW227126   3.176   0.214   4.457  0.1476  0.0731 -0.0501
 5222SOL     OW27127   1.933   0.127   2.594 -0.3736  1.1209 -0.0042
 5222SOL    HW127128   1.984   0.129   2.513 -3.2463  1.4609 -1.8021
 5222SOL    HW227129   1.846   0.149   2.559  0.0668  3.6682  0.5203
 5223SOL     OW27130   4.219   1.753   3.902 -0.3828 -0.2717  0.3248
 5223SOL    HW127131   4.138   1.704   3.886 -0.5971  0.4430 -0.8538
 5223SOL    HW227132   4.241   1.775   3.811  3.8142  0.6402  1.5985
 5224SOL     OW27133   4.546   3.093  13.750  0.2099 -0.1274 -0.2047
 5224SOL    HW127134   4.599   3.093  13.829 -0.1133  0.6836  0.0193
 5224SOL    HW227135   4.615   3.069  13.688  0.0435 -0.2839 -0.3299
 5225SOL     OW27136   0.506   3.633   3.507  0.3430 -0.2539  0.4299
 5225SOL    HW127137   0.439   3.597   3.449  0.7771 -0.2039 -0.0979
 5225SOL    HW227138   0.492   3.575   3.582  2.6307 -1.3531  0.0038
 5226SOL     OW27139   0.261   3.943   6.320  0.0614 -0.1961 -0.7652
 5226SOL    HW127140   0.216   3.923   6.402  0.0423  0.8477 -0.5216
 5226SOL    HW227141   0.285   3.857   6.286 -0.6933  0.1895 -2.2361
 5227SOL     OW27142   1.123   2.934   2.256 -0.0343 -0.5457  0.5159
 5227SOL    HW127143   1.210   2.941   2.294  0.5313 -0.3421 -0.8141
 5227SOL    HW227144   1.151   2.909   2.168 -1.9610 -1.6555  0.1972
 5228SOL     OW27145   3.666   4.268   5.932  0.4662  0.0038 -0.3508
 5228SOL    HW127146   3.701   4.308   6.012  0.8637 -1.3651  0.1555
 5228SOL    HW227147   3.575   4.295   5.938 -0.2265 -1.8545 -2.2680
 5229SOL     OW27148   3.252   3.395   4.099  0.7869 -0.1934  0.2909
 5229SOL    HW127149   3.241   3.410   4.193  0.1869  1.6610 -0.0842
 5229SOL    HW227150   3.343   3.420   4.085  0.9230 -0.1064  1.3623
 5230SOL     OW27151   4.483   0.077   6.033  0.0643 -0.2372 -0.1633
 5230SOL    HW127152   4.514   4.721   5.994  0.4693 -0.6888  1.1282
 5230SOL    HW227153   4.563   0.121   6.061  1.0304 -0.9654 -1.7881
 5231SOL     OW27154   2.925   4.593   2.864  0.1506  0.4074 -0.1837
 5231SOL    HW127155   2.879   4.673   2.840 -2.9038 -1.2000  0.3724
 5231SOL    HW227156   2.980   4.570   2.788 -0.7359 -0.5247 -0.5533
 5232SOL     OW27157   3.619   0.084  11.944 -0.5362  0.3047  0.4273
 5232SOL    HW127158   3.576   0.107  12.026 -1.6990  2.5603 -0.8187
 5232SOL    HW227159   3.557   0.023  11.904 -1.1476 -0.0187  1.8611
 5233SOL     OW27160   0.263   2.599   4.262 -0.5564 -0.2350  0.4149
 5233SOL    HW127161   0.180   2.578   4.219 -0.9578 -2.2955  2.1971
 5233SOL    HW227162   0.292   2.679   4.218  1.7567 -1.5155 -0.4405
 5234SOL     OW27163   3.950   0.208   9.769  0.0616 -0.6315  0.1426
 5234SOL    HW127164   3.869   0.259   9.766 -0.6786 -1.7781  0.6243
 5234SOL    HW227165   3.965   0.232   9.861 -0.7294  1.0710 -0.1684
 5235SOL     OW27166   0.923   1.855   8.473 -0.0760 -0.8988  0.2028
 5235SOL    HW127167   1.010   1.871   8.435 -0.2951 -1.2253 -0.4291
 5235SOL    HW227168   0.945   1.768   8.505 -0.8272 -0.8714  0.7839
 5236SOL     OW27169   4.724   4.260  15.798 -0.1621 -0.1518  0.5297
 5236SOL    HW127170   0.044   4.262  15.882  1.2349 -0.5903 -0.2218
 5236SOL    HW227171   4.636   4.293  15.815  0.8618  1.7168  2.0727
 5237SOL     OW27172   2.543   1.492  15.325 -0.1638  0.3227  0.0542
 5237SOL    HW127173   2.524   1.579  15.292  0.7307 -0.1616 -1.7544
 5237SOL    HW227174   2.638   1.495  15.340 -0.6006  0.4317  2.7401
 5238SOL     OW27175   0.420   4.104   6.151  0.0800 -0.0688  0.5209
 5238SOL    HW127176   0.506   4.108   6.192 -0.7598  2.5324  1.9539
 5238SOL    HW227177   0.378   4.068   6.229 -0.8641 -0.6721 -0.2596
 5239SOL     OW27178   0.859   4.400   3.318 -0.7655  0.9369  0.0482
 5239SOL    HW127179   0.786   4.380   3.376 -0.4436 -2.1743 -0.5802
 5239SOL    HW227180   0.922   4.335   3.351 -1.2415 -0.2547 -1.3800
 5240SOL     OW27181   3.025   1.744   5.182 -0.3752  0.0502  0.0867
 5240SOL    HW127182   2.954   1.771   5.240 -1.7429 -1.7183 -0.7905
 5240SOL    HW227183   2.961   1.744   5.111  0.4712 -1.2529 -0.6717
 5241SOL     OW27184   3.116   4.424   6.871  0.0712 -0.2056 -0.4649
 5241SOL    HW127185   3.169   4.470   6.806  0.8618 -0.3229  0.0895
 5241SOL    HW227186   3.030   4.423   6.829 -0.0364 -2.0003 -0.2096
 5242SOL     OW27187   3.285   2.622  14.963  0.0784  0.2089  0.0991
 5242SOL    HW127188   3.211   2.575  15.001  0.3908 -0.7124 -0.4450
 5242SOL    HW227189   3.335   2.659  15.037  0.5131 -0.3425  0.0818
 5243SOL     OW27190   1.123   3.644   0.842  0.4567  0.3057 -0.2039
 5243SOL    HW127191   1.037   3.683   0.825 -0.0293 -2.3120 -3.6598
 5243SOL    HW227192   1.100   3.553   0.823  0.6710 -0.0445  1.2230
 5244SOL     OW27193   3.626   3.440   7.641  0.3972 -0.0342  0.4459
 5244SOL    HW127194   3.710   3.394   7.635  1.3544  1.6954  0.7894
 5244SOL    HW227195   3.654   3.527   7.670 -0.0297  0.4944 -0.7217
 5245SOL     OW27196   3.620   1.216   3.436 -0.5315  0.0930  0.5114
 5245SOL    HW127197   3.700   1.196   3.389  0.7196 -0.3018  2.7737
 5245SOL    HW227198   3.603   1.130   3.474 -0.6403 -0.4545 -0.7859
 5246SOL     OW27199   3.384   3.742   6.622  0.1382  0.5317 -0.3472
 5246SOL    HW127200   3.439   3.676   6.665  0.0123 -0.3791 -1.5904
 5246SOL    HW227201   3.431   3.824   6.613  0.4254  0.2467 -1.3820
 5247SOL     OW27202   1.335   3.273   7.033 -0.8589 -0.1992 -0.1468
 5247SOL    HW127203   1.270   3.230   6.977  0.2618  0.3149 -1.8338
 5247SOL    HW227204   1.418   3.234   7.005 -2.0571 -2.7673 -0.1340
 5248SOL     OW27205   0.730   2.434   4.648  0.4037 -0.2405 -0.4575
 5248SOL    HW127206   0.690   2.349   4.669 -0.4662  0.2976  0.0451
 5248SOL    HW227207   0.748   2.460   4.738  0.5538  1.3831 -0.9712
 5249SOL     OW27208   1.975   3.696   6.341  0.0077 -0.7702 -0.2056
 5249SOL    HW127209   2.040   3.651   6.287  1.8660  0.6083  0.8844
 5249SOL    HW227210   1.926   3.735   6.269 -0.8662 -0.9384  0.2965
 5250SOL     OW27211   3.059   1.852   4.670 -0.0758  0.2297  0.2626
 5250SOL    HW127212   2.980   1.799   4.667 -0.3919  0.7138  0.1120
 5250SOL    HW227213   3.105   1.796   4.733  0.3795 -0.3455 -0.5787
 5251SOL     OW27214   3.202   1.089  10.844  0.0435 -0.0452  0.3247
 5251SOL    HW127215   3.273   1.025  10.855  0.3797  0.0161 -1.4774
 5251SOL    HW227216   3.249   1.169  10.866 -1.0030  0.8012 -0.5009
 5252SOL     OW27217   1.932   1.921  12.509 -0.0274 -0.4737  0.6377
 5252SOL    HW127218   2.008   1.911  12.566 -1.9471  0.9521  3.4114
 5252SOL    HW227219   1.887   1.839  12.527  0.5751 -0.9197  0.1291
 5253SOL     OW27220   1.034   0.050  16.245 -0.4671  0.6803  0.1263
 5253SOL    HW127221   1.017   0.103  16.323  0.6867  1.5918 -0.2398
 5253SOL    HW227222   0.961   0.082  16.192  0.2967 -0.6801 -1.7459
 5254SOL     OW27223   0.855   2.093  15.107 -0.6145 -0.1221 -0.1029
 5254SOL    HW127224   0.868   2.055  15.194  0.3891  0.7257  0.1145
 5254SOL    HW227225   0.844   2.187  15.124 -2.6920 -0.1290 -1.4964
 5255SOL     OW27226   4.172   1.114  13.237  0.4488  0.7640  0.2860
 5255SOL    HW127227   4.109   1.145  13.172  0.9386 -0.4823 -0.7631
 5255SOL    HW227228   4.112   1.119  13.312  0.0712 -1.2470  0.1011
 5256SOL     OW27229   0.602   1.743   5.603  0.7312 -0.0830 -0.2870
 5256SOL    HW127230   0.658   1.713   5.674  0.1963  0.4354  0.3552
 5256SOL    HW227231   0.636   1.686   5.534 -0.1092 -0.6081 -0.2659
 5257SOL     OW27232   0.321   0.866   5.484  0.0094  0.3134  0.0807
 5257SOL    HW127233   0.400   0.919   5.485 -0.3612  0.8495  1.0030
 5257SOL    HW227234   0.265   0.922   5.538 -0.0001  0.2953  0.0896
 5258SOL     OW27235   2.286   2.834   2.595 -0.3858 -0.2020  0.1111
 5258SOL    HW127236   2.336   2.915   2.582 -0.1423 -0.6753 -1.9029
 5258SOL    HW227237   2.342   2.771   2.549 -0.2094 -0.1727  0.2885
 5259SOL     OW27238   3.894   2.180   0.466 -0.2452  0.2955 -0.0928
 5259SOL    HW127239   3.867   2.142   0.549 -0.3701  1.5013  0.4221
 5259SOL    HW227240   3.873   2.116   0.398  3.3463  1.5748 -2.4324
 5260SOL     OW27241   2.064   2.206   3.497  0.0012 -0.0336  0.1925
 5260SOL    HW127242   2.084   2.286   3.545 -1.0444  0.3426 -0.0030
 5260SOL    HW227243   2.099   2.140   3.556  1.1904 -1.6450 -2.2985
 5261SOL     OW27244   3.616   3.540   9.737 -0.3123 -0.0560  0.2179
 5261SOL    HW127245   3.695   3.521   9.687 -0.7054  1.0879 -0.8507
 5261SOL    HW227246   3.630   3.463   9.792 -0.0180 -0.8710 -0.9903
 5262SOL     OW27247   4.308   3.977  17.424  0.1656 -0.1858 -0.0441
 5262SOL    HW127248   4.216   3.952  17.416  0.6706 -2.2099  0.4220
 5262SOL    HW227249   4.308   4.048  17.489  1.3981 -1.1056  0.9716
 5263SOL     OW27250   3.939   3.559   3.468 -0.2165  0.1154 -0.5073
 5263SOL    HW127251   3.934   3.502   3.392  1.2620 -0.4957 -0.1526
 5263SOL    HW227252   3.846   3.576   3.479  0.5015  3.8118  0.0455
 5264SOL     OW27253   3.870   2.394   2.776  0.5386 -0.1713 -0.1080
 5264SOL    HW127254   3.823   2.344   2.710  1.1499  0.8640 -1.3246
 5264SOL    HW227255   3.919   2.330   2.827 -1.9407 -1.0306  1.1816
 5265SOL     OW27256   3.612   1.340  10.135  0.3414 -0.2782  0.4020
 5265SOL    HW127257   3.659   1.275  10.082  0.2078 -0.0392 -0.0057
 5265SOL    HW227258   3.675   1.412  10.140  0.8286 -0.8052  2.1346
 5266SOL     OW27259   1.064   0.307   2.952 -0.0454  0.0337  0.0487
 5266SOL    HW127260   1.066   0.364   3.029 -0.1450 -2.2000  1.7028
 5266SOL    HW227261   1.007   0.238   2.986 -2.7871  0.1821 -4.1967
 5267SOL     OW27262   3.826   1.740   2.049 -0.4255 -0.1709 -0.0184
 5267SOL    HW127263   3.886   1.666   2.041 -1.3568 -1.1808  2.1913
 5267SOL    HW227264   3.846   1.752   2.142 -1.2666  2.1028 -0.1516
 5268SOL     OW27265   1.166   3.040  10.483 -0.5667 -0.2947 -0.4526
 5268SOL    HW127266   1.082   3.075  10.512  0.0715  0.2584  0.7302
 5268SOL    HW227267   1.171   2.968  10.546 -1.8154 -1.1561 -1.3432
 5269SOL     OW27268   1.810   4.404  10.320  0.2616 -0.2514  0.1139
 5269SOL    HW127269   1.803   4.460  10.397  0.4545  2.3858 -1.7639
 5269SOL    HW227270   1.739   4.346  10.346 -0.5440  0.2307 -0.9944
 5270SOL     OW27271   2.953   1.031   6.697 -0.5890  0.5599  0.3267
 5270SOL    HW127272   3.028   1.055   6.752  1.6784 -2.5938 -1.4136
 5270SOL    HW227273   2.883   1.040   6.762 -1.0675 -0.5976 -0.0459
 5271SOL     OW27274   4.212   2.362   2.074  0.1370  0.7211 -0.6785
 5271SOL    HW127275   4.143   2.303   2.104  0.1188  1.8593  1.4574
 5271SOL    HW227276   4.263   2.376   2.153  0.5287  2.1185 -1.1839
 5272SOL     OW27277   0.701   0.347   7.836 -0.1028  0.2533  0.6585
 5272SOL    HW127278   0.627   0.286   7.848  0.3096 -0.1082  1.4109
 5272SOL    HW227279   0.663   0.399   7.766  0.2380  1.1641  1.1501
 5273SOL     OW27280   1.741   1.624   6.814  0.2338  0.2228 -0.4280
 5273SOL    HW127281   1.831   1.606   6.786  0.1478 -0.1620 -0.4648
 5273SOL    HW227282   1.728   1.693   6.750 -1.2234 -0.5028 -0.9310
 5274SOL     OW27283   2.545   1.850   6.473  0.5035  0.5131 -0.3118
 5274SOL    HW127284   2.479   1.917   6.492  0.4250 -0.2985  2.3414
 5274SOL    HW227285   2.597   1.895   6.407 -0.8856  0.8708 -1.1668
 5275SOL     OW27286   1.512   0.906   9.753  0.4410  0.1467  0.5596
 5275SOL    HW127287   1.429   0.936   9.714  0.4505 -1.5018 -0.7075
 5275SOL    HW227288   1.488   0.871   9.838  0.1394  1.9458  1.2159
 5276SOL     OW27289   0.386   1.959   3.834 -0.5549  0.4966 -0.4343
 5276SOL    HW127290   0.407   1.870   3.862  1.2477  0.5743 -1.5531
 5276SOL    HW227291   0.456   1.975   3.772 -0.0532 -0.8534 -0.2184
 5277SOL     OW27292   4.192   3.298   6.499 -0.2096 -0.0262  0.6932
 5277SOL    HW127293   4.126   3.243   6.542 -0.3913 -0.3124  0.0498
 5277SOL    HW227294   4.165   3.384   6.529 -2.4064 -0.5071  0.1329
 5278SOL     OW27295   0.748   4.482   3.818  0.7182  0.0254  0.1733
 5278SOL    HW127296   0.827   4.428   3.808  1.0159  1.3765 -4.8817
 5278SOL    HW227297   0.759   4.535   3.739  0.0399 -0.1374 -0.0314
 5279SOL     OW27298   1.484   1.858   6.335  0.3853 -0.0604  0.3910
 5279SOL    HW127299   1.480   1.831   6.426  0.2529  0.2528  0.4771
 5279SOL    HW227300   1.567   1.903   6.322 -0.6082  1.6014 -0.2714
 5280SOL     OW27301   2.891   0.450   0.181  0.2620  0.1189 -0.0795
 5280SOL    HW127302   2.892   0.502   0.101 -2.1065 -1.3380 -1.0582
 5280SOL    HW227303   2.858   0.364   0.155  0.1707  0.3604 -0.7637
 5281SOL     OW27304   2.249   2.587   3.845 -0.9302 -0.4368 -0.0635
 5281SOL    HW127305   2.247   2.529   3.921  0.6166 -0.4346 -0.0093
 5281SOL    HW227306   2.212   2.533   3.775  0.0582 -1.7273  0.4078
 5282SOL     OW27307   3.299   1.308  17.515 -0.3333 -0.3660 -0.0804
 5282SOL    HW127308   3.247   1.232  17.489 -1.0298  0.0501  0.0863
 5282SOL    HW227309   3.334   1.345  17.434 -0.8059  0.0018 -0.1154
 5283SOL     OW27310   1.737   3.250   2.102 -0.5757  0.5365 -0.1046
 5283SOL    HW127311   1.665   3.310   2.123 -1.4660  0.4949 -3.0555
 5283SOL    HW227312   1.710   3.177   2.157  2.3366 -0.6946 -0.3141
 5284SOL     OW27313   0.806   1.028  14.390 -0.2106 -0.0682 -0.0451
 5284SOL    HW127314   0.733   1.041  14.450  0.9035  2.2064  0.8064
 5284SOL    HW227315   0.786   0.945  14.347 -1.1672 -0.1453  0.5459
 5285SOL     OW27316   3.302   2.975   9.426  0.1478  0.3386  0.3805
 5285SOL    HW127317   3.366   3.003   9.360  0.4929 -0.2655  0.4614
 5285SOL    HW227318   3.348   2.966   9.509 -1.2062 -0.3262  1.0647
 5286SOL     OW27319   0.441   3.888   3.638 -0.3174  0.4306 -0.2501
 5286SOL    HW127320   0.395   3.933   3.567 -0.6040 -0.3593 -0.5571
 5286SOL    HW227321   0.462   3.804   3.598  0.3662 -0.1657  1.3469
 5287SOL     OW27322   0.534   3.324  11.308  0.0088  0.0178  0.4844
 5287SOL    HW127323   0.481   3.388  11.357  1.2887  1.6074 -0.1856
 5287SOL    HW227324   0.605   3.377  11.270 -0.4222  0.4744  0.3060
 5288SOL     OW27325   3.984   4.089   1.831 -0.8007  0.3546 -0.3106
 5288SOL    HW127326   3.977   4.110   1.738  1.2092  0.1865 -0.4959
 5288SOL    HW227327   4.051   4.155   1.846 -1.9684  1.4718 -0.0497
 5289SOL     OW27328   2.386   4.079   5.209 -0.1753  0.5911 -0.7167
 5289SOL    HW127329   2.377   4.021   5.284  0.4519  0.3199 -0.8533
 5289SOL    HW227330   2.336   4.158   5.231 -0.3690 -0.3418  2.1847
 5290SOL     OW27331   2.936   1.907   8.087 -0.4046  0.7935 -0.1141
 5290SOL    HW127332   2.889   1.987   8.109 -1.2946 -0.1391  1.3839
 5290SOL    HW227333   3.009   1.944   8.038  0.3747 -0.6083 -0.0293
 5291SOL     OW27334   2.566   0.503  14.383 -0.5386 -0.1286 -0.0296
 5291SOL    HW127335   2.622   0.579  14.399  2.0588 -2.3031  1.2372
 5291SOL    HW227336   2.481   0.534  14.413 -0.9808 -1.0309 -0.3455
 5292SOL     OW27337   0.218   4.043   7.519  0.2727  0.2105  0.1733
 5292SOL    HW127338   0.152   4.021   7.453  0.2929  0.3440  0.1102
 5292SOL    HW227339   0.282   3.971   7.518 -0.2808 -0.2938  0.7269
 5293SOL     OW27340   3.602   1.892   5.091  0.0625 -0.2168  0.6472
 5293SOL    HW127341   3.535   1.845   5.041  0.1352  0.9101 -0.4926
 5293SOL    HW227342   3.592   1.980   5.056  0.5482  0.5134  2.3908
 5294SOL     OW27343   2.722   0.335   4.792 -0.0711 -0.2925  0.0864
 5294SOL    HW127344   2.660   0.404   4.813  0.2112 -0.0172  0.0232
 5294SOL    HW227345   2.742   0.367   4.703 -2.4592  0.4800 -0.1602
 5295SOL     OW27346   0.160   0.854   1.971  0.1438 -0.2510 -0.3278
 5295SOL    HW127347   0.113   0.857   2.054  0.7995 -0.2900  0.0417
 5295SOL    HW227348   0.089   0.871   1.908 -0.9829 -3.4094  0.0788
 5296SOL     OW27349   1.132   4.107  10.075 -0.1480  0.2507  0.1643
 5296SOL    HW127350   1.140   4.048  10.000 -0.8052  1.5711 -0.9419
 5296SOL    HW227351   1.047   4.147  10.056 -1.2587 -1.9948  0.4768
 5297SOL     OW27352   0.947   3.124   1.751 -0.3827  0.7817  0.6436
 5297SOL    HW127353   0.876   3.175   1.712 -2.7506 -2.3066  0.9411
 5297SOL    HW227354   1.012   3.110   1.682 -1.8491  1.1563 -0.7899
 5298SOL     OW27355   4.541   0.297   6.635 -0.1543  0.3699  0.1450
 5298SOL    HW127356   4.594   0.349   6.574 -0.7797 -1.3297 -1.8186
 5298SOL    HW227357   4.453   0.294   6.598 -0.1363 -0.5970  0.1910
 5299SOL     OW27358   3.904   1.701   8.646 -0.2401  0.2723 -0.1454
 5299SOL    HW127359   3.875   1.746   8.567  0.2894 -1.9502 -1.6041
 5299SOL    HW227360   3.917   1.776   8.704  0.8623  1.9768 -2.5766
 5300SOL     OW27361   4.036   0.983   6.558 -0.2691  0.0859 -1.3244
 5300SOL    HW127362   3.947   0.948   6.560 -0.5962  0.9287 -1.0851
 5300SOL    HW227363   4.052   1.011   6.648 -0.8954  2.5523 -1.9830
 5301SOL     OW27364   4.214   2.700   5.905  0.1463 -0.4067 -0.2045
 5301SOL    HW127365   4.125   2.674   5.927 -0.2287  2.0641  1.2339
 5301SOL    HW227366   4.237   2.650   5.826  1.7670  0.1148 -0.0650
 5302SOL     OW27367   2.788   3.525   8.789 -0.2921 -0.1276  0.3302
 5302SOL    HW127368   2.882   3.521   8.803 -0.1654 -0.2798 -0.5351
 5302SOL    HW227369   2.758   3.482   8.869  0.0336  2.2224  1.7233
 5303SOL     OW27370   4.368   3.692   3.348  0.2677  0.6516  0.6445
 5303SOL    HW127371   4.327   3.765   3.300 -0.3913 -0.4632 -0.4810
 5303SOL    HW227372   4.421   3.656   3.277  0.5271 -0.1589  1.2554
 5304SOL     OW27373   1.521   1.089  11.100 -0.2140  0.3101  0.6159
 5304SOL    HW127374   1.426   1.079  11.092 -0.0574  0.4055 -1.4673
 5304SOL    HW227375   1.550   0.998  11.090 -0.6214  0.3220 -0.7410
 5305SOL     OW27376   4.321   2.454   7.248  0.2370  0.0258 -0.1394
 5305SOL    HW127377   4.235   2.472   7.210  0.5349  1.0256 -0.3339
 5305SOL    HW227378   4.293   2.470   7.339  1.9183 -2.4954  0.8168
 5306SOL     OW27379   2.342   3.208   2.862 -0.2048  0.1533 -0.4192
 5306SOL    HW127380   2.313   3.136   2.918 -0.1583 -0.7046 -1.4992
 5306SOL    HW227381   2.276   3.203   2.793 -1.4890  0.4514  0.7824
 5307SOL     OW27382   0.800   3.161   4.551  0.1266 -0.3509  0.1327
 5307SOL    HW127383   0.895   3.153   4.560  0.0367 -0.3496  1.0740
 5307SOL    HW227384   0.777   3.068   4.544  0.9164 -0.4141 -1.7582
 5308SOL     OW27385   1.009   1.198   8.887 -0.7813 -0.1120  0.2760
 5308SOL    HW127386   0.924   1.166   8.916 -0.7672 -1.4480 -1.1079
 5308SOL    HW227387   1.039   1.128   8.828  0.5392 -1.4862  2.5678
 5309SOL     OW27388   3.607   2.842   8.796 -0.0706 -0.4267 -0.2995
 5309SOL    HW127389   3.644   2.869   8.880 -0.8432  1.6527 -0.6256
 5309SOL    HW227390   3.680   2.857   8.737 -0.6916 -0.4606 -1.0801
 5310SOL     OW27391   4.557   4.204   4.872  0.0054  0.5902  0.2075
 5310SOL    HW127392   4.534   4.121   4.914 -2.3514  0.5810 -1.1196
 5310SOL    HW227393   4.557   4.267   4.944 -1.3056  0.2479  0.5008
 5311SOL     OW27394   2.329   0.435   8.422  0.0738 -0.0431  0.4022
 5311SOL    HW127395   2.288   0.371   8.479  1.7939 -1.8053 -0.3566
 5311SOL    HW227396   2.248   0.460   8.377 -0.1511 -1.6147 -0.0678
 5312SOL     OW27397   1.049   3.649   6.917 -0.0677 -0.6440 -0.3952
 5312SOL    HW127398   1.044   3.616   7.007 -3.0614 -2.0077 -1.0733
 5312SOL    HW227399   1.002   3.730   6.935  0.5656 -0.6698  1.3763
 5313SOL     OW27400   1.492   1.713  16.893  0.5556  0.5122 -0.1118
 5313SOL    HW127401   1.419   1.691  16.836  0.5463  1.6989 -0.5712
 5313SOL    HW227402   1.533   1.628  16.906  2.6279  1.3826 -0.7956
 5314SOL     OW27403   0.233   1.332  13.793 -0.6529  0.1363  0.4068
 5314SOL    HW127404   0.284   1.387  13.853  0.5545 -0.8618  0.2914
 5314SOL    HW227405   0.273   1.362  13.711  1.0114 -1.6373  0.5652
 5315SOL     OW27406   1.781   0.965   8.065 -0.2264 -0.2466  0.1119
 5315SOL    HW127407   1.818   0.876   8.064  1.1616  0.3198  2.1172
 5315SOL    HW227408   1.697   0.944   8.105 -0.4287 -2.1971 -1.2833
 5316SOL     OW27409   3.104   0.526   3.062  0.3293  0.5029 -0.5955
 5316SOL    HW127410   3.127   0.515   2.970  0.9565 -0.5302 -0.3069
 5316SOL    HW227411   3.009   0.514   3.058  0.5011 -0.6489 -1.1410
 5317SOL     OW27412   1.331   4.688   7.050  0.0249 -0.0422  0.4242
 5317SOL    HW127413   1.248   0.005   7.030 -0.6011 -2.6408 -2.4246
 5317SOL    HW227414   1.384   0.040   7.068  1.0446 -0.8267  0.8201
 5318SOL     OW27415   1.879   1.316   9.467 -0.2014  0.1128 -0.6466
 5318SOL    HW127416   1.908   1.342   9.380 -1.3973  1.9175 -0.4967
 5318SOL    HW227417   1.925   1.232   9.479  1.4258  1.3910  2.0813
 5319SOL     OW27418   0.449   4.182   8.829 -0.0093 -0.9494 -0.0932
 5319SOL    HW127419   0.416   4.253   8.775  0.1377  0.9244  2.2621
 5319SOL    HW227420   0.408   4.188   8.915 -0.0905 -1.5502 -0.0939
 5320SOL     OW27421   1.109   3.699   8.459  0.4329 -0.2525  0.6005
 5320SOL    HW127422   1.129   3.732   8.546 -0.1418  0.6155  0.3985
 5320SOL    HW227423   1.132   3.607   8.473 -3.1318 -1.3048 -0.4622
 5321SOL     OW27424   0.925   0.196  10.294  0.0310  0.5704 -0.0593
 5321SOL    HW127425   0.967   0.146  10.224 -0.8204 -1.2355  0.7171
 5321SOL    HW227426   0.947   0.154  10.377 -0.9754 -0.5650 -0.3597
 5322SOL     OW27427   2.715   3.548   8.538  0.3703  0.2645 -0.6181
 5322SOL    HW127428   2.750   3.523   8.624  1.6144 -0.1516 -1.2492
 5322SOL    HW227429   2.753   3.478   8.485 -0.5344 -0.2999 -0.5084
 5323SOL     OW27430   0.150   0.445   2.786  0.3526 -0.3710 -0.1366
 5323SOL    HW127431   0.231   0.473   2.743  0.1366  0.9752  0.3590
 5323SOL    HW227432   0.096   0.524   2.779  1.6087  0.4053 -1.0180
 5324SOL     OW27433   3.891   2.722   9.165 -0.0940 -0.1365 -0.5098
 5324SOL    HW127434   3.844   2.656   9.215  3.5610 -0.7024  2.1938
 5324SOL    HW227435   3.828   2.791   9.145 -0.9110 -0.7911 -0.1703
 5325SOL     OW27436   2.140   1.439  12.546 -0.0811 -0.0485  0.5825
 5325SOL    HW127437   2.134   1.456  12.640  0.2038  0.7193  0.4637
 5325SOL    HW227438   2.103   1.525  12.526 -1.1479 -0.1923  2.0219
 5326SOL     OW27439   0.538   1.280  15.268  0.2054 -0.5759  0.0849
 5326SOL    HW127440   0.480   1.225  15.214 -0.5021 -0.2179  0.4793
 5326SOL    HW227441   0.487   1.360  15.280  2.5265  0.6953  1.3686
 5327SOL     OW27442   2.583   4.251   1.263 -0.5093 -0.4457 -0.1076
 5327SOL    HW127443   2.510   4.201   1.300  0.0286 -1.0324  0.1616
 5327SOL    HW227444   2.620   4.296   1.339  0.9251  1.5705 -2.0335
 5328SOL     OW27445   1.052   2.859  11.302  0.6627 -0.2882 -0.3171
 5328SOL    HW127446   1.012   2.859  11.389 -0.3862  0.0304 -0.7968
 5328SOL    HW227447   1.000   2.789  11.264  0.7608  0.4944 -1.9031
 5329SOL     OW27448   0.267   3.574   7.265 -0.3014  0.2264  0.5221
 5329SOL    HW127449   0.203   3.546   7.331 -2.8137  2.7972 -0.8203
 5329SOL    HW227450   0.216   3.605   7.191  1.5773 -0.4839 -1.0727
 5330SOL     OW27451   0.095   1.484   4.433 -0.3551 -0.5087  0.0948
 5330SOL    HW127452   0.055   1.503   4.348  0.0464 -0.2976 -0.0429
 5330SOL    HW227453   0.109   1.574   4.460  2.1810 -0.2688 -2.0896
 5331SOL     OW27454   2.945   1.832   2.089  0.6363 -0.0545  0.6064
 5331SOL    HW127455   2.925   1.901   2.027  0.4167  0.0242  0.7619
 5331SOL    HW227456   2.867   1.776   2.084  0.0234  0.7496  1.2484
 5332SOL     OW27457   1.848   0.545   9.277  0.9681  0.2086  0.2871
 5332SOL    HW127458   1.813   0.577   9.360  0.9125  0.9391 -0.0149
 5332SOL    HW227459   1.904   0.473   9.304 -0.4936 -1.2279 -0.5302
 5333SOL     OW27460   0.691   1.392   2.850  0.2824 -0.3745  0.3850
 5333SOL    HW127461   0.653   1.347   2.774  0.7306 -0.3422  0.1452
 5333SOL    HW227462   0.694   1.324   2.916 -0.8943 -0.2515  0.5671
 5334SOL     OW27463   3.661   2.487   1.830  0.4188  0.5425  0.1145
 5334SOL    HW127464   3.630   2.571   1.797  0.6861 -0.0049 -1.5116
 5334SOL    HW227465   3.583   2.436   1.850 -0.5426  2.0229  0.1932
 5335SOL     OW27466   3.522   4.028   4.568 -0.1786  0.7797  0.3294
 5335SOL    HW127467   3.565   3.976   4.636  0.8721  0.4453 -0.5776
 5335SOL    HW227468   3.586   4.100   4.570  1.3618 -0.5633 -0.0218
 5336SOL     OW27469   1.296   2.569   2.078  0.4757  0.3996 -0.2614
 5336SOL    HW127470   1.275   2.476   2.065  1.0925  0.7656 -3.9745
 5336SOL    HW227471   1.243   2.604   2.007 -0.2454 -0.8738 -0.3635
 5337SOL     OW27472   3.370   3.523  11.896  0.2956  0.2181 -0.0328
 5337SOL    HW127473   3.335   3.551  11.811 -1.2027 -2.0009 -0.1175
 5337SOL    HW227474   3.296   3.484  11.942  0.2945 -0.5082 -0.6493
 5338SOL     OW27475   3.994   2.006   4.842 -0.0813 -1.1203 -0.2907
 5338SOL    HW127476   3.942   2.080   4.809  0.5226 -1.2552 -1.5386
 5338SOL    HW227477   3.943   1.929   4.817 -3.0476  0.7015  0.1300
 5339SOL     OW27478   4.211   3.206  11.352 -0.2145  0.4641  0.1495
 5339SOL    HW127479   4.238   3.117  11.378  1.8910  0.8731 -0.5904
 5339SOL    HW227480   4.216   3.250  11.437 -0.1323  1.3855 -0.3377
 5340SOL     OW27481   4.317   1.348   0.702  0.0651 -0.1276 -0.3062
 5340SOL    HW127482   4.368   1.339   0.621 -1.8929  0.4895 -1.6060
 5340SOL    HW227483   4.377   1.387   0.766  0.9110 -1.0145 -0.5469
 5341SOL     OW27484   2.693   1.580   7.314  0.2512 -0.5098 -0.1147
 5341SOL    HW127485   2.752   1.598   7.387 -2.2751  2.2716  1.2817
 5341SOL    HW227486   2.754   1.598   7.243  1.3370 -2.5297  0.3227
 5342SOL     OW27487   0.234   2.702   3.652 -0.2429 -0.4882  0.2926
 5342SOL    HW127488   0.310   2.739   3.698 -0.0249 -0.4442 -0.1033
 5342SOL    HW227489   0.280   2.619   3.638 -1.2001 -0.4729 -2.8577
 5343SOL     OW27490   2.500   2.666   7.442  0.4965  0.3470  0.0495
 5343SOL    HW127491   2.447   2.633   7.515  1.9237  1.1486  1.4308
 5343SOL    HW227492   2.502   2.760   7.463 -0.5182 -0.1184  2.2043
 5344SOL     OW27493   4.593   3.653  14.186  0.2716  0.2589 -0.2928
 5344SOL    HW127494   4.547   3.589  14.132 -1.5535  2.4156 -1.2898
 5344SOL    HW227495   4.563   3.733  14.143  0.3598 -1.1503 -2.9855
 5345SOL     OW27496   1.662   0.024   5.198  0.0415 -0.2964 -0.3287
 5345SOL    HW127497   1.702   4.699   5.127 -0.1535  1.5439 -1.7536
 5345SOL    HW227498   1.616   0.089   5.146  0.8117  1.3682  1.0647
 5346SOL     OW27499   3.564   1.375  11.054  0.2228  0.0470  0.1222
 5346SOL    HW127500   3.567   1.430  11.132  1.2207  1.5085 -0.9194
 5346SOL    HW227501   3.642   1.324  11.074  0.9277  0.7198 -0.8625
 5347SOL     OW27502   1.973   1.858   2.491  0.2703 -0.2347  0.3554
 5347SOL    HW127503   1.937   1.944   2.511 -1.4971 -0.9566  0.2708
 5347SOL    HW227504   1.960   1.862   2.396  0.6230 -0.2002  0.3095
 5348SOL     OW27505   4.425   0.107   2.141  0.0438 -0.2824 -0.1120
 5348SOL    HW127506   4.487   0.176   2.164 -0.7028 -0.1280  1.4346
 5348SOL    HW227507   4.438   0.113   2.047 -1.7986  0.8689 -0.3034
 5349SOL     OW27508   3.961   0.332   4.546 -0.0401 -0.1397  0.2908
 5349SOL    HW127509   4.010   0.336   4.628  1.7585  2.8688 -0.9350
 5349SOL    HW227510   3.891   0.269   4.561 -0.6897  0.7645  1.0974
 5350SOL     OW27511   2.876   2.496  12.936  0.2109 -0.6063 -0.0085
 5350SOL    HW127512   2.914   2.438  12.871  1.1085  1.3287 -1.2123
 5350SOL    HW227513   2.844   2.576  12.894  2.6909  0.8377  0.8338
 5351SOL     OW27514   3.924   0.633  11.949  0.0446 -0.0039 -0.6760
 5351SOL    HW127515   3.939   0.723  11.978 -0.7414 -0.7576  2.1068
 5351SOL    HW227516   3.989   0.582  11.997 -3.7814 -2.3611  2.0449
 5352SOL     OW27517   1.998   2.579   9.409 -0.9394 -0.1631  0.0523
 5352SOL    HW127518   1.975   2.666   9.443 -0.2015  0.0339  0.0444
 5352SOL    HW227519   1.998   2.595   9.315 -3.8814  0.7673  0.2114
 5353SOL     OW27520   3.740   3.830   7.079 -0.1873 -0.4734  0.1703
 5353SOL    HW127521   3.707   3.771   7.146 -1.6717 -1.1058 -1.1086
 5353SOL    HW227522   3.762   3.769   7.008  1.3154 -1.2303  1.3129
 5354SOL     OW27523   4.684   2.379   5.731  0.1226 -0.2401  0.0129
 5354SOL    HW127524   4.698   2.414   5.820  0.5775 -2.8727  0.9745
 5354SOL    HW227525   4.610   2.325   5.759  2.0105 -3.2901 -0.8644
 5355SOL     OW27526   3.148   4.556   3.619 -0.5913 -0.6055 -0.3848
 5355SOL    HW127527   3.065   4.573   3.662 -1.4531 -0.5463 -2.0788
 5355SOL    HW227528   3.204   4.631   3.642  0.9876 -1.4333 -1.4787
 5356SOL     OW27529   0.915   4.629  15.671  0.1496 -0.2852 -0.2570
 5356SOL    HW127530   0.891   4.621  15.764  0.9350  2.3025  0.1711
 5356SOL    HW227531   1.006   4.603  15.669  0.2868  0.2064 -0.4837
 5357SOL     OW27532   3.662   0.228  13.032  0.2936 -0.4209 -0.2045
 5357SOL    HW127533   3.753   0.210  13.007  1.2424  3.3657  0.4319
 5357SOL    HW227534   3.676   0.274  13.115  1.0193 -0.9714 -0.0216
 5358SOL     OW27535   4.716   1.973   1.572 -0.2517  0.1521 -0.0735
 5358SOL    HW127536   0.001   1.988   1.478 -1.6667 -0.7391 -0.3749
 5358SOL    HW227537   0.084   1.983   1.590 -0.1230 -2.2167  0.5369
 5359SOL     OW27538   1.236   1.196   7.768 -0.4725  0.5831  0.3178
 5359SOL    HW127539   1.259   1.112   7.808 -0.9289  0.7224  0.8556
 5359SOL    HW227540   1.157   1.227   7.812  0.2300  2.2964  0.3810
 5360SOL     OW27541   1.153   1.270   8.464 -0.4403 -0.8249 -0.0432
 5360SOL    HW127542   1.098   1.338   8.503 -1.2733 -1.4556 -0.1302
 5360SOL    HW227543   1.228   1.316   8.426 -0.8073  0.3691  0.6814
 5361SOL     OW27544   1.204   3.493   5.791  0.0417  0.1167 -0.1934
 5361SOL    HW127545   1.253   3.534   5.720 -0.3650  0.4767 -0.2652
 5361SOL    HW227546   1.177   3.566   5.846 -2.9159 -0.2913 -1.0612
 5362SOL     OW27547   0.889   2.947  13.126 -0.3974  0.8848 -0.5048
 5362SOL    HW127548   0.975   2.945  13.083  0.1420 -0.7256  0.6630
 5362SOL    HW227549   0.921   2.959  13.215 -0.1552 -1.2176 -0.3229
 5363SOL     OW27550   4.296   0.549   4.662  0.6348  0.6759 -0.3910
 5363SOL    HW127551   4.361   0.522   4.598 -0.4244 -1.6955 -0.4569
 5363SOL    HW227552   4.333   0.511   4.742 -1.1852  1.4177  0.8151
 5364SOL     OW27553   1.530   3.317   8.669 -0.6493 -0.3163 -0.6365
 5364SOL    HW127554   1.557   3.240   8.719 -0.1979  0.2935  0.0560
 5364SOL    HW227555   1.435   3.313   8.682 -0.5154 -1.2847  0.0071
 5365SOL     OW27556   1.286   0.739  13.363  0.0289  0.0138  0.1742
 5365SOL    HW127557   1.226   0.770  13.430  0.9939  1.7342  0.2475
 5365SOL    HW227558   1.369   0.759  13.405  1.2936  1.7090 -3.1377
 5366SOL     OW27559   0.358   1.831   0.529 -0.0213  0.4786  0.2615
 5366SOL    HW127560   0.409   1.788   0.599 -0.8727  1.9879  1.7965
 5366SOL    HW227561   0.268   1.826   0.560  0.1537 -1.4023  0.5299
 5367SOL     OW27562   4.628   1.272   2.653 -0.2006 -0.0824 -0.5052
 5367SOL    HW127563   4.570   1.231   2.717 -1.4284  3.1529  0.4950
 5367SOL    HW227564   4.568   1.334   2.612  0.4219  0.1901 -1.0106
 5368SOL     OW27565   1.142   1.925   2.257 -0.0161  0.0057 -0.6543
 5368SOL    HW127566   1.098   1.921   2.171  0.2136  2.4623 -0.8733
 5368SOL    HW227567   1.232   1.910   2.230  1.5132 -0.0708  4.6078
 5369SOL     OW27568   4.616   2.410   3.855  0.5310  0.1089  0.1928
 5369SOL    HW127569   4.660   2.377   3.934 -1.0208  0.4252  1.1841
 5369SOL    HW227570   4.654   2.497   3.852 -0.9974  0.7397 -0.4826
 5370SOL     OW27571   1.485   4.414   8.322  0.3417 -0.3952 -0.2119
 5370SOL    HW127572   1.477   4.398   8.416 -1.6100  1.5625 -0.0539
 5370SOL    HW227573   1.490   4.326   8.284  0.3176 -0.3602 -0.2967
 5371SOL     OW27574   3.599   3.323   8.562  0.4119  0.3452  0.4124
 5371SOL    HW127575   3.560   3.344   8.647  1.8143  1.0667  0.8861
 5371SOL    HW227576   3.692   3.339   8.583  0.7397  2.1311 -2.5142
 5372SOL     OW27577   4.491   3.819   8.441  0.2209  0.0842  0.0847
 5372SOL    HW127578   4.580   3.851   8.425 -0.4023  0.3111 -2.8222
 5372SOL    HW227579   4.450   3.887   8.494 -0.3593 -0.1152 -0.1040
 5373SOL     OW27580   2.594   2.453   1.693  0.1573 -0.4124  0.2152
 5373SOL    HW127581   2.654   2.439   1.766 -0.2454 -0.1803  0.5881
 5373SOL    HW227582   2.621   2.539   1.663  0.3079 -0.6870 -0.4460
 5374SOL     OW27583   3.196   3.199   4.322 -0.1515 -0.8806 -0.2005
 5374SOL    HW127584   3.238   3.280   4.352 -0.3006 -0.6807 -0.5237
 5374SOL    HW227585   3.251   3.141   4.374  0.5643 -0.2739 -0.2630
 5375SOL     OW27586   4.386   1.821   1.630 -0.4854  0.9243 -0.3802
 5375SOL    HW127587   4.475   1.817   1.664 -0.7658 -0.6791  0.1530
 5375SOL    HW227588   4.362   1.910   1.655 -0.6152 -0.3725  4.0190
 5376SOL     OW27589   3.700   4.685   3.844 -0.1116 -0.1379  0.3255
 5376SOL    HW127590   3.794   4.691   3.859 -0.3104  0.3619  1.4212
 5376SOL    HW227591   3.681   0.036   3.789  0.1743 -0.6858 -0.5280
 5377SOL     OW27592   3.777   2.094   0.712  0.3534  0.8228  0.2156
 5377SOL    HW127593   3.685   2.105   0.734  0.7649  1.0826  1.8026
 5377SOL    HW227594   3.822   2.063   0.791 -0.9338 -0.1043  0.5863
 5378SOL     OW27595   2.375   1.438   2.342  0.0041 -0.1149  0.3863
 5378SOL    HW127596   2.366   1.532   2.357 -0.5108 -0.0673 -0.2231
 5378SOL    HW227597   2.463   1.429   2.305  0.5210 -0.7173  1.7664
 5379SOL     OW27598   4.300   2.258  17.068 -0.5791 -0.6141  0.1761
 5379SOL    HW127599   4.300   2.162  17.070 -0.9903 -0.6293 -0.3599
 5379SOL    HW227600   4.337   2.293  17.148  1.0119  2.0950 -1.7441
 5380SOL     OW27601   0.149   4.457   9.188 -0.3108  0.1941  0.4022
 5380SOL    HW127602   0.144   4.458   9.284 -3.1694  0.0685  0.2386
 5380SOL    HW227603   0.232   4.417   9.160  0.0524  0.5507  0.9645
 5381SOL     OW27604   0.696   3.845   4.071  0.0114  0.3471  0.1400
 5381SOL    HW127605   0.741   3.779   4.017 -1.5956  1.5900 -2.7059
 5381SOL    HW227606   0.607   3.810   4.077 -1.2514  3.4585 -0.4436
 5382SOL     OW27607   1.581   1.430   8.727 -0.5966  0.1799 -0.0516
 5382SOL    HW127608   1.655   1.371   8.711 -2.0982 -1.4830 -0.9912
 5382SOL    HW227609   1.580   1.487   8.651 -1.6457 -0.2524 -0.3707
 5383SOL     OW27610   2.480   2.009   5.748  0.3273 -0.0006 -0.9001
 5383SOL    HW127611   2.497   1.916   5.734 -2.7035 -0.7649  0.6061
 5383SOL    HW227612   2.554   2.031   5.804 -0.5482 -0.7963  0.5713
 5384SOL     OW27613   2.475   3.925   0.113 -0.1993 -0.4156 -0.7960
 5384SOL    HW127614   2.521   4.009   0.124 -1.0764 -0.0037 -0.2852
 5384SOL    HW227615   2.498   3.903   0.023  3.3125  1.7140 -0.4381
 5385SOL     OW27616   4.460   2.654   7.102  0.0978 -0.2622 -0.0554
 5385SOL    HW127617   4.391   2.588   7.106  0.1354 -0.3671 -1.0657
 5385SOL    HW227618   4.533   2.607   7.061 -0.0133  0.6554 -1.2836
 5386SOL     OW27619   2.720   4.031  15.279  0.0901  0.1119 -0.0870
 5386SOL    HW127620   2.653   3.964  15.291  0.1343  0.4468  2.0500
 5386SOL    HW227621   2.744   4.065  15.366  1.3209  1.0093 -0.7798
 5387SOL     OW27622   3.558   3.123   8.065  0.0672  0.0520 -0.1910
 5387SOL    HW127623   3.474   3.130   8.020 -0.4359  1.1492  0.9291
 5387SOL    HW227624   3.529   3.155   8.150 -0.5561 -0.1892 -0.3142
 5388SOL     OW27625   2.331   3.616   1.943  0.4183  0.2867  0.4031
 5388SOL    HW127626   2.397   3.649   1.882  0.3201  0.5792  0.4529
 5388SOL    HW227627   2.360   3.646   2.029 -1.9399 -0.0118  1.3096
 5389SOL     OW27628   0.454   0.647   8.936  0.0582 -0.3833 -0.2665
 5389SOL    HW127629   0.443   0.643   9.031 -1.3401 -1.4753 -0.4697
 5389SOL    HW227630   0.531   0.703   8.926  0.7490 -1.2788  0.0759
 5390SOL     OW27631   3.998   3.957   4.591 -0.4429 -0.9086 -0.3546
 5390SOL    HW127632   3.977   4.029   4.531 -0.5243 -0.3370  0.3495
 5390SOL    HW227633   3.993   3.885   4.529  0.8205 -1.7921  0.5806
 5391SOL     OW27634   2.791   2.780  13.874  0.1810  0.0629  0.1406
 5391SOL    HW127635   2.778   2.824  13.957 -0.5311  1.3126 -0.6450
 5391SOL    HW227636   2.707   2.741  13.850 -0.3690  0.8097  0.8692
 5392SOL     OW27637   1.144   2.791  13.242  0.1526  0.2100  0.3573
 5392SOL    HW127638   1.129   2.854  13.171 -3.9541 -0.3951  0.6726
 5392SOL    HW227639   1.088   2.827  13.310 -3.8419 -1.3330 -2.0769
 5393SOL     OW27640   3.794   3.416   1.924 -0.3915  0.0232 -0.4446
 5393SOL    HW127641   3.799   3.320   1.928  0.9124  0.0432 -1.4933
 5393SOL    HW227642   3.766   3.429   1.833 -0.9236  0.3262 -0.2333
 5394SOL     OW27643   4.190   0.612   4.402 -0.2498  0.8741  0.9873
 5394SOL    HW127644   4.203   0.520   4.423 -1.7587  0.5079  0.3477
 5394SOL    HW227645   4.264   0.653   4.447  0.9039 -0.2804  0.1485
 5395SOL     OW27646   0.803   3.704   7.672  0.9575 -0.1347  0.0756
 5395SOL    HW127647   0.874   3.653   7.631  1.9250  0.6190  0.8292
 5395SOL    HW227648   0.747   3.643   7.720 -0.9565  0.6825 -1.1272
 5396SOL     OW27649   1.048   0.519  11.497  0.3062 -0.3331  0.1644
 5396SOL    HW127650   1.026   0.574  11.421  1.8112 -1.2777 -0.9589
 5396SOL    HW227651   0.978   0.456  11.485  1.0246 -1.2215  0.7009
 5397SOL     OW27652   3.992   3.586   8.989 -0.1901  0.1056  0.5247
 5397SOL    HW127653   4.051   3.522   8.950  0.1316  0.5210  0.3286
 5397SOL    HW227654   4.050   3.648   9.034  0.8027 -1.1950  1.0095
 5398SOL     OW27655   0.830   4.658   3.621  0.3572  0.1929 -0.2459
 5398SOL    HW127656   0.922   4.636   3.612  0.0446 -1.8668  1.6636
 5398SOL    HW227657   0.831   0.025   3.594  0.7314 -0.6599 -3.1366
 5399SOL     OW27658   2.649   3.520   2.793 -0.3125  0.2438  0.2516
 5399SOL    HW127659   2.606   3.586   2.738 -0.7250 -0.3287 -0.1201
 5399SOL    HW227660   2.619   3.559   2.875 -0.7538 -0.9128  0.6328
 5400SOL     OW27661   0.083   1.152  12.298  0.0340 -0.1384 -0.0665
 5400SOL    HW127662   0.039   1.174  12.379 -0.9295 -2.8619  0.1617
 5400SOL    HW227663   0.062   1.065  12.264 -0.4047 -0.3208  0.6828
 5401SOL     OW27664   4.447   0.126   3.559 -0.2570 -0.1671  0.3297
 5401SOL    HW127665   4.374   0.104   3.501  0.7824  3.9546 -2.5498
 5401SOL    HW227666   4.503   0.049   3.552 -0.4305 -0.2776  0.1644
 5402SOL     OW27667   3.026   3.509  13.735 -0.4191  0.8682 -0.5659
 5402SOL    HW127668   3.019   3.430  13.681  0.4026  0.7693 -0.5225
 5402SOL    HW227669   3.089   3.486  13.804  1.8885  0.1163 -2.9566
 5403SOL     OW27670   1.483   0.397   3.906 -0.5223  0.2215 -0.1748
 5403SOL    HW127671   1.390   0.422   3.900 -1.0678 -1.3549  1.7860
 5403SOL    HW227672   1.531   0.462   3.855 -0.5793  0.2562 -0.1847
 5404SOL     OW27673   3.245   0.597  13.763 -0.3344 -0.4987  0.3086
 5404SOL    HW127674   3.238   0.686  13.727  0.1854 -0.7784 -0.4731
 5404SOL    HW227675   3.338   0.594  13.784 -0.5448  0.3030  1.3900
 5405SOL     OW27676   1.505   4.019   4.977  0.2586  0.1254  0.2049
 5405SOL    HW127677   1.524   3.950   5.041  0.5384 -1.7666 -1.9064
 5405SOL    HW227678   1.516   3.981   4.890  0.3995  1.9572 -0.5604
 5406SOL     OW27679   3.262   1.338   8.528  0.0653  0.4000  0.0707
 5406SOL    HW127680   3.326   1.405   8.552  1.1777 -0.6006 -0.1249
 5406SOL    HW227681   3.293   1.262   8.577  2.7951  0.8682 -0.9644
 5407SOL     OW27682   0.967   2.738   4.922 -0.2723  0.1362  0.2307
 5407SOL    HW127683   0.979   2.784   5.005 -0.5611  1.7447 -0.6306
 5407SOL    HW227684   0.989   2.811   4.865 -1.7224  0.2537 -0.1704
 5408SOL     OW27685   0.629   2.350   6.181 -0.3557 -0.0265 -0.4160
 5408SOL    HW127686   0.664   2.435   6.154  1.4104 -1.6213 -3.1291
 5408SOL    HW227687   0.603   2.369   6.271 -2.7164 -3.3846 -0.3803
 5409SOL     OW27688   4.525   3.666  15.087  0.3607  0.0357 -0.5025
 5409SOL    HW127689   4.578   3.670  15.167  0.2702 -2.0784 -0.3327
 5409SOL    HW227690   4.523   3.759  15.064  1.8994 -0.1923 -1.5846
 5410SOL     OW27691   2.780   0.922   7.090 -0.2663 -0.6145 -0.3165
 5410SOL    HW127692   2.697   0.879   7.111 -0.9228  0.7156 -0.2055
 5410SOL    HW227693   2.834   0.853   7.050  2.7763  1.8406 -0.4582
 5411SOL     OW27694   3.396   2.136   2.987 -0.7168 -0.0311  0.2757
 5411SOL    HW127695   3.433   2.136   2.899  0.4034 -3.5545  0.7457
 5411SOL    HW227696   3.461   2.173   3.046 -2.2233  1.4420  1.0112
 5412SOL     OW27697   3.858   2.224   3.654  0.7912  0.1826 -0.1731
 5412SOL    HW127698   3.850   2.317   3.679  0.2346 -0.0421  0.4878
 5412SOL    HW227699   3.949   2.211   3.680  0.8122  1.7289  0.5632
 5413SOL     OW27700   2.055   2.027   6.381 -0.2506  0.0775  0.4822
 5413SOL    HW127701   2.056   2.121   6.365 -1.5197 -0.6025 -3.7317
 5413SOL    HW227702   2.099   2.001   6.300 -1.2844 -0.8017  0.1988
 5414SOL     OW27703   0.140   0.366   3.809 -0.4697  0.1760  0.1514
 5414SOL    HW127704   0.175   0.424   3.741 -0.4037 -0.3938 -0.3052
 5414SOL    HW227705   0.121   0.291   3.752 -2.2706  0.0012  0.9840
 5415SOL     OW27706   2.619   1.231   5.371 -0.1781  0.1097 -0.2169
 5415SOL    HW127707   2.580   1.168   5.310  0.4392 -0.5586  0.0768
 5415SOL    HW227708   2.614   1.170   5.445  1.6524  0.0220 -0.1668
 5416SOL     OW27709   3.486   3.209   3.451  0.7858 -0.7666 -0.2285
 5416SOL    HW127710   3.456   3.284   3.503 -2.1596 -2.1969  0.1125
 5416SOL    HW227711   3.422   3.140   3.469  0.3235 -0.3898 -0.4004
 5417SOL     OW27712   1.473   1.625   0.925 -0.2796 -0.1932  0.1270
 5417SOL    HW127713   1.389   1.634   0.881 -0.3331 -1.6101 -0.0544
 5417SOL    HW227714   1.524   1.590   0.852 -0.9410  0.3925 -0.6145
 5418SOL     OW27715   1.377   3.250   2.425  0.4304 -0.2154 -0.1735
 5418SOL    HW127716   1.469   3.223   2.425 -0.0086 -1.6420 -3.6278
 5418SOL    HW227717   1.378   3.344   2.440  2.2676  0.2269 -3.2025
 5419SOL     OW27718   2.221   1.257   8.245  0.0058  0.5778  0.0245
 5419SOL    HW127719   2.160   1.196   8.202 -0.7175  0.7862  0.7637
 5419SOL    HW227720   2.272   1.285   8.169 -1.8476 -0.6150 -1.6808
 5420SOL     OW27721   2.812   1.944   1.832 -0.4888 -0.0395  0.3905
 5420SOL    HW127722   2.809   2.013   1.899 -2.0021  2.2377 -2.0234
 5420SOL    HW227723   2.767   1.993   1.764 -0.4395  0.7474  0.9235
 5421SOL     OW27724   0.307   4.619   2.805 -0.3860  0.2474  0.2306
 5421SOL    HW127725   0.250   4.697   2.806 -3.4779 -1.9942 -0.6448
 5421SOL    HW227726   0.384   4.658   2.764 -0.9585  0.5650 -0.5516
 5422SOL     OW27727   1.755   0.881   2.175 -0.1250 -0.9398  0.0859
 5422SOL    HW127728   1.798   0.965   2.189 -3.2667  1.3400 -3.7456
 5422SOL    HW227729   1.665   0.909   2.159 -0.0400 -1.0119 -0.5315
 5423SOL     OW27730   1.438   0.006   8.436 -0.4096 -0.2344 -0.0440
 5423SOL    HW127731   1.370   4.691   8.490  0.3293 -1.8864 -0.3418
 5423SOL    HW227732   1.395   0.037   8.357 -0.2302 -0.0206 -0.0601
 5424SOL     OW27733   3.830   4.615   2.838  0.9514  0.7380 -0.5807
 5424SOL    HW127734   3.736   4.593   2.837  1.4607 -1.4610  0.7500
 5424SOL    HW227735   3.859   4.550   2.901 -1.0056 -0.2204 -0.6689
 5425SOL     OW27736   0.398   1.160  12.168 -0.1068 -0.2637 -0.7386
 5425SOL    HW127737   0.325   1.207  12.208 -1.1572 -2.3101 -0.2883
 5425SOL    HW227738   0.377   1.072  12.197  2.9726 -0.3693  1.1836
 5426SOL     OW27739   4.634   3.193   4.978 -0.1180 -0.1322  0.0439
 5426SOL    HW127740   4.661   3.149   4.898 -0.8186  0.0754 -0.3042
 5426SOL    HW227741   4.665   3.131   5.044  1.1551 -0.5506 -0.9506
 5427SOL     OW27742   2.629   0.321  11.211  0.3543 -0.0324 -0.1004
 5427SOL    HW127743   2.682   0.273  11.147 -4.2179 -2.4605 -1.9921
 5427SOL    HW227744   2.639   0.406  11.167 -1.0588  0.2984  0.2275
 5428SOL     OW27745   0.604   1.768  11.724 -0.4374  0.4555 -0.0565
 5428SOL    HW127746   0.676   1.814  11.681  0.1892  0.0907  0.6057
 5428SOL    HW227747   0.641   1.681  11.710  1.4738  0.9252  2.0545
 5429SOL     OW27748   1.200   3.680   7.812 -0.0114 -0.1721 -0.3105
 5429SOL    HW127749   1.253   3.724   7.745 -0.2867  0.8300  0.1277
 5429SOL    HW227750   1.133   3.636   7.760 -0.3842 -2.5208  2.1520
 5430SOL     OW27751   2.030   1.445   4.610 -0.7398  0.2946  0.8933
 5430SOL    HW127752   2.105   1.385   4.607  0.8170  2.3903 -1.7569
 5430SOL    HW227753   1.977   1.375   4.647  1.4095 -0.1326  3.1994
 5431SOL     OW27754   3.905   2.919   5.772  0.5418  0.0142  0.4957
 5431SOL    HW127755   3.952   2.857   5.828 -0.0497 -0.2449  0.6999
 5431SOL    HW227756   3.966   2.932   5.699 -0.3072  1.6579  0.0867
 5432SOL     OW27757   3.128   0.893   6.202 -0.2460 -0.2905  0.1969
 5432SOL    HW127758   3.086   0.977   6.184 -2.0124 -1.3011 -0.5041
 5432SOL    HW227759   3.208   0.909   6.153 -0.7641  0.6863 -0.3236
 5433SOL     OW27760   2.333   3.303   4.243  0.0575 -0.1720  0.0124
 5433SOL    HW127761   2.297   3.359   4.174  1.9518  2.0369  0.8254
 5433SOL    HW227762   2.351   3.373   4.305  0.7972  0.9109 -1.4320
 5434SOL     OW27763   3.847   3.185   8.803  0.0654  0.0198 -0.2542
 5434SOL    HW127764   3.841   3.274   8.768  1.6924  0.0460 -0.4645
 5434SOL    HW227765   3.758   3.174   8.836  0.6701 -0.8160  1.1094
 5435SOL     OW27766   2.756   4.660  10.572 -0.5060  0.3138 -0.2972
 5435SOL    HW127767   2.723   4.570  10.568  1.2090 -0.3950  1.7905
 5435SOL    HW227768   2.846   4.649  10.543  0.3792  1.0985  2.1341
 5436SOL     OW27769   3.877   3.674   2.346  0.4499  0.1771  0.1559
 5436SOL    HW127770   3.782   3.685   2.350  0.4889  0.7524 -0.5857
 5436SOL    HW227771   3.867   3.655   2.253 -0.3273  0.7109  0.1328
 5437SOL     OW27772   3.589   4.329   7.307 -0.1547 -0.3746 -0.6466
 5437SOL    HW127773   3.591   4.234   7.294 -2.7758 -0.2186 -2.3135
 5437SOL    HW227774   3.565   4.358   7.219 -2.3004 -1.2166 -0.3506
 5438SOL     OW27775   1.813   2.983   7.339  0.0182  0.3112 -0.7176
 5438SOL    HW127776   1.878   2.981   7.410 -1.6943 -3.3903  0.7614
 5438SOL    HW227777   1.744   3.034   7.381  0.2460  1.0418 -1.2323
 5439SOL     OW27778   2.354   0.189   4.637 -0.5326 -0.3269 -0.0101
 5439SOL    HW127779   2.362   0.099   4.669 -0.9031 -0.9821 -1.7570
 5439SOL    HW227780   2.387   0.246   4.706  0.1311 -1.7279  0.8209
 5440SOL     OW27781   2.375   3.403   7.684  0.3552 -0.1633  1.0462
 5440SOL    HW127782   2.357   3.472   7.747  0.5208  0.6298  0.2280
 5440SOL    HW227783   2.300   3.423   7.627  0.6743 -0.7843  0.4009
 5441SOL     OW27784   3.999   2.639  16.531 -0.0033 -0.0861 -0.7618
 5441SOL    HW127785   4.083   2.603  16.504 -0.2142 -0.2627 -1.1900
 5441SOL    HW227786   4.027   2.726  16.560  2.0462 -1.0159  0.0390
 5442SOL     OW27787   1.865   3.797   2.990  0.1005 -0.1473 -0.0566
 5442SOL    HW127788   1.832   3.750   2.914 -0.1285 -0.2627  0.1174
 5442SOL    HW227789   1.833   3.885   2.971  1.5587  1.0768  3.0467
 5443SOL     OW27790   1.239   4.480  12.437  0.1102  0.0179  0.3849
 5443SOL    HW127791   1.148   4.485  12.465 -0.6337 -1.0120 -1.9311
 5443SOL    HW227792   1.276   4.459  12.523  0.3191 -1.6897 -0.1328
 5444SOL     OW27793   4.376   4.614   4.729 -0.4315  0.1691  0.1124
 5444SOL    HW127794   4.418   4.677   4.787  1.1720  1.3641 -2.3246
 5444SOL    HW227795   4.310   4.577   4.787  0.9722 -1.3859  0.7234
 5445SOL     OW27796   2.531   3.373  10.047 -0.3409  0.1479 -0.9112
 5445SOL    HW127797   2.562   3.287  10.022  0.9648  0.1450  0.7748
 5445SOL    HW227798   2.490   3.356  10.132 -0.9071 -0.5357 -1.3264
 5446SOL     OW27799   3.912   3.212  17.098 -0.1633  0.3632  0.3005
 5446SOL    HW127800   3.996   3.245  17.065 -0.8461  2.6594  0.8385
 5446SOL    HW227801   3.933   3.128  17.137 -0.4717  0.6572  1.0957
 5447SOL     OW27802   1.758   4.294   6.956 -0.2105 -0.1434  0.2510
 5447SOL    HW127803   1.779   4.240   7.032  1.2973 -1.0888 -0.8329
 5447SOL    HW227804   1.691   4.241   6.914  0.6597  1.3174 -3.0017
 5448SOL     OW27805   0.641   2.668   8.774 -0.4180 -0.7753  0.1256
 5448SOL    HW127806   0.565   2.717   8.744  1.0218  0.7323 -1.0430
 5448SOL    HW227807   0.701   2.736   8.746 -0.3207 -0.0529  2.0875
 5449SOL     OW27808   1.574   3.050  10.672 -0.0825  0.0626 -0.2625
 5449SOL    HW127809   1.583   3.011  10.759  1.6649 -1.5890 -1.1853
 5449SOL    HW227810   1.565   2.978  10.609  0.8675  1.4434 -1.9503
 5450SOL     OW27811   2.922   1.375   0.953 -0.1035 -0.3268  0.0476
 5450SOL    HW127812   2.863   1.340   0.887  1.6768 -1.3070 -1.0119
 5450SOL    HW227813   2.923   1.467   0.927 -1.3984 -0.3835 -0.2349
 5451SOL     OW27814   1.220   3.950   9.158 -0.4899  0.2893  0.0195
 5451SOL    HW127815   1.275   4.020   9.124  0.7612 -0.9833 -0.5869
 5451SOL    HW227816   1.228   3.964   9.252 -1.3384 -2.2939  0.4796
 5452SOL     OW27817   3.230   1.999  11.356 -0.0416  0.3354 -0.5330
 5452SOL    HW127818   3.292   2.063  11.390  1.1070 -0.3936 -1.2501
 5452SOL    HW227819   3.236   1.927  11.419  1.4601  2.2584  1.5086
 5453SOL     OW27820   2.207   1.976   7.831  0.0126  0.6257 -0.0032
 5453SOL    HW127821   2.280   2.007   7.777 -0.4145 -0.8994 -1.4698
 5453SOL    HW227822   2.214   1.881   7.816  2.2055  1.0354 -1.5711
 5454SOL     OW27823   0.343   2.476   4.713  0.0303 -0.3217 -0.2267
 5454SOL    HW127824   0.259   2.507   4.746  0.7107  0.0773  1.1685
 5454SOL    HW227825   0.328   2.385   4.688  1.9031 -1.1543  1.6136
 5455SOL     OW27826   1.017   1.627   8.926 -0.2463 -0.0441 -0.2360
 5455SOL    HW127827   1.099   1.668   8.899 -0.4555  0.8828  0.5420
 5455SOL    HW227828   0.964   1.658   8.852 -1.5017 -1.8458 -0.1037
 5456SOL     OW27829   0.526   1.817   8.124  0.4296 -0.3762  0.8301
 5456SOL    HW127830   0.603   1.825   8.180 -1.8124  0.8586  3.7662
 5456SOL    HW227831   0.559   1.859   8.044  0.5247 -2.4764 -0.2397
 5457SOL     OW27832   4.542   3.240  16.229 -0.4000  0.5121  1.0685
 5457SOL    HW127833   4.522   3.264  16.319 -1.1335  0.8607  0.8130
 5457SOL    HW227834   4.628   3.281  16.229  0.5510 -1.5070  1.1978
 5458SOL     OW27835   3.041   2.421   3.801  0.9050  0.0052 -0.6631
 5458SOL    HW127836   3.114   2.417   3.864 -0.4168  0.4438  0.8825
 5458SOL    HW227837   3.086   2.459   3.726  0.0860  2.5193  0.1203
 5459SOL     OW27838   2.083   4.483  11.812  0.0416 -0.1069 -0.3400
 5459SOL    HW127839   2.120   4.497  11.725  0.9406 -1.9235 -0.2568
 5459SOL    HW227840   2.090   4.388  11.824 -1.0503 -0.3169 -1.2551
 5460SOL     OW27841   4.161   2.190   3.705  0.0038  0.1694  0.3367
 5460SOL    HW127842   4.247   2.155   3.726 -0.1338  0.5961  1.5960
 5460SOL    HW227843   4.177   2.201   3.611  2.9398 -0.0883  0.8154
 5461SOL     OW27844   3.175   4.361  16.340  0.4796  0.1978  0.3141
 5461SOL    HW127845   3.090   4.347  16.383  0.6111  0.5859  0.6936
 5461SOL    HW227846   3.144   4.395  16.256 -0.7726 -0.6265  0.4404
 5462SOL     OW27847   2.919   0.798  13.709  0.6181  0.0515 -0.2335
 5462SOL    HW127848   2.858   0.870  13.690  0.9164  0.8493  1.8846
 5462SOL    HW227849   2.993   0.818  13.652  1.2612 -1.6096  0.0232
 5463SOL     OW27850   4.439   2.497  11.307  0.0375 -0.1228 -0.2785
 5463SOL    HW127851   4.396   2.437  11.246 -1.3148  1.5004 -0.9133
 5463SOL    HW227852   4.401   2.576  11.269 -3.9167 -1.3111  1.1630
 5464SOL     OW27853   1.136   3.375   6.699  0.0094  0.1869 -0.3359
 5464SOL    HW127854   1.218   3.355   6.653 -0.0767 -0.9867  0.0030
 5464SOL    HW227855   1.088   3.295   6.679 -0.0188 -0.1700  1.1558
 5465SOL     OW27856   0.783   4.309   6.924 -0.5307 -0.1860  0.2902
 5465SOL    HW127857   0.746   4.263   6.999  1.2224 -0.4905  0.9719
 5465SOL    HW227858   0.867   4.321   6.967 -0.6519 -1.3594  0.8544
 5466SOL     OW27859   3.625   0.776  15.263 -0.2411 -0.2897 -0.1221
 5466SOL    HW127860   3.570   0.784  15.185 -1.1045  1.8473  0.7137
 5466SOL    HW227861   3.650   0.865  15.287 -0.6570 -0.5140  1.1617
 5467SOL     OW27862   4.105   4.150   3.463  0.5130 -0.1435 -0.0008
 5467SOL    HW127863   4.074   4.186   3.545  1.7922  2.4615 -0.6668
 5467SOL    HW227864   4.023   4.161   3.414  0.2469 -0.5726  0.3480
 5468SOL     OW27865   0.782   3.339   9.442  0.0224  0.4486 -0.4709
 5468SOL    HW127866   0.874   3.313   9.432 -0.6045 -1.6231 -0.6763
 5468SOL    HW227867   0.733   3.258   9.441  0.0649  0.3673  2.2759
 5469SOL     OW27868   3.404   2.485   9.089  0.1943 -0.3033  1.0441
 5469SOL    HW127869   3.418   2.396   9.056  0.3377  0.7154 -1.6814
 5469SOL    HW227870   3.376   2.528   9.008  0.6617 -1.3470  0.3197
 5470SOL     OW27871   2.473   1.227   7.830 -0.0415  0.2454  0.7906
 5470SOL    HW127872   2.515   1.143   7.813 -0.0464  0.2678  0.6659
 5470SOL    HW227873   2.400   1.226   7.768  0.6727  2.8018 -0.0833
 5471SOL     OW27874   1.649   2.701   5.067 -0.3468 -0.0357  0.1400
 5471SOL    HW127875   1.586   2.701   5.139  0.7990  2.2389  1.1332
 5471SOL    HW227876   1.597   2.670   4.992  2.9080  0.4088 -2.2900
 5472SOL     OW27877   1.015   2.673   7.945 -0.1150 -0.4682 -0.2673
 5472SOL    HW127878   0.973   2.644   8.026 -0.5978 -0.8109 -0.6405
 5472SOL    HW227879   0.943   2.710   7.894  0.0583 -0.2263 -0.3395
 5473SOL     OW27880   4.164   3.112   2.901 -0.2453 -0.3304  0.3048
 5473SOL    HW127881   4.111   3.155   2.834  1.2873  1.8702  0.4854
 5473SOL    HW227882   4.248   3.133   2.858 -1.7110  2.6588 -1.0850
 5474SOL     OW27883   2.182   2.882  15.104  0.3116 -0.1576 -0.5233
 5474SOL    HW127884   2.256   2.926  15.145 -2.1249  3.0745  0.3467
 5474SOL    HW227885   2.193   2.886  15.009  1.7091  3.6703 -0.1861
 5475SOL     OW27886   1.333   1.667   4.911 -0.0988 -0.3939  0.5728
 5475SOL    HW127887   1.382   1.635   4.834  2.7138  1.1753  1.7019
 5475SOL    HW227888   1.398   1.694   4.975 -0.7650  0.1509  1.0137
 5476SOL     OW27889   1.231   4.218   4.418  0.3045 -0.4212 -0.2661
 5476SOL    HW127890   1.225   4.271   4.498  0.2941  0.2612 -0.7173
 5476SOL    HW227891   1.139   4.194   4.409 -0.1356  1.8653 -1.7307
 5477SOL     OW27892   2.290   4.242  15.655  0.0508  0.1130 -0.1851
 5477SOL    HW127893   2.221   4.294  15.697 -0.5259  0.5256 -1.6552
 5477SOL    HW227894   2.358   4.262  15.720 -0.6864  0.1616  0.5723
 5478SOL     OW27895   0.205   1.519   7.690 -0.5730  0.7381 -0.2199
 5478SOL    HW127896   0.111   1.508   7.706 -0.5128  0.9712  0.3023
 5478SOL    HW227897   0.235   1.544   7.777 -2.0679 -0.6619  0.7064
 5479SOL     OW27898   4.244   2.669   2.316 -0.2115  0.3311 -0.2371
 5479SOL    HW127899   4.264   2.736   2.251 -0.9980  2.4734  1.7222
 5479SOL    HW227900   4.278   2.593   2.269 -0.5390 -0.6185  1.0726
 5480SOL     OW27901   4.436   1.285   0.464  0.0661 -0.2116 -0.1511
 5480SOL    HW127902   4.477   1.348   0.405  1.1328 -0.5072  0.2796
 5480SOL    HW227903   4.399   1.224   0.400  0.8567 -1.9961  1.0932
 5481SOL     OW27904   3.381   0.240  13.069  0.2317 -0.5597  0.7623
 5481SOL    HW127905   3.471   0.228  13.100  0.5581 -1.3388 -0.4644
 5481SOL    HW227906   3.401   0.227  12.976  1.2794 -0.8210  1.0229
 5482SOL     OW27907   0.889   3.912   8.528  0.1196  0.0751  0.1413
 5482SOL    HW127908   0.878   4.002   8.499 -0.9004 -0.5257 -1.3513
 5482SOL    HW227909   0.870   3.858   8.451 -1.0382  0.9148 -0.1693
 5483SOL     OW27910   2.312   3.309   5.628  0.1858  0.3146  0.4385
 5483SOL    HW127911   2.366   3.378   5.588  1.9971 -1.5870 -0.4183
 5483SOL    HW227912   2.260   3.360   5.690 -1.4465 -0.9353  0.1061
 5484SOL     OW27913   4.098   4.174   0.837 -0.5104 -0.0383 -0.1530
 5484SOL    HW127914   4.019   4.136   0.797 -0.7709 -1.2297  1.4935
 5484SOL    HW227915   4.070   4.182   0.928 -1.5231 -2.4473 -0.2439
 5485SOL     OW27916   4.378   0.076   2.469  0.1031 -1.0804  0.1799
 5485SOL    HW127917   4.286   0.050   2.475  0.0605 -0.1576  3.7539
 5485SOL    HW227918   4.366   0.169   2.447  0.0438 -1.0174  0.4668
 5486SOL     OW27919   2.811   0.636   9.532 -0.1199 -0.1669 -0.0277
 5486SOL    HW127920   2.877   0.596   9.589 -1.2094 -1.1775  0.5268
 5486SOL    HW227921   2.758   0.669   9.604  1.1889 -1.9669  1.7645
 5487SOL     OW27922   2.177   3.954   2.551  0.0378  0.5693  0.4709
 5487SOL    HW127923   2.262   3.948   2.593 -0.1945  3.2755  1.2921
 5487SOL    HW227924   2.197   3.986   2.463  2.6187  0.6887  1.1188
 5488SOL     OW27925   1.856   1.220   6.671  0.7536  0.3405 -0.1759
 5488SOL    HW127926   1.885   1.137   6.632  1.7703  0.0821  1.1437
 5488SOL    HW227927   1.929   1.231   6.731 -2.4173  1.3545  3.4678
 5489SOL     OW27928   2.711   1.913   0.929 -0.1478 -0.3357 -0.3452
 5489SOL    HW127929   2.791   1.861   0.939  1.6749  2.7031  0.7111
 5489SOL    HW227930   2.647   1.848   0.959 -4.8639  3.7470 -1.6493
 5490SOL     OW27931   1.240   0.057   5.548  0.1423 -0.0887  0.1871
 5490SOL    HW127932   1.310   0.040   5.611 -0.6226 -1.9862  0.5027
 5490SOL    HW227933   1.285   0.086   5.468 -1.2221  3.3540  0.6536
 5491SOL     OW27934   4.381   3.707   3.613  1.1376  0.4158  0.0067
 5491SOL    HW127935   4.323   3.783   3.617  0.4615 -0.1129  0.0906
 5491SOL    HW227936   4.389   3.712   3.518 -0.7992 -1.5476 -0.2539
 5492SOL     OW27937   2.163   0.003  12.894  0.1801  0.1865  0.5282
 5492SOL    HW127938   2.180   0.097  12.881 -1.5070  0.4806  0.4323
 5492SOL    HW227939   2.226   4.692  12.833 -0.1975  0.3842  0.0211
 5493SOL     OW27940   3.548   1.770   7.657  0.3637  0.0843 -0.3807
 5493SOL    HW127941   3.456   1.779   7.681  0.2232 -0.6162 -0.6548
 5493SOL    HW227942   3.579   1.705   7.720 -1.9878  1.6989  2.4552
 5494SOL     OW27943   0.254   0.133   2.173 -0.1285  1.0068  0.0484
 5494SOL    HW127944   0.335   0.120   2.222  1.0675  1.8078 -1.7026
 5494SOL    HW227945   0.197   0.080   2.229 -1.2243 -0.2769 -2.2724
 5495SOL     OW27946   2.723   2.383   0.076 -0.1851 -0.1162 -0.2405
 5495SOL    HW127947   2.808   2.380   0.119 -0.2382  1.7202  0.0081
 5495SOL    HW227948   2.658   2.371   0.146  1.5268 -2.0871  1.0128
 5496SOL     OW27949   3.536   4.288   3.771 -0.2392 -0.2432 -0.3928
 5496SOL    HW127950   3.618   4.274   3.820 -0.3592 -0.3128 -0.2112
 5496SOL    HW227951   3.583   4.329   3.698  0.1743  1.5471  0.8496
 5497SOL     OW27952   2.426   0.475   3.669 -0.5283  0.1229 -0.2230
 5497SOL    HW127953   2.459   0.478   3.758  3.8297  2.0059 -1.9185
 5497SOL    HW227954   2.336   0.504   3.685 -1.8467 -2.3890 -2.9713
 5498SOL     OW27955   0.123   3.614  14.175 -0.1368  0.9475 -0.0048
 5498SOL    HW127956   0.139   3.708  14.186  1.9287  0.6975 -0.8133
 5498SOL    HW227957   0.029   3.629  14.171  0.0040  1.8027 -0.1331
 5499SOL     OW27958   4.236   0.814  12.444 -0.0551  0.0320  0.3198
 5499SOL    HW127959   4.147   0.850  12.443 -0.6574 -1.4574  0.8532
 5499SOL    HW227960   4.237   0.760  12.365  0.6715  0.1326  0.2669
 5500SOL     OW27961   0.765   2.523   4.900 -0.2963 -0.3089  0.5583
 5500SOL    HW127962   0.836   2.587   4.908 -0.6799  0.2489 -0.5932
 5500SOL    HW227963   0.775   2.475   4.983  3.1658 -0.2600  0.1910
 5501SOL     OW27964   2.572   2.458   1.325  0.0777  0.6227  0.3432
 5501SOL    HW127965   2.498   2.507   1.360 -0.6190 -0.0760 -0.1451
 5501SOL    HW227966   2.635   2.529   1.307  2.3743 -0.8698  2.4525
 5502SOL     OW27967   2.650   0.641   5.567  0.2812  0.3517 -0.1463
 5502SOL    HW127968   2.629   0.633   5.474 -1.0964  0.3094  0.1653
 5502SOL    HW227969   2.720   0.576   5.580  0.3965  0.3693 -0.6634
 5503SOL     OW27970   2.736   0.987  16.385 -0.3390  0.1858 -0.2449
 5503SOL    HW127971   2.803   0.977  16.452  0.7082  2.1706 -1.0017
 5503SOL    HW227972   2.737   1.082  16.375  2.9438  0.2659  0.7259
 5504SOL     OW27973   3.595   0.034   8.895  0.4815 -0.7100 -0.1728
 5504SOL    HW127974   3.614   0.118   8.854 -1.4451 -0.2887 -0.1937
 5504SOL    HW227975   3.518   0.056   8.946  1.8771  0.3412  1.4971
 5505SOL     OW27976   2.847   3.666   3.988  0.2847  0.8909  0.3554
 5505SOL    HW127977   2.874   3.751   3.954 -0.2761  0.5273 -0.9761
 5505SOL    HW227978   2.878   3.603   3.923  0.9440  0.5395  0.9957
 5506SOL     OW27979   4.043   4.306   8.595  0.4207 -0.0460  0.1758
 5506SOL    HW127980   4.060   4.323   8.502  0.2856  0.0903  0.1760
 5506SOL    HW227981   3.967   4.365   8.604 -0.0729 -0.6116 -0.3092
 5507SOL     OW27982   4.178   1.037  13.634 -0.5461 -0.4444 -0.0227
 5507SOL    HW127983   4.270   1.042  13.606 -1.3340 -3.9628 -3.0879
 5507SOL    HW227984   4.157   0.945  13.619  0.8675 -0.9904  1.2619
 5508SOL     OW27985   0.783   2.205   5.849  0.1364 -0.4521 -0.0684
 5508SOL    HW127986   0.785   2.130   5.790  2.0019 -0.3281 -0.1664
 5508SOL    HW227987   0.699   2.246   5.830  0.3206 -0.0237  0.0620
 5509SOL     OW27988   2.004   1.487   6.196 -0.7964 -0.1376  0.1976
 5509SOL    HW127989   1.972   1.534   6.119  0.2549 -0.7335 -0.5993
 5509SOL    HW227990   2.023   1.563   6.251  0.3052 -1.9980  2.3507
 5510SOL     OW27991   4.023   2.184   7.712  0.2962 -0.5130 -0.0040
 5510SOL    HW127992   3.947   2.199   7.769  0.1793  0.7255 -0.4948
 5510SOL    HW227993   4.090   2.156   7.774 -1.1689 -1.2552  1.2674
 5511SOL     OW27994   2.547   3.005  15.659 -0.2092 -0.1584  0.1525
 5511SOL    HW127995   2.459   2.981  15.633  0.2942 -1.1734 -0.6054
 5511SOL    HW227996   2.566   3.071  15.592  3.1662 -0.7470  0.5213
 5512SOL     OW27997   0.221   4.499   4.355 -0.4606 -0.1072  0.0376
 5512SOL    HW127998   0.290   4.542   4.405 -2.8849  2.0538  1.5639
 5512SOL    HW227999   0.200   4.431   4.419  0.0677 -0.0645  0.2571
 5513SOL     OW28000   4.055   3.561   1.810 -0.1728  0.0407 -0.4787
 5513SOL    HW128001   3.984   3.570   1.873  0.8053 -0.2897  0.6777
 5513SOL    HW228002   4.081   3.652   1.793  1.5015 -0.4611 -0.6390
 5514SOL     OW28003   4.177   0.711   2.562 -0.0139  0.0173 -0.4883
 5514SOL    HW128004   4.131   0.723   2.478 -1.6840 -2.1862  0.0908
 5514SOL    HW228005   4.245   0.645   2.548  0.5618  0.7985 -1.3759
 5515SOL     OW28006   0.737   0.253   6.227 -0.3774  0.5185 -0.6471
 5515SOL    HW128007   0.783   0.329   6.263 -0.9105  0.8780 -0.7253
 5515SOL    HW228008   0.809   0.191   6.217 -0.3325  0.1600  1.9681
 5516SOL     OW28009   0.381   2.654  17.392 -0.3601 -0.2983 -0.2297
 5516SOL    HW128010   0.388   2.564  17.423 -0.9510 -0.0804  0.5400
 5516SOL    HW228011   0.417   2.690  17.473  1.5821 -0.6873 -0.9281
 5517SOL     OW28012   0.497   4.018   7.821  0.1375 -0.4793 -0.1678
 5517SOL    HW128013   0.442   4.096   7.809 -1.0369 -1.0891  1.3058
 5517SOL    HW228014   0.582   4.045   7.786  0.4971  0.1025  1.1616
 5518SOL     OW28015   3.327   2.766  14.687  0.4825 -0.4198 -0.1488
 5518SOL    HW128016   3.271   2.742  14.761  2.0082 -2.0754  0.4456
 5518SOL    HW228017   3.373   2.847  14.710 -0.6638  0.3050 -0.4015
 5519SOL     OW28018   1.188   4.072   7.767 -0.2017 -0.5527 -0.6253
 5519SOL    HW128019   1.171   4.148   7.823 -0.4189  0.4795 -2.0990
 5519SOL    HW228020   1.182   4.006   7.837 -0.0037 -0.1026 -0.1815
 5520SOL     OW28021   3.575   1.456   7.419 -0.4419  0.4147 -0.5649
 5520SOL    HW128022   3.536   1.511   7.351  2.6937  2.5149 -0.7145
 5520SOL    HW228023   3.578   1.367   7.384  2.3143  0.0264  0.6658
 5521SOL     OW28024   1.038   4.574   2.027 -0.4887  0.4186 -0.0329
 5521SOL    HW128025   1.055   4.488   2.064 -1.6996  0.8824  1.6110
 5521SOL    HW228026   1.042   4.547   1.935  3.1211 -0.3781  0.3609
 5522SOL     OW28027   3.460   3.771   5.609  0.3282 -0.1982 -0.0375
 5522SOL    HW128028   3.428   3.754   5.520 -1.0472  0.7294  0.2688
 5522SOL    HW228029   3.514   3.850   5.603  0.1951  0.1556  3.8073
 5523SOL     OW28030   0.511   0.225  14.838 -0.2411  0.2679 -0.5643
 5523SOL    HW128031   0.540   0.135  14.852  0.0951  0.6488  1.2294
 5523SOL    HW228032   0.489   0.259  14.925  1.1364  0.4112 -0.2783
 5524SOL     OW28033   2.266   1.516  16.820 -0.0465 -0.3269  0.3702
 5524SOL    HW128034   2.179   1.507  16.781 -0.6156 -0.1325  1.5981
 5524SOL    HW228035   2.257   1.432  16.865  1.3089 -1.1468 -0.9082
 5525SOL     OW28036   2.092   0.375  16.041  0.0837  0.0015  0.1320
 5525SOL    HW128037   2.001   0.404  16.039  0.4721  1.2521  0.4876
 5525SOL    HW228038   2.117   0.376  15.949  0.2630  1.1561  0.1879
 5526SOL     OW28039   3.478   3.187   7.196  0.0741 -0.2175  0.0171
 5526SOL    HW128040   3.453   3.113   7.142  2.9118 -0.5328 -0.8796
 5526SOL    HW228041   3.572   3.191   7.179 -0.1681  0.9702 -1.0874
 5527SOL     OW28042   1.126   3.766   5.085 -0.2557 -0.3198 -0.2222
 5527SOL    HW128043   1.053   3.725   5.039  0.3445 -0.0362 -1.4106
 5527SOL    HW228044   1.118   3.860   5.071  0.0198 -0.4930 -1.4767
 5528SOL     OW28045   1.975   3.078   7.104 -0.3157 -0.4182 -0.3294
 5528SOL    HW128046   1.890   3.046   7.134 -0.8966  0.2727 -1.2398
 5528SOL    HW228047   1.952   3.167   7.077 -1.0291 -1.0422 -1.7852
 5529SOL     OW28048   4.048   1.361   4.228 -0.1648  0.5081  0.0089
 5529SOL    HW128049   4.116   1.320   4.174 -0.1954  1.4988 -0.7870
 5529SOL    HW228050   4.103   1.420   4.278  0.8109 -0.2866 -0.1246
 5530SOL     OW28051   1.826   1.908   5.815  0.6162 -0.1688 -0.3840
 5530SOL    HW128052   1.851   1.977   5.753 -1.1753 -0.2894 -1.2431
 5530SOL    HW228053   1.878   1.933   5.891 -0.4376 -0.0156  0.2813
 5531SOL     OW28054   2.240   2.309   2.168  0.5033  0.0503  0.0666
 5531SOL    HW128055   2.147   2.321   2.151  0.6318  0.4565 -0.3807
 5531SOL    HW228056   2.256   2.221   2.132  0.9948 -0.2423  1.0076
 5532SOL     OW28057   3.187   3.418   0.018  0.4199 -0.3876 -0.0291
 5532SOL    HW128058   3.269   3.437   0.064 -0.4498 -3.5162  2.8674
 5532SOL    HW228059   3.135   3.417   0.099 -1.5024  1.5175 -1.2520
 5533SOL     OW28060   0.509   1.306  13.409 -0.0209  0.1699  0.5346
 5533SOL    HW128061   0.590   1.352  13.384  0.0894  0.9715  2.3485
 5533SOL    HW228062   0.534   1.261  13.490 -0.9552  1.4405  1.5206
 5534SOL     OW28063   1.815   1.945   0.834  0.1784 -0.2575 -0.0626
 5534SOL    HW128064   1.760   1.894   0.893  0.0050 -1.6507 -1.4152
 5534SOL    HW228065   1.893   1.951   0.888 -0.4499  2.9377  0.5055
 5535SOL     OW28066   0.403   1.499   9.083  0.0678 -0.4958 -0.1690
 5535SOL    HW128067   0.475   1.542   9.128 -0.9621  0.5890  0.4493
 5535SOL    HW228068   0.365   1.436   9.144  1.1071 -0.6246  0.3253
 5536SOL     OW28069   0.184   1.289   6.647 -0.3587 -0.0389  0.2445
 5536SOL    HW128070   0.260   1.311   6.593 -0.2369  0.6192  0.6853
 5536SOL    HW228071   0.218   1.287   6.736  0.2739 -0.1284  0.0008
 5537SOL     OW28072   2.299   0.257   5.205 -0.1631  0.0416  0.6457
 5537SOL    HW128073   2.226   0.196   5.203 -0.4479  0.3926  0.0050
 5537SOL    HW228074   2.318   0.272   5.112 -0.7895  0.6700  0.6159
 5538SOL     OW28075   3.938   1.316  12.069  0.1247 -0.1246 -0.0802
 5538SOL    HW128076   3.993   1.395  12.061 -1.0729  0.5960 -1.0618
 5538SOL    HW228077   3.874   1.350  12.131 -1.0589  1.1411 -2.0119
 5539SOL     OW28078   0.446   4.145  15.504 -0.1101 -0.2840 -0.1547
 5539SOL    HW128079   0.382   4.122  15.437  0.4488 -0.1023 -0.7536
 5539SOL    HW228080   0.517   4.140  15.439  1.5896  1.0581  1.6021
 5540SOL     OW28081   4.497   4.358   5.679  0.9164  0.9484 -0.2129
 5540SOL    HW128082   4.406   4.387   5.687  0.7168  0.4666 -0.7268
 5540SOL    HW228083   4.502   4.267   5.708 -2.1663  1.0710  0.7258
 5541SOL     OW28084   3.474   2.867   2.120 -0.0317  0.2091 -0.2187
 5541SOL    HW128085   3.380   2.881   2.124  0.0995  1.2459 -0.6753
 5541SOL    HW228086   3.483   2.821   2.036 -1.4185  0.6447 -0.6090
 5542SOL     OW28087   0.443   3.229   7.459  0.0296 -0.2928 -0.1274
 5542SOL    HW128088   0.480   3.143   7.477  0.0956  0.4266  3.1551
 5542SOL    HW228089   0.381   3.212   7.388  0.7997  0.2370 -0.9421
 5543SOL     OW28090   2.120   2.603   5.307  0.6434 -0.1997 -0.1312
 5543SOL    HW128091   2.121   2.687   5.353  0.3022 -0.8621  1.1035
 5543SOL    HW228092   2.061   2.555   5.365  0.5112  1.8484  1.4574
 5544SOL     OW28093   4.271   4.067   4.635 -0.7204 -0.1475  0.2148
 5544SOL    HW128094   4.257   3.981   4.676 -0.6552 -1.2087 -1.9732
 5544SOL    HW228095   4.248   4.042   4.545 -0.1114 -0.6586  0.1947
 5545SOL     OW28096   3.619   0.587   3.579 -0.5544 -0.4500  0.1022
 5545SOL    HW128097   3.562   0.654   3.541  0.2733  0.3137  0.2235
 5545SOL    HW228098   3.672   0.559   3.505 -0.6099  0.2571 -0.2061
 5546SOL     OW28099   3.488   4.671   4.010 -0.1301  0.1699 -0.2963
 5546SOL    HW128100   3.578   4.678   3.977 -0.3813 -1.8133 -1.3727
 5546SOL    HW228101   3.430   4.678   3.935  0.8192 -1.9983 -1.2270
 5547SOL     OW28102   4.432   2.814   1.367 -0.1802  0.1710  0.3504
 5547SOL    HW128103   4.485   2.869   1.425  0.4884 -0.6917  0.5614
 5547SOL    HW228104   4.479   2.841   1.288  0.4684 -2.7778 -0.2654
 5548SOL     OW28105   2.024   0.328  16.699  0.1524 -0.0290  0.5188
 5548SOL    HW128106   2.112   0.297  16.720 -0.0892 -0.7868  0.4347
 5548SOL    HW228107   1.977   0.296  16.776 -0.4066  0.1329  0.2474
 5549SOL     OW28108   1.337   0.124  16.286 -0.2672 -0.5977 -0.1670
 5549SOL    HW128109   1.348   0.183  16.361  0.7659 -1.0328  0.0277
 5549SOL    HW228110   1.260   0.079  16.319  0.4864 -0.2090  2.1383
 5550SOL     OW28111   3.206   2.204   4.289 -0.3070  0.3080 -0.1753
 5550SOL    HW128112   3.159   2.192   4.207  0.2958  0.1338 -0.4899
 5550SOL    HW228113   3.147   2.170   4.357  2.4265  0.6862  2.3952
 5551SOL     OW28114   4.486   3.708  16.713 -0.3053 -0.1101  0.0798
 5551SOL    HW128115   4.395   3.677  16.719 -1.1174  1.8752 -1.7457
 5551SOL    HW228116   4.489   3.731  16.806 -0.8214  0.0318  0.0641
 5552SOL     OW28117   1.061   3.747  11.759 -0.1573  0.4087  0.4375
 5552SOL    HW128118   1.149   3.770  11.728  0.2310  0.3006  1.4458
 5552SOL    HW228119   1.047   3.655  11.781 -3.2810  0.7686 -0.1227
 5553SOL     OW28120   1.912   0.414   2.269  0.1997  0.4097  0.5274
 5553SOL    HW128121   1.845   0.429   2.335 -1.2480  0.0286 -0.8432
 5553SOL    HW228122   1.907   0.498   2.223 -1.2176  0.6863  1.2027
 5554SOL     OW28123   2.497   2.505  13.097  0.4238 -0.3287 -0.1636
 5554SOL    HW128124   2.536   2.418  13.108 -0.6263 -0.8508 -0.4981
 5554SOL    HW228125   2.503   2.556  13.178 -3.2712  0.1252 -0.1760
 5555SOL     OW28126   2.238   0.646   2.173 -0.1902  0.5302 -0.2452
 5555SOL    HW128127   2.250   0.599   2.255  0.6820  1.6566  0.2893
 5555SOL    HW228128   2.152   0.686   2.185  0.3122  1.4843  0.1600
 5556SOL     OW28129   0.883   4.548   2.340 -0.0106 -0.0549 -0.8324
 5556SOL    HW128130   0.799   4.590   2.362  1.0316  2.1667 -1.1868
 5556SOL    HW228131   0.874   4.468   2.392 -1.3751 -1.1083 -2.6661
 5557SOL     OW28132   3.834   4.475  11.372  0.2054 -0.1907 -0.0832
 5557SOL    HW128133   3.894   4.526  11.319  1.5497 -1.6104  0.0734
 5557SOL    HW228134   3.889   4.404  11.405 -1.8580 -1.2196  1.1502
 5558SOL     OW28135   2.632   0.557   3.082  0.3860  0.2409  0.1167
 5558SOL    HW128136   2.550   0.589   3.118 -1.0591 -1.6917 -1.4366
 5558SOL    HW228137   2.702   0.604   3.127 -1.0021  2.5071 -0.0936
 5559SOL     OW28138   1.972   3.854   5.814 -0.2625  0.0002 -1.0061
 5559SOL    HW128139   2.064   3.873   5.830 -0.3806 -0.7904  0.5718
 5559SOL    HW228140   1.928   3.907   5.880  0.0575 -1.1211  0.1119
 5560SOL     OW28141   3.725   1.079   6.133 -0.8599 -0.8349  0.5693
 5560SOL    HW128142   3.677   1.069   6.216  0.1626  1.3948  1.4292
 5560SOL    HW228143   3.708   1.170   6.109 -1.4633 -0.4513  2.4504
 5561SOL     OW28144   1.665   2.483   6.006 -0.3166 -0.2049 -0.0167
 5561SOL    HW128145   1.740   2.519   6.053 -0.7290 -1.2030  1.4221
 5561SOL    HW228146   1.631   2.560   5.960  1.1186  1.3670  1.5597
 5562SOL     OW28147   1.350   3.394   3.396 -0.2221 -0.4117 -0.1551
 5562SOL    HW128148   1.400   3.364   3.320  0.7324 -1.2373  0.8034
 5562SOL    HW228149   1.423   3.435   3.444  0.6514 -3.1130  0.8131
 5563SOL     OW28150   1.706   2.245   0.675  0.5275  0.1610  0.5050
 5563SOL    HW128151   1.712   2.273   0.766  2.4609 -0.8669  0.6854
 5563SOL    HW228152   1.616   2.214   0.666  0.0258  1.8598 -0.5181
 5564SOL     OW28153   2.389   2.363   6.830  0.2228 -0.2607 -0.8744
 5564SOL    HW128154   2.335   2.363   6.751 -1.0276 -0.0792 -0.0243
 5564SOL    HW228155   2.396   2.453   6.864  0.4268 -0.8413  0.6477
 5565SOL     OW28156   3.690   0.765   4.509  0.6640  0.2327 -0.3808
 5565SOL    HW128157   3.767   0.814   4.536  0.5669  0.3307 -0.2812
 5565SOL    HW228158   3.738   0.684   4.492  0.9921  0.8188 -2.2222
 5566SOL     OW28159   2.692   0.191   0.332  0.0878  0.4478  0.1766
 5566SOL    HW128160   2.692   0.208   0.237  1.4211  2.4292  0.5294
 5566SOL    HW228161   2.761   0.125   0.328  2.4900  2.9629 -0.7088
 5567SOL     OW28162   1.583   2.353  15.346  0.4064  0.1998  0.1258
 5567SOL    HW128163   1.653   2.358  15.281  0.1754 -0.0388 -0.1403
 5567SOL    HW228164   1.557   2.445  15.337  1.2130  0.3681 -0.4880
 5568SOL     OW28165   1.820   0.196   9.239 -0.4943 -0.2560  0.3964
 5568SOL    HW128166   1.731   0.166   9.219 -1.1199  2.2981 -0.5836
 5568SOL    HW228167   1.811   0.233   9.327  0.8894 -0.0000  0.4341
 5569SOL     OW28168   1.458   3.579   8.440  0.0043  0.7133 -0.0607
 5569SOL    HW128169   1.552   3.564   8.426 -0.5859 -1.9807 -1.1595
 5569SOL    HW228170   1.430   3.506   8.384  1.4877 -0.3560  0.5709
 5570SOL     OW28171   2.911   2.147   2.001  0.3617 -0.1003  0.2635
 5570SOL    HW128172   2.929   2.241   1.993 -0.5565  0.2253  1.9723
 5570SOL    HW228173   2.836   2.159   2.059 -0.3914 -2.0704 -0.3000
 5571SOL     OW28174   2.352   2.174   5.964 -0.3438 -0.1607 -0.1762
 5571SOL    HW128175   2.405   2.253   5.954  0.8807 -0.8500  0.8428
 5571SOL    HW228176   2.381   2.129   5.885  1.6412 -0.7476  0.8634
 5572SOL     OW28177   0.529   4.358   2.217  0.2939 -0.4142 -0.4550
 5572SOL    HW128178   0.524   4.332   2.125 -0.6407  1.0524 -0.8163
 5572SOL    HW228179   0.553   4.450   2.205  1.5928 -1.0026 -2.4067
 5573SOL     OW28180   0.574   3.596   8.358  0.3173  0.1723 -0.4033
 5573SOL    HW128181   0.521   3.544   8.418  1.5885 -2.6278 -1.6610
 5573SOL    HW228182   0.653   3.542   8.347  0.7540  0.9077 -0.8933
 5574SOL     OW28183   4.252   0.148   3.070  0.6683  0.5363  0.8826
 5574SOL    HW128184   4.305   0.227   3.056  0.6516  0.8367  2.4547
 5574SOL    HW228185   4.285   0.133   3.159 -0.6043  0.9445  1.4260
 5575SOL     OW28186   3.146   4.042  16.531  0.4787  0.1823  0.4949
 5575SOL    HW128187   3.094   4.109  16.576 -1.0766  0.0004 -1.0027
 5575SOL    HW228188   3.229   4.046  16.579  0.3514 -0.2700  0.7497
 5576SOL     OW28189   1.185   4.600   5.847 -0.9543  0.1861  0.1077
 5576SOL    HW128190   1.207   4.512   5.880 -3.0536  0.5511  2.4884
 5576SOL    HW228191   1.182   4.587   5.752 -0.5278  0.2916  0.0808
 5577SOL     OW28192   2.489   2.108   4.522  0.0109  0.7973 -0.5924
 5577SOL    HW128193   2.482   2.155   4.605 -1.4722 -0.5580  0.0408
 5577SOL    HW228194   2.570   2.150   4.492 -1.4328  1.9530 -2.8512
 5578SOL     OW28195   3.679   3.590  12.951  0.3171 -0.1020  0.4096
 5578SOL    HW128196   3.634   3.506  12.963  0.5088 -0.6003 -2.4183
 5578SOL    HW228197   3.722   3.586  13.037  0.4966 -2.4667  0.2177
 5579SOL     OW28198   2.582   3.109   0.541 -0.3526  0.0126  0.1392
 5579SOL    HW128199   2.503   3.134   0.589  0.1591 -0.3134  1.1457
 5579SOL    HW228200   2.546   3.042   0.483  0.8751  0.0989 -0.7078
 5580SOL     OW28201   1.539   1.866   9.520  0.9839 -0.2976  0.3110
 5580SOL    HW128202   1.612   1.923   9.546  0.0063  0.5374  1.2488
 5580SOL    HW228203   1.470   1.932   9.507  1.8144  1.0218  2.4527
 5581SOL     OW28204   2.247   2.720   3.248  0.0686  0.2710 -0.4347
 5581SOL    HW128205   2.281   2.759   3.328 -1.0217 -0.9125  0.5976
 5581SOL    HW228206   2.167   2.766   3.222  0.4994  0.3166 -1.6674
 5582SOL     OW28207   3.789   0.117   5.362  0.4126 -0.8010 -0.2033
 5582SOL    HW128208   3.840   0.092   5.439 -0.1397  0.9464  0.7387
 5582SOL    HW228209   3.773   0.029   5.329 -0.0368 -0.8407  0.1074
 5583SOL     OW28210   0.959   4.100   7.581  0.1938 -0.1046  0.5317
 5583SOL    HW128211   0.901   4.118   7.656  0.8632  0.7903  0.8331
 5583SOL    HW228212   1.043   4.067   7.613 -0.4799 -0.9311  1.4491
 5584SOL     OW28213   4.574   2.797   8.625  0.0913  0.1455 -0.0683
 5584SOL    HW128214   4.666   2.824   8.617  0.2972 -0.5784 -0.1601
 5584SOL    HW228215   4.587   2.714   8.670  0.4692  1.6265  2.5655
 5585SOL     OW28216   2.281   0.637   8.669  0.2273 -0.2299 -0.4921
 5585SOL    HW128217   2.334   0.557   8.672 -0.7610 -0.8936 -0.6100
 5585SOL    HW228218   2.203   0.600   8.628 -0.5938  1.0082 -0.0308
 5586SOL     OW28219   1.081   0.936  14.180 -0.2518  0.1958 -0.0968
 5586SOL    HW128220   1.090   0.851  14.222 -1.0262 -0.3658 -1.0946
 5586SOL    HW228221   0.990   0.930  14.152 -0.0724  2.9532 -1.3343
 5587SOL     OW28222   0.705   1.301  12.254 -0.2347 -0.0299 -0.1155
 5587SOL    HW128223   0.693   1.395  12.243 -1.4330 -0.1700  0.0284
 5587SOL    HW228224   0.777   1.293  12.317  1.4449  3.4876 -1.5899
 5588SOL     OW28225   1.783   2.152  17.477 -0.1073  0.6496  0.2021
 5588SOL    HW128226   1.828   2.235  17.494  1.2214 -0.3332  1.5437
 5588SOL    HW228227   1.832   2.095  17.536  0.1815  1.7403  1.0304
 5589SOL     OW28228   4.227   4.135  13.358  0.4203  1.1683 -0.8264
 5589SOL    HW128229   4.211   4.132  13.264 -1.6643  0.3747 -0.4377
 5589SOL    HW228230   4.165   4.200  13.392 -1.7847 -0.0903 -2.4486
 5590SOL     OW28231   4.529   2.581   2.968  0.2671  0.3875 -0.4531
 5590SOL    HW128232   4.536   2.583   3.063  0.2329 -0.5363 -0.4376
 5590SOL    HW228233   4.436   2.601   2.964 -0.0073 -0.4451  1.7318
 5591SOL     OW28234   0.854   2.915   2.147 -0.5921 -0.4264 -0.1661
 5591SOL    HW128235   0.787   2.980   2.168 -1.4897 -0.3117 -3.4304
 5591SOL    HW228236   0.931   2.950   2.192 -1.9120  0.0515  1.7502
 5592SOL     OW28237   3.341   1.537  13.150  0.3532  0.2241  0.2922
 5592SOL    HW128238   3.357   1.597  13.223  2.1081  0.0270  0.0663
 5592SOL    HW228239   3.380   1.577  13.073  1.7773 -0.5077  0.6119
 5593SOL     OW28240   2.704   0.270   6.388 -0.0041 -0.2128  0.2790
 5593SOL    HW128241   2.780   0.284   6.332  0.9340  3.9201  2.5788
 5593SOL    HW228242   2.747   0.291   6.470 -0.0005 -0.8508  0.4430
 5594SOL     OW28243   0.692   0.597   8.164  0.4378  0.0527  0.4370
 5594SOL    HW128244   0.623   0.599   8.230  0.2479 -0.1233  0.2387
 5594SOL    HW228245   0.702   0.505   8.139  0.1261  0.2481 -0.3949
 5595SOL     OW28246   4.258   3.727   8.309 -0.1549  0.0241 -0.9710
 5595SOL    HW128247   4.329   3.771   8.355 -0.4141 -1.6314  1.0237
 5595SOL    HW228248   4.216   3.702   8.391  1.2429 -0.2958 -0.3416
 5596SOL     OW28249   2.049   1.807  17.641 -0.2931 -0.5016 -0.9079
 5596SOL    HW128250   2.074   1.806  17.549 -1.4179 -0.0935 -1.2049
 5596SOL    HW228251   1.997   1.887  17.650 -0.6091 -0.9606  1.3638
 5597SOL     OW28252   0.510   0.325   6.414  0.0132  0.0993  0.5591
 5597SOL    HW128253   0.568   0.278   6.474 -1.2104 -0.3719  1.3565
 5597SOL    HW228254   0.576   0.350   6.350  1.4697 -0.5313  1.8143
 5598SOL     OW28255   3.040   3.753   6.930 -0.0069 -0.3061  0.8214
 5598SOL    HW128256   3.004   3.689   6.867 -0.7078  0.8600  0.0195
 5598SOL    HW228257   3.128   3.716   6.930  1.5027  3.3756  2.8251
 5599SOL     OW28258   0.524   2.286   5.821 -0.2945  0.3172 -0.5100
 5599SOL    HW128259   0.498   2.272   5.730  1.5502  3.2216 -1.4966
 5599SOL    HW228260   0.457   2.235   5.866 -2.1701  1.7518 -1.6611
 5600SOL     OW28261   0.517   1.327   8.212 -0.5251 -0.3518  0.9217
 5600SOL    HW128262   0.534   1.241   8.173 -1.2396  0.8302 -2.0283
 5600SOL    HW228263   0.562   1.313   8.295  2.0678 -0.4298 -0.4921
 5601SOL     OW28264   0.452   2.391   4.114 -0.6047 -0.3513  0.2218
 5601SOL    HW128265   0.362   2.368   4.091 -1.0250  0.8978  0.6191
 5601SOL    HW228266   0.496   2.315   4.075 -0.1986  0.2609 -0.5038
 5602SOL     OW28267   4.705   0.523   2.443  0.2361 -0.2427  0.3227
 5602SOL    HW128268   4.686   0.430   2.459  1.4903 -0.4815  0.3694
 5602SOL    HW228269   4.688   0.531   2.350 -0.8546 -0.5299  0.4924
 5603SOL     OW28270   4.285   4.350   1.452 -0.5271 -0.0335  0.1322
 5603SOL    HW128271   4.198   4.353   1.412 -0.8766  0.8174  0.9446
 5603SOL    HW228272   4.254   4.312   1.534 -3.1125  0.5915 -0.5592
 5604SOL     OW28273   0.667   3.633  14.970 -0.1561 -0.1197  0.1536
 5604SOL    HW128274   0.697   3.615  15.060  0.6382 -1.1872 -0.3202
 5604SOL    HW228275   0.742   3.623  14.911 -1.2205  0.5612 -1.2871
 5605SOL     OW28276   2.392   2.654   6.893  0.3738 -0.3058 -0.1609
 5605SOL    HW128277   2.463   2.718   6.899  0.9689 -0.8389 -1.5033
 5605SOL    HW228278   2.314   2.691   6.934  0.4920  2.2914 -2.2251
 5606SOL     OW28279   3.319   1.721   4.690 -0.2069 -0.5103  0.4270
 5606SOL    HW128280   3.274   1.766   4.618 -1.0944 -0.8078  0.7994
 5606SOL    HW228281   3.326   1.631   4.657 -0.8777 -0.3926 -0.0403
 5607SOL     OW28282   1.909   0.580   6.264  0.1752  0.4799 -0.8040
 5607SOL    HW128283   1.985   0.582   6.322 -0.2942  0.4984 -0.1849
 5607SOL    HW228284   1.917   0.504   6.206 -1.5351 -0.5019  0.2227
 5608SOL     OW28285   1.430   0.225   0.660  0.3538  0.3763 -0.6107
 5608SOL    HW128286   1.487   0.250   0.588 -0.6859  0.2774 -1.4657
 5608SOL    HW228287   1.432   0.306   0.711  0.3037 -0.3611  0.5769
 5609SOL     OW28288   3.629   1.290   6.593  0.1615 -0.5309  0.1258
 5609SOL    HW128289   3.654   1.381   6.610 -0.6294  0.4524 -4.0998
 5609SOL    HW228290   3.534   1.303   6.590  0.2121 -0.4530 -1.0729
 5610SOL     OW28291   0.011   3.763   7.541  0.2710  0.0025 -0.4996
 5610SOL    HW128292   4.700   3.677   7.560  0.2218  0.0068 -0.5762
 5610SOL    HW228293   0.001   3.800   7.629  0.7432 -0.3495 -0.2954
 5611SOL     OW28294   1.273   2.635   2.376  0.1403  0.2263  0.5431
 5611SOL    HW128295   1.265   2.627   2.281 -0.7265 -1.4832  0.7526
 5611SOL    HW228296   1.314   2.721   2.384 -0.3058  0.2890  2.1564
 5612SOL     OW28297   4.441   0.989   7.254 -0.2375 -0.1324  0.3339
 5612SOL    HW128298   4.368   0.960   7.199  1.3706 -0.4757 -1.6120
 5612SOL    HW228299   4.425   0.937   7.333  2.7529 -3.5589 -1.3071
 5613SOL     OW28300   2.765   2.366   2.756 -0.1869  0.1339  0.2977
 5613SOL    HW128301   2.800   2.381   2.668  0.1430  1.7754  0.6939
 5613SOL    HW228302   2.838   2.383   2.815  1.2848 -1.7331 -0.9922
 5614SOL     OW28303   4.722   2.857  16.490  0.2808 -0.4687  0.5285
 5614SOL    HW128304   0.082   2.873  16.529  0.8054 -1.3253 -0.2945
 5614SOL    HW228305   0.014   2.898  16.406  0.2628  2.1711  1.7935
 5615SOL     OW28306   1.802   2.701  14.725  0.1586 -0.3133 -0.5244
 5615SOL    HW128307   1.724   2.684  14.672  0.1181  2.0056 -1.2085
 5615SOL    HW228308   1.825   2.610  14.746  1.7459  0.0799 -0.4979
 5616SOL     OW28309   1.245   3.852   3.559 -0.3308  0.0021  0.1678
 5616SOL    HW128310   1.176   3.853   3.625 -0.5309  2.5214 -0.0865
 5616SOL    HW228311   1.323   3.816   3.601  0.4369  1.4166 -0.0445
 5617SOL     OW28312   0.449   2.833   8.673 -0.4123  0.6760  0.4275
 5617SOL    HW128313   0.394   2.774   8.623  0.0895  1.9791 -1.6695
 5617SOL    HW228314   0.475   2.893   8.603  0.5937  1.6868  1.6548
 5618SOL     OW28315   2.362   3.569   6.195  0.6477 -0.0108  0.2936
 5618SOL    HW128316   2.337   3.522   6.274  1.7801 -1.6065 -0.2769
 5618SOL    HW228317   2.382   3.496   6.136 -0.1988 -0.5219  0.6344
 5619SOL     OW28318   0.473   3.729   8.108 -0.1367  0.1641  0.2017
 5619SOL    HW128319   0.518   3.677   8.174  0.0746  1.0704  0.7657
 5619SOL    HW228320   0.526   3.808   8.096  1.2134 -0.6703  0.7026
 5620SOL     OW28321   0.775   0.964   9.700 -0.3405  0.3141  0.3999
 5620SOL    HW128322   0.811   0.898   9.641  0.9226 -0.4141  2.0036
 5620SOL    HW228323   0.684   0.938   9.708 -0.2313 -0.8699 -2.3108
 5621SOL     OW28324   2.807   2.071  16.506  0.4857 -0.0832  0.1332
 5621SOL    HW128325   2.825   2.156  16.545  0.7200  0.1122 -0.4073
 5621SOL    HW228326   2.717   2.055  16.535  0.7746  0.0486  1.1050
 5622SOL     OW28327   1.213   4.498   4.078 -0.2504 -0.2553  0.3270
 5622SOL    HW128328   1.305   4.520   4.065 -0.6878  1.1290 -0.4324
 5622SOL    HW228329   1.179   4.523   3.992 -2.2177 -0.4044  1.0467
 5623SOL     OW28330   4.441   0.707  12.573  0.0643  0.8045  0.2976
 5623SOL    HW128331   4.357   0.734  12.534  0.1930  1.0352  0.1764
 5623SOL    HW228332   4.425   0.707  12.667 -0.5499  1.6276  0.2004
 5624SOL     OW28333   1.628   2.485  11.549  0.9235  0.0583  0.1828
 5624SOL    HW128334   1.629   2.470  11.644  1.7913  2.2549  0.5466
 5624SOL    HW228335   1.620   2.580  11.537  0.1748 -0.0844 -0.4782
 5625SOL     OW28336   0.035   1.060  16.108  0.4634 -0.4450 -0.0734
 5625SOL    HW128337   0.009   1.145  16.144  0.7862  0.9053 -2.9956
 5625SOL    HW228338   4.676   1.026  16.078 -0.3917  0.6485  1.0850
 5626SOL     OW28339   2.350   2.499   4.909 -0.0813  0.1907 -0.1648
 5626SOL    HW128340   2.334   2.515   4.816 -0.7558 -2.3510 -0.4991
 5626SOL    HW228341   2.271   2.542   4.939  0.0297  0.7549 -0.6892
 5627SOL     OW28342   1.025   2.009   2.910 -0.8463 -0.2647 -0.6362
 5627SOL    HW128343   1.004   1.922   2.942  0.9937  0.1332  1.6409
 5627SOL    HW228344   1.035   2.058   2.991  1.6423 -1.3334 -0.3025
 5628SOL     OW28345   3.988   1.797   7.780  0.0204  0.1318 -0.0989
 5628SOL    HW128346   3.991   1.705   7.808  1.1879  0.4664  0.8965
 5628SOL    HW228347   4.080   1.821   7.789 -0.0900  0.0767  1.1653
 5629SOL     OW28348   3.119   0.201  11.140  0.1648 -0.6106 -0.7280
 5629SOL    HW128349   3.189   0.196  11.075 -1.3048 -0.4709 -2.3327
 5629SOL    HW228350   3.105   0.295  11.148  0.1181 -0.6219 -0.6737
 5630SOL     OW28351   1.138   2.225  17.517 -0.2552  0.2984  0.0688
 5630SOL    HW128352   1.230   2.219  17.544 -0.0574  0.6340 -0.5318
 5630SOL    HW228353   1.107   2.226  17.607  0.9582  1.1046  0.4666
 5631SOL     OW28354   1.740   2.047   3.548  0.1040  0.1817 -0.2840
 5631SOL    HW128355   1.809   2.072   3.610 -0.1213 -1.7055  0.7483
 5631SOL    HW228356   1.664   2.077   3.598 -0.1851  0.3217 -0.8162
 5632SOL     OW28357   1.975   3.115  14.460  0.0341  0.4077  0.6558
 5632SOL    HW128358   1.966   3.110  14.556  2.7110  1.0292  0.9377
 5632SOL    HW228359   1.951   3.207  14.450  0.1926  0.2951 -0.6376
 5633SOL     OW28360   3.312   1.702   4.004 -0.4639 -0.1304  0.5168
 5633SOL    HW128361   3.264   1.662   4.076  0.1941 -0.1910  0.9168
 5633SOL    HW228362   3.369   1.641   3.958 -1.2389 -0.1858 -0.3819
 5634SOL     OW28363   1.555   2.238  13.839 -0.4458  0.4289 -0.1972
 5634SOL    HW128364   1.484   2.301  13.829 -1.3753 -0.4767  0.7409
 5634SOL    HW228365   1.583   2.239  13.931 -0.3242 -0.0789 -0.2307
 5635SOL     OW28366   1.808   4.377   6.497  0.5798 -0.5623  0.1847
 5635SOL    HW128367   1.866   4.399   6.424 -1.0569 -1.3972 -1.3809
 5635SOL    HW228368   1.764   4.299   6.464  1.3762 -0.1313 -1.9083
 5636SOL     OW28369   1.698   1.798   6.600 -0.1588 -0.1705 -0.0980
 5636SOL    HW128370   1.752   1.835   6.531  2.0756  0.1649  1.8192
 5636SOL    HW228371   1.644   1.871   6.630 -0.4796 -0.9276  1.2024
 5637SOL     OW28372   2.689   4.213  16.601 -0.1479  0.5147  0.0375
 5637SOL    HW128373   2.655   4.128  16.570 -0.3557  0.7483 -0.3776
 5637SOL    HW228374   2.743   4.243  16.528 -0.7920  0.1014 -0.6217
 5638SOL     OW28375   3.122   1.110  11.125 -0.1511 -0.2832 -0.3905
 5638SOL    HW128376   3.188   1.098  11.193 -0.6679  1.5824  0.4345
 5638SOL    HW228377   3.174   1.147  11.053  0.7223  0.5044  0.6545
 5639SOL     OW28378   2.954   4.461   8.474 -0.0969  0.2826 -0.1021
 5639SOL    HW128379   2.975   4.403   8.401 -1.4737  0.2004 -0.4280
 5639SOL    HW228380   2.886   4.412   8.520 -0.5623  0.5293 -0.5304
 5640SOL     OW28381   2.817   4.666  17.367 -0.4028  0.7493 -0.4583
 5640SOL    HW128382   2.904   4.701  17.347 -0.7936  0.1410 -3.2610
 5640SOL    HW228383   2.824   4.684  17.461 -1.2139  2.3985 -0.7226
 5641SOL     OW28384   2.963   0.282  16.032  0.5594 -0.1257 -0.6448
 5641SOL    HW128385   2.878   0.271  16.075  0.6474 -0.1271 -0.4684
 5641SOL    HW228386   3.027   0.287  16.103 -0.7568 -1.5964  0.6658
 5642SOL     OW28387   1.270   0.063   7.454  0.3838 -0.2112  0.4495
 5642SOL    HW128388   1.257   0.146   7.408 -0.5373 -0.0020  1.0882
 5642SOL    HW228389   1.178   0.057   7.480  0.5034  1.7232  1.2504
 5643SOL     OW28390   0.722   4.698   7.890  0.8825 -0.3281 -0.1051
 5643SOL    HW128391   0.780   0.041   7.921  1.8121  0.0011 -2.6274
 5643SOL    HW228392   0.641   0.024   7.896  0.2461 -1.5558  1.9512
 5644SOL     OW28393   2.321   0.787   7.765  0.3329 -0.3510  0.1507
 5644SOL    HW128394   2.281   0.799   7.679 -0.8040 -0.9104  0.6080
 5644SOL    HW228395   2.411   0.808   7.737  0.5113  1.3945  2.0051
 5645SOL     OW28396   2.646   2.116   1.712 -0.4416 -0.6726  0.3292
 5645SOL    HW128397   2.696   2.182   1.664 -0.7486  0.6030  1.7388
 5645SOL    HW228398   2.575   2.102   1.650  0.5713  2.0307 -1.4298
 5646SOL     OW28399   0.105   2.972   8.931 -0.0198  0.2625  0.3453
 5646SOL    HW128400   0.018   2.944   8.961  0.6885  0.1694  2.3036
 5646SOL    HW228401   0.097   2.957   8.837 -0.2245  2.1138  0.0594
 5647SOL     OW28402   3.498   2.355   7.302 -0.6610  0.1957 -0.6405
 5647SOL    HW128403   3.411   2.386   7.276 -1.3619 -1.9078 -0.8124
 5647SOL    HW228404   3.478   2.322   7.390  0.2061 -1.0945 -0.9264
 5648SOL     OW28405   0.227   0.818   3.455  0.0478  0.2964  0.0810
 5648SOL    HW128406   0.155   0.857   3.505 -1.4261 -0.2509 -1.6612
 5648SOL    HW228407   0.307   0.840   3.504  0.8266  0.5522 -1.2965
 5649SOL     OW28408   3.113   3.887   3.864  0.5000 -0.0293 -0.0770
 5649SOL    HW128409   3.159   3.868   3.946  1.1048  0.1938 -0.3657
 5649SOL    HW228410   3.111   3.982   3.861  2.0793  0.0370  0.9273
 5650SOL     OW28411   1.935   2.342   1.175  0.1543 -0.0734 -0.1322
 5650SOL    HW128412   1.904   2.431   1.190  0.2749  0.1683 -1.3706
 5650SOL    HW228413   1.959   2.346   1.083  0.8800 -0.8454  0.0241
 5651SOL     OW28414   2.834   1.602   7.067  0.4374 -0.3905  0.3954
 5651SOL    HW128415   2.864   1.532   7.009 -1.6220 -1.6720  0.8852
 5651SOL    HW228416   2.770   1.644   7.009  0.7146 -1.4908 -0.7218
 5652SOL     OW28417   2.239   0.601  11.749 -0.4648 -0.6030 -0.2959
 5652SOL    HW128418   2.210   0.585  11.838 -2.5614 -0.9187 -1.0346
 5652SOL    HW228419   2.288   0.683  11.756  1.3748 -1.7255  0.0882
 5653SOL     OW28420   2.228   4.460   6.808  0.2508  0.1678  0.2584
 5653SOL    HW128421   2.156   4.430   6.752  0.0101 -0.7799  1.0824
 5653SOL    HW228422   2.180   4.511   6.873 -2.3431  1.2263 -2.5035
 5654SOL     OW28423   1.597   0.652   1.680 -0.6779  0.3964  0.1674
 5654SOL    HW128424   1.681   0.611   1.659  1.0232  4.6053 -1.4149
 5654SOL    HW228425   1.602   0.739   1.639 -0.3016 -0.4662 -1.6292
 5655SOL     OW28426   3.882   4.502   3.594 -0.6073  0.2045  0.2698
 5655SOL    HW128427   3.801   4.521   3.642  0.6245  1.7135  1.7649
 5655SOL    HW228428   3.923   4.588   3.588 -1.3948  0.6266  0.8648
 5656SOL     OW28429   0.697   2.934   0.329 -0.0079 -0.4539 -0.3167
 5656SOL    HW128430   0.723   3.026   0.334 -1.1579 -0.0694 -1.3143
 5656SOL    HW228431   0.745   2.885   0.396  0.6167  1.8481  0.9029
 5657SOL     OW28432   1.163   2.561   2.703 -0.7093 -0.6525 -0.3131
 5657SOL    HW128433   1.132   2.639   2.657  3.0536  1.0990  0.1066
 5657SOL    HW228434   1.081   2.513   2.688 -0.7745 -1.2195  1.8299
 5658SOL     OW28435   1.583   3.668  12.994 -0.0620 -0.2254  0.1650
 5658SOL    HW128436   1.542   3.697  13.075 -1.9955 -0.5658 -0.6792
 5658SOL    HW228437   1.667   3.634  13.024 -0.8723 -0.9833  1.5991
 5659SOL     OW28438   4.227   0.582  13.756  0.4409 -0.0676  0.0630
 5659SOL    HW128439   4.211   0.516  13.688 -0.3962 -2.0563  2.1932
 5659SOL    HW228440   4.153   0.579  13.817 -1.5634 -0.1031 -2.3795
 5660SOL     OW28441   2.683   3.167  13.537  0.0932 -0.2251 -0.5108
 5660SOL    HW128442   2.727   3.155  13.621 -2.2923  0.0160  0.7666
 5660SOL    HW228443   2.645   3.080  13.528 -1.3238  0.2204  1.0700
 5661SOL     OW28444   2.189   3.980   2.270  0.1151  0.7830 -0.4548
 5661SOL    HW128445   2.241   4.034   2.210  2.9735  1.3020  2.4687
 5661SOL    HW228446   2.114   4.039   2.270 -1.5026 -1.2781 -0.3371
 5662SOL     OW28447   1.506   3.757   2.172  0.3683 -1.1770 -0.3010
 5662SOL    HW128448   1.483   3.783   2.082 -0.4257 -2.5062 -0.4808
 5662SOL    HW228449   1.422   3.762   2.218  0.7463 -0.8252  0.3441
 5663SOL     OW28450   4.093   1.016   7.064 -0.1293 -0.1655 -0.0893
 5663SOL    HW128451   4.170   1.050   7.018  0.9750  1.5077  2.9991
 5663SOL    HW228452   4.063   1.106   7.080  1.9078  0.5639 -0.3057
 5664SOL     OW28453   2.636   0.102   0.667 -0.2649  0.0474 -0.2237
 5664SOL    HW128454   2.576   0.057   0.609 -1.1055 -3.1900  3.1463
 5664SOL    HW228455   2.603   0.062   0.748  0.5793  0.8575  0.5327
 5665SOL     OW28456   3.383   2.788  15.897  0.1730 -0.1543  0.0451
 5665SOL    HW128457   3.441   2.824  15.964  0.7266  0.5291 -0.8022
 5665SOL    HW228458   3.380   2.860  15.834 -1.5929  2.1123  2.7186
 5666SOL     OW28459   1.626   0.828   0.986 -0.4921  0.1475 -0.0350
 5666SOL    HW128460   1.611   0.796   0.898  1.0677 -0.0810 -0.2182
 5666SOL    HW228461   1.541   0.862   1.012  0.0064  2.1906 -1.1080
 5667SOL     OW28462   3.046   0.960  12.645  0.0948  0.5566 -0.3161
 5667SOL    HW128463   2.972   0.903  12.624 -0.2016  0.0173  2.1584
 5667SOL    HW228464   3.123   0.905  12.659  0.1938  0.4333 -1.3297
 5668SOL     OW28465   4.559   0.444   5.557  0.3755  0.5053  0.4378
 5668SOL    HW128466   4.473   0.403   5.566  0.6577 -0.2694 -0.2999
 5668SOL    HW228467   4.573   0.478   5.645  1.9722 -1.0262  0.7905
 5669SOL     OW28468   2.995   1.449   6.482 -0.1414 -0.2573  0.3184
 5669SOL    HW128469   3.031   1.537   6.477 -0.7556 -0.0846 -1.3394
 5669SOL    HW228470   3.066   1.403   6.438 -0.0285  1.5225 -1.3836
 5670SOL     OW28471   3.274   3.363   7.661  0.3572  0.7437  0.5825
 5670SOL    HW128472   3.313   3.338   7.578 -0.4031  0.1110  0.4207
 5670SOL    HW228473   3.331   3.329   7.730 -0.0177  0.6424  0.8438
 5671SOL     OW28474   3.830   2.221   9.769 -0.0188  0.0078  0.6184
 5671SOL    HW128475   3.743   2.240   9.734  0.5524  0.2185 -0.7265
 5671SOL    HW228476   3.824   2.127   9.782 -0.8398  0.1319  1.1219
 5672SOL     OW28477   3.411   0.730  14.191  0.5507  0.4161  0.0499
 5672SOL    HW128478   3.484   0.785  14.162  0.2035  0.9464  0.1813
 5672SOL    HW228479   3.463   0.685  14.257  0.4201 -0.4676 -0.4558
 5673SOL     OW28480   3.882   1.579   3.352  0.2565  0.2802 -0.4343
 5673SOL    HW128481   3.826   1.522   3.299  2.6235 -1.5559 -0.9441
 5673SOL    HW228482   3.833   1.662   3.346 -0.1755  0.0849  0.4253
 5674SOL     OW28483   0.938   3.521   6.130 -0.4109  0.5107  0.0520
 5674SOL    HW128484   0.926   3.426   6.127  1.4945  0.3101 -0.9280
 5674SOL    HW228485   1.001   3.535   6.200 -1.4121  2.7395  0.5040
 5675SOL     OW28486   2.599   2.849   6.288 -0.8066 -0.3512 -0.2549
 5675SOL    HW128487   2.564   2.899   6.215 -2.4035 -0.4025  0.4764
 5675SOL    HW228488   2.611   2.765   6.243 -0.5356 -0.5333  0.1624
 5676SOL     OW28489   0.586   2.148   8.494 -1.2028 -0.1144  0.3412
 5676SOL    HW128490   0.627   2.176   8.412 -0.5059  2.7864  1.6927
 5676SOL    HW228491   0.667   2.124   8.537 -1.1086  3.6727  2.2108
 5677SOL     OW28492   0.146   0.208   7.135 -0.0893  0.0844 -0.0270
 5677SOL    HW128493   0.241   0.223   7.137  0.1054 -1.0230 -1.3993
 5677SOL    HW228494   0.114   0.297   7.147  0.9893  0.3182  1.0989
 5678SOL     OW28495   2.418   0.881  10.121  0.0256 -0.1634 -0.0547
 5678SOL    HW128496   2.372   0.831  10.189  1.6989 -0.5365  0.7890
 5678SOL    HW228497   2.507   0.856  10.143  0.0107 -0.0902  0.0874
 5679SOL     OW28498   4.162   2.712   8.413 -0.3345  0.3455  0.3813
 5679SOL    HW128499   4.113   2.765   8.350  0.1601 -1.3319 -1.3995
 5679SOL    HW228500   4.183   2.785   8.472 -0.2570  1.2280 -0.7470
 5680SOL     OW28501   2.397   4.353   1.618  0.9636  0.5157  0.1126
 5680SOL    HW128502   2.478   4.305   1.599  1.0705  0.0478  1.6797
 5680SOL    HW228503   2.346   4.280   1.654  1.2422  0.5556  0.5902
 5681SOL     OW28504   3.850   1.475   8.160 -0.4800  0.1459  0.3091
 5681SOL    HW128505   3.861   1.471   8.255 -0.7211  1.0743  0.3713
 5681SOL    HW228506   3.888   1.392   8.131 -0.9197  0.0863 -0.0963
 5682SOL     OW28507   1.724   0.001  11.013  0.0911  0.0233 -0.1882
 5682SOL    HW128508   1.798   4.676  11.046 -0.9707 -1.6759 -0.4407
 5682SOL    HW228509   1.743   0.075  11.071  0.4136  0.3076 -0.6476
 5683SOL     OW28510   0.321   0.299   6.760 -0.1609 -0.3036  0.5646
 5683SOL    HW128511   0.226   0.308   6.772 -0.5148  0.3277 -2.6175
 5683SOL    HW228512   0.326   0.207   6.734 -2.1317 -0.6496  1.3857
 5684SOL     OW28513   4.098   0.271   5.143 -0.3887  0.1906  0.0800
 5684SOL    HW128514   4.131   0.198   5.091 -1.8603 -0.9802  0.8170
 5684SOL    HW228515   4.112   0.238   5.232 -1.3936 -1.0162 -0.2056
 5685SOL     OW28516   0.168   0.113   1.910  0.2735 -0.0998  0.3220
 5685SOL    HW128517   0.095   0.066   1.950  0.4845 -1.2484 -0.6427
 5685SOL    HW228518   0.218   0.116   1.991 -3.5922  0.5308  2.6521
 5686SOL     OW28519   3.853   1.344  15.033 -0.1003  0.6048  0.0770
 5686SOL    HW128520   3.783   1.375  15.091  0.4043  0.7835  0.5842
 5686SOL    HW228521   3.850   1.249  15.039 -1.5563  0.6395 -0.1363
 5687SOL     OW28522   4.209   1.080   2.400  0.3719 -0.0722  0.2859
 5687SOL    HW128523   4.140   1.014   2.398 -0.0142  0.2995  1.0181
 5687SOL    HW228524   4.239   1.094   2.311 -1.1485  1.9376  0.0950
 5688SOL     OW28525   1.438   0.462   0.919 -0.2585 -0.3644  0.1666
 5688SOL    HW128526   1.391   0.389   0.959 -1.4936 -2.1753 -4.5496
 5688SOL    HW228527   1.385   0.531   0.959 -2.3891 -1.6216 -0.4791
 5689SOL     OW28528   2.763   2.016   8.676 -0.1239 -0.0538 -0.0807
 5689SOL    HW128529   2.733   1.926   8.664 -1.7109  0.4126  0.3463
 5689SOL    HW228530   2.849   2.003   8.637 -0.0569 -1.0677  0.3850
 5690SOL     OW28531   1.547   0.014  12.820  0.4695 -0.0977  0.3453
 5690SOL    HW128532   1.604   4.685  12.874  0.6507 -1.0825 -0.8483
 5690SOL    HW228533   1.510   0.064  12.893 -0.9451  0.7185 -0.9217
 5691SOL     OW28534   3.614   3.078   4.288 -0.2501 -0.1442  0.9951
 5691SOL    HW128535   3.670   3.017   4.239 -2.8600 -1.4714 -0.3240
 5691SOL    HW228536   3.531   3.057   4.245 -1.2851  1.1794  2.3470
 5692SOL     OW28537   4.001   3.626   3.042  0.3162 -0.1611 -0.8414
 5692SOL    HW128538   3.993   3.612   2.948  1.9154  0.8114 -1.1150
 5692SOL    HW228539   3.926   3.574   3.072  1.8619 -0.7402  1.9903
 5693SOL     OW28540   0.308   4.317  17.613  0.2347 -0.5704  0.2802
 5693SOL    HW128541   0.336   4.263  17.539  1.1667  0.2084  0.0622
 5693SOL    HW228542   0.360   4.396  17.598 -1.3810  0.6746  1.3483
 5694SOL     OW28543   0.296   4.014   4.701 -0.8833  0.1130  0.2298
 5694SOL    HW128544   0.355   3.940   4.687 -0.0214  1.2051 -1.8357
 5694SOL    HW228545   0.273   4.042   4.613 -0.3507  0.3079  0.1546
 5695SOL     OW28546   4.019   3.393  16.058  0.1234  0.3810  0.1927
 5695SOL    HW128547   4.105   3.354  16.072  0.2920  1.5643  2.4602
 5695SOL    HW228548   3.987   3.362  15.973  3.2289 -1.0810 -0.4328
 5696SOL     OW28549   0.995   3.348   8.700  0.1590  0.3230 -0.2918
 5696SOL    HW128550   1.040   3.401   8.634  1.7877 -0.3182  0.3080
 5696SOL    HW228551   1.063   3.327   8.764 -0.5085 -1.6490 -0.2218
 5697SOL     OW28552   1.711   3.521   8.303 -0.8572 -0.3212  0.0014
 5697SOL    HW128553   1.791   3.497   8.350 -0.5094  2.2952  0.7649
 5697SOL    HW228554   1.681   3.447   8.250 -1.9380  0.2091 -0.1183
 5698SOL     OW28555   2.031   4.544   6.077 -0.0303  0.3028 -0.4838
 5698SOL    HW128556   2.071   4.605   6.015  0.9200  0.5164  0.3307
 5698SOL    HW228557   1.949   4.521   6.032  0.6139 -0.8537 -1.0894
 5699SOL     OW28558   1.063   0.787   1.351  0.3204  0.1957 -0.8886
 5699SOL    HW128559   1.002   0.765   1.422  1.9841  0.8032  0.7230
 5699SOL    HW228560   1.109   0.703   1.346  2.0992  1.1392 -0.2150
 5700SOL     OW28561   0.731   2.678   9.375 -0.1314  0.1945  1.0717
 5700SOL    HW128562   0.759   2.748   9.434  0.6231 -1.1332  2.2840
 5700SOL    HW228563   0.637   2.691   9.373 -0.1447  0.0542  0.6511
 5701SOL     OW28564   2.127   4.383  15.855  0.7541 -0.7385  0.1511
 5701SOL    HW128565   2.171   4.357  15.936  0.8569 -1.4722 -0.1474
 5701SOL    HW228566   2.078   4.459  15.888 -0.4639 -2.1811  1.6446
 5702SOL     OW28567   0.380   3.531  14.154 -0.2425 -0.7040  0.8288
 5702SOL    HW128568   0.386   3.572  14.068 -1.9982 -0.2491  0.9228
 5702SOL    HW228569   0.296   3.570  14.180 -0.8545 -1.6956  0.3379
 5703SOL     OW28570   0.487   2.853   4.486 -0.5103 -0.0153 -0.1770
 5703SOL    HW128571   0.532   2.861   4.570 -0.6588  0.3612 -0.1340
 5703SOL    HW228572   0.485   2.757   4.490 -1.3100  0.0144  0.2076
 5704SOL     OW28573   0.631   3.273   3.822 -0.3637  0.1945 -0.8621
 5704SOL    HW128574   0.594   3.191   3.854  2.6338 -0.9983 -0.4571
 5704SOL    HW228575   0.709   3.239   3.778 -0.3378  0.1000 -0.7438
 5705SOL     OW28576   0.382   2.545   2.031 -0.4922  0.5213 -0.7501
 5705SOL    HW128577   0.396   2.631   2.070 -0.3615 -1.1073  2.7552
 5705SOL    HW228578   0.422   2.560   1.945  1.4198 -0.6477 -0.0720
 5706SOL     OW28579   1.442   2.860  15.337 -0.5580  0.9405  0.2333
 5706SOL    HW128580   1.534   2.883  15.324 -0.4847  1.2927  1.4400
 5706SOL    HW228581   1.402   2.926  15.280  1.6036  0.6587 -1.6160
 5707SOL     OW28582   1.876   4.477   1.936 -0.6778  0.2293 -0.6400
 5707SOL    HW128583   1.917   4.408   1.884 -3.1676 -1.3466 -0.4980
 5707SOL    HW228584   1.853   4.535   1.864  0.2469  0.5375 -0.6844
 5708SOL     OW28585   2.859   1.612   8.476 -0.0285  0.4010 -0.2828
 5708SOL    HW128586   2.927   1.548   8.494 -0.5445 -0.0278  0.1292
 5708SOL    HW228587   2.846   1.639   8.567 -0.6721  0.9245 -0.5260
 5709SOL     OW28588   1.489   3.584   6.068 -0.2648 -0.2764  0.3192
 5709SOL    HW128589   1.413   3.530   6.044 -1.0829  0.5836  1.0005
 5709SOL    HW228590   1.454   3.671   6.050 -2.8476 -0.8700  2.4453
 5710SOL     OW28591   3.041   3.980  11.290  0.0378 -0.1740  0.4131
 5710SOL    HW128592   3.055   3.972  11.384  0.4136 -2.1703  0.1884
 5710SOL    HW228593   2.953   3.943  11.281 -0.6512  1.2539  1.2690
 5711SOL     OW28594   2.353   2.367  15.324 -0.2287 -0.0614 -0.3101
 5711SOL    HW128595   2.270   2.330  15.355  0.4501 -1.4037 -0.1089
 5711SOL    HW228596   2.327   2.453  15.290 -0.2859 -0.1470 -0.4835
 5712SOL     OW28597   4.315   2.201   3.347  0.0386  0.3019  0.0643
 5712SOL    HW128598   4.344   2.221   3.258 -2.0065  0.0665 -0.6601
 5712SOL    HW228599   4.225   2.233   3.345  0.8881  2.8868  2.5218
 5713SOL     OW28600   1.512   4.220   2.256  0.1893  0.3241 -0.4455
 5713SOL    HW128601   1.584   4.272   2.222  1.5333 -2.0339 -1.2086
 5713SOL    HW228602   1.439   4.279   2.238 -0.6108 -1.4459 -3.0747
 5714SOL     OW28603   3.840   3.860   6.664 -0.8873  0.4204 -0.3337
 5714SOL    HW128604   3.825   3.780   6.715  1.5981 -0.1346 -0.4507
 5714SOL    HW228605   3.893   3.917   6.720 -0.4444  1.7833 -2.1308
 5715SOL     OW28606   2.091   0.664  12.515 -0.6511  0.5412 -0.7713
 5715SOL    HW128607   2.135   0.581  12.536 -0.4875  1.3244  1.8512
 5715SOL    HW228608   2.003   0.643  12.547 -0.4054 -0.7856 -0.9473
 5716SOL     OW28609   3.552   0.779   8.500 -0.0283  0.6931  0.3580
 5716SOL    HW128610   3.493   0.821   8.563  0.6378  0.0072  1.4277
 5716SOL    HW228611   3.602   0.855   8.469  0.3466  1.2225  2.2562
 5717SOL     OW28612   0.108   1.746   9.552  0.4170 -0.3425  0.2882
 5717SOL    HW128613   0.056   1.790   9.619  0.2902  0.4469 -0.3192
 5717SOL    HW228614   0.086   1.792   9.470  0.5912 -1.9683 -0.6565
 5718SOL     OW28615   3.060   1.589   4.790 -0.4441  0.3129  0.1775
 5718SOL    HW128616   3.128   1.535   4.829 -3.2845 -3.8472 -0.6149
 5718SOL    HW228617   3.027   1.534   4.720 -0.8536 -0.7247  1.1861
 5719SOL     OW28618   3.257   2.594   4.451 -0.0025 -0.4315 -0.2008
 5719SOL    HW128619   3.287   2.582   4.541  2.6785  1.2784 -0.8704
 5719SOL    HW228620   3.331   2.561   4.400  1.0935  0.5742  0.7432
 5720SOL     OW28621   2.145   0.923  15.342 -0.1504 -0.1874 -0.0679
 5720SOL    HW128622   2.189   0.838  15.344  0.9151  0.3661 -0.6231
 5720SOL    HW228623   2.072   0.913  15.404  0.1509 -0.6253  0.2182
 5721SOL     OW28624   1.001   1.120   8.279  0.0877 -0.1020  0.5354
 5721SOL    HW128625   1.035   1.167   8.355 -0.9143  0.5721  0.5614
 5721SOL    HW228626   0.917   1.092   8.315 -1.0513  2.1292 -0.3566
 5722SOL     OW28627   3.526   3.380   3.677 -0.4987 -0.4580  0.2913
 5722SOL    HW128628   3.602   3.379   3.736 -0.1022  0.2250 -0.2025
 5722SOL    HW228629   3.537   3.459   3.624  0.4275 -0.5987  0.2697
 5723SOL     OW28630   1.583   1.619   5.563 -0.1238 -0.4882 -0.4339
 5723SOL    HW128631   1.522   1.550   5.585 -0.9582  0.1459 -0.7537
 5723SOL    HW228632   1.554   1.664   5.484 -2.2395 -1.6286 -0.2818
 5724SOL     OW28633   0.696   2.579   3.671  0.2248 -0.3759 -0.2637
 5724SOL    HW128634   0.669   2.497   3.629 -0.9146  0.0413 -0.3473
 5724SOL    HW228635   0.766   2.607   3.612  1.1634 -1.1263  0.5012
 5725SOL     OW28636   2.827   3.325   8.445  0.3473  0.1202  0.0571
 5725SOL    HW128637   2.896   3.277   8.492 -0.6182 -0.0115  1.3371
 5725SOL    HW228638   2.789   3.254   8.392 -0.6081  0.8475 -0.2274
 5726SOL     OW28639   0.555   0.745   1.580 -0.4294 -0.0251  0.0017
 5726SOL    HW128640   0.482   0.789   1.623  1.5149  3.1897  0.0233
 5726SOL    HW228641   0.549   0.662   1.627  0.3024  2.0945  3.8569
 5727SOL     OW28642   0.673   1.480  12.014 -0.2100  0.5724 -0.3463
 5727SOL    HW128643   0.762   1.506  11.991 -1.2400  3.2114 -1.2174
 5727SOL    HW228644   0.627   1.553  11.974  0.6428  0.0624 -2.2414
 5728SOL     OW28645   3.934   2.430  15.934  0.3523  0.8692 -0.8267
 5728SOL    HW128646   3.935   2.493  16.006  3.1125  1.0789 -1.0658
 5728SOL    HW228647   3.871   2.369  15.973 -0.2880  0.8770 -1.8561
 5729SOL     OW28648   4.621   1.784   1.728  0.2134 -0.0152 -0.2844
 5729SOL    HW128649   4.649   1.847   1.662  0.5304  0.8388  0.6621
 5729SOL    HW228650   4.671   1.820   1.801  1.7748 -2.2962 -0.2416
 5730SOL     OW28651   0.971   1.939   8.116 -0.1199  0.5325 -0.2375
 5730SOL    HW128652   1.040   1.888   8.073 -1.2966 -0.6089 -0.7722
 5730SOL    HW228653   0.938   2.000   8.050  1.3273  0.1145 -1.3490
 5731SOL     OW28654   1.939   2.685   2.874 -0.3035  0.5974 -0.0807
 5731SOL    HW128655   2.001   2.756   2.859  1.2849 -1.0934 -1.3883
 5731SOL    HW228656   1.915   2.668   2.783  2.3402 -0.4895 -0.5508
 5732SOL     OW28657   1.750   3.782  11.090  0.0441 -0.0615 -0.1770
 5732SOL    HW128658   1.676   3.817  11.041  0.5307 -0.4688 -1.2029
 5732SOL    HW228659   1.809   3.779  11.015  0.9303  1.1005  0.4730
 5733SOL     OW28660   3.497   1.617   5.057  0.2422 -0.0996  0.2332
 5733SOL    HW128661   3.434   1.553   5.022  0.5929 -0.0011 -0.5772
 5733SOL    HW228662   3.470   1.604   5.148  2.0489 -0.7040  0.6881
 5734SOL     OW28663   2.579   1.932   6.852 -0.0270 -0.7110  0.1108
 5734SOL    HW128664   2.584   1.958   6.944 -2.7355  1.3301 -0.3157
 5734SOL    HW228665   2.614   2.010   6.809 -1.8224 -0.7022 -1.3457
 5735SOL     OW28666   2.458   2.152   3.547 -0.5846 -0.2445  0.0749
 5735SOL    HW128667   2.397   2.134   3.617 -2.4841  0.3502 -1.4284
 5735SOL    HW228668   2.427   2.088   3.483 -1.6666 -0.1204  0.4854
 5736SOL     OW28669   3.830   3.468   8.656  0.5154 -0.2785  0.3699
 5736SOL    HW128670   3.851   3.548   8.704 -1.5106 -0.3776  1.4036
 5736SOL    HW228671   3.918   3.453   8.622 -0.5043 -2.7395 -1.2259
 5737SOL     OW28672   0.237   0.110   8.320  0.0258  0.1530  0.0541
 5737SOL    HW128673   0.159   0.128   8.268 -0.2055 -0.3556  0.2315
 5737SOL    HW228674   0.270   0.029   8.282 -1.4023  1.7356 -4.6281
 5738SOL     OW28675   2.468   4.466  17.026  0.0180  0.5642  0.1294
 5738SOL    HW128676   2.498   4.432  16.941 -0.8420 -0.7087  0.3222
 5738SOL    HW228677   2.499   4.556  17.023 -1.7572  1.1668  0.2684
 5739SOL     OW28678   0.993   0.720   4.452  0.2192 -0.0237  0.5991
 5739SOL    HW128679   0.953   0.640   4.417 -0.8996  1.4098 -1.3927
 5739SOL    HW228680   1.053   0.683   4.516  0.6049 -0.5526 -0.0714
 5740SOL     OW28681   3.459   3.966   4.124  0.0009  0.4768 -0.6627
 5740SOL    HW128682   3.444   3.911   4.048 -1.0960 -0.4365  0.2265
 5740SOL    HW228683   3.397   4.034   4.101 -0.4125  0.6428  0.9328
 5741SOL     OW28684   3.116   1.263  12.986  0.6756  0.0930  0.3970
 5741SOL    HW128685   3.148   1.220  12.907  0.6423  0.4891  0.1639
 5741SOL    HW228686   3.195   1.267  13.040  0.9208 -3.4345  0.2732
 5742SOL     OW28687   2.961   2.768  13.341  0.3193 -0.5500  0.0738
 5742SOL    HW128688   3.022   2.709  13.385  1.5714 -0.4285 -1.5064
 5742SOL    HW228689   2.917   2.804  13.418 -0.2688  3.6693 -2.2433
 5743SOL     OW28690   0.791   2.393   3.190 -0.6900  0.3501  0.4156
 5743SOL    HW128691   0.764   2.315   3.142  2.7847 -1.9348  2.1483
 5743SOL    HW228692   0.731   2.385   3.264 -1.8431 -0.2931 -0.5953
 5744SOL     OW28693   1.375   1.708   3.804 -0.2117 -0.1367  0.3909
 5744SOL    HW128694   1.445   1.771   3.820  0.4083 -0.6974 -0.1209
 5744SOL    HW228695   1.421   1.624   3.799 -0.5681 -0.2647 -0.7214
 5745SOL     OW28696   2.008   1.112  14.857  0.3869  0.2008 -0.8034
 5745SOL    HW128697   1.922   1.071  14.856  0.1410  0.6874  4.1851
 5745SOL    HW228698   2.068   1.047  14.819  1.6075 -0.2127  1.8810
 5746SOL     OW28699   3.668   3.373  17.143  0.1508 -0.5753 -0.6425
 5746SOL    HW128700   3.634   3.323  17.217 -0.7268  1.6748  0.4762
 5746SOL    HW228701   3.752   3.333  17.123  0.7774  0.0651  0.6860
 5747SOL     OW28702   3.978   4.230   9.888 -0.0238 -0.7481 -0.1818
 5747SOL    HW128703   3.912   4.260   9.951  1.1473 -0.7926  1.0680
 5747SOL    HW228704   3.979   4.307   9.830  0.2362 -1.5281 -1.2052
 5748SOL     OW28705   4.402   2.083   1.681 -0.2297 -0.5551 -0.1190
 5748SOL    HW128706   4.383   2.149   1.614 -1.3084  1.0671  1.7804
 5748SOL    HW228707   4.435   2.142   1.748 -0.0189 -1.0965  0.2522
 5749SOL     OW28708   1.031   0.355  17.542 -0.0125 -0.2473  0.2814
 5749SOL    HW128709   1.032   0.303  17.623  2.9479  0.2874  0.5827
 5749SOL    HW228710   0.941   0.341  17.512 -0.4990 -0.7097  1.9201
 5750SOL     OW28711   0.714   2.961   2.907  0.2108 -0.4026 -0.7372
 5750SOL    HW128712   0.651   2.901   2.946 -0.8903  0.3714 -1.3330
 5750SOL    HW228713   0.655   3.005   2.846 -0.6336 -0.6312 -0.0824
 5751SOL     OW28714   2.230   3.739   8.811  0.4085  0.1406 -0.2434
 5751SOL    HW128715   2.316   3.762   8.776 -0.2230 -1.9919 -3.1467
 5751SOL    HW228716   2.192   3.762   8.727 -0.2227  2.5095  0.6856
 5752SOL     OW28717   3.378   0.383   6.163 -0.8518  0.2995  0.1703
 5752SOL    HW128718   3.331   0.342   6.236  0.6693  1.0422  1.5699
 5752SOL    HW228719   3.308   0.405   6.102 -0.3434  0.4872 -0.3471
 5753SOL     OW28720   0.292   3.442   9.272  0.4999  0.1979 -0.5112
 5753SOL    HW128721   0.372   3.435   9.324  0.0803 -1.5778 -0.1185
 5753SOL    HW228722   0.248   3.521   9.304  1.3605  1.0895 -1.5146
 5754SOL     OW28723   3.698   3.637   8.454  0.2301  0.1779 -0.0667
 5754SOL    HW128724   3.715   3.603   8.542 -1.3751  0.8116  0.4908
 5754SOL    HW228725   3.778   3.612   8.410  0.4741  0.7716  0.0435
 5755SOL     OW28726   4.386   0.838   7.509 -0.3432 -0.0129  0.1605
 5755SOL    HW128727   4.449   0.778   7.549 -0.6033 -0.9782 -0.8583
 5755SOL    HW228728   4.305   0.789   7.500 -0.8622  0.5482  1.7597
 5756SOL     OW28729   3.818   1.297  14.391  0.3556 -0.1435  0.4252
 5756SOL    HW128730   3.782   1.354  14.323  1.0714  0.4006  0.5034
 5756SOL    HW228731   3.763   1.310  14.468  1.6024  3.2482  0.7698
 5757SOL     OW28732   2.568   0.222  16.448 -0.0227 -0.4275 -0.1898
 5757SOL    HW128733   2.542   0.311  16.428  1.9160  0.1691 -0.0848
 5757SOL    HW228734   2.647   0.246  16.498 -0.5616  0.2326  0.3374
 5758SOL     OW28735   0.969   1.880   7.743 -0.1953  0.0998 -0.5430
 5758SOL    HW128736   0.937   1.811   7.800 -1.5031  0.2024 -1.1455
 5758SOL    HW228737   1.054   1.893   7.785 -0.2286 -0.5040 -0.2911
 5759SOL     OW28738   2.209   2.498   2.829 -0.4279 -0.1010 -0.2074
 5759SOL    HW128739   2.255   2.579   2.806 -2.0028  0.4128 -1.6258
 5759SOL    HW228740   2.243   2.435   2.765  1.0771  2.0445 -1.5143
 5760SOL     OW28741   0.780   4.308   6.466  0.2296  0.0031 -0.1223
 5760SOL    HW128742   0.852   4.254   6.499 -0.1664  0.8563  2.1478
 5760SOL    HW228743   0.809   4.394   6.496 -0.7960  0.4689 -0.4666
 5761SOL     OW28744   0.654   0.939   3.776  0.0728  0.1990  0.2243
 5761SOL    HW128745   0.655   1.035   3.773  1.3547  0.1267 -1.5293
 5761SOL    HW228746   0.584   0.923   3.714 -2.5412  4.2935  2.0542
 5762SOL     OW28747   0.762   0.148  14.404 -0.7235  0.1638 -0.1094
 5762SOL    HW128748   0.687   0.092  14.381 -1.1819  1.2367 -1.2528
 5762SOL    HW228749   0.722   0.235  14.396  0.2673  0.7006  0.9074
 5763SOL     OW28750   1.787   0.380   4.880 -0.4497  0.2767 -0.1763
 5763SOL    HW128751   1.753   0.360   4.967  1.2866 -0.5678  0.3204
 5763SOL    HW228752   1.715   0.346   4.828  0.1720  2.3639 -2.4046
 5764SOL     OW28753   0.113   3.529   8.365  1.0648 -0.4712  0.0100
 5764SOL    HW128754   0.158   3.446   8.348  2.0635  0.0151  0.2673
 5764SOL    HW228755   0.139   3.568   8.282  3.0156  0.9879  1.3079
 5765SOL     OW28756   4.249   3.375   3.963 -0.1067 -0.4551  0.4424
 5765SOL    HW128757   4.239   3.387   3.869  0.7362  0.2344  0.4352
 5765SOL    HW228758   4.337   3.413   3.973  0.1785 -1.4605  1.7232
 5766SOL     OW28759   3.288   0.162   3.284  0.1979 -0.0624 -0.5511
 5766SOL    HW128760   3.369   0.147   3.234  0.9204  2.0661 -0.0204
 5766SOL    HW228761   3.271   0.086   3.339  0.1222  0.6089  0.3423
 5767SOL     OW28762   4.331   1.539   5.946  0.0336 -0.0046  0.0916
 5767SOL    HW128763   4.283   1.475   5.999 -1.5788  1.3042  0.2045
 5767SOL    HW228764   4.407   1.483   5.929 -0.9886 -1.3332 -0.1089
 5768SOL     OW28765   0.865   4.228  14.775 -0.5294 -0.1505  0.2705
 5768SOL    HW128766   0.814   4.306  14.751  0.3396 -0.3736 -2.2689
 5768SOL    HW228767   0.922   4.270  14.839 -0.2238  0.1008 -0.1629
 5769SOL     OW28768   0.458   2.544   8.398  0.0033  0.3130  0.1778
 5769SOL    HW128769   0.393   2.587   8.453 -0.2275  2.7395 -1.9889
 5769SOL    HW228770   0.420   2.457   8.413  0.5395 -0.0089 -0.3096
 5770SOL     OW28771   0.293   2.734  13.947  0.2902 -0.0412 -0.6842
 5770SOL    HW128772   0.377   2.770  13.918  0.3446 -0.3445 -0.9003
 5770SOL    HW228773   0.247   2.719  13.865  1.2831 -2.2963 -0.8320
 5771SOL     OW28774   0.260   2.459  16.890 -0.0168  0.2256  0.7471
 5771SOL    HW128775   0.223   2.371  16.891 -0.1129  0.2466 -0.3116
 5771SOL    HW228776   0.280   2.473  16.982  1.1528 -0.5009  0.6025
 5772SOL     OW28777   3.005   1.100  17.656  0.3040 -0.5577  0.1608
 5772SOL    HW128778   2.998   1.193  17.673 -3.3400 -1.2379  2.4128
 5772SOL    HW228779   3.076   1.076  17.597 -0.3362 -0.2917 -0.7199
 5773SOL     OW28780   3.866   1.662   5.531  0.0922  0.1281 -0.3450
 5773SOL    HW128781   3.903   1.672   5.619 -0.2867 -1.5636 -0.0078
 5773SOL    HW228782   3.793   1.720   5.553 -0.0907 -0.2574  0.0560
 5774SOL     OW28783   0.756   3.736   7.253  0.1880  0.9423  0.4223
 5774SOL    HW128784   0.751   3.791   7.332 -0.3137 -0.0064  1.0484
 5774SOL    HW228785   0.696   3.668   7.282  1.6449 -0.2023  0.7978
 5775SOL     OW28786   4.188   3.542  11.283  0.1033  0.1507  0.5060
 5775SOL    HW128787   4.113   3.570  11.231  1.1250  2.5937  0.3355
 5775SOL    HW228788   4.206   3.455  11.247 -1.0607 -0.7640  2.1268
 5776SOL     OW28789   0.377   3.841  10.612 -0.2075  0.6170  0.3550
 5776SOL    HW128790   0.335   3.919  10.576 -0.1419  0.8479  0.7749
 5776SOL    HW228791   0.463   3.841  10.569 -0.2915 -0.3661  0.1891
 5777SOL     OW28792   2.734   2.735   3.232  0.6178 -0.2620 -0.0170
 5777SOL    HW128793   2.684   2.815   3.242 -0.7455 -1.1934  0.6051
 5777SOL    HW228794   2.674   2.682   3.180 -0.7646  0.4720  0.8609
 5778SOL     OW28795   2.479   2.242  12.661 -0.1665 -0.0031 -0.3983
 5778SOL    HW128796   2.393   2.284  12.658 -1.8151 -3.0651  2.8292
 5778SOL    HW228797   2.497   2.226  12.754  0.0358 -0.3922 -0.5063
 5779SOL     OW28798   3.321   1.402   3.366  0.2548 -0.1242 -0.6150
 5779SOL    HW128799   3.297   1.324   3.316  0.8971 -0.1029 -0.9525
 5779SOL    HW228800   3.327   1.462   3.292  0.2960 -1.0980 -1.4007
 5780SOL     OW28801   1.929   3.444   4.186 -0.5162 -0.0015 -0.5637
 5780SOL    HW128802   1.998   3.511   4.188  1.1733 -1.7440 -0.9601
 5780SOL    HW228803   1.849   3.497   4.182 -0.3990  0.2048 -0.2329
 5781SOL     OW28804   4.181   0.626   6.161 -0.1212  0.0504 -0.1986
 5781SOL    HW128805   4.103   0.580   6.128  0.4058  0.4702 -2.0293
 5781SOL    HW228806   4.142   0.701   6.206 -0.6661 -0.2186 -0.2140
 5782SOL     OW28807   0.793   0.742  15.225 -0.8514  0.0658  0.1522
 5782SOL    HW128808   0.843   0.820  15.249 -0.1394 -0.0389 -0.9634
 5782SOL    HW228809   0.856   0.700  15.166 -1.9373  0.1902 -1.0936
 5783SOL     OW28810   4.195   3.036   5.841  0.3442 -0.5129  0.6118
 5783SOL    HW128811   4.257   3.049   5.769 -1.4286 -2.7271 -1.3005
 5783SOL    HW228812   4.216   2.944   5.858  1.3199 -0.6394 -1.1896
 5784SOL     OW28813   1.862   3.492   3.558 -0.6750 -0.4952 -0.3455
 5784SOL    HW128814   1.905   3.411   3.529  2.4979  0.3993  2.0099
 5784SOL    HW228815   1.906   3.499   3.642 -0.8333  2.7166 -0.5474
 5785SOL     OW28816   4.576   4.676   2.806 -0.2422  0.6431 -0.3449
 5785SOL    HW128817   4.581   4.585   2.775  1.2241  1.2704 -1.9242
 5785SOL    HW228818   4.593   4.683   2.900  2.0124 -3.2766 -0.4298
 5786SOL     OW28819   0.780   4.716  14.647 -0.2638  0.2499  0.3722
 5786SOL    HW128820   0.744   0.051  14.583  1.9405  1.2969  0.0981
 5786SOL    HW228821   0.785   0.047  14.725 -0.7970  1.7905 -0.7086
 5787SOL     OW28822   1.460   0.141   6.774  0.2051  0.4350 -0.3386
 5787SOL    HW128823   1.533   0.099   6.820  0.3138  0.6049 -0.3583
 5787SOL    HW228824   1.421   0.061   6.739 -0.8918  0.4508  0.8376
 5788SOL     OW28825   2.593   1.741   1.088  0.2390 -0.5182 -0.2706
 5788SOL    HW128826   2.518   1.750   1.146  0.7402 -0.3294  0.3552
 5788SOL    HW228827   2.662   1.743   1.155 -0.7849 -1.2437  0.8045
 5789SOL     OW28828   1.073   3.885  11.485  0.1457 -0.6766  0.0730
 5789SOL    HW128829   1.120   3.949  11.538 -1.3085 -1.5882  2.4370
 5789SOL    HW228830   1.151   3.852  11.440  0.3427  1.3703 -1.0798
 5790SOL     OW28831   1.335   0.560   1.601  0.2157 -0.4307 -0.4504
 5790SOL    HW128832   1.336   0.499   1.527  1.5707 -1.0764  0.0871
 5790SOL    HW228833   1.426   0.587   1.613 -0.1046  1.8279 -3.2771
 5791SOL     OW28834   2.478   2.229   2.411 -0.5556  0.2702 -0.4610
 5791SOL    HW128835   2.461   2.162   2.345 -0.5367  0.4778 -0.6746
 5791SOL    HW228836   2.548   2.194   2.466  0.4954  2.2453 -0.5488
 5792SOL     OW28837   3.159   3.189   9.205  0.9809 -0.4552  0.1029
 5792SOL    HW128838   3.130   3.271   9.167  0.1145 -1.4090 -1.3151
 5792SOL    HW228839   3.133   3.194   9.297 -0.0436  1.8985 -0.3317
 5793SOL     OW28840   4.706   3.231   6.181 -0.1854  0.2114  0.0691
 5793SOL    HW128841   0.048   3.236   6.113 -1.6336 -1.7369 -1.4855
 5793SOL    HW228842   4.636   3.177   6.146 -0.4965  0.7176 -0.0949
 5794SOL     OW28843   2.979   3.935   9.191 -0.4723  0.1774  0.5853
 5794SOL    HW128844   2.975   3.943   9.286  0.6353  1.2864  0.5325
 5794SOL    HW228845   2.890   3.903   9.176  0.0688 -1.4152  0.7826
 5795SOL     OW28846   4.649   0.296   8.585 -0.1290  0.2429  0.1170
 5795SOL    HW128847   4.559   0.327   8.599 -0.0850 -0.1535  1.3453
 5795SOL    HW228848   4.696   0.373   8.617  1.6963 -1.0308  0.5171
 5796SOL     OW28849   2.305   2.327   8.935  0.2919 -0.5490 -0.2863
 5796SOL    HW128850   2.271   2.366   9.015  0.8817 -2.1427  0.7196
 5796SOL    HW228851   2.256   2.375   8.868 -0.7486  1.1517  1.6972
 5797SOL     OW28852   0.888   3.953   4.888  0.0250  0.1366 -0.8254
 5797SOL    HW128853   0.902   4.008   4.964  1.8430  0.5148 -1.4422
 5797SOL    HW228854   0.793   3.965   4.881 -0.0044  1.0572  1.4862
 5798SOL     OW28855   4.488   1.400   5.696  1.0099  0.6402 -0.0451
 5798SOL    HW128856   4.444   1.380   5.613 -1.5622 -1.3132  1.8013
 5798SOL    HW228857   4.580   1.384   5.672 -0.1970 -1.0177 -3.6520
 5799SOL     OW28858   3.052   0.065  17.294 -0.1844 -0.5427  0.1476
 5799SOL    HW128859   3.097   4.710  17.272 -1.3158 -1.2713  0.4955
 5799SOL    HW228860   3.036   0.090  17.203 -3.1709 -1.7283  0.3410
 5800SOL     OW28861   0.906   0.400   6.933 -0.1355 -0.3906 -0.3553
 5800SOL    HW128862   0.820   0.390   6.975  0.1068  0.9476  0.4499
 5800SOL    HW228863   0.940   0.313   6.911  1.4996  0.2331 -0.2244
 5801SOL     OW28864   2.802   3.682   9.832 -0.6371  0.2745 -0.2493
 5801SOL    HW128865   2.896   3.697   9.834 -0.6087  0.3536 -2.4276
 5801SOL    HW228866   2.774   3.710   9.745  0.9811 -1.3748 -1.3060
 5802SOL     OW28867   2.216   2.010   3.656 -0.4895 -0.2325  0.2152
 5802SOL    HW128868   2.185   1.934   3.607 -1.5206  0.3581 -0.0601
 5802SOL    HW228869   2.249   1.970   3.736  0.3647  1.2259  0.5884
 5803SOL     OW28870   0.168   4.681  14.059  0.2464 -0.3749  0.0590
 5803SOL    HW128871   0.112   0.023  14.098 -2.5176 -1.5920 -1.7618
 5803SOL    HW228872   0.200   4.631  14.134  0.5790 -1.0191 -0.5136
 5804SOL     OW28873   4.646   4.634   6.203 -0.2999  0.0940 -0.7352
 5804SOL    HW128874   4.712   4.613   6.268 -0.9777 -0.3279 -0.1805
 5804SOL    HW228875   4.594   4.690   6.261  1.1123 -0.0263  0.6537
 5805SOL     OW28876   0.513   2.930   9.457  0.6165  0.1870 -0.1422
 5805SOL    HW128877   0.424   2.917   9.489  0.5509  1.0633  0.0522
 5805SOL    HW228878   0.500   2.878   9.378 -3.0690 -0.9978  1.2641
 5806SOL     OW28879   0.115   0.628   5.651  0.2504  0.2889 -0.0803
 5806SOL    HW128880   0.068   0.599   5.729 -0.7749  0.8962 -0.4774
 5806SOL    HW228881   0.126   0.720   5.676 -2.2104  0.6568 -0.4081
 5807SOL     OW28882   0.524   4.396   9.077 -0.3989 -0.5105 -0.2215
 5807SOL    HW128883   0.451   4.335   9.064 -0.2798 -0.4598 -1.1417
 5807SOL    HW228884   0.595   4.339   9.106  0.8877  1.5498  0.6988
 5808SOL     OW28885   2.492   0.334  16.131 -0.1759  0.3802  0.1237
 5808SOL    HW128886   2.453   0.269  16.072  0.8194 -0.2731  0.1918
 5808SOL    HW228887   2.560   0.271  16.153 -1.1347  0.9322  4.6155
 5809SOL     OW28888   2.262   1.727   9.400 -0.3640  0.1711 -0.0464
 5809SOL    HW128889   2.205   1.790   9.356  0.2248  0.4641 -0.3979
 5809SOL    HW228890   2.349   1.763   9.383 -0.1320  0.0052  0.7972
 5810SOL     OW28891   0.284   0.036   6.639 -0.5667  0.0669 -0.0195
 5810SOL    HW128892   0.218   0.089   6.595 -2.1506 -1.1397  0.9079
 5810SOL    HW228893   0.328   0.009   6.558  1.1161  0.8211  0.6290
 5811SOL     OW28894   2.721   2.304   1.539  0.1507  0.6741 -0.0838
 5811SOL    HW128895   2.702   2.347   1.456 -1.6833 -1.6180 -0.8348
 5811SOL    HW228896   2.656   2.350   1.591  1.3106  1.5835  0.5675
 5812SOL     OW28897   3.877   1.397   8.978  0.0954  0.0887 -0.3564
 5812SOL    HW128898   3.961   1.373   8.938 -1.0715  0.6921 -3.1148
 5812SOL    HW228899   3.883   1.323   9.038 -2.3771  0.4569  0.3308
 5813SOL     OW28900   3.658   0.515  11.991 -0.8773 -0.1550  0.3797
 5813SOL    HW128901   3.695   0.470  12.066 -0.9049  0.8175  0.9685
 5813SOL    HW228902   3.690   0.605  12.000  1.3803 -1.0402  1.1110
 5814SOL     OW28903   0.031   1.200   6.068  0.4215  0.5522 -0.6495
 5814SOL    HW128904   0.003   1.140   6.137  0.0379 -1.8740 -2.9039
 5814SOL    HW228905   0.094   1.146   6.019 -0.3362 -1.4581  0.5695
 5815SOL     OW28906   3.601   4.353   2.497 -0.4336 -0.2475  0.3512
 5815SOL    HW128907   3.577   4.298   2.572 -0.6599 -0.3789  0.1816
 5815SOL    HW228908   3.565   4.438   2.522 -1.0058 -0.3658 -0.0868
 5816SOL     OW28909   1.001   2.737   9.127  0.1258  0.7197  0.3239
 5816SOL    HW128910   0.996   2.712   9.220 -0.1940 -2.3387 -0.5354
 5816SOL    HW228911   0.913   2.773   9.113  0.1997  1.7689  2.4551
 5817SOL     OW28912   4.456   0.362   3.680 -0.1546  0.0507  0.2935
 5817SOL    HW128913   4.435   0.405   3.597 -0.7878 -0.3052  0.2668
 5817SOL    HW228914   4.452   0.268   3.661  0.7215  0.0340  0.1789
 5818SOL     OW28915   3.502   0.166   5.369  0.1544 -0.2881 -0.1928
 5818SOL    HW128916   3.586   0.128   5.341  0.1106 -1.3088  1.0508
 5818SOL    HW228917   3.444   0.127   5.304  0.9501 -2.2072  0.2554
 5819SOL     OW28918   0.855   4.388  15.012  0.1382  0.0345 -0.0662
 5819SOL    HW128919   0.905   4.460  14.974 -0.4041  1.0867  1.2233
 5819SOL    HW228920   0.764   4.418  15.013  0.4008  0.8140  0.1043
 5820SOL     OW28921   0.968   3.135   4.970  0.3334 -0.0198 -0.0110
 5820SOL    HW128922   0.886   3.088   4.963  0.0722  0.4799 -0.2975
 5820SOL    HW228923   0.929   3.223   4.966 -1.1017 -0.5366  2.8747
 5821SOL     OW28924   1.633   2.688  15.093 -0.5990 -0.1555 -0.3425
 5821SOL    HW128925   1.643   2.598  15.064  0.6582 -0.0428 -0.2479
 5821SOL    HW228926   1.639   2.681  15.188 -1.0846  0.1716 -0.2879
 5822SOL     OW28927   2.215   3.965   5.792 -0.2325  0.3641  0.1309
 5822SOL    HW128928   2.298   3.932   5.828 -0.0883 -0.2941 -0.8025
 5822SOL    HW228929   2.207   4.056   5.821  0.1457  0.1123  1.0426
 5823SOL     OW28930   4.691   2.519   6.980 -0.5764  0.3305 -1.0506
 5823SOL    HW128931   4.720   2.448   6.923 -0.9867 -0.6633 -0.0130
 5823SOL    HW228932   0.025   2.521   7.055  1.0905 -0.9877 -2.3557
 5824SOL     OW28933   4.534   4.022  11.342  0.1341 -0.0496 -0.8913
 5824SOL    HW128934   4.580   4.106  11.348 -0.2245  0.1336 -0.7076
 5824SOL    HW228935   4.446   4.036  11.377  0.6390 -1.0676  0.7991
 5825SOL     OW28936   3.484   2.533   5.702  0.2545  0.2746  0.2558
 5825SOL    HW128937   3.428   2.608   5.726  2.1176  0.7830  3.0006
 5825SOL    HW228938   3.446   2.467   5.759 -0.7670  0.3597 -0.3248
 5826SOL     OW28939   2.819   2.889   8.450  0.3198  0.0670  0.4765
 5826SOL    HW128940   2.809   2.893   8.545  0.8712  1.0739  0.4962
 5826SOL    HW228941   2.736   2.848   8.427  1.4899 -1.1153 -1.6613
 5827SOL     OW28942   2.762   0.029   5.452  0.1779 -0.0330 -0.2075
 5827SOL    HW128943   2.841   0.078   5.475 -0.4054  0.3441  0.9637
 5827SOL    HW228944   2.708   0.098   5.413 -0.9649 -0.8160  0.0015
 5828SOL     OW28945   3.750   3.606  12.662 -0.2396 -0.1799 -0.0499
 5828SOL    HW128946   3.699   3.571  12.735  0.2449  0.8962  0.8181
 5828SOL    HW228947   3.821   3.542  12.666  2.4771  2.7670 -0.8817
 5829SOL     OW28948   0.906   2.669   6.763  1.0554  0.2718 -0.1939
 5829SOL    HW128949   0.863   2.606   6.821  1.5475  0.3192  0.2232
 5829SOL    HW228950   0.848   2.675   6.687  3.2550 -1.1887 -1.9695
 5830SOL     OW28951   4.081   4.348  13.491 -0.4276 -0.6504  0.1856
 5830SOL    HW128952   4.043   4.426  13.451 -0.4467 -0.8726 -0.2321
 5830SOL    HW228953   4.161   4.383  13.530  0.1513 -0.2081 -1.4431
 5831SOL     OW28954   1.585   2.195   8.183  0.4456  0.3404  0.0131
 5831SOL    HW128955   1.566   2.263   8.248 -1.3318  0.3270 -0.5074
 5831SOL    HW228956   1.563   2.122   8.241 -1.4738  1.3436  0.5324
 5832SOL     OW28957   0.827   2.130   6.810  0.2602  0.2040  0.0069
 5832SOL    HW128958   0.911   2.170   6.832 -0.4319  1.8206 -0.2583
 5832SOL    HW228959   0.787   2.092   6.888 -1.3139 -0.9461 -1.3749
 5833SOL     OW28960   3.583   4.581   2.884  0.2517  0.1376 -0.4520
 5833SOL    HW128961   3.521   4.508   2.893  1.6296 -0.6511  2.8353
 5833SOL    HW228962   3.590   4.605   2.976  2.4532 -1.2159 -0.2421
 5834SOL     OW28963   0.706   4.026   8.740 -0.2518 -0.2484  0.3634
 5834SOL    HW128964   0.764   3.983   8.678 -0.9363  3.3152 -2.7331
 5834SOL    HW228965   0.648   4.085   8.692 -0.3126 -0.2990  0.3751
 5835SOL     OW28966   1.162   0.068   3.236  1.0686 -0.0732  0.3242
 5835SOL    HW128967   1.072   0.097   3.253  0.9368 -0.1509 -0.2388
 5835SOL    HW228968   1.206   0.137   3.285 -0.8541  0.8749  0.7355
 5836SOL     OW28969   4.620   0.911  16.966 -0.3384  0.4788  0.5657
 5836SOL    HW128970   4.532   0.877  16.947  0.3465 -0.9401 -0.0755
 5836SOL    HW228971   4.630   0.975  16.896 -2.4575 -0.5836 -0.7245
 5837SOL     OW28972   3.778   0.931   6.565 -0.5202 -0.0121 -0.6944
 5837SOL    HW128973   3.717   0.988   6.519  0.7978  1.6123 -0.4054
 5837SOL    HW228974   3.763   0.856   6.506 -0.6292  0.5845 -1.4249
 5838SOL     OW28975   0.157   0.229  17.109  0.3298 -0.2855  0.2312
 5838SOL    HW128976   0.075   0.278  17.107  1.3250  1.3509  0.0871
 5838SOL    HW228977   0.196   0.240  17.022 -2.3831  3.6523 -0.4502
 5839SOL     OW28978   4.602   1.454   6.311  0.0885 -0.2654 -0.3340
 5839SOL    HW128979   4.570   1.364   6.319  0.5082 -0.2751  1.1393
 5839SOL    HW228980   4.648   1.467   6.394  1.4955  0.3875 -1.2261
 5840SOL     OW28981   0.804   1.097   9.068  0.2164  0.4459 -0.2908
 5840SOL    HW128982   0.816   1.002   9.079  0.6794  0.4024 -1.1865
 5840SOL    HW228983   0.864   1.126   9.137  1.8671  0.2568 -1.6463
 5841SOL     OW28984   2.051   0.372   0.589  0.3539  0.0497  0.2485
 5841SOL    HW128985   1.998   0.376   0.509 -1.6029 -0.4629  1.5252
 5841SOL    HW228986   2.062   0.277   0.590  2.5597  0.2812 -0.5427
 5842SOL     OW28987   3.786   0.276  11.458  0.2705 -0.0721  0.3285
 5842SOL    HW128988   3.705   0.246  11.418  0.2288 -1.1112  1.1874
 5842SOL    HW228989   3.791   0.199  11.515 -0.3889  0.4119  1.0375
 5843SOL     OW28990   2.365   0.635   6.565  0.1073 -0.4004 -0.5668
 5843SOL    HW128991   2.397   0.565   6.509 -0.3683  0.2259 -1.6147
 5843SOL    HW228992   2.436   0.695   6.544 -2.2094  1.7011 -2.4090
 5844SOL     OW28993   3.562   1.528   9.884  0.3123 -0.2317  0.1757
 5844SOL    HW128994   3.491   1.573   9.931 -0.2046  0.7595 -1.5615
 5844SOL    HW228995   3.612   1.505   9.963  2.6753 -1.7152 -1.7684
 5845SOL     OW28996   4.109   1.738   5.054 -0.4613  0.1761  0.0551
 5845SOL    HW128997   4.052   1.807   5.088 -3.3000 -2.1070 -0.0353
 5845SOL    HW228998   4.165   1.729   5.131  1.2010 -2.4383 -1.4666
 5846SOL     OW28999   2.972   3.593   1.015 -0.4904  0.3735 -0.1743
 5846SOL    HW129000   3.063   3.577   0.993 -0.7416  0.2829 -1.1464
 5846SOL    HW229001   2.982   3.688   1.020  1.1354  0.0796  2.2558
 5847SOL     OW29002   4.222   1.845   8.608 -0.4048 -0.3058  0.5887
 5847SOL    HW129003   4.223   1.886   8.695  2.3777 -1.7936  1.2315
 5847SOL    HW229004   4.208   1.755   8.636 -0.2622 -0.3389  0.5541
 5848SOL     OW29005   0.117   4.382   3.217 -0.6576  0.0595 -0.2880
 5848SOL    HW129006   0.028   4.415   3.216  0.8945  4.1687 -2.5008
 5848SOL    HW229007   0.157   4.437   3.284  0.1737 -0.0566 -0.6822
 5849SOL     OW29008   2.903   3.826   6.195 -0.1066  0.0883 -0.2869
 5849SOL    HW129009   2.991   3.864   6.197  0.4675 -1.2218 -0.8319
 5849SOL    HW229010   2.872   3.867   6.275 -2.0440 -0.9884 -0.4961
 5850SOL     OW29011   2.295   1.157   5.867  0.0367  0.1854  0.0463
 5850SOL    HW129012   2.367   1.094   5.875  1.5437  1.7977 -0.8278
 5850SOL    HW229013   2.226   1.094   5.845 -1.2263  1.3132  0.8526
 5851SOL     OW29014   2.942   4.561  14.879  0.3867  0.4344  0.1842
 5851SOL    HW129015   2.860   4.527  14.843  1.1605 -0.4939 -0.6779
 5851SOL    HW229016   2.974   4.488  14.932 -0.3165 -0.9267 -1.2971
 5852SOL     OW29017   0.723   4.376   8.390  0.4498 -0.0206  0.0423
 5852SOL    HW129018   0.796   4.412   8.339 -0.2281  2.0546  0.5384
 5852SOL    HW229019   0.665   4.450   8.371 -1.9348 -1.6359  0.9991
 5853SOL     OW29020   2.443   4.129   8.318 -0.1411 -0.0563  0.8885
 5853SOL    HW129021   2.532   4.096   8.309 -0.9747 -1.9368 -0.4024
 5853SOL    HW229022   2.444   4.225   8.321 -0.8215 -0.0585  1.3592
 5854SOL     OW29023   4.677   1.755   8.741  0.8286  0.0991 -0.1893
 5854SOL    HW129024   4.628   1.836   8.754  1.2631  0.5752 -1.5139
 5854SOL    HW229025   4.617   1.683   8.721  0.1993  0.5384  0.1455
 5855SOL     OW29026   2.749   2.079   2.287  0.2088 -0.4442 -0.2212
 5855SOL    HW129027   2.661   2.082   2.251  1.0137  0.2463 -2.1507
 5855SOL    HW229028   2.759   1.991   2.324  1.1009 -1.3206 -2.5258
 5856SOL     OW29029   0.243   0.854  16.155 -0.2901  0.3265  0.3742
 5856SOL    HW129030   0.227   0.781  16.214  0.3269  0.8763  1.2251
 5856SOL    HW229031   0.164   0.909  16.157  0.2296  1.1330 -1.2779
 5857SOL     OW29032   2.952   3.904   7.134 -0.0150 -0.0164  0.9890
 5857SOL    HW129033   2.870   3.871   7.172  0.8457 -2.3729  0.7419
 5857SOL    HW229034   2.968   3.834   7.072 -0.3041 -0.1720  1.0902
 5858SOL     OW29035   2.684   3.234   7.233 -0.0353  0.1544 -0.2122
 5858SOL    HW129036   2.599   3.194   7.250  0.8814 -0.2822  3.3326
 5858SOL    HW229037   2.699   3.172   7.161  1.0787  2.1540 -1.7046
 5859SOL     OW29038   1.587   4.551   3.865  0.0114  0.0776 -0.1658
 5859SOL    HW129039   1.619   4.462   3.853 -0.1384  0.1327 -0.9517
 5859SOL    HW229040   1.537   4.562   3.784 -1.0120 -0.0302  0.4532
 5860SOL     OW29041   2.017   2.907   7.509 -0.5683 -0.5317 -0.6904
 5860SOL    HW129042   2.049   2.946   7.591 -0.5747 -0.2899 -0.8036
 5860SOL    HW229043   2.013   2.812   7.522 -0.2172 -0.8784 -3.2248
 5861SOL     OW29044   3.534   0.943   1.346  0.0868  0.0835 -0.0911
 5861SOL    HW129045   3.568   0.924   1.259 -1.7192 -0.2686 -0.7105
 5861SOL    HW229046   3.441   0.928   1.332  0.3195  0.4086 -1.9705
 5862SOL     OW29047   2.262   4.095   6.295 -0.3008  0.1901  0.5950
 5862SOL    HW129048   2.308   4.018   6.329 -0.9778  0.5665  2.3467
 5862SOL    HW229049   2.218   4.123   6.374  0.9892 -1.8634  2.0513
 5863SOL     OW29050   4.345   1.796   3.654 -0.2846 -0.3479 -0.3630
 5863SOL    HW129051   4.420   1.746   3.686 -0.1793  0.2961  0.4023
 5863SOL    HW229052   4.369   1.887   3.671  0.6806 -0.7743  0.5976
 5864SOL     OW29053   1.387   4.382   8.581 -0.3596  0.1231  0.1971
 5864SOL    HW129054   1.312   4.326   8.563  0.4773 -1.1331  0.6510
 5864SOL    HW229055   1.351   4.459   8.624 -2.2646 -0.9190  0.4477
 5865SOL     OW29056   4.553   3.404   6.359 -0.0601  0.2145 -0.0492
 5865SOL    HW129057   4.624   3.425   6.419  0.0701  2.7097 -1.0905
 5865SOL    HW229058   4.602   3.376   6.282  2.0708 -0.3993  1.5393
 5866SOL     OW29059   4.272   0.236   6.290 -0.0050  0.4872 -0.1548
 5866SOL    HW129060   4.355   0.199   6.320 -0.4082  1.1879  1.8441
 5866SOL    HW229061   4.252   0.287   6.369 -0.0162 -0.4975  0.4815
 5867SOL     OW29062   0.180   3.723  11.029  0.7004  0.1905  0.0034
 5867SOL    HW129063   0.248   3.661  11.055  0.3310 -0.5664 -0.8113
 5867SOL    HW229064   0.185   3.713  10.934  1.3042 -0.9448  0.1566
 5868SOL     OW29065   2.080   1.020   5.737  0.0910 -0.4663 -0.0368
 5868SOL    HW129066   1.988   0.997   5.753 -0.0283  0.6665  0.9006
 5868SOL    HW229067   2.071   1.093   5.675  1.9720 -1.0363 -0.9628
 5869SOL     OW29068   3.230   1.421   0.040  0.5463 -0.1446  0.5656
 5869SOL    HW129069   3.193   1.507   0.020 -0.6002 -0.9425 -0.7275
 5869SOL    HW229070   3.247   1.383  17.658 -1.2163  0.7017 -0.1638
 5870SOL     OW29071   2.826   2.674   9.174  0.4756  0.0892  0.7275
 5870SOL    HW129072   2.740   2.653   9.210 -0.9161 -0.1123 -2.6734
 5870SOL    HW229073   2.818   2.658   9.080  0.7056  2.6598  0.2560
 5871SOL     OW29074   2.435   2.878   8.547  0.2838 -0.3847 -0.7637
 5871SOL    HW129075   2.469   2.927   8.622 -1.4055 -0.4578  0.0542
 5871SOL    HW229076   2.460   2.938   8.478  0.9249  0.1060 -0.1069
 5872SOL     OW29077   0.079   3.846   7.799  0.4593  0.4266 -0.4584
 5872SOL    HW129078   0.175   3.847   7.792  0.5396  1.5096  0.6427
 5872SOL    HW229079   0.068   3.827   7.893  1.4633  0.1923 -0.3905
 5873SOL     OW29080   1.410   1.800   7.252 -0.7381 -0.3084  0.2920
 5873SOL    HW129081   1.484   1.841   7.206 -1.4515  0.5377 -0.0984
 5873SOL    HW229082   1.458   1.721   7.277  2.1018  0.5467 -2.3934
 5874SOL     OW29083   1.200   4.485   6.196 -0.3920  0.9229 -0.1571
 5874SOL    HW129084   1.283   4.442   6.174 -0.3778  0.8924 -0.0390
 5874SOL    HW229085   1.140   4.443   6.135  0.8300  1.3399 -1.6597
 5875SOL     OW29086   2.286   2.796  12.432 -0.3753 -0.2979  0.9940
 5875SOL    HW129087   2.326   2.744  12.502 -1.3240 -0.6111  1.2919
 5875SOL    HW229088   2.264   2.873  12.484 -0.4215  0.5304 -0.2514
 5876SOL     OW29089   2.915   2.720   3.838  0.1392 -0.0883 -0.3013
 5876SOL    HW129090   2.991   2.677   3.876  0.8521  0.9018 -0.6144
 5876SOL    HW229091   2.947   2.718   3.748  0.0261  1.6016 -0.3796
 5877SOL     OW29092   3.169   0.835   9.177 -0.0005  0.1603 -0.3545
 5877SOL    HW129093   3.211   0.792   9.251  1.8833  1.4789 -0.6435
 5877SOL    HW229094   3.088   0.861   9.221 -1.2927 -2.3684 -1.2217
 5878SOL     OW29095   1.885   4.715   3.755  0.3708  0.1237 -0.3622
 5878SOL    HW129096   1.958   4.654   3.768 -0.6151 -0.7844  0.8717
 5878SOL    HW229097   1.868   4.699   3.662  0.1320  0.0218 -0.3004
 5879SOL     OW29098   2.941   1.322   4.202  0.2522 -0.1922  1.0986
 5879SOL    HW129099   2.983   1.332   4.116 -0.6078  0.5677  0.7664
 5879SOL    HW229100   2.912   1.411   4.223  2.9165  0.6286  1.2937
 5880SOL     OW29101   4.558   2.464   5.530  0.2753 -0.2513  0.4172
 5880SOL    HW129102   4.608   2.531   5.484 -1.4213  0.5029 -0.3094
 5880SOL    HW229103   4.625   2.412   5.576  0.1114 -1.7520 -1.0471
 5881SOL     OW29104   4.263   2.999   8.843  0.0325  0.3064  0.0687
 5881SOL    HW129105   4.321   3.075   8.849  0.0630  0.2568  0.4245
 5881SOL    HW229106   4.224   2.999   8.931 -0.2840 -1.3777 -0.0674
 5882SOL     OW29107   0.015   3.627  13.700  0.2364  0.4728  0.2363
 5882SOL    HW129108   4.724   3.693  13.632  0.9959  1.4494  1.0019
 5882SOL    HW229109   4.699   3.546  13.673  0.4596  1.0542 -1.9018
 5883SOL     OW29110   1.107   1.503   6.581 -0.2661 -0.0416  0.1852
 5883SOL    HW129111   1.142   1.552   6.655 -0.8635  2.0592 -0.9237
 5883SOL    HW229112   1.102   1.415   6.619  3.3987 -0.0625  0.6655
 5884SOL     OW29113   3.251   1.209   5.851 -0.1982  0.2485 -0.0757
 5884SOL    HW129114   3.164   1.171   5.839  0.0763 -0.2120 -0.6139
 5884SOL    HW229115   3.304   1.132   5.830  0.9864  0.7763  0.9411
 5885SOL     OW29116   1.956   1.374   8.048 -0.3859  0.0942  0.0253
 5885SOL    HW129117   1.917   1.454   8.012  0.7675  0.8029  0.3422
 5885SOL    HW229118   2.000   1.401   8.128  1.6774 -0.6185 -0.8524
 5886SOL     OW29119   2.136   0.136   0.879 -0.0101  0.9751 -0.1920
 5886SOL    HW129120   2.183   0.131   0.796  0.1403 -1.3719  0.0478
 5886SOL    HW229121   2.131   0.231   0.887  1.9655  0.9830  1.0448
 5887SOL     OW29122   0.814   3.275   1.369  0.2196  0.4569 -0.7438
 5887SOL    HW129123   0.720   3.289   1.368  0.1100 -0.3886 -1.3344
 5887SOL    HW229124   0.822   3.275   1.465  0.1920 -0.9529 -0.7523
 5888SOL     OW29125   3.415   2.531   3.494  0.3231  0.6072  0.9070
 5888SOL    HW129126   3.406   2.551   3.587  0.2025  2.5432  0.4857
 5888SOL    HW229127   3.356   2.596   3.456 -1.4024 -1.3085  0.3140
 5889SOL     OW29128   0.278   4.198   3.066 -0.1505 -0.0836  0.4960
 5889SOL    HW129129   0.221   4.232   3.135  0.4950  2.7157 -0.3839
 5889SOL    HW229130   0.244   4.110   3.050 -0.3594  0.1658 -0.3786
 5890SOL     OW29131   3.660   4.281   7.947 -0.2352 -0.8767 -0.7106
 5890SOL    HW129132   3.727   4.302   7.881 -1.4706 -0.2100 -1.7317
 5890SOL    HW229133   3.725   4.273   8.017 -0.9531 -1.9780 -0.1746
 5891SOL     OW29134   2.214   1.768   7.654  0.1055  0.7228 -0.1180
 5891SOL    HW129135   2.149   1.711   7.696  0.0123  0.4046 -0.6862
 5891SOL    HW229136   2.164   1.824   7.595  1.1727  0.3961 -1.3327
 5892SOL     OW29137   3.795   4.486   7.798 -0.0872  0.4438 -0.0505
 5892SOL    HW129138   3.857   4.559   7.790  2.7458 -1.9923 -0.5927
 5892SOL    HW229139   3.717   4.535   7.823 -0.2347 -0.2438  0.8453
 5893SOL     OW29140   2.896   3.979  14.434  0.1109  0.1506 -0.1125
 5893SOL    HW129141   2.903   4.072  14.457 -0.1075  0.1208  0.0662
 5893SOL    HW229142   2.870   4.002  14.344 -0.0927  2.4241  0.5228
 5894SOL     OW29143   3.693   2.969   6.797 -0.7149 -0.0368  0.6493
 5894SOL    HW129144   3.746   2.947   6.720  0.5618  0.3811  1.4206
 5894SOL    HW229145   3.690   2.879   6.829  0.4400  0.3344  1.7777
 5895SOL     OW29146   3.528   4.683  13.758 -0.2575 -0.3102 -0.8066
 5895SOL    HW129147   3.607   4.637  13.787 -0.3885 -0.0438 -0.0263
 5895SOL    HW229148   3.550   0.039  13.803  0.1190 -0.7688 -0.1601
 5896SOL     OW29149   0.340   1.141   4.070 -0.4261 -0.1145  0.3230
 5896SOL    HW129150   0.411   1.193   4.107  1.3813 -2.1134 -0.3548
 5896SOL    HW229151   0.309   1.083   4.140  1.5891 -0.1089  1.2247
 5897SOL     OW29152   1.303   1.248  16.798 -0.5735 -0.1737 -0.2754
 5897SOL    HW129153   1.319   1.272  16.706  1.4643  2.0554  0.6637
 5897SOL    HW229154   1.243   1.173  16.796  1.2435 -1.6188 -0.8853
 5898SOL     OW29155   4.411   2.225   8.150  0.3947  0.5283  0.1720
 5898SOL    HW129156   4.354   2.287   8.104  0.2476 -2.2046 -3.3451
 5898SOL    HW229157   4.441   2.281   8.222 -0.6373  1.1821  0.0934
 5899SOL     OW29158   0.486   2.110  15.812 -0.0347 -0.0730  0.6510
 5899SOL    HW129159   0.523   2.070  15.890 -1.7946  0.1840  1.6024
 5899SOL    HW229160   0.399   2.135  15.840 -0.1287  0.7329 -0.3370
 5900SOL     OW29161   0.761   0.136  16.326  0.6709 -0.4744  0.4634
 5900SOL    HW129162   0.666   0.137  16.329  0.6782  0.1438  0.4110
 5900SOL    HW229163   0.791   0.069  16.388  1.5038  1.6586  2.3769
 5901SOL     OW29164   3.396   0.386  10.426 -0.1597 -0.5506  0.2298
 5901SOL    HW129165   3.354   0.421  10.505 -0.0726  1.6651 -0.7029
 5901SOL    HW229166   3.482   0.428  10.429 -0.1416 -0.5362 -0.6064
 5902SOL     OW29167   0.613   0.333   5.989  0.4433 -0.3907 -0.2282
 5902SOL    HW129168   0.650   0.296   6.069  0.9464  1.1166  0.2323
 5902SOL    HW229169   0.691   0.382   5.964 -0.3433 -0.1026 -2.1197
 5903SOL     OW29170   3.793   0.699   6.918  0.5637  0.0635  0.4818
 5903SOL    HW129171   3.885   0.724   6.913  0.6942 -0.9925 -2.1879
 5903SOL    HW229172   3.776   0.672   7.009 -1.0462  0.8560  0.4076
 5904SOL     OW29173   2.286   4.370  16.071 -0.3103  0.2104  0.0870
 5904SOL    HW129174   2.303   4.329  16.156 -1.8584 -1.1102 -0.2594
 5904SOL    HW229175   2.248   4.456  16.093 -0.1316  0.3147 -0.0124
 5905SOL     OW29176   4.294   1.153   1.269  0.2704  0.3632  0.5966
 5905SOL    HW129177   4.254   1.192   1.191 -0.1479 -0.8430  0.2105
 5905SOL    HW229178   4.285   1.222   1.335  0.0817  0.0509  0.8957
 5906SOL     OW29179   1.566   0.989  13.267 -0.0663  0.5989  0.4430
 5906SOL    HW129180   1.577   1.024  13.178 -1.3876 -0.0069  0.0324
 5906SOL    HW229181   1.650   0.950  13.288 -0.6686  0.1145  1.9392
 5907SOL     OW29182   4.602   3.050  11.735 -0.0535 -0.0137  0.4180
 5907SOL    HW129183   4.612   3.120  11.671  0.5784 -0.5785 -0.1031
 5907SOL    HW229184   4.528   3.080  11.789  0.6993  2.0074  0.3387
 5908SOL     OW29185   0.309   4.431   3.441  0.5368  0.3136 -0.1813
 5908SOL    HW129186   0.334   4.510   3.491  0.6921  0.2771 -0.2021
 5908SOL    HW229187   0.381   4.373   3.466  0.9502  0.7329 -0.3950
 5909SOL     OW29188   1.535   1.422   4.471 -0.5815  0.0706  0.3267
 5909SOL    HW129189   1.514   1.478   4.396 -2.0295 -0.8366  0.0599
 5909SOL    HW229190   1.503   1.340   4.435  0.9010 -0.2383 -0.2756
 5910SOL     OW29191   0.464   0.023   4.755  0.0207 -0.0069 -0.0065
 5910SOL    HW129192   0.480   0.063   4.669 -0.1538  0.1894  0.0513
 5910SOL    HW229193   0.406   0.088   4.795  1.3015  0.5867  0.8512
 5911SOL     OW29194   3.614   2.301   9.613  0.3942 -0.2262 -0.3051
 5911SOL    HW129195   3.521   2.277   9.612  0.0292  1.2220  0.1131
 5911SOL    HW229196   3.611   2.372   9.549 -1.3973  1.4868  1.7295
 5912SOL     OW29197   3.000   3.252   7.335 -0.7038  0.5174 -0.3140
 5912SOL    HW129198   2.911   3.285   7.348 -1.3907 -1.9908  1.2454
 5912SOL    HW229199   3.031   3.221   7.419 -2.2461 -0.5405 -0.1411
 5913SOL     OW29200   3.230   3.031   5.861 -0.3838 -0.4317  0.1037
 5913SOL    HW129201   3.234   3.097   5.792  0.8032 -1.3226 -0.6720
 5913SOL    HW229202   3.203   2.956   5.808  1.3853 -1.3870  0.5676
 5914SOL     OW29203   4.527   0.221  11.718 -0.3563  0.3062  0.6630
 5914SOL    HW129204   4.541   0.199  11.626  0.1244  0.7018  0.6406
 5914SOL    HW229205   4.512   0.316  11.720 -1.2075  0.1753  0.3839
 5915SOL     OW29206   3.959   2.318   4.100  0.2179 -0.3772 -0.0727
 5915SOL    HW129207   3.999   2.238   4.067 -0.1476 -0.9884  0.9801
 5915SOL    HW229208   3.866   2.297   4.095 -0.1121  1.1388 -0.4796
 5916SOL     OW29209   4.246   3.712   5.998 -0.2092 -0.2885 -0.0483
 5916SOL    HW129210   4.285   3.786   6.045  0.1399 -0.1859 -0.4973
 5916SOL    HW229211   4.159   3.749   5.984  0.0566  0.7648  1.0705
 5917SOL     OW29212   3.669   1.604  15.076  0.0861  0.1537  0.2141
 5917SOL    HW129213   3.582   1.612  15.115  0.7922 -0.5566  1.9202
 5917SOL    HW229214   3.658   1.628  14.984 -0.5310  1.0430  0.5219
 5918SOL     OW29215   3.969   1.942   8.787  0.1279 -0.4199  0.3879
 5918SOL    HW129216   3.873   1.948   8.789  0.2254  1.7220 -1.4251
 5918SOL    HW229217   3.995   2.031   8.812 -0.1231 -0.1988 -0.1268
 5919SOL     OW29218   0.009   0.521   9.429  0.5579  0.2718 -0.4355
 5919SOL    HW129219   4.700   0.447   9.478 -0.5178  0.8514 -0.3394
 5919SOL    HW229220   4.692   0.596   9.470 -0.8433 -0.4698 -0.5559
 5920SOL     OW29221   0.819   2.937   9.020 -0.2544  0.4813  0.4095
 5920SOL    HW129222   0.773   3.003   9.072 -0.8734 -0.4929  1.0824
 5920SOL    HW229223   0.767   2.938   8.940 -0.4022 -0.1081  0.4967
 5921SOL     OW29224   3.430   2.095  11.595  0.5272  0.4068 -0.3473
 5921SOL    HW129225   3.496   2.121  11.530  2.0919  1.6284  1.7282
 5921SOL    HW229226   3.484   2.041  11.654  0.2283 -1.4724 -1.7723
 5922SOL     OW29227   1.855   4.542   5.797 -0.5537 -0.3279 -0.4887
 5922SOL    HW129228   1.779   4.575   5.750 -0.3116  0.2357 -0.4914
 5922SOL    HW229229   1.824   4.461   5.837  0.3971 -0.6811 -0.4476
 5923SOL     OW29230   3.843   1.891   8.461  0.1820 -0.4883  0.5877
 5923SOL    HW129231   3.858   1.978   8.499 -1.2225 -0.5845  1.3679
 5923SOL    HW229232   3.822   1.910   8.370 -0.1322  2.7955  1.3237
 5924SOL     OW29233   0.760   0.109  15.584 -0.4489 -0.5098 -0.5061
 5924SOL    HW129234   0.815   0.154  15.520 -2.8267  2.7772 -0.2553
 5924SOL    HW229235   0.804   0.031  15.616  0.2115  0.7196  1.6217
 5925SOL     OW29236   2.519   0.496   5.964  0.7401 -0.0049 -0.1646
 5925SOL    HW129237   2.440   0.486   6.018  0.1648 -2.1245 -1.3971
 5925SOL    HW229238   2.557   0.568   6.015  0.0357 -0.9998  1.7848
 5926SOL     OW29239   2.876   0.384  17.172 -0.1718 -0.1970  0.0998
 5926SOL    HW129240   2.886   0.389  17.267 -0.0734  1.1700  0.0199
 5926SOL    HW229241   2.961   0.405  17.133  0.0492 -0.3198  0.5175
 5927SOL     OW29242   1.094   3.455   2.191 -0.5711 -0.0901 -0.3980
 5927SOL    HW129243   1.058   3.410   2.116  3.3798 -1.1364 -1.6751
 5927SOL    HW229244   1.022   3.434   2.250  0.8752 -0.9182  1.0652
 5928SOL     OW29245   1.859   1.647   5.320  0.1721 -0.3062 -0.2462
 5928SOL    HW129246   1.801   1.579   5.287 -0.8155  0.7684 -0.7342
 5928SOL    HW229247   1.816   1.729   5.297 -2.0494 -1.3090  0.3657
 5929SOL     OW29248   3.481   1.491   9.170  0.5595 -0.3868 -0.6512
 5929SOL    HW129249   3.418   1.466   9.102  2.1531  0.6472 -2.5289
 5929SOL    HW229250   3.428   1.534   9.237  1.3872  0.5720 -0.6089
 5930SOL     OW29251   3.014   2.406   9.237 -0.5228 -0.9018 -0.7856
 5930SOL    HW129252   3.079   2.456   9.287 -3.5135  0.3976  1.8448
 5930SOL    HW229253   2.959   2.396   9.315  0.6703 -0.4758  0.1185
 5931SOL     OW29254   4.401   0.683   2.830 -0.7752 -0.3183  0.1565
 5931SOL    HW129255   4.461   0.679   2.905 -0.4796 -0.7191 -0.1033
 5931SOL    HW229256   4.410   0.597   2.788 -0.7501  0.1165 -0.7376
 5932SOL     OW29257   0.575   0.626   4.636  0.2964 -0.1897  0.1898
 5932SOL    HW129258   0.517   0.550   4.632  2.5865 -1.9396 -0.0341
 5932SOL    HW229259   0.639   0.602   4.703  0.2842  0.7050  0.5262
 5933SOL     OW29260   2.864   1.224   2.206  0.6573  0.0352  0.2487
 5933SOL    HW129261   2.877   1.316   2.226  2.3624  0.0407 -0.8443
 5933SOL    HW229262   2.891   1.220   2.114  3.5491 -1.3521  1.1475
 5934SOL     OW29263   0.319   0.185   1.058 -0.0132 -0.1707 -0.1583
 5934SOL    HW129264   0.235   0.214   1.024  0.2347  0.9314  0.1754
 5934SOL    HW229265   0.290   0.110   1.111 -1.0694 -0.0856 -0.6154
 5935SOL     OW29266   1.147   3.932   2.608  0.0393  0.1378  0.6471
 5935SOL    HW129267   1.197   3.984   2.545  0.6866 -0.5342  0.6050
 5935SOL    HW229268   1.088   3.996   2.648  0.9917  3.1652 -2.7841
 5936SOL     OW29269   2.549   0.930   9.570 -0.4069 -0.1893  0.2745
 5936SOL    HW129270   2.532   0.925   9.476 -2.3403  0.0915  0.6132
 5936SOL    HW229271   2.526   1.021   9.585 -1.2578 -0.0023 -2.0662
 5937SOL     OW29272   3.848   0.004   1.914 -0.2540  0.0442  0.7930
 5937SOL    HW129273   3.876   4.698   2.001  0.2446 -1.6249  0.0259
 5937SOL    HW229274   3.880   4.664   1.853 -1.3985  0.4295 -0.2049
 5938SOL     OW29275   0.105   1.388   4.729 -0.0027  0.2354 -0.4803
 5938SOL    HW129276   0.041   1.332   4.686  1.0055 -0.7399 -0.7246
 5938SOL    HW229277   0.117   1.327   4.802 -1.1645 -0.5883 -0.9863
 5939SOL     OW29278   0.920   2.784   4.026  0.5666 -0.4201 -0.0723
 5939SOL    HW129279   0.881   2.696   4.020 -0.2751 -0.2292  2.3456
 5939SOL    HW229280   0.837   2.832   4.030  1.7937  1.7599 -0.8265
 5940SOL     OW29281   2.603   3.475   7.298  0.3927 -0.3005 -0.4640
 5940SOL    HW129282   2.640   3.387   7.288  2.6432  0.7225 -1.1321
 5940SOL    HW229283   2.598   3.483   7.393 -0.9343  0.1052 -0.5597
 5941SOL     OW29284   4.401   1.709   9.069  0.5211  0.0067 -0.1772
 5941SOL    HW129285   4.326   1.742   9.020  0.6469  1.0386  0.3293
 5941SOL    HW229286   4.374   1.713   9.160  3.7257 -3.0477  0.8961
 5942SOL     OW29287   0.615   1.833   6.838 -0.0029  0.1521  0.3617
 5942SOL    HW129288   0.536   1.779   6.850 -0.4523  0.8990  0.7086
 5942SOL    HW229289   0.661   1.774   6.777  0.8100 -0.6399  1.7440
 5943SOL     OW29290   2.624   2.380   1.971  0.4527  0.3961  0.5916
 5943SOL    HW129291   2.553   2.316   1.966  0.7327  0.3198 -2.5864
 5943SOL    HW229292   2.582   2.466   1.974 -0.3899  0.0748 -1.9676
 5944SOL     OW29293   3.700   3.924   0.928 -0.0341  0.4153 -0.4055
 5944SOL    HW129294   3.653   3.911   1.010  3.5227  1.3326  1.7631
 5944SOL    HW229295   3.768   3.857   0.936 -2.7131 -2.3592 -0.6129
 5945SOL     OW29296   3.858   3.055  10.728  0.0263 -0.4701 -0.0552
 5945SOL    HW129297   3.919   3.128  10.739 -0.6119 -0.2570  1.9439
 5945SOL    HW229298   3.798   3.088  10.660  0.7998 -0.2027 -0.6135
 5946SOL     OW29299   3.090   4.092   5.263 -0.6625  0.2099 -0.7110
 5946SOL    HW129300   3.040   4.045   5.197 -0.2034 -0.4783 -0.5696
 5946SOL    HW229301   3.055   4.179   5.246  1.0403  0.9166 -0.6186
 5947SOL     OW29302   0.737   1.551  17.167 -0.4841 -0.2273  0.2687
 5947SOL    HW129303   0.732   1.478  17.229 -0.4758 -2.5806 -2.4693
 5947SOL    HW229304   0.725   1.622  17.230  0.4338  1.8726 -1.9121
 5948SOL     OW29305   0.868   3.426   3.120  0.2441  0.2123 -0.2438
 5948SOL    HW129306   0.905   3.405   3.035 -0.5159 -0.4745 -0.3968
 5948SOL    HW229307   0.940   3.464   3.171 -1.6690  1.4880  1.5293
 5949SOL     OW29308   0.014   3.811   2.753 -0.5662 -0.0736  0.5756
 5949SOL    HW129309   0.060   3.767   2.681  0.0445  2.1691 -0.4070
 5949SOL    HW229310   4.698   3.880   2.703  0.7327  0.3068  0.0180
 5950SOL     OW29311   4.233   0.774   5.071  0.0570 -0.8478 -0.2227
 5950SOL    HW129312   4.197   0.688   5.090  1.2668 -1.6089 -1.3753
 5950SOL    HW229313   4.199   0.782   4.982  0.8151  1.0097 -0.3525
 5951SOL     OW29314   2.198   3.519   5.786  0.3028  0.3063 -0.2444
 5951SOL    HW129315   2.151   3.539   5.705  0.1206 -2.4879 -0.8350
 5951SOL    HW229316   2.254   3.596   5.796 -0.4824  0.6890  1.1414
 5952SOL     OW29317   1.959   1.869   2.225 -0.6540  0.5416 -0.0360
 5952SOL    HW129318   1.937   1.899   2.137  2.5732  1.0078 -0.6817
 5952SOL    HW229319   1.974   1.775   2.214 -0.3534  0.4738  0.9170
 5953SOL     OW29320   0.644   1.052   5.031 -0.2768 -0.0498 -0.0236
 5953SOL    HW129321   0.667   0.960   5.033  0.6188  0.1887  0.7851
 5953SOL    HW229322   0.659   1.082   4.942 -1.5093  0.3683 -0.0935
 5954SOL     OW29323   4.617   1.668   5.969 -0.0341  0.0669 -0.6403
 5954SOL    HW129324   4.550   1.669   6.038  0.6039  0.1315 -0.0307
 5954SOL    HW229325   4.680   1.602   5.996  1.5771  1.7351 -0.3578
 5955SOL     OW29326   1.566   2.902  14.916 -0.0725 -0.5816  0.4065
 5955SOL    HW129327   1.533   2.818  14.883  0.8383 -1.2338  1.1352
 5955SOL    HW229328   1.605   2.868  14.997 -0.3843 -0.1362  0.7425
 5956SOL     OW29329   0.852   1.531   8.093 -0.1734  0.4994 -0.5472
 5956SOL    HW129330   0.921   1.501   8.151  0.8850 -0.4493 -2.2988
 5956SOL    HW229331   0.815   1.602   8.146  1.0158 -0.0691  1.0207
 5957SOL     OW29332   1.248   4.426   2.708  0.1682  0.0658  0.0571
 5957SOL    HW129333   1.216   4.491   2.771  0.9054 -0.4162  0.9213
 5957SOL    HW229334   1.334   4.452   2.676 -0.1801 -0.4977 -1.3688
 5958SOL     OW29335   3.285   3.841   1.010 -0.8024 -0.0045 -0.1717
 5958SOL    HW129336   3.207   3.889   1.039 -1.0799 -0.7425  0.3069
 5958SOL    HW229337   3.256   3.755   0.981 -1.3932 -0.5086  1.9007
 5959SOL     OW29338   0.323   1.993   8.184  0.8643 -0.1239 -0.3166
 5959SOL    HW129339   0.264   1.974   8.111  1.5334 -1.3200 -0.5328
 5959SOL    HW229340   0.399   1.939   8.167  2.8192  1.3818  3.5246
 5960SOL     OW29341   2.258   2.630  14.903 -0.1012  0.2351  0.5981
 5960SOL    HW129342   2.267   2.538  14.877 -0.5723  0.8236 -1.6199
 5960SOL    HW229343   2.180   2.668  14.862  1.5149  1.6312 -1.1513
 5961SOL     OW29344   2.045   0.265   7.642  0.0161  0.3579  0.3705
 5961SOL    HW129345   2.069   0.215   7.565  4.1567  1.3942  0.9454
 5961SOL    HW229346   2.102   0.215   7.701 -0.9261 -0.7154  0.3422
 5962SOL     OW29347   0.205   2.846   7.619 -0.3189 -0.1095  0.2037
 5962SOL    HW129348   0.170   2.926   7.658  0.0268  0.5292 -0.8166
 5962SOL    HW229349   0.185   2.783   7.689  0.5591 -0.7816 -0.1501
 5963SOL     OW29350   3.038   3.286   3.611 -0.1803  0.8342 -0.4945
 5963SOL    HW129351   3.115   3.319   3.657 -0.0352 -1.4978  0.9607
 5963SOL    HW229352   3.062   3.194   3.597 -3.0322 -0.0160  0.1822
 5964SOL     OW29353   2.588   0.424   0.550  0.3997  0.3236 -0.0887
 5964SOL    HW129354   2.565   0.516   0.541 -2.1364 -0.3414 -0.4842
 5964SOL    HW229355   2.506   0.379   0.531  1.4128 -0.5136 -2.5081
 5965SOL     OW29356   0.030   3.622  10.009  0.7107 -0.2970 -0.1623
 5965SOL    HW129357   0.029   3.694  10.072 -3.1678  0.4029 -1.0311
 5965SOL    HW229358   4.670   3.632   9.969  0.1683 -0.8262  0.8443
 5966SOL     OW29359   2.116   4.183  12.744 -0.1395  0.6775  0.0213
 5966SOL    HW129360   2.193   4.151  12.790  0.1378 -0.9329 -1.5636
 5966SOL    HW229361   2.153   4.258  12.698 -2.0034  1.6645  0.1299
 5967SOL     OW29362   3.135   3.244   3.188 -0.1287 -0.3698  0.2042
 5967SOL    HW129363   3.181   3.325   3.209  0.5250 -0.5103 -0.6943
 5967SOL    HW229364   3.135   3.232   3.093 -1.1651  0.9462  0.0357
 5968SOL     OW29365   2.897   2.175   1.301  0.1942 -0.3591  0.3447
 5968SOL    HW129366   2.919   2.251   1.248 -1.3087  0.2741  0.6385
 5968SOL    HW229367   2.808   2.157   1.270  0.0422 -1.6552  1.5429
 5969SOL     OW29368   4.659   2.402   6.417 -0.7626 -0.1127  0.0904
 5969SOL    HW129369   0.018   2.446   6.406  0.0218 -1.4656  0.7273
 5969SOL    HW229370   4.678   2.349   6.495  1.1586  1.5682  0.7490
 5970SOL     OW29371   0.912   0.186   7.930  0.0957 -0.0908 -0.0144
 5970SOL    HW129372   1.007   0.194   7.921  0.0963  1.5689  1.3586
 5970SOL    HW229373   0.876   0.261   7.884 -3.5057 -1.2425  0.9209
 5971SOL     OW29374   3.525   0.979  10.157  0.2726 -0.8241 -0.3915
 5971SOL    HW129375   3.448   1.027  10.127  0.1201  0.6807  2.4450
 5971SOL    HW229376   3.497   0.936  10.238  1.8837 -1.2321 -0.0346
 5972SOL     OW29377   1.315   1.180  13.734  0.2831 -0.0846  0.0086
 5972SOL    HW129378   1.360   1.096  13.735 -3.2808 -1.9577  1.2668
 5972SOL    HW229379   1.292   1.186  13.827  2.5777 -1.6473  0.6520
 5973SOL     OW29380   1.698   2.671   4.617  0.1401 -0.6286 -0.4722
 5973SOL    HW129381   1.775   2.619   4.640  0.0372 -1.1449 -1.3264
 5973SOL    HW229382   1.731   2.759   4.599 -3.0409  0.6058 -0.3295
 5974SOL     OW29383   0.116   0.439  15.165  0.4007  0.3584 -0.0329
 5974SOL    HW129384   0.104   0.530  15.139 -0.4720  0.1733 -0.2859
 5974SOL    HW229385   0.087   0.387  15.090  0.8634  0.7153 -0.4561
 5975SOL     OW29386   1.527   1.164   3.980  0.1358 -0.4051 -0.9514
 5975SOL    HW129387   1.557   1.074   3.994  1.7239  0.2245 -0.2028
 5975SOL    HW229388   1.602   1.210   3.941  0.7088  0.0152  0.6322
 5976SOL     OW29389   1.992   2.783   0.247 -0.0127  0.1089  0.6815
 5976SOL    HW129390   1.915   2.730   0.266 -0.1545  0.3041  0.6419
 5976SOL    HW229391   1.985   2.782   0.152 -1.5317 -2.3617  0.8405
 5977SOL     OW29392   4.627   2.699  16.863 -0.0740 -0.3053 -0.4217
 5977SOL    HW129393   4.652   2.638  16.794  0.2788 -0.2248 -0.3608
 5977SOL    HW229394   4.690   2.678  16.932 -0.2515 -0.9639 -0.4632
 5978SOL     OW29395   3.890   0.860   3.525 -0.1960 -0.1447  0.1430
 5978SOL    HW129396   3.891   0.800   3.600 -1.3235  0.3790  0.5692
 5978SOL    HW229397   3.912   0.799   3.454  3.1082  0.8999  0.2342
 5979SOL     OW29398   2.132   3.652   2.271  0.1730 -0.3292 -0.3534
 5979SOL    HW129399   2.211   3.701   2.246 -0.3210  0.2926 -0.6717
 5979SOL    HW229400   2.167   3.571   2.309  2.3351 -0.2149 -2.0811
 5980SOL     OW29401   0.803   1.304   6.261 -0.1989 -0.0623  0.0503
 5980SOL    HW129402   0.820   1.243   6.189 -0.8375  2.6547 -2.4093
 5980SOL    HW229403   0.893   1.318   6.290  0.1808  0.8698 -1.5416
 5981SOL     OW29404   3.340   2.412  14.807 -0.1290 -0.1159 -0.4100
 5981SOL    HW129405   3.265   2.425  14.748 -0.2763  1.0555  0.0254
 5981SOL    HW229406   3.334   2.478  14.876  0.0722 -0.9738  0.4307
 5982SOL     OW29407   3.095   2.929   3.000 -0.4929  0.0535 -0.1236
 5982SOL    HW129408   3.184   2.955   2.975 -0.9536  0.9840 -0.8016
 5982SOL    HW229409   3.056   2.998   2.947 -0.2220 -2.6058 -3.7968
 5983SOL     OW29410   1.695   0.968   6.264  0.3080  0.1034  0.3965
 5983SOL    HW129411   1.737   0.943   6.182  0.8069  1.6763  0.1789
 5983SOL    HW229412   1.766   0.938   6.321 -0.5410 -1.1187  0.8269
 5984SOL     OW29413   2.763   2.058   0.717 -0.1858 -0.2592 -0.0523
 5984SOL    HW129414   2.759   1.995   0.789 -1.7164 -0.9568 -0.7222
 5984SOL    HW229415   2.674   2.059   0.681 -1.4517  2.0280  3.2090
 5985SOL     OW29416   1.958   0.680  14.726 -0.3875  0.5083  1.1455
 5985SOL    HW129417   2.049   0.701  14.745 -0.2768 -0.3747  1.6006
 5985SOL    HW229418   1.914   0.760  14.753  0.6049  0.7507  2.0420
 5986SOL     OW29419   3.579   3.453   1.141 -0.0294 -0.2761 -0.5434
 5986SOL    HW129420   3.549   3.538   1.173 -1.2463 -1.9026  2.6762
 5986SOL    HW229421   3.645   3.429   1.206  1.5506  1.1529 -1.6479
 5987SOL     OW29422   1.873   1.667   5.664 -0.1770 -0.9086 -0.4884
 5987SOL    HW129423   1.832   1.752   5.683 -0.3349 -0.5107 -2.6429
 5987SOL    HW229424   1.792   1.616   5.663 -0.2736 -0.7748  0.6966
 5988SOL     OW29425   1.332   1.101  13.457 -0.1833 -0.4290  0.1835
 5988SOL    HW129426   1.300   1.153  13.531  1.0778  1.3402 -0.5166
 5988SOL    HW229427   1.284   1.020  13.473 -0.7611 -0.2175 -0.4844
 5989SOL     OW29428   4.413   2.229   4.200 -0.6880  1.0817 -0.0714
 5989SOL    HW129429   4.485   2.223   4.137 -1.8334  0.3841 -1.3261
 5989SOL    HW229430   4.357   2.302   4.172 -0.4950  0.9756 -0.7476
 5990SOL     OW29431   0.094   1.848   8.970  0.4228 -0.6636 -0.6341
 5990SOL    HW129432   0.049   1.800   8.901  1.5853  0.0256 -1.8785
 5990SOL    HW229433   0.031   1.858   9.042  0.2187  0.1075 -0.9149
 5991SOL     OW29434   2.956   2.174   3.836 -0.6732  0.8084  0.2056
 5991SOL    HW129435   2.987   2.110   3.772 -0.8954  0.1373  0.7655
 5991SOL    HW229436   2.982   2.258   3.799  1.1238 -0.0553 -0.5071
 5992SOL     OW29437   3.210   0.566  11.434 -0.4340  0.1615 -0.4077
 5992SOL    HW129438   3.273   0.554  11.505 -0.4473  1.3905 -0.1860
 5992SOL    HW229439   3.220   0.660  11.419 -1.5318  0.6625  2.0039
 5993SOL     OW29440   1.985   4.349   2.257  0.0704  0.2912  0.2817
 5993SOL    HW129441   1.924   4.276   2.261  0.0343  0.1926 -2.1161
 5993SOL    HW229442   2.043   4.329   2.184  0.0135  3.7388 -0.7189
 5994SOL     OW29443   2.810   0.527   8.828  0.4737  0.0287 -0.0848
 5994SOL    HW129444   2.848   0.545   8.742  0.1747  1.3070  0.0580
 5994SOL    HW229445   2.739   0.589   8.843  1.1034  0.7108  0.0960
 5995SOL     OW29446   1.803   4.683  12.058 -0.1811 -0.0947 -0.2843
 5995SOL    HW129447   1.866   4.615  12.038 -0.7539 -1.5485  2.7390
 5995SOL    HW229448   1.723   4.641  12.027  0.6745 -2.8416  1.1866
 5996SOL     OW29449   0.163   4.091   4.985  0.1174 -0.0422 -0.1492
 5996SOL    HW129450   0.220   4.093   4.908 -1.1777  1.2787 -1.0718
 5996SOL    HW229451   0.114   4.011   4.968 -0.2250  0.2322 -0.4541
 5997SOL     OW29452   2.633   3.717   3.784  0.2692 -0.0577  0.0154
 5997SOL    HW129453   2.721   3.750   3.769 -0.1101  0.1754 -1.5877
 5997SOL    HW229454   2.635   3.644   3.722  0.1666  1.2021 -1.4553
 5998SOL     OW29455   3.534   4.202   2.272 -0.5674  0.0042 -0.2229
 5998SOL    HW129456   3.528   4.250   2.354 -0.9682 -0.2688 -0.0915
 5998SOL    HW229457   3.577   4.267   2.216  3.2127 -3.2727 -1.1497
 5999SOL     OW29458   1.275   3.376  15.253  0.3869 -0.0504  0.0548
 5999SOL    HW129459   1.265   3.471  15.245  1.9221  0.2182  1.4029
 5999SOL    HW229460   1.194   3.355  15.299  0.8800  1.2912  1.5063
 6000SOL     OW29461   2.085   4.605   7.931 -0.1353  0.5217  0.4437
 6000SOL    HW129462   2.004   4.642   7.897 -1.0476  0.6893  2.8336
 6000SOL    HW229463   2.059   4.588   8.021  0.1611 -4.2976 -0.3439
 6001SOL     OW29464   2.666   0.546  11.010 -0.0878 -0.2827 -0.1382
 6001SOL    HW129465   2.758   0.568  11.019 -0.0647 -1.0474  1.4506
 6001SOL    HW229466   2.654   0.505  10.924  2.2718  2.4827 -1.7737
 6002SOL     OW29467   4.074   3.064   9.329 -0.3171 -0.1640 -0.0382
 6002SOL    HW129468   4.014   3.137   9.345  0.3437  0.2530  0.5327
 6002SOL    HW229469   4.094   3.019   9.411 -1.9746  1.2339  1.1470
 6003SOL     OW29470   2.814   1.618   4.911  0.5805  0.3922  0.0076
 6003SOL    HW129471   2.810   1.523   4.917 -0.8826  0.4753  0.3665
 6003SOL    HW229472   2.907   1.628   4.892  0.1025  0.7183 -2.1201
 6004SOL     OW29473   2.055   1.739   8.844 -0.5406 -0.3434 -0.1809
 6004SOL    HW129474   2.115   1.665   8.854  0.4077  0.6495  1.5025
 6004SOL    HW229475   1.980   1.691   8.811  1.0058 -3.9971  1.6045
 6005SOL     OW29476   3.195   1.360   6.324 -0.0201  0.0869 -0.5414
 6005SOL    HW129477   3.211   1.449   6.291 -0.6459  1.1006  1.8505
 6005SOL    HW229478   3.246   1.306   6.264 -1.5402 -2.2935  0.3231
 6006SOL     OW29479   2.544   4.714   1.735 -0.2837  0.0236  0.2676
 6006SOL    HW129480   2.578   4.625   1.727 -3.7980 -1.0233 -2.9793
 6006SOL    HW229481   2.548   0.007   1.641 -1.4821 -1.2088 -0.0147
 6007SOL     OW29482   1.343   1.142  15.000 -0.0031  0.1470 -0.3423
 6007SOL    HW129483   1.355   1.123  14.907  0.0479 -2.4613  0.1737
 6007SOL    HW229484   1.340   1.055  15.041  1.4597  0.3356  0.1815
 6008SOL     OW29485   3.871   1.250  17.234  0.4497 -0.3761  0.2829
 6008SOL    HW129486   3.793   1.213  17.192  1.9540 -1.7677 -1.2987
 6008SOL    HW229487   3.947   1.222  17.183  2.4296  1.6709  2.1270
 6009SOL     OW29488   1.935   4.151   6.246 -0.6871  0.0346  1.0102
 6009SOL    HW129489   1.887   4.134   6.327 -1.3239 -0.2281  0.5754
 6009SOL    HW229490   1.983   4.068   6.245  1.6907  1.4185  0.6776
 6010SOL     OW29491   1.244   1.040   6.796 -0.4030  0.8467  0.0134
 6010SOL    HW129492   1.296   0.972   6.839  1.2481  0.5765 -2.4274
 6010SOL    HW229493   1.161   1.036   6.844  0.0170  0.3566  0.6968
 6011SOL     OW29494   0.248   0.844   2.428  0.6539  0.8064 -0.2255
 6011SOL    HW129495   0.271   0.936   2.434  2.8651  0.3459 -1.5667
 6011SOL    HW229496   0.316   0.788   2.466  0.3458  0.9802  0.5937
 6012SOL     OW29497   1.396   4.484   4.499 -0.1205 -0.2000  0.5601
 6012SOL    HW129498   1.407   4.459   4.407  0.6961  2.9449 -0.2004
 6012SOL    HW229499   1.394   4.579   4.487  0.9945 -0.4349 -1.4785
 6013SOL     OW29500   2.737   3.793   4.662 -0.2861 -0.3861  0.3385
 6013SOL    HW129501   2.766   3.830   4.745  1.3855 -0.7887 -0.0634
 6013SOL    HW229502   2.701   3.715   4.704 -1.8357 -0.0461 -0.3597
 6014SOL     OW29503   4.005   3.094   7.844  0.3074 -0.4297 -0.1415
 6014SOL    HW129504   4.056   3.013   7.843 -0.6945 -1.0835  3.6549
 6014SOL    HW229505   3.928   3.068   7.894 -0.1605 -3.0570 -2.1945
 6015SOL     OW29506   3.074   4.596   7.987  0.3230  0.0059 -0.1502
 6015SOL    HW129507   3.009   4.526   7.982  1.1671 -0.6674 -1.5367
 6015SOL    HW229508   3.127   4.567   8.062 -2.5006  0.8806  2.1710
 6016SOL     OW29509   2.334   1.317   5.201  0.4178 -0.0823  0.1393
 6016SOL    HW129510   2.323   1.254   5.273  1.1551 -0.4120 -0.0354
 6016SOL    HW229511   2.374   1.389   5.249  1.8029 -0.9856  0.3486
 6017SOL     OW29512   3.255   0.774   8.077  0.3691 -0.3352  0.0341
 6017SOL    HW129513   3.337   0.807   8.114 -0.9527  1.8445  1.0716
 6017SOL    HW229514   3.256   0.815   7.991  0.4615 -2.4147 -0.9428
 6018SOL     OW29515   4.550   0.157   7.505  0.4106 -0.2406 -0.6078
 6018SOL    HW129516   4.634   0.116   7.485  0.5315 -0.4210  0.2830
 6018SOL    HW229517   4.495   0.089   7.544 -1.0896 -0.9585 -3.8948
 6019SOL     OW29518   1.761   3.053  13.720 -0.0987  0.1663 -0.2654
 6019SOL    HW129519   1.748   3.079  13.811 -0.5427  0.2550 -0.3536
 6019SOL    HW229520   1.816   2.975  13.722  1.2205  1.0799 -1.6887
 6020SOL     OW29521   2.539   3.682   6.942  0.2624 -0.4843  0.4059
 6020SOL    HW129522   2.548   3.587   6.951 -2.3568 -0.5960  1.7487
 6020SOL    HW229523   2.512   3.688   6.850  2.0162 -0.1741 -0.0870
 6021SOL     OW29524   1.648   1.930   3.331  0.0361 -0.4362  0.1129
 6021SOL    HW129525   1.678   1.987   3.261 -1.4119 -0.5627 -0.6194
 6021SOL    HW229526   1.689   1.966   3.410 -1.9586  2.5190 -0.2306
 6022SOL     OW29527   1.123   0.238   1.928 -0.0113  0.1253  0.5247
 6022SOL    HW129528   1.171   0.157   1.915 -1.6408 -1.0513  1.9485
 6022SOL    HW229529   1.043   0.216   1.975  0.0625 -0.4177  0.3910
 6023SOL     OW29530   1.632   2.685   0.719 -0.1566 -0.0712 -0.1914
 6023SOL    HW129531   1.551   2.733   0.736 -0.3366  0.8488 -3.6462
 6023SOL    HW229532   1.631   2.642   0.805 -0.2406 -1.9211 -1.1224
 6024SOL     OW29533   2.385   3.080   3.553  0.4305 -0.6697 -0.2976
 6024SOL    HW129534   2.372   3.127   3.470 -1.6643  0.8390  0.8782
 6024SOL    HW229535   2.448   3.142   3.590 -1.1577  1.4315 -1.0759
 6025SOL     OW29536   0.886   2.702  17.472  0.3874 -0.8408 -0.4966
 6025SOL    HW129537   0.825   2.671  17.539 -1.2216  0.7101 -1.2372
 6025SOL    HW229538   0.970   2.667  17.502  0.2375 -0.1410  0.7633
 6026SOL     OW29539   3.323   2.912  11.703 -0.0240  0.1671  0.1871
 6026SOL    HW129540   3.359   2.871  11.781  0.8055  1.1085  0.2967
 6026SOL    HW229541   3.251   2.853  11.680 -0.5714  1.1255 -0.5625
 6027SOL     OW29542   1.331   4.553  12.897 -0.3536  0.3050 -0.2927
 6027SOL    HW129543   1.317   4.477  12.954 -0.7118 -0.8587 -1.9314
 6027SOL    HW229544   1.375   4.611  12.960 -0.2612 -0.0474 -0.0257
 6028SOL     OW29545   3.154   4.711  11.709  0.0679 -0.0209  0.3206
 6028SOL    HW129546   3.217   0.051  11.737 -2.1415  1.6327  1.4402
 6028SOL    HW229547   3.104   4.691  11.788  0.5985 -1.8118  0.2090
 6029SOL     OW29548   2.686   3.850   5.231 -0.4609 -0.1258  0.2632
 6029SOL    HW129549   2.592   3.839   5.219  0.0165 -0.6353 -2.8369
 6029SOL    HW229550   2.695   3.833   5.325  0.1988 -4.4455 -0.5919
 6030SOL     OW29551   4.036   3.653   5.369 -0.0043 -0.1311  0.4203
 6030SOL    HW129552   4.117   3.603   5.370  1.4555  2.3360  3.9109
 6030SOL    HW229553   4.083   3.736   5.376  0.2442 -0.3515  1.2892
 6031SOL     OW29554   3.673   4.247   3.087 -0.5995 -0.2858 -0.1121
 6031SOL    HW129555   3.666   4.181   3.018  0.3839 -0.1809 -0.3073
 6031SOL    HW229556   3.726   4.313   3.043 -1.7787  0.3657 -0.5560
 6032SOL     OW29557   4.491   1.254   3.570  0.0721  0.4835  0.0053
 6032SOL    HW129558   4.513   1.337   3.527  3.5862 -0.4905 -0.0466
 6032SOL    HW229559   4.481   1.192   3.498 -1.7204  2.5197 -1.5391
 6033SOL     OW29560   4.313   4.595   8.650 -0.7343  0.1722 -0.4978
 6033SOL    HW129561   4.345   4.617   8.563  0.9044 -2.5534 -0.6067
 6033SOL    HW229562   4.254   4.670   8.650  0.3056  1.0043 -0.3718
 6034SOL     OW29563   1.043   1.167   4.996  0.0905 -0.6661  0.6004
 6034SOL    HW129564   1.082   1.253   4.976  0.2964 -0.9858 -0.3492
 6034SOL    HW229565   1.019   1.138   4.908  2.8926 -2.7034  0.5123
 6035SOL     OW29566   0.944   2.241   9.183  0.5475  0.5181  0.6895
 6035SOL    HW129567   0.863   2.289   9.203 -0.1907 -0.0277 -0.9561
 6035SOL    HW229568   0.965   2.271   9.095  0.2714 -0.9549  0.1146
 6036SOL     OW29569   4.492   0.575  11.396  0.2436  0.0944 -0.2584
 6036SOL    HW129570   4.568   0.543  11.347 -0.4760  0.5816 -1.6907
 6036SOL    HW229571   4.427   0.572  11.326 -2.1997  1.1320  1.9786
 6037SOL     OW29572   2.200   0.511   9.140 -0.5127 -0.2249  0.2286
 6037SOL    HW129573   2.106   0.494   9.138 -0.6106  0.5508 -1.5593
 6037SOL    HW229574   2.235   0.426   9.116 -1.1652 -0.1851 -0.8739
 6038SOL     OW29575   1.118   1.800  10.531  0.0541  0.4867  0.4920
 6038SOL    HW129576   1.179   1.777  10.600  0.2419  0.0121  0.1667
 6038SOL    HW229577   1.154   1.741  10.466 -1.4388  0.9741 -0.7841
 6039SOL     OW29578   0.145   2.721   5.802 -0.1202  0.4143 -0.0540
 6039SOL    HW129579   0.169   2.650   5.742  1.5793  2.0148 -1.2320
 6039SOL    HW229580   0.049   2.718   5.805 -0.0241 -1.0520  2.0573
 6040SOL     OW29581   4.701   1.487   6.562  0.2373 -0.3777  0.2837
 6040SOL    HW129582   0.057   1.444   6.589  0.5957  0.7122  0.9646
 6040SOL    HW229583   0.017   1.559   6.514 -1.1151  0.0949 -0.1795
 6041SOL     OW29584   0.336   2.494   6.611  0.1137 -0.2211 -0.2516
 6041SOL    HW129585   0.395   2.513   6.684 -1.1006 -1.1028  0.9586
 6041SOL    HW229586   0.297   2.579   6.589 -2.2922 -0.7850  1.7926
 6042SOL     OW29587   1.723   2.325  10.692  0.7711  0.5284  0.6560
 6042SOL    HW129588   1.668   2.246  10.695 -0.6470  1.4544 -1.0223
 6042SOL    HW229589   1.667   2.398  10.717 -0.0739  0.3522 -0.6937
 6043SOL     OW29590   0.070   1.697   0.358 -0.7301 -0.3826 -0.2399
 6043SOL    HW129591   0.063   1.747   0.439 -2.4564 -0.3484 -0.4137
 6043SOL    HW229592   0.050   1.761   0.289 -1.7112 -1.4794 -0.9695
 6044SOL     OW29593   1.880   1.643   8.052  0.2550 -0.2319 -0.0276
 6044SOL    HW129594   1.862   1.672   7.963 -1.5948 -1.5013 -0.0880
 6044SOL    HW229595   1.975   1.632   8.054  0.2219 -0.9761 -2.0188
 6045SOL     OW29596   2.031   2.382   2.450 -0.2417  0.0419 -0.5126
 6045SOL    HW129597   2.092   2.456   2.442 -0.2193 -0.2543 -3.0674
 6045SOL    HW229598   1.961   2.392   2.386 -1.0773  0.7811  0.5079
 6046SOL     OW29599   1.645   0.245   4.351 -0.1057 -0.0290 -0.2560
 6046SOL    HW129600   1.704   0.182   4.392  0.1809  0.1971 -0.3229
 6046SOL    HW229601   1.655   0.215   4.261  0.8308  1.8310 -0.7754
 6047SOL     OW29602   2.918   1.276  10.541 -0.1773  0.2307  0.0769
 6047SOL    HW129603   2.925   1.369  10.518  1.2483 -0.3561 -1.8691
 6047SOL    HW229604   2.825   1.265  10.525 -0.5067  1.4776  1.0862
 6048SOL     OW29605   4.215   0.851  16.604  0.0243  0.3069  0.5325
 6048SOL    HW129606   4.191   0.943  16.605 -2.7039 -0.3770 -2.0731
 6048SOL    HW229607   4.202   0.840  16.510 -0.2498 -1.5500  0.7832
 6049SOL     OW29608   0.682   2.956   0.052  0.0485 -0.3600 -0.4621
 6049SOL    HW129609   0.758   3.011   0.034 -0.4017 -0.0534 -1.4123
 6049SOL    HW229610   0.703   2.931   0.142  0.6908  1.4407 -0.1108
 6050SOL     OW29611   0.578   0.742   7.551 -0.2242  0.4006  0.0981
 6050SOL    HW129612   0.646   0.797   7.511 -2.3042  2.9120 -0.0120
 6050SOL    HW229613   0.633   0.671   7.585  0.8961  1.5510  0.7267
 6051SOL     OW29614   2.621   2.226   8.699  0.3473  0.0471  0.4522
 6051SOL    HW129615   2.681   2.157   8.672  0.4504  0.9197 -1.5662
 6051SOL    HW229616   2.645   2.249   8.789  2.1145  1.4917 -0.3616
 6052SOL     OW29617   3.955   4.646   8.679 -0.1133  0.2267  0.0971
 6052SOL    HW129618   4.016   4.719   8.690 -2.3870  1.7628  2.7260
 6052SOL    HW229619   3.983   4.605   8.597 -0.3474  2.4048 -1.0609
 6053SOL     OW29620   3.599   4.100   3.303 -0.2211  0.1620 -0.7515
 6053SOL    HW129621   3.610   4.159   3.229 -0.0624 -0.5851 -1.3244
 6053SOL    HW229622   3.505   4.099   3.318 -0.1070 -0.0652 -0.0176
 6054SOL     OW29623   3.197   4.145   6.031 -0.0817 -0.3386  0.3105
 6054SOL    HW129624   3.266   4.207   6.056  0.5945 -1.2335  0.6773
 6054SOL    HW229625   3.125   4.196   5.993 -0.1310 -1.0823 -0.5841
 6055SOL     OW29626   2.658   0.558  11.677  0.4319 -0.1592 -0.7591
 6055SOL    HW129627   2.591   0.490  11.668  0.7576 -0.4429 -1.0197
 6055SOL    HW229628   2.626   0.627  11.620  1.3592  0.3133 -0.7069
 6056SOL     OW29629   3.626   1.667   7.036  0.2929 -0.6621  0.2800
 6056SOL    HW129630   3.593   1.734   6.977  0.0485 -0.5749  0.5120
 6056SOL    HW229631   3.583   1.704   7.114 -1.2005 -0.8674 -0.4537
 6057SOL     OW29632   4.545   3.941   6.206  0.0451  0.5943  0.2739
 6057SOL    HW129633   4.576   3.909   6.291 -2.3337 -1.4650  0.3686
 6057SOL    HW229634   4.513   4.029   6.226 -0.7042  0.5487 -0.7429
 6058SOL     OW29635   2.413   0.278   5.619 -0.3647 -0.0634 -0.5254
 6058SOL    HW129636   2.483   0.233   5.667  0.1030 -1.0646 -2.1613
 6058SOL    HW229637   2.461   0.337   5.561  1.4587 -0.5860  0.4197
 6059SOL     OW29638   3.957   2.777  10.414 -0.5680  0.0991 -0.1231
 6059SOL    HW129639   3.964   2.763  10.320  2.2402 -0.5947  0.1968
 6059SOL    HW229640   4.042   2.750  10.447 -0.3589  1.7247  0.6881
 6060SOL     OW29641   0.520   0.229  16.749  0.3448 -0.0724 -0.1581
 6060SOL    HW129642   0.566   0.274  16.820 -0.8488  3.3714 -1.5139
 6060SOL    HW229643   0.561   0.143  16.759  1.8624  0.5117 -1.2066
 6061SOL     OW29644   0.934   4.545   5.156  0.0659  0.3582 -0.0838
 6061SOL    HW129645   0.861   4.483   5.157  0.8947 -0.5934  4.2833
 6061SOL    HW229646   0.925   4.561   5.063  0.6772 -0.8453 -0.3454
 6062SOL     OW29647   2.585   2.950  13.662  0.4868 -0.1612  0.2920
 6062SOL    HW129648   2.583   2.990  13.749  2.0949  0.4757  0.0421
 6062SOL    HW229649   2.501   2.905  13.666  0.3304  0.2712  1.9915
 6063SOL     OW29650   1.324   3.719   3.922 -0.1996  0.0288 -0.3799
 6063SOL    HW129651   1.337   3.635   3.879 -1.8762 -0.4864  0.1434
 6063SOL    HW229652   1.229   3.714   3.917 -0.3025 -1.1843  2.9174
 6064SOL     OW29653   1.419   4.416   7.784 -0.0651 -0.0484  0.1483
 6064SOL    HW129654   1.447   4.326   7.770  1.6039  0.5611 -0.4688
 6064SOL    HW229655   1.324   4.412   7.788 -0.0404  0.0094  0.7198
 6065SOL     OW29656   4.269   3.368   5.508 -0.0626  0.0633 -0.1628
 6065SOL    HW129657   4.277   3.398   5.418  0.1463 -2.9480 -1.1666
 6065SOL    HW229658   4.225   3.438   5.556 -1.0436 -0.3862 -0.3961
 6066SOL     OW29659   0.088   3.592   4.406 -0.4341 -0.2930  0.1678
 6066SOL    HW129660   0.123   3.595   4.317 -3.9239 -0.2986 -1.2040
 6066SOL    HW229661   0.108   3.503   4.435 -1.5627 -1.3119 -2.2138
 6067SOL     OW29662   1.062   0.350   4.964  0.1178 -0.9184  0.0662
 6067SOL    HW129663   0.972   0.319   4.964 -0.7702  1.6287 -0.3123
 6067SOL    HW229664   1.104   0.283   5.017  0.8801  0.5384  1.2813
 6068SOL     OW29665   3.355   1.382   2.191 -0.4019  0.6725 -0.4813
 6068SOL    HW129666   3.331   1.437   2.116 -5.8909 -1.1142  0.0014
 6068SOL    HW229667   3.444   1.415   2.206  0.5495 -2.4790  0.8305
 6069SOL     OW29668   2.119   0.077   0.556  0.8759 -0.1815  0.0490
 6069SOL    HW129669   2.170   0.063   0.476  2.8005  1.7816  0.9418
 6069SOL    HW229670   2.182   0.034   0.613  0.8857  0.0985  0.2511
 6070SOL     OW29671   0.430   3.359   8.456 -0.7673 -0.1171  1.2113
 6070SOL    HW129672   0.371   3.377   8.529 -2.1397 -0.5408  0.2149
 6070SOL    HW229673   0.510   3.330   8.500  1.2657  0.9926 -1.6904
 6071SOL     OW29674   3.404   1.127   3.999 -0.1281 -0.4755  0.5013
 6071SOL    HW129675   3.420   1.070   4.074  2.6568 -0.2600  0.0534
 6071SOL    HW229676   3.459   1.203   4.017  2.1691 -2.5371  2.0405
 6072SOL     OW29677   1.312   0.726   4.381  0.1264  0.0427  0.6490
 6072SOL    HW129678   1.378   0.781   4.338  1.4071 -1.6883  0.4152
 6072SOL    HW229679   1.315   0.653   4.320 -1.8453  0.4893  0.0278
 6073SOL     OW29680   2.558   0.226   7.016 -0.2037  0.2265  0.6842
 6073SOL    HW129681   2.463   0.232   7.003 -0.0944 -0.0614 -0.2471
 6073SOL    HW229682   2.591   0.181   6.939  0.9358  1.5023  0.4163
 6074SOL     OW29683   0.886   0.591   9.292 -0.2138 -0.2088  0.2090
 6074SOL    HW129684   0.922   0.576   9.205  2.1685  1.7167  0.8245
 6074SOL    HW229685   0.912   0.515   9.343  0.2363  0.3049  0.7560
 6075SOL     OW29686   2.317   3.380  11.569 -0.3031 -0.7694  0.2028
 6075SOL    HW129687   2.303   3.472  11.545  0.5993 -0.5991  0.3412
 6075SOL    HW229688   2.273   3.334  11.498  0.5155  0.5142 -1.1269
 6076SOL     OW29689   0.765   3.320   1.649 -0.8987 -0.5325 -0.6522
 6076SOL    HW129690   0.682   3.344   1.605 -0.4485  1.1613 -0.5850
 6076SOL    HW229691   0.761   3.376   1.727  2.4514 -1.9969  0.5496
 6077SOL     OW29692   1.340   1.295   5.005 -0.0923  0.4213  0.2919
 6077SOL    HW129693   1.384   1.210   5.016  1.0910  1.1711  1.3957
 6077SOL    HW229694   1.348   1.333   5.093  1.6801  0.7864 -0.0291
 6078SOL     OW29695   4.084   2.096   3.978  0.6102  0.2919 -0.0210
 6078SOL    HW129696   4.178   2.099   3.996  0.1806  0.3306  2.2174
 6078SOL    HW229697   4.088   2.114   3.884  1.6408 -0.9041 -0.2093
 6079SOL     OW29698   1.833   2.654   7.603  0.3775  0.4494  0.5537
 6079SOL    HW129699   1.837   2.571   7.557  0.9668  0.5770  0.3765
 6079SOL    HW229700   1.884   2.628   7.679  1.1862  1.3567  0.3292
 6080SOL     OW29701   2.841   1.807   2.374  0.2988 -0.3969 -0.6934
 6080SOL    HW129702   2.868   1.769   2.458  0.2013 -0.5745 -0.7449
 6080SOL    HW229703   2.916   1.812   2.315  0.6707 -2.3236 -0.3863
 6081SOL     OW29704   1.194   1.211  10.264  0.7033 -0.6688 -0.1207
 6081SOL    HW129705   1.232   1.295  10.240 -1.3294 -0.2169 -1.7588
 6081SOL    HW229706   1.183   1.174  10.176 -2.5462 -0.3020  0.0998
 6082SOL     OW29707   0.022   0.658   7.363  0.3162  0.2004 -0.0928
 6082SOL    HW129708   0.029   0.706   7.445  0.0728  1.0180 -0.5610
 6082SOL    HW229709   4.702   0.576   7.384  0.6209 -0.3436 -1.5286
 6083SOL     OW29710   2.210   1.468  10.941 -0.0262  0.4172 -0.2708
 6083SOL    HW129711   2.158   1.440  10.866 -0.5335 -1.3131  0.7328
 6083SOL    HW229712   2.274   1.400  10.920 -3.1103 -3.0413  1.4724
 6084SOL     OW29713   3.351   3.304   2.631 -0.6230 -0.8201 -0.5295
 6084SOL    HW129714   3.329   3.328   2.541 -0.2596  1.8852  0.0980
 6084SOL    HW229715   3.377   3.213   2.613  2.3496 -0.2298  0.7774
 6085SOL     OW29716   1.090   0.470  16.169 -0.9158 -0.0555  0.0685
 6085SOL    HW129717   1.135   0.409  16.110 -0.8310 -0.6669  0.7629
 6085SOL    HW229718   1.018   0.420  16.207  0.4300 -2.0366  0.0167
 6086SOL     OW29719   4.197   0.789   4.802  0.1157  0.0736  0.4875
 6086SOL    HW129720   4.111   0.795   4.759 -0.3563 -1.9652  1.1210
 6086SOL    HW229721   4.229   0.701   4.782 -1.0253 -0.3423  0.4399
 6087SOL     OW29722   0.891   3.926   6.007  0.8786  0.8420  0.2289
 6087SOL    HW129723   0.873   3.992   6.074 -0.5376  2.0166 -1.2957
 6087SOL    HW229724   0.980   3.908   6.038  1.3516 -1.8171 -2.6735
 6088SOL     OW29725   1.142   3.872   6.124 -0.1573 -0.3079 -0.3974
 6088SOL    HW129726   1.160   3.846   6.214 -0.4418 -0.3598 -0.3544
 6088SOL    HW229727   1.222   3.918   6.099 -0.3792  0.9031  1.1901
 6089SOL     OW29728   2.552   1.203   9.616  0.0236  0.1058 -0.0917
 6089SOL    HW129729   2.628   1.261   9.615 -0.8889  1.2908 -0.0880
 6089SOL    HW229730   2.493   1.253   9.560  0.0216 -1.7425 -1.7414
 6090SOL     OW29731   2.638   0.927   7.926 -0.1214 -0.1881 -0.9251
 6090SOL    HW129732   2.591   0.846   7.905 -2.4885  1.2704 -1.1695
 6090SOL    HW229733   2.619   0.934   8.020  1.7687 -0.5822 -0.5083
 6091SOL     OW29734   1.851   1.613   8.685  0.1459  0.2986  0.1913
 6091SOL    HW129735   1.883   1.560   8.612  0.2651  2.1757 -1.1064
 6091SOL    HW229736   1.772   1.648   8.644 -0.1199 -0.6388 -0.0878
 6092SOL     OW29737   0.633   4.721   6.357 -0.6144  0.0627  0.4189
 6092SOL    HW129738   0.586   0.075   6.329  1.8413  1.4147  0.1354
 6092SOL    HW229739   0.662   0.014   6.446 -3.0494 -0.2670  1.2773
 6093SOL     OW29740   4.153   3.517   6.319  0.1373  0.2232 -0.6003
 6093SOL    HW129741   4.220   3.521   6.251  2.0396 -0.9830  1.2439
 6093SOL    HW229742   4.083   3.461   6.286  2.1278 -1.5050 -1.8554
 6094SOL     OW29743   3.326   0.885  17.267  0.6112  0.0711  0.5506
 6094SOL    HW129744   3.266   0.815  17.292  0.3584 -0.2895 -1.0925
 6094SOL    HW229745   3.313   0.885  17.172  0.0773  0.5777  0.6289
 6095SOL     OW29746   3.159   0.910  12.387 -0.5597  0.7538  0.1012
 6095SOL    HW129747   3.066   0.889  12.393 -0.1081 -0.9742  0.9192
 6095SOL    HW229748   3.163   0.992  12.436 -1.9938  0.0535  1.3830
 6096SOL     OW29749   3.154   4.342   4.749 -0.4659 -0.4190 -0.2695
 6096SOL    HW129750   3.213   4.285   4.799 -0.4743  0.3003  0.5580
 6096SOL    HW229751   3.119   4.276   4.689  0.5323 -0.1982 -1.0988
 6097SOL     OW29752   4.072   2.874   3.341  0.0096 -0.0036 -0.1496
 6097SOL    HW129753   4.150   2.927   3.327  0.6996 -1.1865 -0.7838
 6097SOL    HW229754   4.035   2.870   3.253 -2.2013 -1.4988  0.8450
 6098SOL     OW29755   4.685   1.793   3.590 -0.4023  0.4577  0.5443
 6098SOL    HW129756   4.710   1.820   3.679 -0.9498  0.1204  0.8042
 6098SOL    HW229757   0.035   1.830   3.546 -1.2549 -0.1258 -1.4145
 6099SOL     OW29758   0.683   2.167   8.216 -0.4404  0.0822 -0.3958
 6099SOL    HW129759   0.724   2.132   8.137  1.0191  1.9597 -0.4525
 6099SOL    HW229760   0.653   2.255   8.195  2.3223  1.0114 -0.4598
 6100SOL     OW29761   4.226   2.694   6.547  0.1053 -0.7892  0.0666
 6100SOL    HW129762   4.253   2.773   6.500 -1.4625  0.8949  2.0322
 6100SOL    HW229763   4.307   2.642   6.544  0.2583 -0.4808 -1.4348
 6101SOL     OW29764   3.238   3.593   1.413 -0.6562  0.0175 -0.1545
 6101SOL    HW129765   3.160   3.644   1.392  0.6804  0.7710 -3.1688
 6101SOL    HW229766   3.203   3.510   1.447 -0.3503 -0.0286  0.0462
 6102SOL     OW29767   2.917   4.445   4.887  0.3633 -0.4635  0.1663
 6102SOL    HW129768   2.864   4.486   4.819  2.5110 -0.0004 -1.2264
 6102SOL    HW229769   3.000   4.437   4.841  0.2824  1.8943 -0.3971
 6103SOL     OW29770   2.199   0.498   7.546 -0.1950 -0.1781 -0.7056
 6103SOL    HW129771   2.120   0.443   7.552  1.0880 -2.0539 -0.9765
 6103SOL    HW229772   2.250   0.472   7.623 -1.5849 -1.3394 -0.1741
 6104SOL     OW29773   0.907   2.355   8.001  0.0856 -0.3447  0.6287
 6104SOL    HW129774   0.908   2.444   7.965 -0.6355  0.5369  2.7575
 6104SOL    HW229775   0.901   2.372   8.095 -1.9894  1.1297  0.2253
 6105SOL     OW29776   1.831   2.290  12.316  0.1846  0.6423 -0.4722
 6105SOL    HW129777   1.814   2.200  12.286  0.5024  0.3844  0.1324
 6105SOL    HW229778   1.770   2.283  12.389 -0.9741  2.3049 -1.2776
 6106SOL     OW29779   2.902   2.860  12.928 -0.3814  0.1146 -0.2805
 6106SOL    HW129780   2.982   2.888  12.972 -0.0192  1.5035 -1.8179
 6106SOL    HW229781   2.939   2.795  12.867  0.1933  0.5596 -0.4124
 6107SOL     OW29782   1.065   1.904   7.091  0.0354 -0.3453  0.2936
 6107SOL    HW129783   1.148   1.904   7.043 -1.4210 -1.9512 -2.2299
 6107SOL    HW229784   1.022   1.829   7.051 -0.9331  0.6795 -0.5831
 6108SOL     OW29785   2.804   4.079  15.533 -0.1388 -0.0237  0.0316
 6108SOL    HW129786   2.761   4.108  15.613 -0.3091 -1.3515  0.4308
 6108SOL    HW229787   2.863   4.152  15.513  1.0509 -0.1969  2.9373
 6109SOL     OW29788   4.376   0.385   2.991 -0.3237  0.1312  0.0193
 6109SOL    HW129789   4.455   0.429   3.023  0.2747 -1.1851  0.3424
 6109SOL    HW229790   4.390   0.361   2.900 -3.4660 -2.1413  0.1444
 6110SOL     OW29791   4.375   0.812  13.888  0.2301 -0.2252 -0.2036
 6110SOL    HW129792   4.443   0.776  13.945  0.5616 -0.0447 -0.4815
 6110SOL    HW229793   4.387   0.766  13.805  0.2201 -1.4038  0.4509
 6111SOL     OW29794   1.368   1.817  13.675 -0.8764 -0.0005 -0.3698
 6111SOL    HW129795   1.376   1.905  13.638 -0.3130 -0.6990 -1.9391
 6111SOL    HW229796   1.344   1.841  13.764  1.0362  2.7657 -0.5910
 6112SOL     OW29797   3.162   3.828   7.877  0.2088  0.0016  0.1306
 6112SOL    HW129798   3.229   3.763   7.857 -0.1599  0.2067 -1.7950
 6112SOL    HW229799   3.118   3.785   7.950 -0.0686  0.3312  0.1574
 6113SOL     OW29800   0.711   1.657   2.917  0.2455 -0.5123 -0.5214
 6113SOL    HW129801   0.737   1.574   2.877  1.5551 -0.7975  0.9370
 6113SOL    HW229802   0.796   1.700   2.920 -0.3127  0.5689  0.0363
 6114SOL     OW29803   0.366   2.490   0.384  0.3858 -0.0849 -0.2162
 6114SOL    HW129804   0.453   2.450   0.378  0.1005 -0.5719 -1.0270
 6114SOL    HW229805   0.318   2.417   0.424 -1.3259  0.4930 -1.2379
 6115SOL     OW29806   3.274   0.367   3.646  0.2661 -0.0355 -0.6024
 6115SOL    HW129807   3.260   0.430   3.576 -0.7962  0.4033  0.0099
 6115SOL    HW229808   3.361   0.329   3.632 -0.4685 -1.3095 -1.6849
 6116SOL     OW29809   2.902   0.022  16.605 -0.1879 -0.1941 -0.6265
 6116SOL    HW129810   2.913   0.117  16.596  1.9988 -0.2537  1.2250
 6116SOL    HW229811   2.813   0.006  16.575  0.0361  0.7170 -1.7705
 6117SOL     OW29812   3.237   1.522  10.293 -0.6422 -0.0606 -0.3501
 6117SOL    HW129813   3.241   1.543  10.387  1.3951  0.1789 -0.4975
 6117SOL    HW229814   3.303   1.454  10.287 -0.5564  0.0580 -0.7254
 6118SOL     OW29815   2.305   2.149   0.899 -0.0001 -0.4326  0.2025
 6118SOL    HW129816   2.325   2.087   0.969 -1.1956 -1.3286 -0.2480
 6118SOL    HW229817   2.216   2.175   0.921  0.2357 -0.5711  1.3211
 6119SOL     OW29818   2.679   3.462   6.299  0.2746 -0.2332  0.0808
 6119SOL    HW129819   2.727   3.388   6.261 -0.7746  0.3962 -2.4361
 6119SOL    HW229820   2.652   3.512   6.222 -0.1480 -0.8783 -0.1842
 6120SOL     OW29821   1.371   3.547   2.883 -0.2074 -0.1576 -0.2085
 6120SOL    HW129822   1.390   3.636   2.851  1.2076 -0.1510  0.6739
 6120SOL    HW229823   1.432   3.541   2.957  0.6701  0.5165 -0.8678
 6121SOL     OW29824   1.248   3.973   4.208 -0.1835 -0.5470  0.7588
 6121SOL    HW129825   1.323   3.995   4.264 -0.6344  3.0061 -0.0714
 6121SOL    HW229826   1.233   4.059   4.169 -0.8345 -0.9674  0.0867
 6122SOL     OW29827   1.311   0.669   9.754 -0.1624  0.0566 -0.6492
 6122SOL    HW129828   1.329   0.652   9.662  0.5117  1.7215 -0.8324
 6122SOL    HW229829   1.379   0.617   9.797  1.4966  2.8818  0.1602
 6123SOL     OW29830   1.060   3.877   3.366  0.1205  0.1978  0.1123
 6123SOL    HW129831   1.123   3.860   3.437 -1.1308 -1.7620  0.7679
 6123SOL    HW229832   0.996   3.921   3.421 -1.8078 -3.3482  0.7524
 6124SOL     OW29833   2.758   0.890  13.068  0.0503 -0.2548 -0.0551
 6124SOL    HW129834   2.696   0.885  13.141 -1.3697 -4.1330 -1.5162
 6124SOL    HW229835   2.766   0.981  13.039  2.4514 -0.1743  0.9361
 6125SOL     OW29836   0.663   0.449   8.488  0.2085 -0.5667 -0.1620
 6125SOL    HW129837   0.603   0.521   8.509 -1.9662 -1.9236 -1.6521
 6125SOL    HW229838   0.595   0.387   8.514 -0.0697  1.0040  2.8862
 6126SOL     OW29839   3.394   1.220   6.142  0.1422  0.5171  0.5609
 6126SOL    HW129840   3.382   1.131   6.109 -1.4814  0.0459  2.4060
 6126SOL    HW229841   3.408   1.261   6.056 -0.6235  0.1155  0.2421
 6127SOL     OW29842   0.121   1.547   0.608  0.4713  0.1639  0.6697
 6127SOL    HW129843   0.208   1.552   0.648  2.3902  3.1397 -3.8282
 6127SOL    HW229844   0.088   1.637   0.610 -0.2257 -0.0670 -0.2547
 6128SOL     OW29845   2.301   0.666  14.735 -0.2070 -1.1161 -0.8223
 6128SOL    HW129846   2.372   0.624  14.784  0.1271  0.3433 -0.0449
 6128SOL    HW229847   2.295   0.591  14.676  0.2438 -2.7120  1.1378
 6129SOL     OW29848   0.500   3.604  16.446 -0.1593 -0.0800 -0.3041
 6129SOL    HW129849   0.472   3.513  16.435  1.0957 -0.5502  0.3684
 6129SOL    HW229850   0.588   3.586  16.479 -0.4623 -1.1167 -0.0570
 6130SOL     OW29851   4.513   0.454   2.674 -0.6050 -0.2150  0.4202
 6130SOL    HW129852   4.480   0.365   2.662 -1.7777  0.0046  2.1397
 6130SOL    HW229853   4.475   0.493   2.595 -0.1728 -0.4020  0.1170
 6131SOL     OW29854   2.814   1.222   6.527  0.1882  0.3127 -0.5801
 6131SOL    HW129855   2.748   1.250   6.590 -0.7994 -1.6598 -0.7491
 6131SOL    HW229856   2.878   1.292   6.541 -0.1808  0.1128  2.1418
 6132SOL     OW29857   0.608   1.266   5.204 -0.1060  0.2005 -0.8898
 6132SOL    HW129858   0.626   1.195   5.143 -1.1231  0.6373 -1.6977
 6132SOL    HW229859   0.690   1.264   5.252 -0.0748 -2.9117 -1.0995
 6133SOL     OW29860   3.461   2.399   5.235  0.5026 -0.3742 -0.2759
 6133SOL    HW129861   3.425   2.310   5.236 -1.1372  0.2804  0.4871
 6133SOL    HW229862   3.424   2.442   5.312 -0.6746  3.0907 -2.7621
 6134SOL     OW29863   0.433   3.617  11.121  0.5492 -0.0613 -0.3918
 6134SOL    HW129864   0.523   3.587  11.112  0.2433 -1.3368  0.7967
 6134SOL    HW229865   0.440   3.688  11.185  0.2624  0.4242 -0.9006
 6135SOL     OW29866   3.382   3.826   3.198 -0.3565  0.6009 -0.1118
 6135SOL    HW129867   3.405   3.800   3.287 -0.2366  4.2897  0.9589
 6135SOL    HW229868   3.311   3.766   3.180 -0.0744 -0.1227  1.2007
 6136SOL     OW29869   1.552   3.648   2.613 -0.1472  0.2846  0.2076
 6136SOL    HW129870   1.482   3.593   2.578 -3.0781  3.5264  0.9669
 6136SOL    HW229871   1.503   3.724   2.644 -2.2560 -1.8603  2.0584
 6137SOL     OW29872   3.635   1.822   2.495  0.1883  0.0192  0.2015
 6137SOL    HW129873   3.568   1.844   2.559 -1.7924 -0.1496 -1.8181
 6137SOL    HW229874   3.711   1.819   2.553 -0.3683 -0.1458  0.9166
 6138SOL     OW29875   4.566   2.167   5.308  0.4187 -0.0409 -0.0047
 6138SOL    HW129876   4.499   2.189   5.243  0.7188  1.4142  0.1915
 6138SOL    HW229877   4.621   2.113   5.252 -1.5388 -0.9170 -1.1019
 6139SOL     OW29878   4.123   0.469   7.991 -0.1037 -0.8324 -0.2715
 6139SOL    HW129879   4.131   0.528   7.917 -0.4079  0.3891  0.6696
 6139SOL    HW229880   4.028   0.472   7.999 -0.0112  2.4288 -0.5358
 6140SOL     OW29881   3.150   3.866  12.489  0.2572 -0.1262  1.0168
 6140SOL    HW129882   3.230   3.901  12.449 -0.8914  1.4029  0.0498
 6140SOL    HW229883   3.180   3.858  12.579 -0.6403  1.6461  1.4737
 6141SOL     OW29884   4.580   2.660   7.594 -0.4452  0.1875  0.1639
 6141SOL    HW129885   4.542   2.597   7.655 -1.5114  0.8288  0.1623
 6141SOL    HW229886   4.585   2.614   7.511 -0.5407  3.8083 -1.8715
 6142SOL     OW29887   2.311   1.714   2.373  0.6387 -0.5844  1.2361
 6142SOL    HW129888   2.263   1.781   2.423 -0.5497  0.0058 -0.6923
 6142SOL    HW229889   2.276   1.722   2.284  2.1212  1.5363  0.8388
 6143SOL     OW29890   3.331   4.696   6.918  0.0215 -0.3421 -0.5154
 6143SOL    HW129891   3.309   4.711   7.010 -2.0431 -0.7177 -0.9480
 6143SOL    HW229892   3.270   0.025   6.868 -2.1220 -1.5762  0.7126
 6144SOL     OW29893   2.629   4.228  16.200 -0.2814  0.1695 -0.5238
 6144SOL    HW129894   2.590   4.248  16.285 -0.2248  0.2016 -0.5059
 6144SOL    HW229895   2.624   4.313  16.157  0.0666  0.6400  0.3731
 6145SOL     OW29896   1.605   1.811  12.802  0.0692  0.3767 -0.3860
 6145SOL    HW129897   1.570   1.790  12.889 -0.6907 -0.7194 -0.9543
 6145SOL    HW229898   1.622   1.727  12.759  1.2267  1.4430 -1.9843
 6146SOL     OW29899   0.698   0.572   3.246  0.1265 -0.1313  0.5704
 6146SOL    HW129900   0.711   0.587   3.340  1.4695 -1.1692  0.5588
 6146SOL    HW229901   0.657   0.485   3.250 -2.3079  0.8751 -2.7413
 6147SOL     OW29902   1.281   2.163   8.407  0.0397 -0.2357 -0.1855
 6147SOL    HW129903   1.368   2.136   8.376  0.1698 -0.3593  0.2913
 6147SOL    HW229904   1.287   2.258   8.417  1.1177 -0.3561  0.3759
 6148SOL     OW29905   0.752   4.001  17.086 -0.2014 -0.2367 -0.2439
 6148SOL    HW129906   0.751   4.043  17.000 -1.2394 -1.8533 -1.0237
 6148SOL    HW229907   0.815   3.931  17.073 -1.5066 -1.3388 -0.7112
 6149SOL     OW29908   2.761   3.264  15.944 -0.0801 -0.9869  0.2096
 6149SOL    HW129909   2.814   3.272  15.864  0.9517 -1.9058  0.7903
 6149SOL    HW229910   2.815   3.326  15.991  0.0011 -0.2738 -0.8169
 6150SOL     OW29911   2.720   0.263  16.673  0.1574  0.1593 -0.2849
 6150SOL    HW129912   2.770   0.345  16.663 -0.6055  0.6596  0.0140
 6150SOL    HW229913   2.742   0.229  16.760  0.5413  1.1283  0.0055
 6151SOL     OW29914   2.736   1.703  10.645 -0.3330  0.2643  0.3710
 6151SOL    HW129915   2.790   1.738  10.716 -1.8018  0.5261  1.3425
 6151SOL    HW229916   2.658   1.757  10.659  0.2119  0.6587  1.7975
 6152SOL     OW29917   0.409   0.012  13.558  0.2108  0.7025 -0.3604
 6152SOL    HW129918   0.500   4.718  13.534  0.8403  2.3482  0.7182
 6152SOL    HW229919   0.424   4.710  13.649  0.1703 -0.6104 -0.7426
 6153SOL     OW29920   1.367   0.385   4.744 -0.5545 -0.0165  0.0965
 6153SOL    HW129921   1.369   0.395   4.839  1.0855  1.3079 -0.0926
 6153SOL    HW229922   1.327   0.298   4.740  2.1035 -1.1533 -1.6593
 6154SOL     OW29923   2.030   0.399   5.453  0.1427 -0.0546 -0.1199
 6154SOL    HW129924   1.967   0.471   5.455  0.5814  0.3044  0.6773
 6154SOL    HW229925   1.998   0.361   5.371 -0.3724 -0.4300  0.2552
 6155SOL     OW29926   4.450   1.440   8.457  0.1486  0.2294 -0.1169
 6155SOL    HW129927   4.390   1.513   8.473  0.2716  0.2508  0.2447
 6155SOL    HW229928   4.509   1.448   8.532  0.2445 -0.4499 -0.1208
 6156SOL     OW29929   1.121   0.928  13.828 -0.8398 -0.2941  0.3641
 6156SOL    HW129930   1.037   0.913  13.870 -0.4816  0.3577  1.3105
 6156SOL    HW229931   1.168   0.977  13.896  1.0167 -1.4049 -0.1181
 6157SOL     OW29932   2.166   4.322   2.872  0.3899  0.5145 -0.1578
 6157SOL    HW129933   2.147   4.228   2.873 -2.2600  1.0508 -1.0194
 6157SOL    HW229934   2.091   4.374   2.842  0.2836  0.1636 -0.5008
 6158SOL     OW29935   1.574   0.143  16.084 -0.0640  0.6170 -0.3947
 6158SOL    HW129936   1.492   0.170  16.124  0.8502  3.7494 -0.5918
 6158SOL    HW229937   1.608   0.231  16.067 -1.1225  0.6557 -2.3077
 6159SOL     OW29938   3.572   0.340  12.755  0.1398 -0.1011  0.1217
 6159SOL    HW129939   3.536   0.252  12.771 -1.8374  0.6198 -0.3637
 6159SOL    HW229940   3.649   0.339  12.812 -0.2919 -1.2058  0.6900
 6160SOL     OW29941   2.827   1.425   8.835  0.5262 -0.0120 -0.8190
 6160SOL    HW129942   2.860   1.419   8.745  1.1259  2.2640 -0.7572
 6160SOL    HW229943   2.853   1.337   8.864  0.6779  0.1094 -0.5894
 6161SOL     OW29944   2.626   1.458   2.690 -0.1905  0.0523  0.0110
 6161SOL    HW129945   2.720   1.478   2.694 -0.1629  0.1124 -1.0207
 6161SOL    HW229946   2.623   1.417   2.604 -0.6877 -1.0708  0.5585
 6162SOL     OW29947   2.396   0.160   6.010  0.1848  0.5608 -0.2134
 6162SOL    HW129948   2.429   0.143   6.098  1.9992 -0.3356 -1.0675
 6162SOL    HW229949   2.467   0.192   5.955  1.5093 -1.0937  0.5379
 6163SOL     OW29950   4.497   1.394  12.634 -0.1115 -0.4728  0.3728
 6163SOL    HW129951   4.447   1.429  12.561  0.2389 -0.4198  0.1595
 6163SOL    HW229952   4.455   1.444  12.704 -0.4323 -2.5677  1.6865
 6164SOL     OW29953   3.652   3.292   9.547 -0.6037  0.2538  0.3249
 6164SOL    HW129954   3.704   3.372   9.555  1.9078 -1.1691 -1.6193
 6164SOL    HW229955   3.645   3.287   9.452  0.4901  0.2893  0.2395
 6165SOL     OW29956   4.666   1.534   7.683  0.2143  0.3334 -0.3775
 6165SOL    HW129957   4.661   1.606   7.746  0.1193 -0.4883  0.5455
 6165SOL    HW229958   4.595   1.543   7.619 -0.8975  4.1612  1.3896
 6166SOL     OW29959   4.402   1.420   3.872  0.1111 -0.0594 -0.2700
 6166SOL    HW129960   4.489   1.442   3.839  1.0985  0.2239  2.5995
 6166SOL    HW229961   4.351   1.396   3.794  1.9660 -0.9227 -1.2279
 6167SOL     OW29962   1.856   4.644   0.539 -0.3641  0.5817  0.3237
 6167SOL    HW129963   1.849   4.696   0.459  0.2407 -0.1642 -0.2200
 6167SOL    HW229964   1.923   4.689   0.590 -0.0572 -2.2083  2.4326
 6168SOL     OW29965   3.146   3.300  16.965  0.0365  0.2989 -0.3212
 6168SOL    HW129966   3.051   3.297  16.968 -0.0404 -0.1230 -2.6502
 6168SOL    HW229967   3.172   3.225  16.911 -0.2944  0.1221 -0.2309
 6169SOL     OW29968   1.531   3.873   4.025  0.2092 -0.1267  0.2386
 6169SOL    HW129969   1.457   3.815   4.008  0.7577 -0.7853  0.1044
 6169SOL    HW229970   1.519   3.876   4.120 -3.1806 -0.6855 -0.1685
 6170SOL     OW29971   2.010   0.907   3.460 -0.0544 -0.0377  0.0160
 6170SOL    HW129972   1.917   0.885   3.454  0.3021 -1.5422  0.0231
 6170SOL    HW229973   2.043   0.820   3.480 -1.3431 -0.3167  0.9552
 6171SOL     OW29974   3.527   1.433   0.994  0.4473  0.1013  0.3826
 6171SOL    HW129975   3.438   1.454   0.965  0.2813 -2.7282 -1.1175
 6171SOL    HW229976   3.517   1.355   1.049  1.5347 -0.2367  0.1126
 6172SOL     OW29977   2.018   1.517   2.613  0.0445  0.1368  0.0343
 6172SOL    HW129978   2.058   1.468   2.685  1.1803  1.7182  0.4815
 6172SOL    HW229979   2.062   1.476   2.539  0.8933  0.4879  0.3365
 6173SOL     OW29980   4.190   3.981   7.420  0.2509 -0.6579  0.1630
 6173SOL    HW129981   4.283   3.958   7.421  0.0414 -1.5296 -0.1500
 6173SOL    HW229982   4.188   4.070   7.454  1.4181 -0.1722 -1.0227
 6174SOL     OW29983   1.943   3.715   8.878 -0.2005  0.3945 -0.2533
 6174SOL    HW129984   1.997   3.748   8.949  0.5888  0.0469 -0.6927
 6174SOL    HW229985   2.012   3.732   8.814 -0.5107  1.9451 -0.1753
 6175SOL     OW29986   3.601   0.932   7.347 -0.9502  0.1971 -0.4432
 6175SOL    HW129987   3.595   1.026   7.360  0.2583  0.1297  0.6571
 6175SOL    HW229988   3.690   0.928   7.311 -0.2731  0.3570  1.2119
 6176SOL     OW29989   1.542   4.474   0.849 -0.2391 -0.0237 -0.2870
 6176SOL    HW129990   1.490   4.516   0.781 -0.7181 -0.1805 -0.0228
 6176SOL    HW229991   1.581   4.555   0.880 -0.2208  0.0983 -0.6314
 6177SOL     OW29992   1.775   1.681   2.889  0.0587  0.3420 -0.0655
 6177SOL    HW129993   1.750   1.678   2.982 -1.8415 -0.4811 -0.5929
 6177SOL    HW229994   1.768   1.589   2.866 -1.9505  0.3799  0.3464
 6178SOL     OW29995   3.521   0.166   6.049 -0.4340 -0.1755  0.4275
 6178SOL    HW129996   3.463   0.093   6.070 -0.1339 -0.6090 -0.2557
 6178SOL    HW229997   3.483   0.234   6.105 -0.4884  0.8904 -0.9018
 6179SOL     OW29998   1.382   1.773   8.514  0.1259 -0.1455 -0.0734
 6179SOL    HW129999   1.408   1.861   8.543 -0.2171  0.4404 -1.5602
 6179SOL    HW230000   1.318   1.803   8.449 -0.4824  0.1028  0.6425
 6180SOL     OW30001   2.890   3.165   2.888  0.2088  0.2451 -0.1508
 6180SOL    HW130002   2.935   3.249   2.890 -0.2198  0.4922 -1.1981
 6180SOL    HW230003   2.797   3.182   2.906  0.8634  0.2508  3.3678
 6181SOL     OW30004   3.865   3.454   5.470 -0.0862 -0.1141 -0.1696
 6181SOL    HW130005   3.921   3.531   5.463 -1.0206  0.4251 -1.7324
 6181SOL    HW230006   3.930   3.389   5.496 -2.2109 -2.3824 -0.5452
 6182SOL     OW30007   0.442   3.024  10.445  0.0320  0.5009 -0.4521
 6182SOL    HW130008   0.420   2.944  10.398  1.4926 -0.3410  0.3294
 6182SOL    HW230009   0.417   3.091  10.381  1.7216 -0.0294 -1.6387
 6183SOL     OW30010   4.568   2.950   5.373 -0.0611  0.2752 -0.4877
 6183SOL    HW130011   4.574   2.856   5.392  2.3604  1.4136  4.3165
 6183SOL    HW230012   4.627   2.960   5.299  0.9237  1.6345  0.4941
 6184SOL     OW30013   0.641   1.168   7.424  0.1228 -0.1392 -0.7688
 6184SOL    HW130014   0.684   1.092   7.464 -0.3584 -0.0320 -0.0561
 6184SOL    HW230015   0.565   1.158   7.481 -0.6030 -1.4457 -1.9507
 6185SOL     OW30016   3.007   0.504   9.022  0.2574 -0.1969  0.3536
 6185SOL    HW130017   2.927   0.507   8.970  0.8041 -0.6700 -0.5029
 6185SOL    HW230018   3.050   0.421   9.002 -1.9317 -1.4330  0.7230
 6186SOL     OW30019   2.630   2.535   5.001 -0.5598  0.6837  0.7573
 6186SOL    HW130020   2.616   2.467   4.935  0.0108  0.3532  0.9686
 6186SOL    HW230021   2.545   2.579   5.004 -0.6017  0.5201  1.7583
 6187SOL     OW30022   0.377   1.981   8.642 -0.2160 -0.1277 -0.0218
 6187SOL    HW130023   0.428   2.042   8.589 -0.8878  0.6685  0.2440
 6187SOL    HW230024   0.420   1.999   8.725 -3.7063  1.8203  1.3784
 6188SOL     OW30025   1.315   2.893   4.883 -0.0789  0.0633 -0.5314
 6188SOL    HW130026   1.283   2.900   4.793  0.2209  1.3359 -0.5348
 6188SOL    HW230027   1.389   2.834   4.868  0.4196  0.5124  0.1837
 6189SOL     OW30028   4.315   0.989   4.522 -0.2076  0.1507 -0.1835
 6189SOL    HW130029   4.221   1.002   4.537 -0.0451 -1.9953  2.5588
 6189SOL    HW230030   4.346   1.070   4.481  1.2873 -0.0964  0.4665
 6190SOL     OW30031   0.514   1.797   2.766  0.0716 -0.1997 -0.3513
 6190SOL    HW130032   0.546   1.746   2.841 -2.8788 -1.0195  0.3748
 6190SOL    HW230033   0.595   1.820   2.720 -0.2686 -1.2970 -1.5130
 6191SOL     OW30034   3.204   0.851  12.127 -0.2980 -0.0317 -0.0588
 6191SOL    HW130035   3.191   0.886  12.215  1.5939  1.1212 -0.2555
 6191SOL    HW230036   3.114   0.823  12.107 -0.1570 -0.7169  0.2577
 6192SOL     OW30037   3.183   1.232   9.473 -0.4029 -0.5136  0.1065
 6192SOL    HW130038   3.144   1.218   9.559 -0.9439  0.2923  0.0023
 6192SOL    HW230039   3.199   1.326   9.484  0.8499 -0.6699 -0.4261
 6193SOL     OW30040   4.012   4.611   2.627 -0.3157 -0.0329 -0.0491
 6193SOL    HW130041   4.019   4.706   2.617  1.8352 -0.4506 -2.4691
 6193SOL    HW230042   3.942   4.611   2.693 -1.6631  3.3874 -1.4772
 6194SOL     OW30043   0.464   0.527   6.992  0.5875  0.1138 -0.5052
 6194SOL    HW130044   0.516   0.602   6.964 -0.2773  0.6671 -0.6253
 6194SOL    HW230045   0.381   0.551   6.951  0.2569 -1.4386 -0.7636
 6195SOL     OW30046   1.167   1.908   7.910  0.3185 -0.5106 -0.4645
 6195SOL    HW130047   1.230   1.849   7.870  1.5788  0.8539 -0.4823
 6195SOL    HW230048   1.226   1.975   7.945 -1.1375  0.6183 -0.1584
 6196SOL     OW30049   0.344   2.966  16.484 -0.0519  0.3357  0.3688
 6196SOL    HW130050   0.422   2.966  16.539 -1.1978 -0.6330  1.9882
 6196SOL    HW230051   0.278   3.010  16.537  1.4591  3.0700 -0.0450
 6197SOL     OW30052   0.345   3.485   5.759 -0.0815  0.1308  0.4976
 6197SOL    HW130053   0.429   3.531   5.753  0.2182 -0.3690  0.8032
 6197SOL    HW230054   0.356   3.416   5.694  0.7848 -1.9044  2.7719
 6198SOL     OW30055   2.795   1.252   3.797 -0.4537 -0.5282 -0.1705
 6198SOL    HW130056   2.738   1.301   3.857 -0.1990  0.6873 -0.9204
 6198SOL    HW230057   2.867   1.313   3.782 -0.9510  0.5224  1.7204
 6199SOL     OW30058   4.480   1.219   6.219  0.0389  0.0491 -0.3853
 6199SOL    HW130059   4.497   1.230   6.126  0.2092  0.2623 -0.3288
 6199SOL    HW230060   4.407   1.280   6.229 -0.1854 -0.5771  1.9384
 6200SOL     OW30061   1.387   3.168   4.449 -0.1978  0.0320  0.2108
 6200SOL    HW130062   1.398   3.262   4.434  1.1351  0.3649  3.3251
 6200SOL    HW230063   1.453   3.137   4.387  1.2657  2.8349  0.4096
 6201SOL     OW30064   0.996   1.885   1.729  0.4159  0.0603 -0.0364
 6201SOL    HW130065   0.983   1.795   1.701  0.0648 -0.1988  0.9370
 6201SOL    HW230066   0.956   1.928   1.653  1.2424 -1.6268 -1.4166
 6202SOL     OW30067   3.605   2.441   8.304 -0.2830 -0.4079 -0.0074
 6202SOL    HW130068   3.687   2.485   8.281 -0.7667  0.1412 -0.6618
 6202SOL    HW230069   3.618   2.353   8.268  1.2061 -0.7659  1.3772
 6203SOL     OW30070   0.473   4.366  14.540  1.0511  0.2868 -0.2621
 6203SOL    HW130071   0.377   4.363  14.549  0.9532 -0.2312 -1.4402
 6203SOL    HW230072   0.495   4.411  14.458 -0.3446 -0.0015 -0.7912
 6204SOL     OW30073   3.301   1.581   3.150  0.2991  1.1976 -0.1167
 6204SOL    HW130074   3.293   1.673   3.176  3.0496  0.6918  2.5721
 6204SOL    HW230075   3.374   1.587   3.088 -0.4727  1.2818 -1.0142
 6205SOL     OW30076   4.713   3.048   7.541 -0.0345  0.8650 -0.0362
 6205SOL    HW130077   4.659   3.109   7.592  0.7992 -0.3227  2.2482
 6205SOL    HW230078   4.675   3.066   7.455 -2.9203 -1.2257  0.8156
 6206SOL     OW30079   2.443   4.460   2.446 -0.0789  0.4194 -0.7662
 6206SOL    HW130080   2.449   4.539   2.391 -1.6012  3.2251  3.0771
 6206SOL    HW230081   2.528   4.416   2.437  0.0196  0.2172  1.0842
 6207SOL     OW30082   0.600   2.095   3.705  0.3240 -0.1548 -0.3723
 6207SOL    HW130083   0.629   2.137   3.786 -0.5045  1.4175 -0.8969
 6207SOL    HW230084   0.652   2.015   3.708  1.5555  0.7156  1.9327
 6208SOL     OW30085   2.642   1.746   1.737  0.1870 -0.4353  0.1584
 6208SOL    HW130086   2.675   1.661   1.710 -0.9141 -0.6800 -0.4056
 6208SOL    HW230087   2.708   1.784   1.795  0.5497 -0.7542 -0.0468
 6209SOL     OW30088   1.222   2.129   6.210 -0.4126  0.3220 -0.0222
 6209SOL    HW130089   1.166   2.057   6.181  1.4504 -1.3712  0.6293
 6209SOL    HW230090   1.308   2.104   6.177 -0.5384 -1.2607  0.8658
 6210SOL     OW30091   1.525   1.001  14.283  0.3172  0.3649  0.3498
 6210SOL    HW130092   1.461   0.951  14.233  1.5213  1.8362 -2.6827
 6210SOL    HW230093   1.517   1.088  14.244 -0.0698  0.1790  0.0164
 6211SOL     OW30094   0.886   1.986  13.266  0.2092  0.4084  0.4244
 6211SOL    HW130095   0.981   1.982  13.277  0.0991  0.7806  1.5034
 6211SOL    HW230096   0.866   2.009  13.357  1.9785  1.1736  0.6188
 6212SOL     OW30097   1.224   3.988   8.274 -0.3339  0.6142 -0.0879
 6212SOL    HW130098   1.181   3.926   8.214 -1.8826  1.8112 -0.1874
 6212SOL    HW230099   1.301   3.932   8.283 -0.9541  0.0877  1.9079
 6213SOL     OW30100   0.297   4.586   8.202 -0.0635  0.3675  0.0382
 6213SOL    HW130101   0.290   4.535   8.121  0.4419  0.6765 -0.1949
 6213SOL    HW230102   0.226   4.549   8.254  0.5067 -0.8258 -0.0420
 6214SOL     OW30103   0.314   4.165   5.569  0.0614 -0.7383 -0.0943
 6214SOL    HW130104   0.400   4.131   5.596  0.8461  1.7197  0.4857
 6214SOL    HW230105   0.266   4.150   5.650  1.6338  0.4904  1.0759
 6215SOL     OW30106   2.668   0.489   2.412  0.0015  0.2282 -0.4636
 6215SOL    HW130107   2.626   0.504   2.328  0.1772  0.6608 -0.4740
 6215SOL    HW230108   2.633   0.555   2.472 -1.2724 -1.1262  0.2590
 6216SOL     OW30109   1.532   3.786   5.829 -0.4483  0.0942  0.3174
 6216SOL    HW130110   1.615   3.739   5.842  0.9384  2.5084  0.0851
 6216SOL    HW230111   1.516   3.766   5.737 -0.3184 -0.5606  0.4360
 6217SOL     OW30112   0.828   1.759   2.588 -0.2665 -0.1075  0.2417
 6217SOL    HW130113   0.752   1.795   2.542 -0.2190 -0.5655 -0.1884
 6217SOL    HW230114   0.851   1.843   2.628 -1.5678  0.6118 -0.5101
 6218SOL     OW30115   4.212   0.393   5.454  0.1062  0.1337 -0.0756
 6218SOL    HW130116   4.150   0.384   5.527  0.8335 -3.1439  0.1552
 6218SOL    HW230117   4.177   0.474   5.418 -0.5910  0.1210  0.5873
 6219SOL     OW30118   3.231   2.571   9.281 -0.2421  0.0042 -0.5181
 6219SOL    HW130119   3.280   2.590   9.202  0.8188  1.1170  0.4068
 6219SOL    HW230120   3.298   2.561   9.349  0.9787 -0.2330 -1.7776
 6220SOL     OW30121   3.743   2.112   1.180 -0.8400  0.0141 -0.3076
 6220SOL    HW130122   3.789   2.035   1.146  0.5191  1.1211 -0.9975
 6220SOL    HW230123   3.751   2.169   1.104 -0.6275 -0.8134 -0.9096
 6221SOL     OW30124   2.141   0.922   7.959 -0.1016  0.3933  0.4258
 6221SOL    HW130125   2.198   0.864   7.908  0.3368  0.5260  0.7682
 6221SOL    HW230126   2.161   1.004   7.915  1.8936 -2.0814 -3.2533
 6222SOL     OW30127   4.473   1.420   2.945 -0.3427  0.0804  0.1878
 6222SOL    HW130128   4.431   1.505   2.961  1.3319  0.9636 -0.0570
 6222SOL    HW230129   4.399   1.382   2.897 -1.5366  0.7083  1.5198
 6223SOL     OW30130   3.863   3.233  10.082 -0.1388  0.1089  0.0580
 6223SOL    HW130131   3.782   3.187  10.063 -0.0172  0.0666 -0.3667
 6223SOL    HW230132   3.906   3.217   9.997 -1.8904 -2.9801 -0.2469
 6224SOL     OW30133   4.230   1.962   7.383  0.3059  0.1506 -0.0334
 6224SOL    HW130134   4.310   1.913   7.399 -0.2250 -0.4698  0.7331
 6224SOL    HW230135   4.265   2.044   7.349  1.6914 -0.7998 -0.9005
 6225SOL     OW30136   2.842   2.581  11.981 -1.0901 -0.0744 -0.3154
 6225SOL    HW130137   2.807   2.661  11.941 -2.4061  0.3628  1.6992
 6225SOL    HW230138   2.832   2.609  12.072 -1.5319 -1.8940  0.1862
 6226SOL     OW30139   3.633   4.483   8.301  0.4849 -0.2085  0.5091
 6226SOL    HW130140   3.652   4.561   8.354  0.5936 -1.2820  2.0499
 6226SOL    HW230141   3.539   4.496   8.289  0.6241  0.8951  0.5840
 6227SOL     OW30142   2.640   0.901   7.477  0.3793 -0.1570  0.0753
 6227SOL    HW130143   2.720   0.906   7.529  1.7637 -2.5726 -1.7896
 6227SOL    HW230144   2.659   0.827   7.419 -3.2146  0.2503 -1.5997
 6228SOL     OW30145   3.763   0.184   3.702  0.6346 -0.3687  0.3846
 6228SOL    HW130146   3.802   0.218   3.782  0.7396 -1.4951  0.8177
 6228SOL    HW230147   3.809   0.235   3.636  2.0068 -0.4576  1.2768
 6229SOL     OW30148   4.537   2.787   7.303 -0.0844 -0.0581 -0.3886
 6229SOL    HW130149   4.491   2.747   7.229  0.0836  0.1577 -0.6121
 6229SOL    HW230150   4.626   2.765   7.275 -0.4248 -0.5833 -1.0563
 6230SOL     OW30151   2.708   4.272   8.340 -0.3886  0.0836  0.5581
 6230SOL    HW130152   2.621   4.311   8.327 -0.6681 -0.6435  0.2183
 6230SOL    HW230153   2.771   4.310   8.279 -0.5700 -0.0275  0.2970
 6231SOL     OW30154   1.162   0.929   9.238 -0.0849  0.3751  0.1103
 6231SOL    HW130155   1.114   0.978   9.304 -2.1092 -0.5900 -0.6399
 6231SOL    HW230156   1.199   1.006   9.194  0.3958 -0.6628 -1.3147
 6232SOL     OW30157   3.399   2.973   5.292 -0.4620  0.4084 -0.1098
 6232SOL    HW130158   3.450   3.051   5.269 -0.2002  1.3728  3.6323
 6232SOL    HW230159   3.414   2.913   5.220 -1.0492  0.2547 -0.0993
 6233SOL     OW30160   1.832   0.645  12.624 -0.3664  0.2258  0.0931
 6233SOL    HW130161   1.778   0.571  12.652 -0.9341  0.6035 -0.0023
 6233SOL    HW230162   1.841   0.699  12.703 -0.8523  0.6918 -0.1695
 6234SOL     OW30163   1.980   4.274   1.781  0.0013  0.2521  0.8373
 6234SOL    HW130164   2.002   4.332   1.708 -1.4245 -0.9640 -0.5483
 6234SOL    HW230165   1.909   4.226   1.740 -0.0439  1.6120 -0.6793
 6235SOL     OW30166   4.332   0.499   3.896 -0.7330 -0.6512  0.1258
 6235SOL    HW130167   4.393   0.456   3.957 -0.2333  1.4497  1.0878
 6235SOL    HW230168   4.350   0.456   3.812 -1.6337  1.1722 -0.9823
 6236SOL     OW30169   0.629   4.495  16.248  0.8334 -0.4563  0.8651
 6236SOL    HW130170   0.692   4.424  16.262  1.8322  0.1364 -0.6411
 6236SOL    HW230171   0.656   4.550  16.321  0.6340  0.0534  0.5578
 6237SOL     OW30172   4.338   1.941  14.182 -0.2212  0.1623  0.5728
 6237SOL    HW130173   4.275   1.999  14.138 -0.8703 -1.5722 -0.7822
 6237SOL    HW230174   4.349   1.986  14.265 -0.2729  0.4714  0.4120
 6238SOL     OW30175   0.778   2.929  12.701 -0.4820 -0.3377 -0.3349
 6238SOL    HW130176   0.709   2.923  12.634 -0.2150 -3.1664 -0.3504
 6238SOL    HW230177   0.744   2.943  12.789 -0.8722  0.1490 -0.5607
 6239SOL     OW30178   1.462   2.287   6.323  0.3282  0.3545  0.0606
 6239SOL    HW130179   1.460   2.251   6.412 -0.4471  1.5574  0.5166
 6239SOL    HW230180   1.446   2.211   6.266  1.7198 -0.1042  0.2891
 6240SOL     OW30181   4.440   4.323   0.910  0.5425 -0.1522 -0.6856
 6240SOL    HW130182   4.411   4.398   0.858 -0.5041 -0.0025  0.1084
 6240SOL    HW230183   4.452   4.357   0.999 -0.7277 -0.0936 -0.5358
 6241SOL     OW30184   3.433   1.974   6.102 -0.5842  0.5208  0.1870
 6241SOL    HW130185   3.437   2.058   6.147  0.3906  1.0697 -0.9210
 6241SOL    HW230186   3.385   2.002   6.024 -1.3746  0.1904  0.5490
 6242SOL     OW30187   4.089   2.943   5.520  0.3408 -0.2874 -0.5982
 6242SOL    HW130188   4.102   2.916   5.429  0.5077 -1.2691 -0.2870
 6242SOL    HW230189   4.065   3.035   5.515 -1.7758 -0.7478  1.1208
 6243SOL     OW30190   2.085   0.673  11.338  0.7259  0.0439 -0.2153
 6243SOL    HW130191   2.047   0.678  11.425  0.9788  0.5302 -0.1328
 6243SOL    HW230192   2.161   0.729  11.353 -0.9544  2.5147 -0.8439
 6244SOL     OW30193   1.466   3.905   7.997 -0.0052  0.2220 -0.6849
 6244SOL    HW130194   1.512   3.852   8.062  0.1113 -2.3141 -2.8302
 6244SOL    HW230195   1.398   3.939   8.055 -0.2801 -1.1156 -0.2332
 6245SOL     OW30196   0.094   3.692   0.612 -0.4412  0.0781 -0.1864
 6245SOL    HW130197   0.171   3.663   0.660 -1.6707  0.4877  2.0538
 6245SOL    HW230198   0.072   3.764   0.673 -1.6673 -1.3607  1.0675
 6246SOL     OW30199   0.006   2.509  16.295  0.2206 -0.5393  0.0180
 6246SOL    HW130200   4.714   2.445  16.226  1.3512 -1.4700  0.6101
 6246SOL    HW230201   0.097   2.530  16.275 -0.7225  1.9688 -1.7612
 6247SOL     OW30202   0.037   1.040   9.791 -0.1958 -0.3602  0.2021
 6247SOL    HW130203   0.093   1.105   9.749  0.1171 -0.6161  0.2303
 6247SOL    HW230204   0.048   1.061   9.884  0.4613 -0.1141  0.0679
 6248SOL     OW30205   0.652   0.655   6.359  0.1774  0.0436 -0.1549
 6248SOL    HW130206   0.576   0.682   6.410 -0.2502 -1.4541 -0.0006
 6248SOL    HW230207   0.676   0.583   6.418 -0.4488  1.4010  1.7486
 6249SOL     OW30208   1.982   1.940   3.201  0.1816 -1.0082 -0.2110
 6249SOL    HW130209   1.904   1.993   3.186  1.2795  0.8609  0.6523
 6249SOL    HW230210   2.041   1.965   3.130 -0.2421  0.9902  0.1249
 6250SOL     OW30211   2.941   2.456   3.251  0.9618 -0.0957  0.7566
 6250SOL    HW130212   2.931   2.423   3.340  2.0391  1.7919  1.5646
 6250SOL    HW230213   2.916   2.547   3.270  1.6223  0.2889 -0.1990
 6251SOL     OW30214   2.927   1.677   1.789 -0.2631  0.4070  0.0335
 6251SOL    HW130215   3.002   1.689   1.731 -2.0122  2.7111 -1.7775
 6251SOL    HW230216   2.920   1.765   1.826  1.9769  0.4381  0.3794
 6252SOL     OW30217   3.740   2.207  15.816  0.5729 -0.1722  0.9377
 6252SOL    HW130218   3.741   2.268  15.890  0.5617  1.3883 -0.3390
 6252SOL    HW230219   3.707   2.126  15.854  0.0254 -0.6263 -0.5486
 6253SOL     OW30220   1.787   1.066   2.832  0.4655 -0.3689 -0.2287
 6253SOL    HW130221   1.759   1.148   2.792 -0.2957 -0.0253  1.0143
 6253SOL    HW230222   1.723   1.060   2.902  0.3311  0.5838 -0.2779
 6254SOL     OW30223   3.173   2.080   8.027  0.4318 -0.3869 -0.0928
 6254SOL    HW130224   3.200   2.135   8.101  1.0514 -0.7854 -0.0217
 6254SOL    HW230225   3.224   2.134   7.967 -0.6680 -1.5123 -2.0210
 6255SOL     OW30226   0.279   1.389   7.355 -0.5194 -0.2587  0.6405
 6255SOL    HW130227   0.272   1.420   7.446 -0.6293  0.0285  0.5363
 6255SOL    HW230228   0.227   1.310   7.348  1.8607 -1.4280 -3.4172
 6256SOL     OW30229   1.561   1.341   7.450 -0.1696  0.0378  0.1493
 6256SOL    HW130230   1.474   1.309   7.425  1.3392 -3.2197 -0.9615
 6256SOL    HW230231   1.625   1.299   7.391 -1.5646  1.1606 -2.1641
 6257SOL     OW30232   3.754   0.753   5.415  0.0131 -0.0683  0.0040
 6257SOL    HW130233   3.828   0.771   5.358  0.5310 -1.0493  0.3616
 6257SOL    HW230234   3.770   0.814   5.487 -1.9884  3.5249 -2.5913
 6258SOL     OW30235   3.486   4.576   2.596  0.5280 -0.2446  0.4382
 6258SOL    HW130236   3.448   4.651   2.551  0.5284  0.6023  1.8414
 6258SOL    HW230237   3.507   4.608   2.684 -0.6278  1.9012 -0.0941
 6259SOL     OW30238   4.572   1.766   5.089  0.0336 -0.1633 -0.3523
 6259SOL    HW130239   4.508   1.701   5.058 -0.7600 -1.0016  3.0694
 6259SOL    HW230240   4.596   1.806   5.005 -1.8602  1.8691  0.0993
 6260SOL     OW30241   1.131   0.392  12.485 -0.0399 -0.2656 -0.5247
 6260SOL    HW130242   1.051   0.427  12.446 -1.1487 -2.1042  0.1115
 6260SOL    HW230243   1.169   0.346  12.410  1.1993 -0.7813  0.4152
 6261SOL     OW30244   4.351   2.455   4.617 -0.1675 -0.2991 -0.0995
 6261SOL    HW130245   4.350   2.360   4.630  2.7687 -0.6204 -2.2709
 6261SOL    HW230246   4.263   2.473   4.652  0.6810 -0.6617  2.2003
 6262SOL     OW30247   4.578   4.119   5.242  0.1441 -0.4859 -1.0460
 6262SOL    HW130248   4.510   4.123   5.310  1.8388  0.4418  0.6046
 6262SOL    HW230249   4.658   4.094   5.288 -0.2157  1.6846  0.8055
 6263SOL     OW30250   2.231   0.665  16.131 -1.1822  0.3748  0.0589
 6263SOL    HW130251   2.245   0.760  16.130 -0.6585  0.3041  0.7711
 6263SOL    HW230252   2.257   0.650  16.040  0.3021 -0.6193  0.6573
 6264SOL     OW30253   1.368   0.720   5.128  0.3010 -0.4533 -0.1289
 6264SOL    HW130254   1.337   0.662   5.059  3.2539 -1.8940 -0.2663
 6264SOL    HW230255   1.312   0.796   5.111  1.1260  0.6416  2.0873
 6265SOL     OW30256   3.705   1.989   8.854  0.2573 -0.3530  0.3731
 6265SOL    HW130257   3.673   1.916   8.907 -1.0058 -0.6474 -0.8133
 6265SOL    HW230258   3.638   1.984   8.786 -1.0652 -4.1496  1.9436
 6266SOL     OW30259   1.313   1.503   8.414 -0.4203  0.5950 -0.1849
 6266SOL    HW130260   1.327   1.585   8.461 -0.2620 -0.0001  0.7967
 6266SOL    HW230261   1.390   1.509   8.357 -0.9981  1.7544 -0.8478
 6267SOL     OW30262   3.660   4.179  10.884 -0.4004  0.1702 -0.3245
 6267SOL    HW130263   3.615   4.182  10.968 -4.3838 -0.2702 -2.4181
 6267SOL    HW230264   3.616   4.240  10.824 -0.8261  2.1600  1.9784
 6268SOL     OW30265   3.261   3.454   4.387 -0.2168  0.0053  0.2916
 6268SOL    HW130266   3.309   3.530   4.420 -0.5397  0.8352 -1.1416
 6268SOL    HW230267   3.175   3.474   4.423  0.6140  0.4651  2.0226
 6269SOL     OW30268   2.544   0.815   6.547  0.4073  0.5288 -0.0473
 6269SOL    HW130269   2.625   0.862   6.530  1.5574 -0.9769  1.2789
 6269SOL    HW230270   2.478   0.879   6.520 -0.0813 -1.1188 -2.7461
 6270SOL     OW30271   1.849   4.335   5.955  0.4006 -0.7854 -0.2083
 6270SOL    HW130272   1.832   4.291   6.038 -2.1785  0.4839 -0.0724
 6270SOL    HW230273   1.922   4.284   5.920 -0.4738 -2.2391  0.0754
 6271SOL     OW30274   1.959   0.915   7.487  0.5060  0.2458 -0.5246
 6271SOL    HW130275   1.942   0.893   7.578  1.1128 -1.4845 -0.8279
 6271SOL    HW230276   1.997   1.001   7.499 -0.9035  0.9434 -1.0654
 6272SOL     OW30277   0.338   0.335  16.933 -0.7198  0.3853 -0.1317
 6272SOL    HW130278   0.422   0.374  16.956 -0.4442 -0.4914  0.3614
 6272SOL    HW230279   0.366   0.280  16.860 -1.2089 -2.6960  1.9675
 6273SOL     OW30280   2.175   2.104   6.139 -0.3057  0.0324  0.3680
 6273SOL    HW130281   2.236   2.128   6.069 -0.0708  1.9060  1.1994
 6273SOL    HW230282   2.138   2.183   6.178  1.7282  1.4634 -0.5589
 6274SOL     OW30283   1.357   2.883   3.451 -0.3393  0.6678 -0.3834
 6274SOL    HW130284   1.439   2.838   3.430 -0.6710 -0.4281  0.6671
 6274SOL    HW230285   1.389   2.941   3.521 -0.7991  0.4105  0.0392
 6275SOL     OW30286   1.842   0.715  12.912  0.7970  0.3963  0.0983
 6275SOL    HW130287   1.755   0.736  12.877 -0.4862 -0.6651  2.7199
 6275SOL    HW230288   1.845   0.747  13.002  0.6569 -0.1144  0.2821
 6276SOL     OW30289   2.976   3.117   5.946 -0.1499 -0.0296 -0.1120
 6276SOL    HW130290   2.991   3.211   5.956 -1.2898  0.0315  1.0410
 6276SOL    HW230291   3.063   3.080   5.928 -0.2823 -0.3869 -0.0308
 6277SOL     OW30292   1.638   1.024  12.701  0.3137 -0.2024 -0.0977
 6277SOL    HW130293   1.717   1.068  12.668 -1.5855  1.6625 -2.1587
 6277SOL    HW230294   1.610   0.980  12.621  2.6263  0.9775 -1.5710
 6278SOL     OW30295   3.326   0.834   1.047 -0.1240 -0.8510  0.4001
 6278SOL    HW130296   3.283   0.853   1.130  0.2809  1.7971 -0.0025
 6278SOL    HW230297   3.285   0.748   1.035 -1.2985 -0.2960  0.4432
 6279SOL     OW30298   2.752   0.536   5.093 -0.1767  0.3162 -0.7375
 6279SOL    HW130299   2.778   0.510   5.182  0.2312  1.2434 -0.5821
 6279SOL    HW230300   2.698   0.459   5.075 -2.0087  1.4968 -0.2422
 6280SOL     OW30301   2.592   3.959  16.168  0.3006  0.5183 -0.0842
 6280SOL    HW130302   2.674   3.942  16.213  0.4547  0.4393 -0.3963
 6280SOL    HW230303   2.595   4.055  16.170 -0.0676  0.5724 -1.9190
 6281SOL     OW30304   3.692   0.427   8.362  0.0184 -0.8042  0.1680
 6281SOL    HW130305   3.601   0.453   8.379  0.2797  0.2545 -0.1106
 6281SOL    HW230306   3.741   0.478   8.426  0.2265  1.7918 -2.0910
 6282SOL     OW30307   4.220   4.174  13.062  0.1114 -0.8405 -0.2805
 6282SOL    HW130308   4.267   4.105  13.015  0.3026 -1.4499  0.8121
 6282SOL    HW230309   4.164   4.202  12.990  0.3282  3.2379  1.1493
 6283SOL     OW30310   2.873   4.645  11.865 -0.3573 -0.3060  0.1725
 6283SOL    HW130311   2.792   4.617  11.908  0.1555 -2.0054  0.0589
 6283SOL    HW230312   2.936   4.586  11.908 -0.3562 -1.5680 -1.5536
 6284SOL     OW30313   2.493   3.299  15.967  0.0380  0.2314  0.2590
 6284SOL    HW130314   2.577   3.309  15.923 -0.6269 -1.4386 -1.3970
 6284SOL    HW230315   2.500   3.205  15.981 -4.0712  0.1936  2.1205
 6285SOL     OW30316   2.325   1.743   6.854  0.1300  0.0788  0.7330
 6285SOL    HW130317   2.400   1.750   6.913  0.3848 -2.8305  0.7365
 6285SOL    HW230318   2.365   1.716   6.771  0.3355 -2.0544  1.5219
 6286SOL     OW30319   0.881   1.441   4.912  0.6496 -0.7422 -1.1425
 6286SOL    HW130320   0.960   1.478   4.950 -0.4218  1.0367 -0.6218
 6286SOL    HW230321   0.832   1.522   4.896 -1.1450 -1.4221  1.0080
 6287SOL     OW30322   3.053   0.068   4.939  0.2308 -0.3948  0.4289
 6287SOL    HW130323   3.124   0.028   4.889 -0.4177 -1.4343  0.3396
 6287SOL    HW230324   3.047   0.007   5.013  0.7596  1.6109  2.1427
 6288SOL     OW30325   2.878   1.570   7.827 -0.1893  0.4374 -0.0342
 6288SOL    HW130326   2.827   1.505   7.873 -2.2061  2.6021  0.7777
 6288SOL    HW230327   2.968   1.542   7.844 -0.8430 -1.3741  0.3701
 6289SOL     OW30328   0.372   4.527   3.153 -0.2910 -0.4690 -0.1839
 6289SOL    HW130329   0.304   4.572   3.104 -0.4481  0.3639  0.7953
 6289SOL    HW230330   0.320   4.477   3.215 -0.2509  0.3685  0.5359
 6290SOL     OW30331   1.878   3.465   6.406 -0.1506  0.3278  0.4117
 6290SOL    HW130332   1.946   3.436   6.467 -0.5295 -3.3452 -0.9363
 6290SOL    HW230333   1.915   3.548   6.376  1.0815  0.3218  1.8987
 6291SOL     OW30334   3.948   2.994   3.956 -0.2833 -0.3756  0.0046
 6291SOL    HW130335   3.857   2.971   3.938 -0.6199 -0.6449  2.0479
 6291SOL    HW230336   3.973   3.041   3.877 -0.4734  2.8258  1.8574
 6292SOL     OW30337   2.006   0.612  15.640  0.0291  0.3199  0.2013
 6292SOL    HW130338   1.996   0.705  15.661 -0.0141  0.2464  0.5091
 6292SOL    HW230339   2.085   0.588  15.687  0.5228 -0.0184 -0.8041
 6293SOL     OW30340   0.612   2.619   0.120 -0.3727  0.0909 -0.0501
 6293SOL    HW130341   0.702   2.646   0.136 -0.1793 -2.2041  2.6692
 6293SOL    HW230342   0.619   2.595   0.027  1.3840 -1.6405  0.5429
 6294SOL     OW30343   0.532   1.399   2.132 -0.2604 -0.5191 -0.0315
 6294SOL    HW130344   0.502   1.489   2.143  1.4622  0.4737 -3.4375
 6294SOL    HW230345   0.596   1.404   2.203  0.4444  0.5806 -0.7504
 6295SOL     OW30346   0.016   0.142   5.768 -0.7700  0.4252  0.6955
 6295SOL    HW130347   0.032   0.185   5.852 -1.4355 -1.1024  1.5998
 6295SOL    HW230348   4.724   0.052   5.797 -1.5464  0.4790  0.3649
 6296SOL     OW30349   2.364   3.982  11.731  0.6688  0.1298  0.3438
 6296SOL    HW130350   2.362   3.933  11.648 -1.9471 -1.6883  1.4859
 6296SOL    HW230351   2.358   4.068  11.689  2.2946  0.8274  1.5630
 6297SOL     OW30352   3.529   1.207   7.036  0.2265 -0.5660  0.2609
 6297SOL    HW130353   3.606   1.220   6.981  1.3949 -0.8651  1.8300
 6297SOL    HW230354   3.458   1.226   6.974  0.8470  2.3192  0.4380
 6298SOL     OW30355   0.504   0.088   6.035  0.1763 -0.0570  0.5252
 6298SOL    HW130356   0.539   0.053   5.953  1.4143  2.2644  0.0720
 6298SOL    HW230357   0.508   0.182   6.020  0.4534 -0.2868 -0.9331
 6299SOL     OW30358   2.086   2.471  13.855  0.0292  0.2566 -0.1433
 6299SOL    HW130359   1.991   2.480  13.862 -0.0211 -0.5103  0.2293
 6299SOL    HW230360   2.095   2.376  13.857 -0.5831  0.2111  0.5230
 6300SOL     OW30361   1.885   2.193   5.946 -0.6977 -0.4371 -0.3760
 6300SOL    HW130362   1.965   2.148   5.921  0.6734  2.2231 -0.8131
 6300SOL    HW230363   1.840   2.179   5.862  1.9559 -0.0999 -1.8449
 6301SOL     OW30364   4.283   2.887   8.584 -0.4183 -0.1914  0.4458
 6301SOL    HW130365   4.278   2.920   8.674 -0.6563  1.5419 -0.2161
 6301SOL    HW230366   4.370   2.848   8.590  0.0219  0.9705  1.4768
 6302SOL     OW30367   1.110   4.470  16.870  0.9854  0.2789 -0.2528
 6302SOL    HW130368   1.169   4.518  16.927  0.1032 -0.6539  1.4471
 6302SOL    HW230369   1.116   4.380  16.903 -2.3216 -0.1772 -0.8463
 6303SOL     OW30370   1.180   4.343   9.280  0.1219 -0.1813 -0.5308
 6303SOL    HW130371   1.167   4.376   9.191 -0.2943 -2.4363 -1.3142
 6303SOL    HW230372   1.226   4.415   9.322  1.0843  0.1142 -2.0900
 6304SOL     OW30373   1.986   1.024   6.207  0.2096  0.1251  0.6680
 6304SOL    HW130374   1.938   1.098   6.244 -1.1479 -1.0820  1.3416
 6304SOL    HW230375   2.037   1.069   6.140  0.1473  0.8932  1.1408
 6305SOL     OW30376   4.677   0.019   3.877  0.3254 -0.0660 -0.2788
 6305SOL    HW130377   0.007   0.045   3.804 -2.7077  1.3437 -2.1077
 6305SOL    HW230378   4.637   4.668   3.836  1.1215 -0.4488 -0.3381
 6306SOL     OW30379   3.653   1.837   5.575 -0.5619 -0.1118  0.2440
 6306SOL    HW130380   3.596   1.828   5.499 -1.1422  1.3168  0.4999
 6306SOL    HW230381   3.647   1.931   5.592 -0.4205 -0.1550  0.5324
 6307SOL     OW30382   1.444   2.635   9.053 -0.2055  0.0765 -0.2024
 6307SOL    HW130383   1.399   2.718   9.067 -2.1674 -0.5050 -2.9891
 6307SOL    HW230384   1.409   2.582   9.125 -0.3314 -2.0463 -1.8228
 6308SOL     OW30385   2.495   4.682  10.258 -0.0444 -0.2660  0.0911
 6308SOL    HW130386   2.541   4.599  10.268 -0.5179 -0.7360 -1.5522
 6308SOL    HW230387   2.404   4.655  10.270 -0.5468  0.9444 -1.0124
 6309SOL     OW30388   3.315   4.162   4.868  0.6899 -1.0902  0.3567
 6309SOL    HW130389   3.395   4.142   4.918  0.0854 -2.1515  0.8935
 6309SOL    HW230390   3.256   4.101   4.912 -0.0774 -1.9172 -1.8266
 6310SOL     OW30391   4.399   4.398   5.353 -0.3418  0.0136  0.1742
 6310SOL    HW130392   4.425   4.320   5.401  0.8655 -0.9432 -2.0621
 6310SOL    HW230393   4.364   4.442   5.431  1.0912 -1.9184  1.9009
 6311SOL     OW30394   0.784   0.253   2.878  0.5208  0.2576 -0.2971
 6311SOL    HW130395   0.700   0.220   2.844 -0.0401  1.3928 -0.0080
 6311SOL    HW230396   0.810   0.189   2.945 -2.2497 -0.1890  0.3644
 6312SOL     OW30397   3.176   1.604   9.578  0.2510  0.3036 -0.2739
 6312SOL    HW130398   3.085   1.625   9.557  0.3463  0.0440 -0.9416
 6312SOL    HW230399   3.216   1.643   9.500 -0.7066  1.0520 -0.3925
 6313SOL     OW30400   3.104   1.220   0.228  0.2509  0.1157  0.4901
 6313SOL    HW130401   3.151   1.259   0.302  0.5648 -1.7423  1.2596
 6313SOL    HW230402   3.114   1.288   0.161 -1.2438 -0.7312 -0.5846
 6314SOL     OW30403   0.412   2.098   4.301 -0.1168 -0.1571 -0.4388
 6314SOL    HW130404   0.415   2.025   4.239 -1.3367 -1.9435  1.5872
 6314SOL    HW230405   0.487   2.080   4.358 -0.2754  0.3849 -0.0634
 6315SOL     OW30406   3.210   2.643   8.054  0.5016  0.2538  0.0861
 6315SOL    HW130407   3.190   2.572   8.116  0.9644  0.3975  0.3949
 6315SOL    HW230408   3.214   2.594   7.971 -3.2850  0.7152 -0.3860
 6316SOL     OW30409   4.597   0.352  12.048 -0.3902 -0.2023  0.0059
 6316SOL    HW130410   4.566   0.403  11.973  2.2129  2.0306  0.4158
 6316SOL    HW230411   4.624   0.420  12.110  1.0265  0.0823 -0.9066
 6317SOL     OW30412   1.595   1.748   4.173  0.0975 -1.0965 -0.0807
 6317SOL    HW130413   1.551   1.833   4.181  0.6644 -0.7435 -0.6870
 6317SOL    HW230414   1.672   1.762   4.228 -0.8925  0.8448  0.8097
 6318SOL     OW30415   1.170   4.514  14.781  0.1444  0.0267 -0.4584
 6318SOL    HW130416   1.093   4.541  14.832  0.9636  2.1058 -0.3089
 6318SOL    HW230417   1.146   4.541  14.692  0.0553  2.1027  0.1758
 6319SOL     OW30418   2.908   1.924   5.699 -0.3455 -0.0465 -0.5227
 6319SOL    HW130419   2.902   1.838   5.740  0.3333  0.3374  0.4019
 6319SOL    HW230420   2.824   1.940   5.656  0.4119 -1.3976 -2.4785
 6320SOL     OW30421   3.687   4.359   5.392 -0.1139 -1.1602 -0.8084
 6320SOL    HW130422   3.650   4.273   5.376 -0.7506 -0.7401 -1.6137
 6320SOL    HW230423   3.779   4.335   5.407  0.5814  0.1275 -2.8582
 6321SOL     OW30424   1.924   1.673   7.757  0.2756  0.0492  0.0105
 6321SOL    HW130425   1.846   1.728   7.749 -1.8824 -2.9216  0.9507
 6321SOL    HW230426   1.893   1.584   7.740  1.4864 -0.6667  1.5978
 6322SOL     OW30427   3.283   4.309  15.394 -0.0817  0.4660  0.1204
 6322SOL    HW130428   3.329   4.289  15.313 -0.8919  0.2796 -0.3002
 6322SOL    HW230429   3.275   4.403  15.375 -0.1611  0.1401 -1.4591
 6323SOL     OW30430   4.073   3.830   6.192  0.1114 -0.0442  0.5689
 6323SOL    HW130431   3.986   3.821   6.152 -1.0788  2.8122  2.5511
 6323SOL    HW230432   4.070   3.747   6.239  1.4638  0.3256  1.2880
 6324SOL     OW30433   0.678   0.150  13.621  0.3046 -0.7961 -0.0415
 6324SOL    HW130434   0.768   0.183  13.614 -0.2310  0.3069 -1.7545
 6324SOL    HW230435   0.648   0.192  13.701  0.0075 -0.3186 -0.4067
 6325SOL     OW30436   3.719   2.953   3.820 -0.2406 -0.3163  0.2359
 6325SOL    HW130437   3.629   2.951   3.855 -1.0304 -2.5440 -1.9440
 6325SOL    HW230438   3.721   3.012   3.745 -3.3629  1.5330  1.5974
 6326SOL     OW30439   0.919   3.889   7.866  0.0108 -0.4820 -0.2348
 6326SOL    HW130440   0.869   3.969   7.849  1.0684 -0.7777 -4.8095
 6326SOL    HW230441   0.874   3.827   7.809  0.7803  0.1036 -1.4957
 6327SOL     OW30442   1.050   1.050   4.717  0.6398  0.2655  0.4268
 6327SOL    HW130443   1.118   1.023   4.655  2.1003  2.7899  0.8931
 6327SOL    HW230444   1.033   0.965   4.757 -0.7845  0.4990  0.3197
 6328SOL     OW30445   2.732   4.148   8.595  0.2851 -0.0805 -0.6996
 6328SOL    HW130446   2.714   4.206   8.521  2.4822  0.3801 -0.8574
 6328SOL    HW230447   2.642   4.141   8.626  0.0929  0.6411 -1.0957
 6329SOL     OW30448   2.867   2.726   5.570 -0.5144  0.5989 -0.2780
 6329SOL    HW130449   2.843   2.815   5.543 -2.2443  0.6060  1.2368
 6329SOL    HW230450   2.829   2.677   5.497 -0.6446 -1.5499  1.2242
 6330SOL     OW30451   2.370   4.133  12.231 -0.5905 -0.0558 -0.1439
 6330SOL    HW130452   2.358   4.165  12.142 -2.6061 -1.4449 -0.3681
 6330SOL    HW230453   2.299   4.177  12.278 -2.0171 -2.7195  0.1673
 6331SOL     OW30454   1.184   0.133   5.113 -0.3224 -0.3904  0.2094
 6331SOL    HW130455   1.260   0.130   5.171 -0.7185 -1.6710  0.6514
 6331SOL    HW230456   1.200   0.059   5.055 -0.9513 -0.5236  0.2044
 6332SOL     OW30457   0.081   0.013  12.082  0.3931 -0.0651 -0.1127
 6332SOL    HW130458   0.009   0.050  12.031  1.2960  1.5202 -0.2552
 6332SOL    HW230459   0.110   4.668  12.024  1.6112  0.6521 -0.3747
 6333SOL     OW30460   4.437   3.440   2.258 -0.1191  0.0549 -0.1924
 6333SOL    HW130461   4.441   3.346   2.243 -0.6487 -0.3145  2.0119
 6333SOL    HW230462   4.373   3.461   2.189 -0.6029  0.3232  0.3373
 6334SOL     OW30463   1.872   1.708   7.412 -0.2016 -0.6053  0.0303
 6334SOL    HW130464   1.959   1.742   7.434  0.9696 -2.9485 -0.9463
 6334SOL    HW230465   1.819   1.786   7.431 -1.3499 -1.1124 -1.0453
 6335SOL     OW30466   1.156   2.363   6.758  0.4819  0.0926  0.3142
 6335SOL    HW130467   1.072   2.372   6.713  0.5509  2.3190  0.6550
 6335SOL    HW230468   1.146   2.411   6.840  0.1164  0.1566  0.2323
 6336SOL     OW30469   2.291   0.296   9.006 -0.2100  0.1844 -0.0881
 6336SOL    HW130470   2.326   0.230   8.945  0.4445  0.9113 -0.4945
 6336SOL    HW230471   2.369   0.326   9.051  1.0970 -0.4486 -1.9412
 6337SOL     OW30472   3.740   2.015   4.431  0.1466  0.0741 -0.9297
 6337SOL    HW130473   3.680   2.002   4.505  1.3363 -1.9040 -0.2963
 6337SOL    HW230474   3.722   1.950   4.363  1.3352 -0.1081 -1.0660
 6338SOL     OW30475   2.272   0.590   1.870 -0.7837 -0.3253 -0.2943
 6338SOL    HW130476   2.205   0.658   1.859  1.8409  2.3976  0.5579
 6338SOL    HW230477   2.274   0.574   1.964  0.3776 -0.1334 -0.2811
 6339SOL     OW30478   1.881   1.434   8.947  0.2311 -0.2436  0.2448
 6339SOL    HW130479   1.810   1.449   8.885  0.6262  1.7290  0.2563
 6339SOL    HW230480   1.943   1.384   8.894  0.2009 -0.1103  0.0862
 6340SOL     OW30481   0.239   4.380  12.258  0.4393 -0.4100  0.0067
 6340SOL    HW130482   0.167   4.424  12.304  0.5838  1.3980 -1.4409
 6340SOL    HW230483   0.282   4.462  12.233  0.1508  0.0888  1.1657
 6341SOL     OW30484   3.021   3.217   4.052  0.0372 -0.2787  0.0089
 6341SOL    HW130485   3.076   3.296   4.053  1.1584 -1.0882  1.7847
 6341SOL    HW230486   3.041   3.165   4.129 -2.1887 -0.3255  0.5685
 6342SOL     OW30487   4.588   3.719  11.602  0.1908  0.0662 -0.2144
 6342SOL    HW130488   4.527   3.766  11.658 -0.9773 -1.3871 -0.2868
 6342SOL    HW230489   4.673   3.726  11.646  1.0801  0.1988 -1.9516
 6343SOL     OW30490   4.464   0.894   9.169  0.2354 -0.0446  0.7063
 6343SOL    HW130491   4.454   0.952   9.244  0.7911 -0.2303  0.9249
 6343SOL    HW230492   4.387   0.837   9.168  0.0663  0.1882  0.3429
 6344SOL     OW30493   1.307   2.540   8.361 -0.3187  0.3739  0.2823
 6344SOL    HW130494   1.321   2.633   8.380 -1.1662  0.3817  0.8748
 6344SOL    HW230495   1.342   2.487   8.433  3.0726  1.3440 -0.6458
 6345SOL     OW30496   1.352   4.381  15.910 -0.3735  0.8159  0.0466
 6345SOL    HW130497   1.303   4.388  15.992 -2.0340 -1.0335 -0.8065
 6345SOL    HW230498   1.383   4.294  15.932  0.4994  0.5775 -2.1797
 6346SOL     OW30499   4.503   2.978  16.218  1.0005  0.0951 -0.1049
 6346SOL    HW130500   4.515   3.072  16.230  1.0315  0.0492  0.2300
 6346SOL    HW230501   4.596   2.958  16.234  0.2387 -0.6618  3.5039
 6347SOL     OW30502   3.180   3.885   6.153 -0.0916 -0.1971 -0.0568
 6347SOL    HW130503   3.170   3.965   6.102  0.6392 -0.2955 -0.3611
 6347SOL    HW230504   3.267   3.908   6.185  0.6792 -1.5238 -1.1267
 6348SOL     OW30505   2.622   2.996   4.346  0.1899  0.3950  0.6311
 6348SOL    HW130506   2.607   2.978   4.254  0.1664 -1.4980  0.9903
 6348SOL    HW230507   2.572   2.939   4.405  0.2657  0.2203  0.5249
 6349SOL     OW30508   0.771   2.048  15.393 -0.0367 -0.3273 -0.0114
 6349SOL    HW130509   0.691   2.029  15.442  0.1490 -1.1284 -0.0252
 6349SOL    HW230510   0.818   1.965  15.402  0.3176 -0.1017  0.2636
 6350SOL     OW30511   3.077   2.426  13.890  0.9034 -0.4324 -0.0576
 6350SOL    HW130512   3.105   2.517  13.905 -1.2908  0.2557 -0.0414
 6350SOL    HW230513   2.994   2.428  13.939 -0.6615  2.2092 -2.7685
 6351SOL     OW30514   4.494   3.655   5.784  0.6079 -0.1162  0.2119
 6351SOL    HW130515   4.414   3.708   5.783 -0.4087 -1.6572 -0.3436
 6351SOL    HW230516   4.550   3.714   5.734 -0.0353  0.5133  0.2276
 6352SOL     OW30517   1.237   0.940   7.893  0.0293 -0.3702 -0.6294
 6352SOL    HW130518   1.155   0.917   7.850 -0.4280  1.9358 -1.0129
 6352SOL    HW230519   1.200   0.951   7.981 -0.8826  0.9946 -1.1793
 6353SOL     OW30520   0.340   2.007   2.857 -0.1786  0.0096 -0.5814
 6353SOL    HW130521   0.371   1.926   2.816  0.5367  0.2892 -0.5901
 6353SOL    HW230522   0.253   1.987   2.892  0.3004 -0.6373  0.2251
 6354SOL     OW30523   4.457   4.604   5.119  0.0020 -0.2410 -0.1779
 6354SOL    HW130524   4.408   4.566   5.046  0.7375  1.0896 -1.3507
 6354SOL    HW230525   4.509   4.526   5.137 -0.7958 -0.5167  0.9280
 6355SOL     OW30526   1.510   1.299   0.671 -0.4700  0.0188  0.3753
 6355SOL    HW130527   1.600   1.311   0.702 -1.1084  1.2160  1.8151
 6355SOL    HW230528   1.494   1.392   0.656  4.6572  0.7040 -0.6129
 6356SOL     OW30529   3.908   0.394   1.739  0.0777 -0.1703  0.1254
 6356SOL    HW130530   3.956   0.423   1.817 -0.6152  0.8472  0.1697
 6356SOL    HW230531   3.819   0.420   1.765  0.4638  1.9481 -0.6991
 6357SOL     OW30532   4.305   0.796   4.014  0.2958  0.1575 -0.1557
 6357SOL    HW130533   4.302   0.706   3.982 -1.6959  1.1422 -2.6980
 6357SOL    HW230534   4.395   0.804   4.046  0.5147  0.0421 -0.7491
 6358SOL     OW30535   3.784   1.981   3.729 -0.4698 -0.2255  0.0698
 6358SOL    HW130536   3.822   2.064   3.700 -2.2291 -0.1264 -2.0096
 6358SOL    HW230537   3.833   1.914   3.681 -0.9735 -1.1341  0.8137
 6359SOL     OW30538   2.195   3.475   6.414 -0.0469 -0.0728  0.2755
 6359SOL    HW130539   2.188   3.380   6.416 -0.3692 -0.1163 -2.8716
 6359SOL    HW230540   2.179   3.485   6.508  1.3155  1.2924  0.3746
 6360SOL     OW30541   3.859   1.992   0.931  0.6340  0.0944  0.3299
 6360SOL    HW130542   3.853   1.914   0.876 -1.3954 -0.7990  1.7739
 6360SOL    HW230543   3.839   1.953   1.016  0.2659 -0.2883  0.0727
 6361SOL     OW30544   2.165   2.339   8.168 -0.2809 -0.3477 -1.1494
 6361SOL    HW130545   2.079   2.299   8.158 -0.0018 -2.1914  3.3040
 6361SOL    HW230546   2.208   2.259   8.200  0.3564  0.3781 -0.1834
 6362SOL     OW30547   3.413   3.072   6.635  0.5191  0.5894 -0.3548
 6362SOL    HW130548   3.418   3.051   6.729  3.5991  0.6036 -0.5194
 6362SOL    HW230549   3.359   3.150   6.646 -1.2940 -1.0580  2.4631
 6363SOL     OW30550   3.078   0.728   5.219 -0.1711  0.0115  0.0390
 6363SOL    HW130551   3.104   0.637   5.205 -1.1624  0.1473 -2.7229
 6363SOL    HW230552   3.006   0.721   5.281 -0.5911 -0.6592 -0.5181
 6364SOL     OW30553   3.803   1.134  14.795  0.3841 -0.0937  0.0178
 6364SOL    HW130554   3.820   1.125  14.889 -3.4726 -0.5602  0.6935
 6364SOL    HW230555   3.709   1.150  14.806  0.3321 -0.6245  0.3534
 6365SOL     OW30556   4.272   4.689   3.425 -0.0965 -0.5860  0.2366
 6365SOL    HW130557   4.187   4.698   3.467 -0.5601 -1.3143 -0.5411
 6365SOL    HW230558   4.284   4.600   3.457  1.2908 -0.7284 -0.6582
 6366SOL     OW30559   1.679   4.311   4.135  0.7290 -0.1128 -0.1015
 6366SOL    HW130560   1.765   4.326   4.096  0.5908 -1.6575 -1.0122
 6366SOL    HW230561   1.691   4.230   4.185  1.3044 -1.1251 -1.8619
 6367SOL     OW30562   1.656   3.762   7.359 -0.3515  0.1115 -0.5760
 6367SOL    HW130563   1.649   3.731   7.269  1.4542  0.1453 -0.7328
 6367SOL    HW230564   1.617   3.849   7.354  0.4228  0.4308 -1.1286
 6368SOL     OW30565   3.771   4.079   6.327 -0.5588 -0.3128 -0.3852
 6368SOL    HW130566   3.726   4.108   6.406 -1.1291  1.0310 -1.1964
 6368SOL    HW230567   3.794   3.989   6.348 -1.3556 -0.5067 -0.3550
 6369SOL     OW30568   0.363   1.510   5.978 -0.0430  0.5165 -0.1578
 6369SOL    HW130569   0.284   1.483   5.932 -0.0559  2.7239 -1.4003
 6369SOL    HW230570   0.422   1.440   5.949  0.5877  1.0734 -0.2002
 6370SOL     OW30571   2.801   1.289   7.592 -0.5714 -0.2708  0.8256
 6370SOL    HW130572   2.734   1.257   7.532  0.5641  0.1096 -0.6495
 6370SOL    HW230573   2.792   1.220   7.658  2.4514 -1.4641  0.0059
 6371SOL     OW30574   1.989   1.655   8.339  0.0333  0.1048  0.2211
 6371SOL    HW130575   1.902   1.676   8.304 -0.6557 -1.6559  0.8389
 6371SOL    HW230576   1.964   1.581   8.395 -1.4558  1.4053  1.2827
 6372SOL     OW30577   1.631   1.122   3.607 -0.6806 -0.8982  0.1468
 6372SOL    HW130578   1.666   1.174   3.679  0.1152 -0.5871 -0.4758
 6372SOL    HW230579   1.660   1.176   3.534  0.0578 -1.7758 -0.1971
 6373SOL     OW30580   4.399   1.203   8.783  0.0694 -0.0787 -0.0059
 6373SOL    HW130581   4.408   1.291   8.821 -0.4457  0.3894 -0.9914
 6373SOL    HW230582   4.344   1.155   8.845  0.4173  0.0178  0.3835
 6374SOL     OW30583   3.940   1.104  16.818  0.1097 -0.2500  0.1622
 6374SOL    HW130584   3.926   1.193  16.852  4.5145  0.6032 -0.2205
 6374SOL    HW230585   3.848   1.082  16.806  0.8356 -1.0023 -4.0446
 6375SOL     OW30586   2.894   0.810  12.416  0.3907  0.2595 -0.1255
 6375SOL    HW130587   2.882   0.801  12.321  1.0980 -0.4203 -0.1431
 6375SOL    HW230588   2.809   0.788  12.453  0.4483 -2.4744 -1.6635
 6376SOL     OW30589   0.229   0.261   4.057  0.0639 -0.6794  0.0084
 6376SOL    HW130590   0.226   0.178   4.009  0.3168 -2.1919  2.5489
 6376SOL    HW230591   0.223   0.323   3.985 -0.1453 -0.2173  0.4292
 6377SOL     OW30592   2.527   0.449   8.686 -0.1646  0.6861  0.6233
 6377SOL    HW130593   2.514   0.355   8.678 -1.2949  1.1386 -3.2513
 6377SOL    HW230594   2.620   0.459   8.666  0.1336 -1.2275  1.0979
 6378SOL     OW30595   0.198   2.318   7.858 -0.0297 -0.2176 -0.3712
 6378SOL    HW130596   0.109   2.317   7.894 -1.3320  1.8114 -3.5247
 6378SOL    HW230597   0.253   2.276   7.924  0.9006  2.4900  0.6203
 6379SOL     OW30598   2.798   2.172   1.015  0.0601  0.1595 -0.3988
 6379SOL    HW130599   2.719   2.222   1.031  1.4631  1.5543  2.1141
 6379SOL    HW230600   2.759   2.091   0.983  0.2379  0.2963 -0.9678
 6380SOL     OW30601   0.351   2.485  10.422 -0.3963  0.4339 -0.3162
 6380SOL    HW130602   0.351   2.502  10.327  1.7550 -0.2084 -0.4333
 6380SOL    HW230603   0.291   2.555  10.446 -0.9968 -0.4107  0.5965
 6381SOL     OW30604   2.277   4.625  12.483 -0.8969  0.0964  0.6820
 6381SOL    HW130605   2.320   4.580  12.410 -0.9251 -1.7652  1.7930
 6381SOL    HW230606   2.220   4.690  12.442  1.4861  2.3059  0.8842
 6382SOL     OW30607   1.286   3.512   1.981 -0.3475  1.0298 -0.1041
 6382SOL    HW130608   1.225   3.500   2.053 -2.1261 -0.2337 -1.8365
 6382SOL    HW230609   1.243   3.476   1.904  2.3269  0.9888 -1.5885
 6383SOL     OW30610   0.347   1.255   7.927  0.4401  0.5191 -0.1522
 6383SOL    HW130611   0.332   1.181   7.986  1.5679  1.1324  0.9056
 6383SOL    HW230612   0.257   1.277   7.904  1.1705  1.2385 -2.3325
 6384SOL     OW30613   4.103   0.794   6.351 -0.4166  0.1490  0.0866
 6384SOL    HW130614   4.054   0.734   6.407 -0.4771 -0.4254 -0.5851
 6384SOL    HW230615   4.048   0.868   6.375 -0.1624  0.4238 -0.1719
 6385SOL     OW30616   3.601   0.274   0.970  0.0932 -0.6749  0.0709
 6385SOL    HW130617   3.662   0.205   0.945  0.5790  0.7475 -2.6570
 6385SOL    HW230618   3.523   0.246   0.922  0.1654  2.9003 -2.1555
 6386SOL     OW30619   0.065   4.207  12.393  0.0412  0.0633 -0.6049
 6386SOL    HW130620   0.014   4.284  12.420  1.0972  0.4337  0.3342
 6386SOL    HW230621   0.134   4.248  12.341  0.1556  0.9794  0.2732
 6387SOL     OW30622   0.853   1.829   4.707  0.2124  0.1310 -0.0612
 6387SOL    HW130623   0.936   1.796   4.740  0.3643  1.5360  0.9456
 6387SOL    HW230624   0.797   1.788   4.774  1.5270 -0.5610  0.6115
 6388SOL     OW30625   3.814   0.239   1.492 -0.4509  0.6776 -0.2600
 6388SOL    HW130626   3.766   0.262   1.412  0.0835  0.4006 -0.6634
 6388SOL    HW230627   3.884   0.303   1.484  1.8005 -1.7324 -0.0926
 6389SOL     OW30628   1.951   2.836   3.696 -0.8667  0.2994 -0.2959
 6389SOL    HW130629   2.002   2.803   3.770 -0.5760  1.9210  0.2183
 6389SOL    HW230630   2.005   2.905   3.657 -0.6286 -0.5134 -1.4032
 6390SOL     OW30631   1.944   0.540   9.779  0.3527  0.3319 -0.1696
 6390SOL    HW130632   1.872   0.585   9.736  1.1607  0.8806 -0.9588
 6390SOL    HW230633   2.014   0.593   9.739  1.2902  0.3908  1.5609
 6391SOL     OW30634   3.228   1.940   6.867 -0.6541 -0.2790 -0.1691
 6391SOL    HW130635   3.162   1.871   6.865 -0.1066 -0.7223 -2.7360
 6391SOL    HW230636   3.165   2.012   6.868 -2.8692 -2.2099 -3.9196
 6392SOL     OW30637   1.875   1.659   3.506 -0.6213  0.1791 -0.0017
 6392SOL    HW130638   1.880   1.563   3.511 -0.8412  0.1734  0.1100
 6392SOL    HW230639   1.802   1.663   3.443 -2.4570  0.3188  2.1348
 6393SOL     OW30640   0.453   1.180   6.373  0.6915  0.8520 -0.2537
 6393SOL    HW130641   0.449   1.263   6.421  0.4514  0.8378 -0.2476
 6393SOL    HW230642   0.373   1.138   6.405  0.2150  0.5727 -1.7884
 6394SOL     OW30643   4.454   2.098   0.644  0.5942 -0.5847  0.1952
 6394SOL    HW130644   4.505   2.170   0.680 -0.0179 -0.6740  1.2243
 6394SOL    HW230645   4.533   2.052   0.615  1.0851  0.1001  0.4684
 6395SOL     OW30646   4.548   3.554   1.467  0.2669 -0.7939 -0.2956
 6395SOL    HW130647   4.531   3.647   1.478  0.8874 -0.7091 -0.0872
 6395SOL    HW230648   4.614   3.550   1.535  0.8818  0.2760 -0.8291
 6396SOL     OW30649   4.698   2.868  12.500 -0.1648 -0.4082  0.1673
 6396SOL    HW130650   4.612   2.853  12.462 -0.0161 -0.9298  0.0411
 6396SOL    HW230651   4.686   2.868  12.595  1.5315  1.6221  0.3896
 6397SOL     OW30652   2.513   1.538   7.074 -0.5608  0.6294 -0.3179
 6397SOL    HW130653   2.541   1.459   7.120  1.9030  0.1545 -2.6864
 6397SOL    HW230654   2.543   1.611   7.129 -2.7998  1.8046 -0.6325
 6398SOL     OW30655   1.438   3.986   4.523  0.5296 -0.8362 -0.1954
 6398SOL    HW130656   1.517   4.021   4.565 -0.2801  1.3540 -0.5386
 6398SOL    HW230657   1.374   4.056   4.532  1.5924 -0.1028  1.4740
 6399SOL     OW30658   1.560   3.790  17.216 -0.0178 -0.3141 -0.3481
 6399SOL    HW130659   1.529   3.819  17.302 -0.2816  2.0602 -1.2493
 6399SOL    HW230660   1.565   3.694  17.226 -2.2068 -0.1079  2.5687
 6400SOL     OW30661   4.332   2.436   8.678  0.4998  0.0044  0.6312
 6400SOL    HW130662   4.300   2.348   8.658 -0.2148  0.3344  0.3344
 6400SOL    HW230663   4.252   2.486   8.692 -0.5990 -1.1209 -1.7847
 6401SOL     OW30664   1.419   0.727   3.508 -0.1589 -0.0073  0.3597
 6401SOL    HW130665   1.325   0.731   3.491 -0.0924  1.4780  0.3680
 6401SOL    HW230666   1.443   0.799   3.451  0.3631  0.1753  0.8103
 6402SOL     OW30667   0.058   2.815   3.466 -0.5868  0.3541 -0.3188
 6402SOL    HW130668   0.061   2.722   3.444  1.0257 -0.2743  2.6399
 6402SOL    HW230669   0.120   2.818   3.539 -0.3129 -0.3826 -0.5236
 6403SOL     OW30670   0.461   1.310  16.584 -0.0620  0.5159 -0.6019
 6403SOL    HW130671   0.405   1.248  16.537  0.2350  1.5253 -2.2892
 6403SOL    HW230672   0.422   1.300  16.671  1.4013 -1.9995 -0.2447
 6404SOL     OW30673   1.856   2.120   1.453  0.0842 -0.4515 -0.3634
 6404SOL    HW130674   1.909   2.077   1.520 -1.3495  0.1931  1.1666
 6404SOL    HW230675   1.893   2.207   1.456 -1.0172  0.1242 -3.1754
 6405SOL     OW30676   2.426   2.760   5.009 -0.2843  0.0941  0.0325
 6405SOL    HW130677   2.439   2.742   4.916 -0.1287 -1.7040  0.4060
 6405SOL    HW230678   2.336   2.728   5.007  0.4502 -1.8677 -1.7224
 6406SOL     OW30679   2.251   4.418   3.946 -0.5612  0.4649  0.0970
 6406SOL    HW130680   2.336   4.383   3.919 -0.7941  1.0364 -1.3768
 6406SOL    HW230681   2.203   4.336   3.940  0.8365 -0.3456 -0.0537
 6407SOL     OW30682   0.458   2.620  13.354  0.6731  0.0837  0.0042
 6407SOL    HW130683   0.426   2.687  13.415  3.0790  0.4280  0.8969
 6407SOL    HW230684   0.535   2.660  13.313  0.6875 -0.2680 -0.3103
 6408SOL     OW30685   2.025   2.143  17.200  0.1416  0.1533  0.3821
 6408SOL    HW130686   2.046   2.224  17.153 -1.6386  1.0951  1.1962
 6408SOL    HW230687   2.058   2.166  17.287  0.3109  3.1184 -0.4424
 6409SOL     OW30688   0.909   3.361  14.861  0.8790 -0.0182  0.0824
 6409SOL    HW130689   0.893   3.267  14.852  4.7559 -1.1027  4.2147
 6409SOL    HW230690   0.988   3.360  14.916  0.5942 -0.5601  0.4761
 6410SOL     OW30691   1.327   2.839  16.424  0.5252 -0.4759 -0.0290
 6410SOL    HW130692   1.291   2.899  16.359 -1.2816 -0.4272  1.0025
 6410SOL    HW230693   1.358   2.767  16.370  2.4682 -0.4139  0.9833
 6411SOL     OW30694   2.424   2.750  17.054  0.9878 -0.2411 -0.4533
 6411SOL    HW130695   2.490   2.783  17.115 -0.5950 -1.3609  1.8939
 6411SOL    HW230696   2.484   2.755  16.980  0.0276 -0.3800 -1.2388
 6412SOL     OW30697   1.997   3.613   2.020 -0.4628 -0.2666  0.1457
 6412SOL    HW130698   1.913   3.659   2.010  0.9817  1.4308 -4.3083
 6412SOL    HW230699   2.045   3.652   2.093 -0.8993  1.8259 -0.7063
 6413SOL     OW30700   4.442   3.789   2.718 -0.0088  0.3364  0.1914
 6413SOL    HW130701   4.536   3.805   2.719  0.2235 -1.1488  1.2273
 6413SOL    HW230702   4.441   3.737   2.637  0.3368 -1.6432  1.4769
 6414SOL     OW30703   2.067   1.237   8.731  0.0433  0.0165 -0.0093
 6414SOL    HW130704   2.139   1.269   8.676  1.2426 -0.4827  1.2900
 6414SOL    HW230705   2.100   1.255   8.819 -0.1071 -0.3526  0.1184
 6415SOL     OW30706   3.524   2.750  14.523 -0.6251  0.5901 -0.3107
 6415SOL    HW130707   3.458   2.751  14.593 -0.4445  0.1063 -0.1297
 6415SOL    HW230708   3.553   2.659  14.521 -1.9308  0.1562  0.5006
 6416SOL     OW30709   2.893   2.408   3.501 -0.0050  0.1390  0.0593
 6416SOL    HW130710   2.810   2.432   3.541  0.1184  2.1014 -0.8489
 6416SOL    HW230711   2.892   2.312   3.500  0.3712  0.1214  1.2473
 6417SOL     OW30712   3.550   3.771  12.771  0.3088 -0.0153 -0.0021
 6417SOL    HW130713   3.632   3.750  12.727 -0.1971  0.3652 -1.1293
 6417SOL    HW230714   3.531   3.860  12.740 -1.2657 -0.8729 -1.4958
 6418SOL     OW30715   3.086   4.239   7.692  0.0291 -0.0507  0.6238
 6418SOL    HW130716   3.107   4.325   7.728 -1.2914  0.1532  0.9011
 6418SOL    HW230717   3.038   4.197   7.763 -0.0705  0.8062  1.0571
 6419SOL     OW30718   2.352   0.680   2.959 -0.7205 -0.2453 -0.1305
 6419SOL    HW130719   2.349   0.673   3.055 -0.9082  2.2032  0.0379
 6419SOL    HW230720   2.265   0.656   2.929 -2.3228  0.4469  3.8835
 6420SOL     OW30721   1.621   0.644   2.914 -0.7476 -0.0778 -0.4747
 6420SOL    HW130722   1.649   0.730   2.945  1.4869 -0.6971 -0.7950
 6420SOL    HW230723   1.537   0.636   2.959  0.3515 -0.6336  1.4598
 6421SOL     OW30724   0.853   1.995   7.283 -0.6198 -0.7583  0.2330
 6421SOL    HW130725   0.930   1.942   7.260  0.0214  1.3701 -2.6596
 6421SOL    HW230726   0.835   1.986   7.376  1.1167 -2.2675  0.4130
 6422SOL     OW30727   1.888   3.600   5.842  0.1466  0.0729  0.0808
 6422SOL    HW130728   1.919   3.690   5.831 -0.1448  0.2338  0.5856
 6422SOL    HW230729   1.916   3.573   5.754  1.7023  1.1562  0.2426
 6423SOL     OW30730   1.792   3.585  15.706 -0.3328 -0.1333  0.2674
 6423SOL    HW130731   1.887   3.587  15.721 -0.5567 -1.3946  1.8457
 6423SOL    HW230732   1.775   3.605  15.614  0.2046  0.2294  0.2473
 6424SOL     OW30733   2.352   2.622   1.439 -0.3776  0.0456 -0.0583
 6424SOL    HW130734   2.286   2.621   1.370  2.7003  0.8187 -2.9987
 6424SOL    HW230735   2.392   2.707   1.422  2.0415 -0.7296  1.8065
 6425SOL     OW30736   4.073   3.656  14.926 -0.0585 -0.2461  0.2791
 6425SOL    HW130737   3.999   3.662  14.986 -2.4669 -1.0997 -2.6081
 6425SOL    HW230738   4.031   3.625  14.845  1.7652 -0.7771 -0.4724
 6426SOL     OW30739   0.854   1.537   6.956  0.1316  0.1488 -0.3348
 6426SOL    HW130740   0.859   1.461   7.015 -2.4070 -0.7792 -1.3381
 6426SOL    HW230741   0.762   1.557   6.970  0.4439  1.0876  0.3696
 6427SOL     OW30742   1.780   2.375   6.647 -0.0693 -0.2248  0.7542
 6427SOL    HW130743   1.768   2.292   6.603  2.0003  0.5955 -1.3173
 6427SOL    HW230744   1.701   2.371   6.702  0.4322 -0.4616  1.4511
 6428SOL     OW30745   3.023   1.748   0.645 -0.2079  0.6219 -0.8328
 6428SOL    HW130746   2.955   1.805   0.609 -1.7004  1.4043  3.2850
 6428SOL    HW230747   3.099   1.769   0.591  0.0906  1.7115  0.0094
 6429SOL     OW30748   0.093   1.943   5.652 -0.0868  0.4753 -0.1180
 6429SOL    HW130749   0.024   1.904   5.598 -0.9002  1.0316  0.5050
 6429SOL    HW230750   0.167   1.905   5.606 -1.3163 -2.6277  0.4588
 6430SOL     OW30751   2.555   2.561   4.088 -0.4757  0.0266 -0.0662
 6430SOL    HW130752   2.625   2.573   4.152 -0.1943 -0.3037 -0.3122
 6430SOL    HW230753   2.616   2.538   4.017 -1.2701  0.1436 -0.7899
 6431SOL     OW30754   3.507   3.613  12.476  0.2947  0.2492 -0.0856
 6431SOL    HW130755   3.573   3.548  12.452 -2.8298 -2.4764 -1.3134
 6431SOL    HW230756   3.563   3.689  12.459  1.2881 -0.2087  1.0893
 6432SOL     OW30757   3.538   2.710   7.661  0.4588 -0.4439 -0.3053
 6432SOL    HW130758   3.521   2.752   7.744 -2.2967  1.0073 -1.6159
 6432SOL    HW230759   3.630   2.734   7.651  0.7411 -1.0927  0.6895
 6433SOL     OW30760   0.647   0.953   5.988  0.1410 -0.4211  0.3621
 6433SOL    HW130761   0.737   0.956   6.019  0.3563  0.7405 -0.3820
 6433SOL    HW230762   0.609   1.028   6.034  1.2536  1.0511 -1.1196
 6434SOL     OW30763   0.426   4.427   6.814 -1.1058 -0.0551  0.2279
 6434SOL    HW130764   0.373   4.355   6.849 -2.4099  1.3424  1.0992
 6434SOL    HW230765   0.377   4.461   6.739  2.3378 -1.9817 -2.9235
 6435SOL     OW30766   1.943   0.813   7.744  0.2697  0.1673  0.0329
 6435SOL    HW130767   1.992   0.816   7.827  0.2143  0.0536  0.0704
 6435SOL    HW230768   1.879   0.747   7.769  2.4448 -1.1927  2.0364
 6436SOL     OW30769   0.987   1.892   3.981  0.3288 -0.6320  0.0629
 6436SOL    HW130770   0.940   1.937   3.911 -2.1076  0.5001  2.4253
 6436SOL    HW230771   0.926   1.824   4.012  0.0142 -0.7281 -0.7814
 6437SOL     OW30772   0.160   1.810  13.551 -0.9872  0.0749  0.0632
 6437SOL    HW130773   0.097   1.774  13.613 -2.2158  0.1717 -1.1356
 6437SOL    HW230774   0.093   1.861  13.505  0.7949  1.7817 -0.6509
 6438SOL     OW30775   2.893   0.287   3.612  0.9584 -0.7791 -0.4400
 6438SOL    HW130776   2.850   0.242   3.685  3.6567  0.2065  1.7733
 6438SOL    HW230777   2.981   0.278   3.649  0.2637 -0.8443  1.1780
 6439SOL     OW30778   0.481   2.500   9.019  0.0684 -0.1263 -0.1294
 6439SOL    HW130779   0.566   2.545   9.011  0.2872 -0.8001 -1.5079
 6439SOL    HW230780   0.412   2.560   8.991  2.0978  2.8517  1.1842
 6440SOL     OW30781   0.078   3.537   5.739  0.0914  0.6578 -0.5422
 6440SOL    HW130782   0.063   3.628   5.765 -2.3573  0.1927 -0.3125
 6440SOL    HW230783   0.171   3.516   5.737 -0.2053 -0.7657  1.3254
 6441SOL     OW30784   1.299   1.389  16.537 -0.7052 -0.8117 -0.4591
 6441SOL    HW130785   1.210   1.365  16.509  0.0963 -3.1840 -0.9213
 6441SOL    HW230786   1.345   1.354  16.461  0.5614  1.0706 -0.5549
 6442SOL     OW30787   3.201   0.421   8.614 -0.1074 -0.3144 -0.1805
 6442SOL    HW130788   3.279   0.445   8.565  0.2784 -2.0845 -0.4483
 6442SOL    HW230789   3.136   0.468   8.562  0.8959  0.2573 -0.9079
 6443SOL     OW30790   2.397   3.154   3.279 -0.5839 -0.6561 -0.1219
 6443SOL    HW130791   2.477   3.102   3.279 -0.5181 -0.5494 -0.8260
 6443SOL    HW230792   2.370   3.140   3.188  0.4100 -1.5200 -0.2741
 6444SOL     OW30793   3.633   1.129   2.317 -0.4278  0.3880  0.5476
 6444SOL    HW130794   3.605   1.220   2.326 -2.6230 -0.2431 -0.0922
 6444SOL    HW230795   3.676   1.140   2.232  0.3879  0.2431  0.9407
 6445SOL     OW30796   2.938   4.344  15.206  0.6947 -0.0470  0.8514
 6445SOL    HW130797   2.940   4.436  15.180  2.6205 -1.0097 -2.3405
 6445SOL    HW230798   2.989   4.306  15.135 -1.3534  1.6308 -1.5226
 6446SOL     OW30799   1.544   1.173  11.367  0.0996 -0.5164  0.2859
 6446SOL    HW130800   1.623   1.210  11.405  0.3136 -0.1989 -0.4815
 6446SOL    HW230801   1.580   1.153  11.281 -1.2173  4.0044 -1.2789
 6447SOL     OW30802   4.414   1.816  15.557  0.1552  0.4084  0.1395
 6447SOL    HW130803   4.508   1.797  15.562  0.0238 -0.4779 -0.8345
 6447SOL    HW230804   4.406   1.893  15.501 -0.0520  1.5392  1.7114
 6448SOL     OW30805   1.250   0.905  10.260  0.1393 -0.6376 -0.1747
 6448SOL    HW130806   1.270   0.964  10.332  1.1428 -0.0726 -0.9280
 6448SOL    HW230807   1.170   0.946  10.228 -0.2178 -0.7638  0.5395
 6449SOL     OW30808   1.042   3.582   3.885  0.0283  0.4850 -0.4333
 6449SOL    HW130809   0.999   3.597   3.969 -0.8611  2.1102 -1.1794
 6449SOL    HW230810   1.052   3.487   3.891 -0.3585  0.5001  0.4168
 6450SOL     OW30811   2.784   2.585   0.614  0.4243  0.2554 -0.1460
 6450SOL    HW130812   2.873   2.562   0.642  0.0131 -1.7212 -0.4747
 6450SOL    HW230813   2.737   2.512   0.653  0.1390  0.4301 -0.1626
 6451SOL     OW30814   4.046   2.155   2.896  0.3025 -0.6137  0.2068
 6451SOL    HW130815   4.099   2.090   2.942  0.8608  0.9039  1.7213
 6451SOL    HW230816   4.035   2.105   2.815  0.1177  0.2982 -0.3317
 6452SOL     OW30817   0.358   3.822   7.453 -0.1304  0.4607  0.4404
 6452SOL    HW130818   0.381   3.771   7.531  0.0414  1.0597  0.7737
 6452SOL    HW230819   0.333   3.745   7.402  1.4746  2.1074 -2.8180
 6453SOL     OW30820   0.577   0.679   6.054  0.0387  0.1940  0.1359
 6453SOL    HW130821   0.609   0.766   6.029  1.6701 -0.0814  1.2224
 6453SOL    HW230822   0.552   0.665   5.963  0.4067 -1.3356  0.2641
 6454SOL     OW30823   2.780   3.441   2.104 -0.1466 -0.0789  0.0004
 6454SOL    HW130824   2.765   3.523   2.153  0.7400  0.1240 -0.0811
 6454SOL    HW230825   2.710   3.384   2.135  0.6091 -0.6589  0.6302
 6455SOL     OW30826   0.363   3.551   9.679 -0.2783 -0.1995  0.6476
 6455SOL    HW130827   0.295   3.488   9.655 -0.1521 -1.2118  2.9939
 6455SOL    HW230828   0.362   3.547   9.775  0.4875 -0.3491  0.6488
 6456SOL     OW30829   3.394   3.632   2.854 -0.2746 -0.3245  0.8486
 6456SOL    HW130830   3.457   3.561   2.843  0.0318 -0.2639  2.2180
 6456SOL    HW230831   3.426   3.695   2.918  0.0398  1.0879 -0.6733
 6457SOL     OW30832   1.483   0.388   8.349  0.2770 -0.2729  0.1902
 6457SOL    HW130833   1.408   0.330   8.361  0.1384 -0.5928 -2.1711
 6457SOL    HW230834   1.473   0.454   8.418  2.8814  1.5579 -1.1715
 6458SOL     OW30835   3.796   0.743  14.408  0.0909  0.6496 -0.0076
 6458SOL    HW130836   3.881   0.717  14.372 -0.2520  0.5365 -0.7437
 6458SOL    HW230837   3.818   0.819  14.461 -2.7483  2.7533 -1.8474
 6459SOL     OW30838   0.423   0.631  15.913 -0.0032 -0.3537 -0.6649
 6459SOL    HW130839   0.501   0.601  15.866  0.2709  0.6245 -0.8400
 6459SOL    HW230840   0.465   0.691  15.975 -1.1834  0.5998 -0.7981
 6460SOL     OW30841   2.001   2.927   8.755  0.1988  0.4357  0.1813
 6460SOL    HW130842   1.990   3.022   8.762  2.3644  0.7157 -0.3798
 6460SOL    HW230843   2.076   2.913   8.697  0.1451 -2.1627  0.7314
 6461SOL     OW30844   4.264   3.999  13.651  0.1409  0.2275  0.1460
 6461SOL    HW130845   4.285   3.922  13.599 -0.7966 -0.6194  1.0143
 6461SOL    HW230846   4.313   4.064  13.600 -1.9424 -0.2476 -2.4590
 6462SOL     OW30847   1.653   3.986   2.235  0.3762  0.1437  0.8704
 6462SOL    HW130848   1.590   3.917   2.217  1.8150 -1.4640  1.9500
 6462SOL    HW230849   1.604   4.068   2.244 -0.4847 -0.3176  0.3260
 6463SOL     OW30850   0.847   3.811   3.005  0.4050  0.0593  0.3811
 6463SOL    HW130851   0.784   3.882   3.017 -0.4677 -0.5557 -0.6406
 6463SOL    HW230852   0.892   3.809   3.090 -0.0823 -0.0192  0.6355
 6464SOL     OW30853   0.237   2.199  13.173 -0.2147  0.2340  0.4926
 6464SOL    HW130854   0.250   2.186  13.079 -1.7820  2.7602 -0.0670
 6464SOL    HW230855   0.303   2.264  13.199  1.4213 -0.8232 -1.0921
 6465SOL     OW30856   0.441   0.033   3.485 -0.5856 -0.5328  0.1958
 6465SOL    HW130857   0.484   0.118   3.488  0.2569 -0.8872 -1.9975
 6465SOL    HW230858   0.435   0.020   3.580  1.1184 -0.0337  0.3722
 6466SOL     OW30859   3.256   3.569   0.986 -0.9239  0.6370  0.0085
 6466SOL    HW130860   3.279   3.495   1.042  0.8099  1.2759  0.1568
 6466SOL    HW230861   3.307   3.538   0.912 -1.2487 -0.8411  0.4028
 6467SOL     OW30862   0.167   3.705   6.456 -0.0870  0.4967 -0.0393
 6467SOL    HW130863   0.246   3.699   6.403 -0.3702 -1.5750 -0.2025
 6467SOL    HW230864   0.188   3.635   6.517  2.7170  1.8615  0.5300
 6468SOL     OW30865   4.025   3.107   1.619  0.5278 -0.8483 -0.4530
 6468SOL    HW130866   4.090   3.170   1.651 -0.6334  0.1201 -0.0180
 6468SOL    HW230867   4.020   3.042   1.689 -2.6183  1.7981  1.7531
 6469SOL     OW30868   1.157   2.576   6.356 -0.0194 -0.3457 -0.5170
 6469SOL    HW130869   1.246   2.596   6.330  0.1626 -0.4265  0.0305
 6469SOL    HW230870   1.162   2.484   6.384  1.9158 -0.4791 -1.3285
 6470SOL     OW30871   4.119   0.713   5.676  0.2369  0.4378 -0.4896
 6470SOL    HW130872   4.126   0.680   5.586 -0.2432 -0.9250 -0.0194
 6470SOL    HW230873   4.210   0.710   5.706 -0.6920  0.4920  2.2856
 6471SOL     OW30874   3.285   4.603  15.650  0.7198  0.6938 -0.4456
 6471SOL    HW130875   3.298   4.692  15.616 -0.5525  0.1215 -2.3750
 6471SOL    HW230876   3.317   4.563  15.570 -0.0574  0.6293 -0.7183
 6472SOL     OW30877   2.472   0.013   5.138 -0.3211 -0.0595 -0.0971
 6472SOL    HW130878   2.517   4.663   5.175  0.6159  0.9381  0.8048
 6472SOL    HW230879   2.418   4.682   5.082  0.7568  0.4173 -1.6124
 6473SOL     OW30880   3.072   1.758   7.581  0.1212  0.3715  0.0073
 6473SOL    HW130881   2.987   1.800   7.593  0.5293  0.5060  2.5287
 6473SOL    HW230882   3.135   1.829   7.583  0.6986 -0.0886 -2.4674
 6474SOL     OW30883   4.567   4.447   3.287  0.1006 -0.7343 -0.3839
 6474SOL    HW130884   4.504   4.499   3.237  0.3800 -0.2611 -0.2426
 6474SOL    HW230885   4.504   4.389   3.330 -2.2846  2.6161  0.5775
 6475SOL     OW30886   3.097   2.713  11.603  0.1748 -0.2452 -0.3595
 6475SOL    HW130887   3.097   2.619  11.623 -0.3032 -0.1073  0.2880
 6475SOL    HW230888   3.035   2.754  11.663  0.0293 -1.4923  0.3369
 6476SOL     OW30889   0.384   4.436   9.512 -0.1367  0.2809  0.0230
 6476SOL    HW130890   0.291   4.443   9.491  0.0054  0.2832 -0.6028
 6476SOL    HW230891   0.392   4.440   9.607 -0.1046 -0.2790  0.0432
 6477SOL     OW30892   0.789   3.399  14.586  0.0176 -0.3743 -0.2865
 6477SOL    HW130893   0.848   3.428  14.656  0.7087  0.7003 -1.3248
 6477SOL    HW230894   0.747   3.327  14.634 -0.9620  0.6901  0.4495
 6478SOL     OW30895   0.228   2.243  16.388 -0.2401  0.2342  0.1195
 6478SOL    HW130896   0.308   2.295  16.385  0.6603 -1.2439 -1.6116
 6478SOL    HW230897   0.210   2.237  16.482  1.5920 -1.0221  0.4000
 6479SOL     OW30898   0.778   2.291   7.525 -0.3052  0.4486  0.2956
 6479SOL    HW130899   0.796   2.198   7.511 -2.1178 -0.3698  3.3317
 6479SOL    HW230900   0.845   2.321   7.587 -0.3293 -0.3103  0.6844
 6480SOL     OW30901   1.742   2.057   3.095 -0.7856  0.0119  0.2714
 6480SOL    HW130902   1.740   2.029   3.004  1.9001  1.6117 -0.2828
 6480SOL    HW230903   1.699   2.140   3.076 -0.5842  0.4218  1.6163
 6481SOL     OW30904   0.038   1.327  11.721  0.0142 -0.3028 -0.3725
 6481SOL    HW130905   4.706   1.356  11.650  0.2269  1.0296  0.0006
 6481SOL    HW230906   0.110   1.289  11.670 -0.6036 -1.2849 -0.5076
 6482SOL     OW30907   4.247   0.976   3.792  0.3810 -0.1936 -0.3258
 6482SOL    HW130908   4.167   1.008   3.833  0.0134  0.1121 -1.2801
 6482SOL    HW230909   4.274   0.933   3.873  2.2159  1.4705 -0.0266
 6483SOL     OW30910   0.433   0.814   3.645 -0.8057  0.2116  0.7521
 6483SOL    HW130911   0.445   0.720   3.654  0.0283 -0.0007 -2.5212
 6483SOL    HW230912   0.383   0.843   3.722 -2.2013 -0.3127  0.0406
 6484SOL     OW30913   0.128   1.736   3.358 -0.0188 -0.3722 -0.6003
 6484SOL    HW130914   0.198   1.797   3.335 -0.1714 -0.9806 -2.6493
 6484SOL    HW230915   0.155   1.703   3.443  1.1054 -0.6259 -1.0596
 6485SOL     OW30916   1.103   2.432  11.026  0.5103  0.3505 -0.1467
 6485SOL    HW130917   1.098   2.354  10.970 -1.9284  0.3535  0.0708
 6485SOL    HW230918   1.159   2.410  11.100 -0.0946 -1.4558 -0.2377
 6486SOL     OW30919   4.609   1.151   4.593 -0.1160 -0.3797 -0.4743
 6486SOL    HW130920   4.619   1.067   4.549 -1.1718  1.0008 -3.3286
 6486SOL    HW230921   4.552   1.195   4.530 -1.2432  0.8703  1.4410
 6487SOL     OW30922   3.740   3.987   8.911  0.3184  0.3791  0.2254
 6487SOL    HW130923   3.815   3.991   8.851  0.9794 -0.8107  0.9703
 6487SOL    HW230924   3.779   4.014   8.995  1.3301 -2.9581  0.8150
 6488SOL     OW30925   0.956   3.827  12.018  0.1109 -0.7182  0.5854
 6488SOL    HW130926   1.033   3.883  12.029 -0.1441 -0.2678  0.0508
 6488SOL    HW230927   1.001   3.745  12.041  0.2287 -0.6991  0.4233
 6489SOL     OW30928   3.046   2.101   4.456  0.2725  0.0988 -0.7569
 6489SOL    HW130929   3.074   2.068   4.542 -1.7195  1.1051  0.3036
 6489SOL    HW230930   3.004   2.026   4.414 -0.6681 -0.5256  1.2440
 6490SOL     OW30931   1.811   0.574   4.546  0.0183  0.3727  0.3988
 6490SOL    HW130932   1.870   0.501   4.532  1.9353  1.6721  1.6609
 6490SOL    HW230933   1.729   0.538   4.513  1.1341 -1.2858 -0.5425
 6491SOL     OW30934   1.197   3.747  10.293  0.5723  0.0869  0.2706
 6491SOL    HW130935   1.259   3.683  10.330  1.4973 -0.2271 -1.8031
 6491SOL    HW230936   1.122   3.687  10.294 -0.0943  0.9550  1.8700
 6492SOL     OW30937   1.176   2.384  16.095  0.0319 -0.2482  0.0615
 6492SOL    HW130938   1.216   2.333  16.024 -0.1929  0.2329 -0.4142
 6492SOL    HW230939   1.257   2.414  16.137 -0.2854  0.4669  0.1697
 6493SOL     OW30940   4.602   0.017   6.631  0.0122 -0.1358 -0.2354
 6493SOL    HW130941   4.587   0.095   6.684  1.6701  0.1529 -0.1777
 6493SOL    HW230942   4.646   4.700   6.705 -0.4080  0.8792  0.5988
 6494SOL     OW30943   2.020   2.187   5.480 -0.0821 -0.3733 -0.3642
 6494SOL    HW130944   2.056   2.274   5.467 -1.2890 -0.0848 -1.8814
 6494SOL    HW230945   2.079   2.131   5.429  0.8947 -0.2019  0.5984
 6495SOL     OW30946   3.588   0.507   5.330 -0.0422  0.1425  0.1243
 6495SOL    HW130947   3.601   0.595   5.366  2.5196  0.3839 -1.4042
 6495SOL    HW230948   3.533   0.525   5.254 -2.4605  1.9712  2.3302
 6496SOL     OW30949   0.986   2.738   5.982 -0.3924 -0.3750  0.2467
 6496SOL    HW130950   0.916   2.715   5.921 -0.2098 -0.8659  0.2216
 6496SOL    HW230951   0.979   2.828   6.013  1.9374  1.2636 -4.0303
 6497SOL     OW30952   2.748   1.606   0.145 -0.0204  0.1254 -0.0780
 6497SOL    HW130953   2.802   1.548   0.198 -1.2716  1.0529  2.2082
 6497SOL    HW230954   2.664   1.603   0.190  0.1501 -0.2736  0.2179
 6498SOL     OW30955   1.552   0.947   7.286 -0.4352  0.3527  0.5023
 6498SOL    HW130956   1.470   0.992   7.305 -1.9600 -1.5940 -1.4621
 6498SOL    HW230957   1.560   0.979   7.196 -1.2770  0.6602  0.5441
 6499SOL     OW30958   3.142   0.552   4.915 -0.0094  0.1179  0.3671
 6499SOL    HW130959   3.143   0.526   5.007 -0.1429  0.0849  0.3589
 6499SOL    HW230960   3.049   0.543   4.895  0.2146  3.7502 -2.1085
 6500SOL     OW30961   4.658   1.206   6.773  0.2655 -0.3021  0.3456
 6500SOL    HW130962   0.002   1.250   6.724  1.2452  0.0716  2.0592
 6500SOL    HW230963   4.651   1.273   6.841 -0.7530  0.6660 -0.7176
 6501SOL     OW30964   1.705   0.272   7.877  0.7269 -0.2083  0.0188
 6501SOL    HW130965   1.638   0.297   7.940  2.2528 -0.4185  1.7037
 6501SOL    HW230966   1.745   0.199   7.924  1.3870  0.7847  0.9900
 6502SOL     OW30967   3.789   1.970   7.045 -0.1884  0.4541 -0.1250
 6502SOL    HW130968   3.843   1.935   7.116  0.4458  2.0409  0.1830
 6502SOL    HW230969   3.709   1.982   7.096 -1.2046 -1.6831 -1.2194
 6503SOL     OW30970   2.918   1.428   8.266 -0.2591  0.1347  0.0404
 6503SOL    HW130971   2.842   1.486   8.260 -0.6485 -0.3187  0.6141
 6503SOL    HW230972   2.900   1.369   8.339 -0.0053  0.9693  0.7698
 6504SOL     OW30973   2.652   1.121   8.506  0.0655  0.0457 -0.1818
 6504SOL    HW130974   2.636   1.098   8.415  0.6366 -2.5076  0.3544
 6504SOL    HW230975   2.741   1.156   8.499  0.0133  0.5989  1.6833
 6505SOL     OW30976   1.018   3.559   9.194 -0.3709  0.0020 -0.1921
 6505SOL    HW130977   0.943   3.614   9.214  0.7137  1.6957 -0.7518
 6505SOL    HW230978   1.026   3.508   9.275 -1.3076  0.8784  0.4509
 6506SOL     OW30979   0.982   2.623   4.386  0.4446 -0.4939  0.0777
 6506SOL    HW130980   1.010   2.550   4.330  0.8200  0.6799 -1.2641
 6506SOL    HW230981   1.005   2.586   4.471  3.6224  0.7257 -0.2502
 6507SOL     OW30982   0.653   1.894   2.390 -0.2597  0.6376  0.0573
 6507SOL    HW130983   0.667   1.923   2.300 -1.6270  1.7902  0.2017
 6507SOL    HW230984   0.561   1.868   2.388  0.5931 -2.5328  2.3397
 6508SOL     OW30985   1.411   1.714   6.586  0.0168 -0.1149 -0.0147
 6508SOL    HW130986   1.384   1.639   6.532 -1.1663 -1.1444  2.0253
 6508SOL    HW230987   1.452   1.659   6.652  2.1539 -1.1337 -2.1850
 6509SOL     OW30988   3.752   1.094  12.211 -0.0849 -0.7290 -0.2951
 6509SOL    HW130989   3.668   1.113  12.169 -0.3836  0.3524  0.7669
 6509SOL    HW230990   3.807   1.167  12.181 -1.5460  0.6701  0.4022
 6510SOL     OW30991   1.883   4.167   4.593 -0.1728  0.2190  0.3596
 6510SOL    HW130992   1.927   4.195   4.674  0.0543 -0.1792  0.3743
 6510SOL    HW230993   1.913   4.227   4.524  0.9577 -0.8590 -0.0723
 6511SOL     OW30994   4.471   1.591   7.504  0.3499 -0.0808 -0.1217
 6511SOL    HW130995   4.444   1.681   7.487  1.1472  0.6288  2.3936
 6511SOL    HW230996   4.451   1.560   7.415 -1.1462  0.6240 -0.0381
 6512SOL     OW30997   4.094   4.505   6.015  0.2918 -0.0981  0.1530
 6512SOL    HW130998   4.182   4.511   6.050 -0.3493 -2.6556  2.2331
 6512SOL    HW230999   4.093   4.574   5.949 -3.0117  1.2309  1.5883
 6513SOL     OW31000   3.609   3.108  10.855 -0.0524 -0.8354  0.1441
 6513SOL    HW131001   3.545   3.130  10.787 -0.7405 -1.3381  0.6198
 6513SOL    HW231002   3.671   3.181  10.858  0.2488 -1.0978  0.3186
 6514SOL     OW31003   1.776   3.782   8.259  0.5827 -0.2642 -0.1954
 6514SOL    HW131004   1.763   3.826   8.343  1.7127 -0.5196  0.1194
 6514SOL    HW231005   1.739   3.695   8.270 -0.7788  0.6404  2.3168
 6515SOL     OW31006   3.910   3.200   4.507  0.0364 -0.3208 -0.2953
 6515SOL    HW131007   3.931   3.151   4.428  0.1845  0.8136 -0.9556
 6515SOL    HW231008   3.827   3.239   4.481 -0.0489 -1.3353 -1.5366
 6516SOL     OW31009   3.056   2.463   0.956 -0.0120  0.2816  0.5300
 6516SOL    HW131010   3.006   2.453   0.875 -1.2194  1.2490  1.1598
 6516SOL    HW231011   2.982   2.461   1.017 -0.4892  3.2069  0.0426
 6517SOL     OW31012   2.667   3.923   8.149 -0.3944  0.0674  0.4591
 6517SOL    HW131013   2.670   3.827   8.146 -1.6824  0.0196  0.6363
 6517SOL    HW231014   2.761   3.934   8.137 -0.3660 -1.4970 -0.7934
 6518SOL     OW31015   4.009   1.417  15.700 -0.5350 -0.5661 -0.1540
 6518SOL    HW131016   3.995   1.354  15.629  1.6674 -0.7545 -0.3934
 6518SOL    HW231017   3.988   1.367  15.779  0.2397 -2.4588 -1.1471
 6519SOL     OW31018   1.839   3.763  14.062  0.3438 -0.0855 -0.3057
 6519SOL    HW131019   1.816   3.818  14.137  0.4766 -1.3847  0.6944
 6519SOL    HW231020   1.908   3.814  14.019  0.6503 -2.4416 -2.6137
 6520SOL     OW31021   2.203   4.670   1.402 -0.4711  0.1242 -0.1219
 6520SOL    HW131022   2.204   0.016   1.466 -0.1545 -0.2821  0.3247
 6520SOL    HW231023   2.168   4.714   1.324  0.9963 -0.4523 -1.0904
 6521SOL     OW31024   0.290   3.307   2.405 -0.1136 -0.5004 -0.3093
 6521SOL    HW131025   0.314   3.254   2.481  1.2221 -1.6478 -1.5427
 6521SOL    HW231026   0.351   3.380   2.416  1.2728 -1.8702  0.9475
 6522SOL     OW31027   4.094   4.607   7.954  0.8379  0.2682 -0.3203
 6522SOL    HW131028   4.101   4.594   7.860 -0.1998 -0.6013 -0.2827
 6522SOL    HW231029   4.003   4.635   7.966  0.3895 -1.9333  1.4749
 6523SOL     OW31030   0.110   1.210   4.968  0.0128 -1.1122  0.1081
 6523SOL    HW131031   0.046   1.150   4.931 -1.2516  1.2759 -1.6020
 6523SOL    HW231032   0.102   1.178   5.057 -1.4110 -0.3468  0.2582
 6524SOL     OW31033   3.016   1.114   3.255  0.2460 -0.4131  0.2069
 6524SOL    HW131034   3.052   1.027   3.273 -0.8983 -0.4087  2.5007
 6524SOL    HW231035   3.083   1.154   3.199 -0.4414  1.5590  0.7881
 6525SOL     OW31036   3.255   3.418   2.372 -0.2548  0.3016  0.1036
 6525SOL    HW131037   3.254   3.417   2.276 -0.9379  1.2490  0.0997
 6525SOL    HW231038   3.161   3.419   2.390 -0.1221 -2.5990  0.9483
 6526SOL     OW31039   3.728   1.140  17.480  0.1131 -0.4806 -0.3503
 6526SOL    HW131040   3.793   1.160  17.547 -0.5326  0.3581  0.0210
 6526SOL    HW231041   3.735   1.221  17.428 -0.5675 -0.2728 -0.1121
 6527SOL     OW31042   4.629   4.397   2.783 -0.8496  0.5925  0.5423
 6527SOL    HW131043   4.590   4.310   2.776  0.4330 -0.0827  1.7793
 6527SOL    HW231044   4.709   4.377   2.832  0.0433 -0.2391 -1.2426
 6528SOL     OW31045   3.134   4.221   9.178  0.4505  0.0715 -0.2402
 6528SOL    HW131046   3.065   4.262   9.126 -1.1816 -0.9429  1.1504
 6528SOL    HW231047   3.138   4.137   9.133 -0.8822 -1.6802  2.9501
 6529SOL     OW31048   0.155   4.677   3.370  0.0313 -0.3066  0.2697
 6529SOL    HW131049   0.158   4.682   3.275  1.3400  1.3144  0.3852
 6529SOL    HW231050   0.235   4.720   3.403  0.2444  0.5453 -1.3679
 6530SOL     OW31051   0.059   3.936   7.107 -0.1042  1.2783  0.5899
 6530SOL    HW131052   0.083   3.861   7.052  0.1059  1.6553  0.1700
 6530SOL    HW231053   0.005   3.891   7.171  2.1270  0.9988  2.2615
 6531SOL     OW31054   3.300   3.882  15.939  0.8527  0.4494  0.2746
 6531SOL    HW131055   3.227   3.822  15.953 -0.0834  1.1747 -1.5086
 6531SOL    HW231056   3.317   3.912  16.029  0.0055  1.5024  0.0766
 6532SOL     OW31057   0.703   2.461   8.455 -0.4350 -0.4132 -0.0526
 6532SOL    HW131058   0.613   2.491   8.442 -0.8074 -2.0071 -1.2310
 6532SOL    HW231059   0.702   2.425   8.543 -0.7062  0.9737  0.5046
 6533SOL     OW31060   2.132   0.307   4.037  0.1775  0.0445  0.7117
 6533SOL    HW131061   2.149   0.226   3.989 -1.6508 -0.0380  0.1758
 6533SOL    HW231062   2.217   0.306   4.079  0.8434  1.5666 -0.6089
 6534SOL     OW31063   3.986   3.786   5.891  0.0005  0.5347  0.3708
 6534SOL    HW131064   3.948   3.862   5.936 -1.6296  1.1786 -2.0662
 6534SOL    HW231065   3.937   3.714   5.929  0.5988 -1.3390 -2.4461
 6535SOL     OW31066   0.239   1.151   3.524  0.4347 -0.2515 -0.1880
 6535SOL    HW131067   0.144   1.151   3.517  0.2747 -2.8797  1.7971
 6535SOL    HW231068   0.236   1.098   3.604 -2.4644 -0.1347 -0.2262
 6536SOL     OW31069   0.036   0.795   5.843  0.0540  0.2970 -0.0855
 6536SOL    HW131070   0.069   0.768   5.929  1.5505  0.5251 -0.5850
 6536SOL    HW231071   4.691   0.851   5.878 -0.7116 -1.5370  1.2848
 6537SOL     OW31072   2.108   2.802   3.969 -0.2535 -0.5153  0.4958
 6537SOL    HW131073   2.167   2.734   3.936 -1.2344 -1.0954 -0.0459
 6537SOL    HW231074   2.175   2.845   4.023  0.3228 -2.8383  1.6287
 6538SOL     OW31075   0.272   1.131   2.441  0.3609  0.1611 -0.0954
 6538SOL    HW131076   0.183   1.167   2.433  0.7749  1.0788 -0.5802
 6538SOL    HW231077   0.320   1.159   2.363 -0.2436  1.8915  0.1479
 6539SOL     OW31078   2.184   1.051  15.825  0.2908  0.1316  0.0597
 6539SOL    HW131079   2.210   1.096  15.745 -0.1228 -2.2771 -1.4326
 6539SOL    HW231080   2.263   1.000  15.843 -0.2281  0.4848  3.2448
 6540SOL     OW31081   3.450   1.018  15.265  0.4768  0.2833 -0.0987
 6540SOL    HW131082   3.444   1.113  15.281  1.6403  0.6661 -2.0578
 6540SOL    HW231083   3.497   1.024  15.182  2.6292  2.1686  1.2425
 6541SOL     OW31084   3.406   0.834  13.362  0.0524 -0.1310 -0.1651
 6541SOL    HW131085   3.366   0.747  13.350  0.5656 -0.1807 -1.5441
 6541SOL    HW231086   3.351   0.886  13.304 -1.3961 -0.1161  1.2318
 6542SOL     OW31087   3.480   0.378  14.223 -0.0971  0.0945 -0.2957
 6542SOL    HW131088   3.506   0.430  14.299  3.5800 -4.4432  1.6228
 6542SOL    HW231089   3.453   0.450  14.167 -2.2414 -1.0505 -0.7345
 6543SOL     OW31090   0.159   4.365   8.833 -0.4399 -0.0597 -0.4888
 6543SOL    HW131091   0.151   4.294   8.897  0.9688 -0.2036 -0.4771
 6543SOL    HW231092   0.165   4.315   8.752 -0.7616  0.7012 -0.9844
 6544SOL     OW31093   4.704   2.757  14.119 -0.0486  0.6500 -0.0501
 6544SOL    HW131094   4.706   2.716  14.205  0.8335  1.3303  0.2608
 6544SOL    HW231095   0.057   2.813  14.119 -2.2141  3.6851 -0.9738
 6545SOL     OW31096   1.884   1.595  13.053  0.1801  0.1005 -0.1798
 6545SOL    HW131097   1.963   1.589  13.107 -0.3092  1.8955  0.7573
 6545SOL    HW231098   1.891   1.685  13.020 -0.6164 -0.0953 -0.8547
 6546SOL     OW31099   3.755   3.269  14.488  0.2155  0.0576 -0.9305
 6546SOL    HW131100   3.701   3.192  14.472 -0.4957  0.4773 -0.5206
 6546SOL    HW231101   3.788   3.264  14.578  0.3125 -0.0468 -0.9722
 6547SOL     OW31102   2.148   0.750   4.883 -0.2128  0.0404  0.5031
 6547SOL    HW131103   2.212   0.681   4.869 -0.8304 -0.4217 -0.0040
 6547SOL    HW231104   2.155   0.792   4.798 -2.2811  1.6448  1.1334
 6548SOL     OW31105   2.173   4.388   2.480  0.3714  0.4182  0.5389
 6548SOL    HW131106   2.266   4.375   2.465  0.3823 -1.8107  2.4198
 6548SOL    HW231107   2.137   4.398   2.392  0.0053  3.9807  1.0998
 6549SOL     OW31108   0.211   0.244   5.287  0.7644 -0.0668  0.3298
 6549SOL    HW131109   0.164   0.238   5.370 -0.6105  3.3205 -0.1910
 6549SOL    HW231110   0.289   0.295   5.308  0.1912 -0.0159  2.3274
 6550SOL     OW31111   3.108   0.263   0.355  0.5571  0.0764 -0.1373
 6550SOL    HW131112   3.191   0.216   0.360  0.8032  0.6874  1.4535
 6550SOL    HW231113   3.131   0.325   0.286 -0.4642 -0.6052 -1.1012
 6551SOL     OW31114   1.279   3.146   8.047 -0.2215 -0.0285 -0.2606
 6551SOL    HW131115   1.194   3.166   8.009 -1.0888  1.5590  2.5412
 6551SOL    HW231116   1.282   3.192   8.131  1.1642 -1.3370  0.4107
 6552SOL     OW31117   1.869   3.612   5.071 -0.1652 -0.0423 -0.3354
 6552SOL    HW131118   1.810   3.686   5.085  0.3922  0.3268  0.0352
 6552SOL    HW231119   1.936   3.652   5.015 -0.0261  1.1384  0.6745
 6553SOL     OW31120   3.893   3.134   6.925  0.7197  0.0871 -0.2230
 6553SOL    HW131121   3.967   3.075   6.942  0.5481 -0.3724 -1.0967
 6553SOL    HW231122   3.827   3.074   6.891  0.5256  0.9224 -1.2917
 6554SOL     OW31123   1.655   2.242   7.120  0.3451 -0.3533 -0.0890
 6554SOL    HW131124   1.602   2.224   7.042  1.8008  1.2798 -1.4480
 6554SOL    HW231125   1.600   2.283   7.186 -0.2516  1.1547 -1.5133
 6555SOL     OW31126   4.008   3.114   2.489  0.4753 -0.3737 -0.1385
 6555SOL    HW131127   4.073   3.078   2.428  1.3661  1.0452 -0.0060
 6555SOL    HW231128   3.928   3.088   2.445 -0.1891 -1.1207  1.5070
 6556SOL     OW31129   1.056   0.987   3.148  1.0934 -0.5631 -0.0751
 6556SOL    HW131130   1.111   1.013   3.221 -0.5362  2.3892  0.0667
 6556SOL    HW231131   1.008   1.069   3.133  0.9912 -0.1355  2.7181
 6557SOL     OW31132   1.247   0.297   7.292  0.3265  0.2252  0.0148
 6557SOL    HW131133   1.329   0.263   7.255  0.5092  0.9053 -0.2136
 6557SOL    HW231134   1.214   0.345   7.216 -2.3041 -1.2972  0.1944
 6558SOL     OW31135   3.326   3.593   0.254 -0.4634  0.3090  0.0498
 6558SOL    HW131136   3.284   3.524   0.305  0.1967 -0.2091 -0.1058
 6558SOL    HW231137   3.390   3.638   0.310  1.6698 -3.1381  0.4260
 6559SOL     OW31138   4.454   3.991  13.373 -0.0607 -0.2900 -0.7010
 6559SOL    HW131139   4.430   3.909  13.416  0.5263  0.4462  1.0013
 6559SOL    HW231140   4.365   4.027  13.366 -0.1273 -0.5933 -1.4752
 6560SOL     OW31141   3.894   1.877   5.168 -0.0590  0.1004 -0.4065
 6560SOL    HW131142   3.877   1.870   5.262  2.5358 -1.6972 -0.0684
 6560SOL    HW231143   3.808   1.905   5.138 -0.4944 -0.0289  0.7215
 6561SOL     OW31144   2.176   3.545   9.810 -0.2616  0.3115 -0.0472
 6561SOL    HW131145   2.217   3.529   9.895 -1.8031 -1.5942  0.3210
 6561SOL    HW231146   2.250   3.504   9.764  0.3557  0.8773  0.4426
 6562SOL     OW31147   0.963   4.079   2.936  0.4276 -0.2475  0.1027
 6562SOL    HW131148   1.033   4.041   2.988  1.7535  1.0632 -0.7312
 6562SOL    HW231149   0.905   4.114   3.004 -0.9754 -0.0853 -1.1482
 6563SOL     OW31150   1.994   1.008   6.503 -0.3246 -0.1243  0.3673
 6563SOL    HW131151   1.923   0.958   6.543 -0.2978  0.8968  1.7088
 6563SOL    HW231152   2.004   0.949   6.429  0.5578  0.7948 -0.2326
 6564SOL     OW31153   3.024   2.798   5.261  0.6265 -0.2142 -0.5496
 6564SOL    HW131154   2.932   2.805   5.288  0.8168  1.8223 -0.4228
 6564SOL    HW231155   3.035   2.706   5.237 -0.2245  0.0436 -1.9148
 6565SOL     OW31156   4.685   0.650   2.073  0.2399 -0.3886 -0.4170
 6565SOL    HW131157   0.033   0.589   2.079 -1.6935 -2.8236 -1.5044
 6565SOL    HW231158   4.716   0.719   2.131 -1.1521 -0.8245  0.8488
 6566SOL     OW31159   3.060   1.390   3.956 -0.1877 -0.5231  0.2106
 6566SOL    HW131160   3.085   1.309   3.912  2.1775  0.4054 -0.1255
 6566SOL    HW231161   3.048   1.453   3.884  0.8141 -0.1268  0.3867
 6567SOL     OW31162   2.230   1.634   0.228  0.0888 -0.3493 -0.3213
 6567SOL    HW131163   2.225   1.726   0.205 -0.8821 -0.8528 -2.1402
 6567SOL    HW231164   2.160   1.607   0.167 -0.1823 -1.2770  0.3994
 6568SOL     OW31165   4.249   2.121   5.570  0.2418  0.6949 -0.5516
 6568SOL    HW131166   4.263   2.111   5.476  2.2723 -1.2078 -0.0520
 6568SOL    HW231167   4.268   2.032   5.601 -2.4017 -0.1944 -1.4351
 6569SOL     OW31168   0.368   0.136   3.824 -0.2081 -0.1803  0.2060
 6569SOL    HW131169   0.417   0.069   3.873 -0.2686  1.0641  1.9337
 6569SOL    HW231170   0.429   0.153   3.751 -0.8862  2.6707  0.3254
 6570SOL     OW31171   0.052   3.978  10.553  0.5433  0.2830 -0.2835
 6570SOL    HW131172   0.138   3.981  10.510 -0.7732  2.2379 -2.7801
 6570SOL    HW231173   4.717   3.971  10.479 -0.4697 -1.9805  0.7521
 6571SOL     OW31174   3.740   3.267   2.536 -0.3230  0.1433  0.6663
 6571SOL    HW131175   3.813   3.281   2.475 -0.8354 -2.0796 -0.4521
 6571SOL    HW231176   3.663   3.298   2.488 -0.0066  0.9536  0.6835
 6572SOL     OW31177   4.566   0.792   6.405 -0.0532 -0.3615 -0.1550
 6572SOL    HW131178   4.525   0.707   6.394 -1.6527  0.2053  1.2885
 6572SOL    HW231179   4.501   0.844   6.358 -0.0041  0.4033  0.6101
 6573SOL     OW31180   4.597   4.147   1.762 -0.2672  0.3788  0.0300
 6573SOL    HW131181   4.665   4.104   1.814 -1.6454 -0.6242  0.9921
 6573SOL    HW231182   4.601   4.090   1.686 -0.6738 -1.5263  1.4322
 6574SOL     OW31183   2.508   2.377   5.868 -0.2019 -0.1468 -0.1771
 6574SOL    HW131184   2.583   2.431   5.893 -0.1909 -0.5091  0.5625
 6574SOL    HW231185   2.506   2.362   5.773 -0.8161 -2.2916  0.1652
 6575SOL     OW31186   1.704   4.051   1.736  0.3704 -0.1426 -0.1645
 6575SOL    HW131187   1.682   3.963   1.704 -1.8664  1.1226 -2.0761
 6575SOL    HW231188   1.643   4.109   1.692  0.0960 -0.5984 -0.3790
 6576SOL     OW31189   3.588   2.224   3.547 -0.1974 -0.0540  0.0379
 6576SOL    HW131190   3.675   2.225   3.586 -0.4032  2.2934  0.4658
 6576SOL    HW231191   3.597   2.301   3.490 -0.4648  0.2767  0.4397
 6577SOL     OW31192   1.375   2.037   0.052  1.3622 -0.3534  0.3414
 6577SOL    HW131193   1.395   2.099  17.684 -0.2448 -2.1944 -1.7095
 6577SOL    HW231194   1.319   2.092   0.107 -0.8099 -0.3141 -1.9362
 6578SOL     OW31195   4.279   3.007  10.945  0.0925 -0.4955  0.0518
 6578SOL    HW131196   4.223   3.024  11.021  0.6800 -2.2683  0.8783
 6578SOL    HW231197   4.230   2.931  10.916 -0.5008 -0.4366  0.8889
 6579SOL     OW31198   1.841   4.459   5.198 -0.5033 -0.2618  0.2791
 6579SOL    HW131199   1.882   4.490   5.278 -2.7203  1.7346  0.6179
 6579SOL    HW231200   1.753   4.452   5.234 -1.1684  1.2823 -1.0836
 6580SOL     OW31201   0.824   3.755  16.508 -0.3494  0.1847 -0.5709
 6580SOL    HW131202   0.829   3.660  16.506 -0.0831  0.1965 -0.4825
 6580SOL    HW231203   0.908   3.786  16.542  0.5997  0.2897 -3.0049
 6581SOL     OW31204   0.470   4.339   4.898 -0.1983  0.0013  0.3667
 6581SOL    HW131205   0.437   4.255   4.866  0.8028 -1.0752  2.1792
 6581SOL    HW231206   0.478   4.382   4.812  1.6626 -1.0924 -0.0187
 6582SOL     OW31207   0.563   4.061   4.420  0.2171  0.2398  0.3051
 6582SOL    HW131208   0.477   4.020   4.408  0.0375  0.0262  2.4144
 6582SOL    HW231209   0.533   4.150   4.402  0.8806 -0.1482 -2.7179
 6583SOL     OW31210   0.133   2.231   3.078  0.1545 -0.5891 -0.0585
 6583SOL    HW131211   0.067   2.267   3.018 -0.6921 -0.0190  1.1966
 6583SOL    HW231212   0.185   2.311   3.088 -1.7273  0.6148  0.2809
 6584SOL     OW31213   0.031   3.659   9.634  0.0946  0.2223 -0.1799
 6584SOL    HW131214   0.047   3.728   9.698  1.3256  1.4593 -1.8279
 6584SOL    HW231215   4.696   3.606   9.685  2.1040 -1.6767  0.2621
 6585SOL     OW31216   2.765   2.340  15.620 -0.1774 -0.5915 -0.0295
 6585SOL    HW131217   2.837   2.308  15.566  0.0245 -0.8219  0.3836
 6585SOL    HW231218   2.813   2.402  15.674 -1.8520 -0.3424  1.1629
 6586SOL     OW31219   3.623   2.055  16.162  0.1652 -0.6868 -0.2015
 6586SOL    HW131220   3.645   2.130  16.217 -0.2603 -0.9135  0.2748
 6586SOL    HW231221   3.673   1.985  16.202 -0.1240 -0.0014  1.3493
 6587SOL     OW31222   2.650   0.797  10.185 -0.2080  0.0091 -0.0744
 6587SOL    HW131223   2.703   0.811  10.263 -0.3489  2.4636 -0.4313
 6587SOL    HW231224   2.679   0.708  10.163  2.3372  0.8110  0.0451
 6588SOL     OW31225   1.393   1.692   9.967 -0.3549 -0.3543  0.2279
 6588SOL    HW131226   1.302   1.675   9.944  0.4998 -1.9864 -2.0204
 6588SOL    HW231227   1.429   1.706   9.880 -0.6047  2.2829  0.5634
 6589SOL     OW31228   4.630   3.864  13.884 -0.4967  0.0381  0.1519
 6589SOL    HW131229   4.544   3.822  13.882 -0.5810  0.3033 -2.3536
 6589SOL    HW231230   4.686   3.797  13.844  0.3587 -0.3023  1.9375
 6590SOL     OW31231   0.043   0.866  10.685 -0.1877 -0.3994  0.1272
 6590SOL    HW131232   4.680   0.902  10.690  0.3914  0.7916  1.6716
 6590SOL    HW231233   0.090   0.917  10.619  1.0282  0.6660  1.8244
 6591SOL     OW31234   0.199   0.156  15.370  0.0210  0.0644 -0.3705
 6591SOL    HW131235   0.252   0.106  15.432 -1.3366 -3.1084 -1.7181
 6591SOL    HW231236   0.264   0.218  15.338 -0.0821  0.0529 -0.6098
 6592SOL     OW31237   4.324   1.265   5.208  0.2415 -0.5010  0.0109
 6592SOL    HW131238   4.323   1.303   5.121 -1.3933  2.2289  1.2092
 6592SOL    HW231239   4.304   1.173   5.189  1.0470 -0.6670 -0.0527
 6593SOL     OW31240   0.415   3.847   6.680 -0.4118  0.1913 -0.1950
 6593SOL    HW131241   0.440   3.853   6.588 -0.7284 -1.1815 -0.3584
 6593SOL    HW231242   0.414   3.755   6.704 -0.0572 -0.1457 -1.4567
 6594SOL     OW31243   4.233   1.562   4.309 -0.0334 -0.2958 -0.1376
 6594SOL    HW131244   4.200   1.647   4.338  0.2087 -0.5311  0.8266
 6594SOL    HW231245   4.276   1.588   4.227  0.5290 -1.8607 -0.3406
 6595SOL     OW31246   3.278   1.473   9.792 -0.2541  0.5607 -0.2406
 6595SOL    HW131247   3.211   1.503   9.732  1.0341 -0.1295 -2.0229
 6595SOL    HW231248   3.346   1.539   9.780 -0.9434  1.4408  0.7879
 6596SOL     OW31249   1.690   3.926  16.390 -0.6080  0.4369 -0.6129
 6596SOL    HW131250   1.669   3.896  16.478 -1.3119 -2.1335 -1.6778
 6596SOL    HW231251   1.625   3.996  16.387 -1.8192 -0.5913  1.6305
 6597SOL     OW31252   1.018   0.271   6.312 -0.0951 -0.2729  0.0176
 6597SOL    HW131253   1.061   0.248   6.395  0.6562 -0.4681 -0.4215
 6597SOL    HW231254   1.003   0.183   6.277  0.5875  0.1411 -1.2953
 6598SOL     OW31255   0.117   2.298   9.791 -0.2368 -0.3327  0.6485
 6598SOL    HW131256   0.023   2.302   9.774 -0.2528  0.4179  0.8953
 6598SOL    HW231257   0.132   2.212   9.752  2.4933  0.4224  0.1002
 6599SOL     OW31258   4.296   3.494   5.282  0.0635  0.8347  0.0377
 6599SOL    HW131259   4.353   3.570   5.268  0.1799  0.8641  0.6922
 6599SOL    HW231260   4.332   3.441   5.211  1.0773  1.6090 -0.0303
 6600SOL     OW31261   0.690   4.078  16.839 -0.4619  0.4536 -0.4613
 6600SOL    HW131262   0.601   4.066  16.871 -0.3888 -1.3598 -0.9368
 6600SOL    HW231263   0.695   4.008  16.774 -1.3243  0.9613 -1.0700
 6601SOL     OW31264   2.561   0.566   3.442  0.0790  0.0118 -0.4011
 6601SOL    HW131265   2.521   0.543   3.526  1.2945  3.1181  1.0597
 6601SOL    HW231266   2.625   0.496   3.426  0.9402  1.3276 -2.7237
 6602SOL     OW31267   0.361   2.332   4.403  0.4706 -0.3701 -0.1127
 6602SOL    HW131268   0.360   2.240   4.375  1.0918 -0.3469 -0.2127
 6602SOL    HW231269   0.270   2.342   4.430  0.8380  0.1230  0.9357
 6603SOL     OW31270   4.640   2.317   7.540 -0.0848 -0.0599  0.5350
 6603SOL    HW131271   0.007   2.318   7.562 -0.3906 -2.1331  1.9587
 6603SOL    HW231272   4.637   2.374   7.463 -0.1286 -1.0071 -0.1781
 6604SOL     OW31273   3.838   4.410   7.321 -0.3157 -0.2273 -0.2439
 6604SOL    HW131274   3.853   4.331   7.374 -0.6211  0.5262  0.9585
 6604SOL    HW231275   3.752   4.392   7.283  0.6792 -0.0586 -2.5659
 6605SOL     OW31276   1.529   3.940   0.288  0.4363 -0.0766 -0.1311
 6605SOL    HW131277   1.616   3.937   0.246 -0.3029  1.9442 -1.8073
 6605SOL    HW231278   1.556   3.966   0.376 -1.7103  1.7442 -0.0246
 6606SOL     OW31279   0.772   0.131  14.880 -0.0734 -0.6032  0.4130
 6606SOL    HW131280   0.761   0.165  14.968  1.0267  0.9881 -0.0423
 6606SOL    HW231281   0.795   0.217  14.845  1.7931 -1.3604 -0.2313
 6607SOL     OW31282   1.621   2.285   2.931  0.7688  0.2229 -0.5063
 6607SOL    HW131283   1.679   2.322   2.865  1.0883  0.4101 -0.1268
 6607SOL    HW231284   1.649   2.333   3.009  0.5637  1.9388 -1.5030
 6608SOL     OW31285   2.264   3.261   1.803  0.9024 -0.5101  0.2303
 6608SOL    HW131286   2.332   3.305   1.751  1.1285 -0.6373  0.4197
 6608SOL    HW231287   2.195   3.326   1.818  0.2649 -0.7857 -1.5902
 6609SOL     OW31288   1.790   2.933   8.352 -0.3507  0.9508 -0.5383
 6609SOL    HW131289   1.816   3.025   8.347  0.3815  0.7337 -0.7287
 6609SOL    HW231290   1.875   2.894   8.374 -0.9566  0.2283  0.5771
 6610SOL     OW31291   2.659   0.050   6.821 -0.3454 -0.1669  0.0012
 6610SOL    HW131292   2.594   4.707   6.834  0.1205 -0.4031  1.0952
 6610SOL    HW231293   2.743   0.004   6.816  0.3180  0.6510  2.9477
 6611SOL     OW31294   1.085   3.971  17.008  0.1013 -0.1939 -0.2098
 6611SOL    HW131295   1.154   3.955  17.073  0.7162  0.8549 -0.5921
 6611SOL    HW231296   1.027   3.898  17.028 -0.1747  0.4914  1.5025
 6612SOL     OW31297   3.600   4.721  17.018  0.4076  0.4125  0.1563
 6612SOL    HW131298   3.632   4.716  16.928 -0.9833 -0.2763 -0.3097
 6612SOL    HW231299   3.511   0.030  17.008 -0.4580 -1.1347  2.6076
 6613SOL     OW31300   2.752   1.145   3.299 -0.1918 -0.1552 -0.1083
 6613SOL    HW131301   2.765   1.185   3.385 -0.8678 -0.0684 -0.0474
 6613SOL    HW231302   2.842   1.145   3.266 -0.6658  0.4182 -1.4002
 6614SOL     OW31303   1.609   3.125   9.355  1.3441 -0.3256 -0.2759
 6614SOL    HW131304   1.599   3.171   9.438  0.0177 -2.0294  0.5138
 6614SOL    HW231305   1.665   3.052   9.382  1.1048 -0.1180  0.7588
 6615SOL     OW31306   0.206   4.326   7.070  0.3451  0.3782  0.2063
 6615SOL    HW131307   0.150   4.335   6.992 -0.9026 -1.9858  0.8239
 6615SOL    HW231308   0.217   4.231   7.081 -0.8959  0.2067  0.0070
 6616SOL     OW31309   3.066   0.430   8.200  0.2646 -0.1038 -0.0999
 6616SOL    HW131310   2.992   0.370   8.203 -2.1138  2.7067 -1.8955
 6616SOL    HW231311   3.090   0.447   8.109  0.5190  0.4870  0.0810
 6617SOL     OW31312   4.456   3.910   7.471  0.1680  0.0482 -0.4195
 6617SOL    HW131313   4.484   3.953   7.390 -1.5166 -0.0925 -1.0939
 6617SOL    HW231314   4.542   3.893   7.510 -0.1994 -2.4763 -0.7140
 6618SOL     OW31315   3.213   3.184  10.441 -0.5620 -0.4425  0.1402
 6618SOL    HW131316   3.196   3.090  10.437  1.6560 -0.9054  1.6460
 6618SOL    HW231317   3.122   3.214  10.432 -0.2215  0.4904 -0.2409
 6619SOL     OW31318   1.787   4.087   1.984  0.2077 -0.5680 -0.2356
 6619SOL    HW131319   1.780   4.066   1.891 -2.2113 -0.6374 -0.0237
 6619SOL    HW231320   1.729   4.022   2.023 -0.2913 -1.9999 -3.3055
 6620SOL     OW31321   3.811   4.622   7.132  0.2523  0.4185  0.8467
 6620SOL    HW131322   3.819   4.557   7.202  2.8197 -1.3172 -1.0764
 6620SOL    HW231323   3.809   4.565   7.055  1.4003  0.5132  0.7589
 6621SOL     OW31324   3.271   3.749   4.090 -0.4545 -0.2593 -0.0282
 6621SOL    HW131325   3.262   3.764   4.184  1.5429  2.1005 -0.2059
 6621SOL    HW231326   3.262   3.654   4.081 -1.6089  0.1677 -3.6121
 6622SOL     OW31327   1.941   4.514   5.442 -0.3862 -0.5873 -0.1272
 6622SOL    HW131328   2.012   4.571   5.471 -1.0456 -0.8769  2.1054
 6622SOL    HW231329   1.867   4.551   5.490 -0.0431 -1.0636  0.7725
 6623SOL     OW31330   1.788   0.606  14.474  0.9055  0.1463 -0.1348
 6623SOL    HW131331   1.791   0.685  14.420  0.9382 -1.1774 -2.0404
 6623SOL    HW231332   1.856   0.636  14.535 -0.2700 -0.7948  1.6460
 6624SOL     OW31333   2.708   2.651   6.787 -0.6085 -0.1277 -0.3937
 6624SOL    HW131334   2.704   2.707   6.710 -0.7113 -1.3744 -1.2936
 6624SOL    HW231335   2.656   2.577   6.754 -0.7058 -0.4835  0.5351
 6625SOL     OW31336   2.003   4.619   0.857  0.2963  0.0707 -0.5994
 6625SOL    HW131337   2.040   4.707   0.853  2.4398 -0.6588  2.9011
 6625SOL    HW231338   2.060   4.574   0.795  0.8129  0.7236 -0.5917
 6626SOL     OW31339   0.425   1.846   4.882  0.6664  0.1144 -0.2206
 6626SOL    HW131340   0.471   1.836   4.965  0.0395  0.0013  0.1127
 6626SOL    HW231341   0.373   1.925   4.897  0.2102 -0.3406  0.5613
 6627SOL     OW31342   4.364   2.363  10.023 -0.4451  0.5916  0.1745
 6627SOL    HW131343   4.293   2.300  10.036 -0.3536  0.8756  2.1328
 6627SOL    HW231344   4.363   2.428  10.093  0.9924  2.2677 -1.3829
 6628SOL     OW31345   2.765   0.352  15.576  0.1009  0.2176  0.0258
 6628SOL    HW131346   2.806   0.385  15.496  0.1610 -1.7300 -0.7360
 6628SOL    HW231347   2.815   0.398  15.643  0.2769  0.2038 -0.0955
 6629SOL     OW31348   1.810   1.803   9.133 -0.0651  0.2536  0.1848
 6629SOL    HW131349   1.723   1.836   9.155 -0.4765  0.6845 -2.0495
 6629SOL    HW231350   1.827   1.846   9.049  2.8331  2.0853  1.7096
 6630SOL     OW31351   1.233   4.024   3.106  0.4750  0.2919  0.2315
 6630SOL    HW131352   1.197   4.009   3.193 -2.1043  2.2469 -0.4655
 6630SOL    HW231353   1.226   4.119   3.105 -0.0732  0.2651  1.2105
 6631SOL     OW31354   3.753   2.598   5.698 -0.1750 -0.5166 -0.0665
 6631SOL    HW131355   3.662   2.575   5.679 -0.4086  1.2787 -1.1093
 6631SOL    HW231356   3.745   2.607   5.793  1.5352  1.1921 -0.0805
 6632SOL     OW31357   4.583   4.396  11.654 -0.1924 -0.1176 -0.2759
 6632SOL    HW131358   4.571   4.394  11.749 -1.1413  0.1949 -0.3814
 6632SOL    HW231359   4.581   4.302  11.638  0.2959 -0.1177 -0.3219
 6633SOL     OW31360   3.249   0.116  17.518 -0.4099 -0.0647  0.1164
 6633SOL    HW131361   3.228   0.130  17.425 -0.8516 -1.0647  0.0606
 6633SOL    HW231362   3.160   0.102  17.548 -1.3596  1.6812 -1.9240
 6634SOL     OW31363   1.387   3.114  10.960 -0.4753 -0.3066  0.2409
 6634SOL    HW131364   1.389   3.059  11.038  0.9889 -1.3225 -0.5002
 6634SOL    HW231365   1.400   3.205  10.987 -0.8568 -0.7477  1.9303
 6635SOL     OW31366   3.856   3.602   6.053  0.4625 -0.7878 -0.2635
 6635SOL    HW131367   3.827   3.569   6.139  1.0963  2.5866  1.2484
 6635SOL    HW231368   3.836   3.525   6.000  0.0024 -1.0752  0.3237
 6636SOL     OW31369   0.751   3.657   3.640  0.4988  0.2837 -0.0547
 6636SOL    HW131370   0.664   3.656   3.601  1.2409  0.5955 -1.7083
 6636SOL    HW231371   0.804   3.596   3.589 -2.7100 -0.1333 -2.8562
 6637SOL     OW31372   4.458   1.019  12.369  0.2823  0.4437 -1.0176
 6637SOL    HW131373   4.376   0.969  12.369  1.1155 -0.9182  1.2683
 6637SOL    HW231374   4.495   0.993  12.285  1.8535 -1.0741  0.1639
 6638SOL     OW31375   1.842   3.320   3.822  0.5179  0.0722 -0.4551
 6638SOL    HW131376   1.923   3.346   3.778  0.1302 -0.0336 -1.2195
 6638SOL    HW231377   1.838   3.394   3.883  0.7419  0.3180 -0.7405
 6639SOL     OW31378   0.110   0.802  15.875  0.6135 -0.2696  0.0798
 6639SOL    HW131379   0.165   0.794  15.953  1.4280 -0.1978 -0.4816
 6639SOL    HW231380   0.031   0.753  15.896 -0.9100  0.2402 -4.4910
 6640SOL     OW31381   4.257   1.975   4.806 -0.1372 -0.2760 -0.1250
 6640SOL    HW131382   4.277   1.932   4.888  0.2502  1.3232  0.6284
 6640SOL    HW231383   4.162   1.977   4.818 -0.0506 -0.4099  0.5641
 6641SOL     OW31384   4.036   3.414   5.844  0.5472 -0.5284  0.1211
 6641SOL    HW131385   3.945   3.416   5.874  0.2738 -1.2889 -0.6476
 6641SOL    HW231386   4.079   3.348   5.898 -0.8445 -0.9186  0.7647
 6642SOL     OW31387   0.490   3.451  13.468 -0.2688  0.7778 -0.3539
 6642SOL    HW131388   0.530   3.384  13.413  0.6609  0.3691  0.8008
 6642SOL    HW231389   0.402   3.443  13.431  0.1290  0.1454 -1.1614
 6643SOL     OW31390   4.259   0.683  12.202  0.5478 -0.2330  0.7892
 6643SOL    HW131391   4.208   0.631  12.140  2.0692 -0.6929 -0.0806
 6643SOL    HW231392   4.267   0.763  12.149 -0.0365  0.5232  1.8458
 6644SOL     OW31393   2.719   0.899   8.689  0.4498 -0.7456 -0.1778
 6644SOL    HW131394   2.710   0.842   8.613  2.8622  0.5196 -1.4149
 6644SOL    HW231395   2.703   0.983   8.645 -0.7773 -0.8145  0.1366
 6645SOL     OW31396   3.492   3.934   2.538 -0.9389  0.2051  0.2213
 6645SOL    HW131397   3.409   3.927   2.491 -0.9391 -2.3499  0.6149
 6645SOL    HW231398   3.518   3.844   2.561  0.3805  0.5954  0.2570
 6646SOL     OW31399   2.498   2.865   1.439 -0.2374 -0.3919  0.7403
 6646SOL    HW131400   2.586   2.902   1.441  0.4996 -2.0531 -1.1693
 6646SOL    HW231401   2.478   2.877   1.532  1.3769 -2.1157  1.3147
 6647SOL     OW31402   0.370   2.385   6.921  0.1157  0.2646 -0.1947
 6647SOL    HW131403   0.292   2.335   6.897 -1.2892  2.5124 -0.3353
 6647SOL    HW231404   0.408   2.328   6.987 -4.4658 -0.4241  1.8054
 6648SOL     OW31405   0.902   0.786   9.531  0.5180 -0.1381 -0.5525
 6648SOL    HW131406   0.908   0.741   9.446  0.1567 -0.9352 -0.1628
 6648SOL    HW231407   0.948   0.723   9.586  0.3961 -0.9192 -1.3221
 6649SOL     OW31408   1.309   4.391   1.879  0.1773  0.0626 -0.3666
 6649SOL    HW131409   1.243   4.455   1.851  0.8403 -0.6289 -3.4071
 6649SOL    HW231410   1.302   4.324   1.812 -1.2826  0.8060 -0.9683
 6650SOL     OW31411   3.662   0.568   1.698 -0.0755  0.1267 -0.1913
 6650SOL    HW131412   3.622   0.492   1.654  1.1242 -0.9158  0.5329
 6650SOL    HW231413   3.674   0.627   1.623  1.2598  1.2872  0.9436
 6651SOL     OW31414   1.138   1.487   4.983 -0.3710 -0.1948 -0.7236
 6651SOL    HW131415   1.211   1.430   5.004 -1.0326 -1.0843 -0.8364
 6651SOL    HW231416   1.172   1.560   4.930 -1.2472  0.7910  0.0685
 6652SOL     OW31417   0.116   3.607   2.602 -0.7082 -0.2516  0.3265
 6652SOL    HW131418   0.066   3.637   2.526  0.2108 -1.3982 -0.7251
 6652SOL    HW231419   0.185   3.552   2.565 -2.8717 -0.5417 -3.1923
 6653SOL     OW31420   0.041   3.095   6.503  0.2767 -0.0954  0.3141
 6653SOL    HW131421   0.016   3.037   6.431  0.3353  1.4773 -0.9856
 6653SOL    HW231422   0.069   3.175   6.457 -0.3626 -0.7054 -1.1555
 6654SOL     OW31423   0.591   3.336  10.222  1.0571 -0.2173 -0.4155
 6654SOL    HW131424   0.519   3.329  10.160  0.1942  2.9380  0.2040
 6654SOL    HW231425   0.645   3.265  10.189  1.4061  0.2645 -0.8841
 6655SOL     OW31426   2.985   1.903   1.530  0.2768 -0.5079 -0.0337
 6655SOL    HW131427   3.059   1.926   1.586 -0.3253 -0.0744  0.5883
 6655SOL    HW231428   2.917   1.954   1.576  1.2130  2.2216 -1.6732
 6656SOL     OW31429   0.423   4.289   4.626 -0.3623 -0.0937 -0.0990
 6656SOL    HW131430   0.342   4.256   4.587 -0.9848  2.0055 -0.5927
 6656SOL    HW231431   0.460   4.322   4.544  0.1294 -3.4155 -1.2035
 6657SOL     OW31432   0.169   2.490   6.303 -0.5758 -0.0080 -0.5346
 6657SOL    HW131433   0.213   2.405   6.304 -0.5062  0.0605  1.4315
 6657SOL    HW231434   0.245   2.542   6.276  1.0554 -2.2539 -0.3232
 6658SOL     OW31435   3.485   1.712   1.432  0.2601  0.0157 -0.0718
 6658SOL    HW131436   3.459   1.666   1.512 -0.7294  0.1844 -0.2996
 6658SOL    HW231437   3.498   1.641   1.369  0.5217 -1.0368  1.1731
 6659SOL     OW31438   0.557   3.645  12.347  0.2059 -0.6650 -0.5888
 6659SOL    HW131439   0.480   3.650  12.290 -0.1775  1.8822  0.1737
 6659SOL    HW231440   0.614   3.708  12.304  0.4267  0.6754  1.6578
 6660SOL     OW31441   0.775   4.620  16.491 -0.1155  0.4372  0.2547
 6660SOL    HW131442   0.847   4.605  16.553  0.8835  1.4387 -0.6588
 6660SOL    HW231443   0.699   4.588  16.540  0.2271  0.4358  0.7897
 6661SOL     OW31444   1.277   2.147   7.997  0.5950  0.2056  0.3493
 6661SOL    HW131445   1.232   2.212   8.052  0.6529 -0.8972  1.6827
 6661SOL    HW231446   1.334   2.211   7.955 -0.1168  0.2773 -0.5047
 6662SOL     OW31447   1.156   4.579   3.804 -0.0402 -0.1015 -0.0547
 6662SOL    HW131448   1.139   4.560   3.712 -1.5610  2.2745 -0.2683
 6662SOL    HW231449   1.135   4.671   3.821  1.6070  0.1102  0.9252
 6663SOL     OW31450   0.254   4.651   5.082  0.0795  0.4108 -0.0031
 6663SOL    HW131451   0.268   4.567   5.038  1.4942  0.6627 -0.0275
 6663SOL    HW231452   0.254   4.625   5.174  0.6820 -0.4645 -0.2494
 6664SOL     OW31453   0.682   2.977  12.951 -0.2814 -0.6508 -0.4855
 6664SOL    HW131454   0.764   2.965  12.999 -0.1187  1.8193 -0.1550
 6664SOL    HW231455   0.636   3.034  13.013 -1.0886 -2.7153  0.8157
 6665SOL     OW31456   3.187   3.652   8.415 -0.4073 -0.7255  0.6567
 6665SOL    HW131457   3.186   3.739   8.457  0.7880 -0.5226  0.2500
 6665SOL    HW231458   3.280   3.632   8.416 -0.0868  0.7652  0.6032
 6666SOL     OW31459   3.996   2.601   2.608 -1.1013 -0.2400  0.4605
 6666SOL    HW131460   3.937   2.676   2.618 -0.7876 -0.0576  0.9025
 6666SOL    HW231461   3.953   2.539   2.667 -0.1252 -0.8432  0.5249
 6667SOL     OW31462   0.817   2.570  13.232  0.2337 -0.2095 -0.1990
 6667SOL    HW131463   0.745   2.624  13.200 -0.3375 -0.0553  1.3650
 6667SOL    HW231464   0.895   2.620  13.209 -1.2356  2.6242  0.9643
 6668SOL     OW31465   2.358   1.338   3.322  0.0626 -0.0507 -0.1339
 6668SOL    HW131466   2.434   1.328   3.379 -0.1837  0.7646  0.3347
 6668SOL    HW231467   2.347   1.255   3.276  3.9419 -1.9419  2.3228
 6669SOL     OW31468   2.387   4.071  16.628 -0.4080 -0.2164  0.0134
 6669SOL    HW131469   2.381   4.017  16.707  0.9777  2.0913  1.6943
 6669SOL    HW231470   2.475   4.048  16.597 -0.5221 -0.2055 -0.3154
 6670SOL     OW31471   2.337   1.693   4.995  0.4006 -0.6137 -0.5409
 6670SOL    HW131472   2.355   1.694   5.089 -1.5012 -2.7416 -0.1592
 6670SOL    HW231473   2.418   1.734   4.966  0.0581 -0.5793 -1.4629
 6671SOL     OW31474   2.670   2.711   2.148 -0.3033  0.5660  0.1913
 6671SOL    HW131475   2.706   2.630   2.185  0.8513 -0.3697 -2.9852
 6671SOL    HW231476   2.601   2.685   2.087  0.9041  0.7345 -1.2250
 6672SOL     OW31477   3.999   4.600   4.654  0.4881  0.2063  0.2693
 6672SOL    HW131478   4.053   4.672   4.621 -1.3138  1.3058 -0.2366
 6672SOL    HW231479   3.984   4.638   4.741 -0.8934 -1.9630  0.9882
 6673SOL     OW31480   3.045   0.493   6.882  0.7728  0.0399 -0.0063
 6673SOL    HW131481   2.983   0.545   6.933  1.0329  1.4654 -1.1455
 6673SOL    HW231482   3.124   0.544   6.898  0.4470  0.2716  0.8591
 6674SOL     OW31483   1.507   4.587   2.619 -0.2850  0.0714  0.5306
 6674SOL    HW131484   1.570   4.657   2.604  1.8194 -2.1052 -0.6754
 6674SOL    HW231485   1.554   4.511   2.585  2.5213  1.5737  1.0910
 6675SOL     OW31486   2.187   1.858   7.176 -0.4544  0.3450  0.3141
 6675SOL    HW131487   2.235   1.916   7.117  1.3531  0.9038  2.3224
 6675SOL    HW231488   2.205   1.775   7.131  1.7483 -0.7086  3.1107
 6676SOL     OW31489   1.376   0.355   2.066  0.2094 -0.3399 -0.4444
 6676SOL    HW131490   1.294   0.323   2.028 -1.0415  1.0401  1.1326
 6676SOL    HW231491   1.361   0.449   2.064  0.1554 -0.3526 -0.7006
 6677SOL     OW31492   2.947   3.940  12.315  0.9203  0.2592  0.1983
 6677SOL    HW131493   2.888   3.865  12.317  0.4020  0.6574 -0.3233
 6677SOL    HW231494   3.026   3.910  12.361 -0.4681 -1.6547  1.3158
 6678SOL     OW31495   1.284   2.249   2.930 -0.0459 -0.3689 -0.1996
 6678SOL    HW131496   1.372   2.257   2.892  0.2359 -0.0318  0.5176
 6678SOL    HW231497   1.306   2.192   3.003  0.4859 -1.5468 -1.2815
 6679SOL     OW31498   3.405   3.648   4.512  0.2712  0.1977  0.3740
 6679SOL    HW131499   3.358   3.720   4.470  0.3410 -0.5230 -0.9576
 6679SOL    HW231500   3.491   3.659   4.471 -0.5773  2.3477 -0.8297
 6680SOL     OW31501   1.840   0.996   2.475  0.0851 -0.5465  0.1872
 6680SOL    HW131502   1.874   1.046   2.549  1.7476 -0.6468 -0.5172
 6680SOL    HW231503   1.858   1.050   2.398 -0.7248 -0.7073 -0.1190
 6681SOL     OW31504   0.566   2.793   7.862  0.1131  0.4408  0.2578
 6681SOL    HW131505   0.541   2.753   7.779  1.9690 -0.3536  0.0774
 6681SOL    HW231506   0.482   2.791   7.908  0.0856 -1.6685  0.1339
 6682SOL     OW31507   4.587   0.414   1.896  0.1321 -0.0702 -0.1779
 6682SOL    HW131508   4.562   0.502   1.867  0.5605  1.1140  3.0474
 6682SOL    HW231509   4.560   0.352   1.828  0.2045 -0.1819 -0.1028
 6683SOL     OW31510   3.715   3.119   3.583 -0.2069  0.5094  0.1332
 6683SOL    HW131511   3.645   3.110   3.518 -0.4965  1.1848  0.3481
 6683SOL    HW231512   3.697   3.209   3.610 -2.9270  0.0412 -0.0767
 6684SOL     OW31513   1.816   0.778   4.761  0.0533 -0.0656 -0.6386
 6684SOL    HW131514   1.737   0.772   4.815  1.5540  3.0186  1.8964
 6684SOL    HW231515   1.801   0.705   4.701  0.8227 -0.5383 -0.2594
 6685SOL     OW31516   0.869   0.773  16.319 -0.1861 -0.5855 -0.3666
 6685SOL    HW131517   0.928   0.806  16.251 -1.0273 -0.9682 -1.2766
 6685SOL    HW231518   0.927   0.782  16.395  0.0701  1.3653 -0.7990
 6686SOL     OW31519   4.145   2.859  10.604 -0.2681 -0.1567  0.1190
 6686SOL    HW131520   4.057   2.891  10.620 -0.6404 -0.6288 -0.9985
 6686SOL    HW231521   4.156   2.811  10.686  0.6177 -0.6707 -0.3025
 6687SOL     OW31522   3.801   0.412  16.084 -0.0082  0.0611 -0.7716
 6687SOL    HW131523   3.797   0.505  16.107  0.2577  0.2702 -1.5496
 6687SOL    HW231524   3.710   0.390  16.066 -0.1403 -0.0312  0.0210
 6688SOL     OW31525   2.687   2.701   1.670  0.1015  0.2271 -0.1553
 6688SOL    HW131526   2.613   2.748   1.707 -1.2114 -1.8367 -0.1811
 6688SOL    HW231527   2.752   2.734   1.733 -1.0624  3.0768 -0.4598
 6689SOL     OW31528   2.698   1.188   5.625 -0.6726 -0.1839 -0.1621
 6689SOL    HW131529   2.714   1.184   5.719  1.0253  0.8160 -0.4043
 6689SOL    HW231530   2.762   1.256   5.603  0.1703 -0.8363  0.2213
 6690SOL     OW31531   1.904   1.084   5.109 -0.1226  0.5796  0.1810
 6690SOL    HW131532   1.813   1.108   5.090 -0.3692  0.0545  0.6863
 6690SOL    HW231533   1.945   1.170   5.100 -0.5717  0.8263  0.4835
 6691SOL     OW31534   1.662   4.467   1.629 -0.6512 -0.4430  0.3365
 6691SOL    HW131535   1.748   4.507   1.630 -0.2487 -1.1883 -2.3002
 6691SOL    HW231536   1.608   4.506   1.560 -0.1136 -3.1620 -1.6609
 6692SOL     OW31537   1.611   4.222  11.077  0.4242  0.3143  0.0397
 6692SOL    HW131538   1.644   4.244  11.164  1.2143 -2.3936  0.4069
 6692SOL    HW231539   1.678   4.235  11.010  0.8638 -0.6370  0.2962
 6693SOL     OW31540   1.959   3.760   2.464  0.7151 -0.3011 -0.0715
 6693SOL    HW131541   1.996   3.737   2.379  1.0740  1.9752 -0.5215
 6693SOL    HW231542   2.033   3.812   2.496  1.2617 -0.6314 -0.8194
 6694SOL     OW31543   2.270   0.362   6.225 -0.1486 -0.0143 -0.2846
 6694SOL    HW131544   2.283   0.429   6.158  0.9738  1.8291  1.7968
 6694SOL    HW231545   2.274   0.278   6.180  2.7057 -0.0514  0.0515
 6695SOL     OW31546   0.518   2.789   3.737 -0.2658 -0.2175 -0.0626
 6695SOL    HW131547   0.558   2.703   3.724 -2.8495 -1.6094  1.3858
 6695SOL    HW231548   0.556   2.843   3.667  1.8601 -3.6127 -1.5041
 6696SOL     OW31549   2.009   3.572   1.580 -0.5401  0.0524  0.4354
 6696SOL    HW131550   2.057   3.555   1.661  2.7652 -0.2091 -1.5593
 6696SOL    HW231551   1.921   3.557   1.614 -0.9987 -2.4336 -1.8049
 6697SOL     OW31552   4.065   3.724   7.491 -0.2484 -0.6191  0.2965
 6697SOL    HW131553   4.126   3.749   7.560 -1.7291  2.5405  0.4683
 6697SOL    HW231554   4.067   3.800   7.433 -2.1646 -0.7815  0.0222
 6698SOL     OW31555   3.250   1.968   7.660  0.2797 -0.1540  0.3584
 6698SOL    HW131556   3.233   2.055   7.694  0.4395 -0.5832  1.5300
 6698SOL    HW231557   3.246   1.912   7.737  0.5849  2.8173  2.5115
 6699SOL     OW31558   3.996   3.712   2.772 -0.0221 -0.4939  0.0759
 6699SOL    HW131559   3.900   3.708   2.781 -0.3461  0.4493 -2.8025
 6699SOL    HW231560   3.982   3.759   2.689  0.9503 -0.1731  0.0965
 6700SOL     OW31561   4.691   1.564   5.404 -0.6159  0.2237  0.6272
 6700SOL    HW131562   4.677   1.543   5.312 -1.2719  0.9871  0.5475
 6700SOL    HW231563   4.678   1.478   5.443 -0.8251  0.2690  0.6581
 6701SOL     OW31564   2.627   1.124   2.550  0.0576  0.6437  0.4834
 6701SOL    HW131565   2.671   1.116   2.635  2.3044  2.9119 -0.4396
 6701SOL    HW231566   2.539   1.148   2.580  0.5336  1.2063  1.4575
 6702SOL     OW31567   3.780   3.118  14.149  0.4261  0.2408 -0.1473
 6702SOL    HW131568   3.707   3.141  14.092 -0.6892 -0.6980  0.8969
 6702SOL    HW231569   3.856   3.141  14.095  0.3139 -0.7660 -0.7533
 6703SOL     OW31570   1.883   2.243   8.158 -0.0023  0.0559  0.1784
 6703SOL    HW131571   1.917   2.157   8.136 -1.0846 -0.3414  0.0210
 6703SOL    HW231572   1.821   2.211   8.225  1.2769 -1.9429  0.3926
 6704SOL     OW31573   2.139   4.457   4.574  0.0477  0.3014  0.4294
 6704SOL    HW131574   2.187   4.483   4.495 -0.4146 -1.1480 -0.3129
 6704SOL    HW231575   2.058   4.426   4.534 -0.4196  0.9444  0.8654
 6705SOL     OW31576   0.066   1.859   5.222  0.3917 -0.6154 -0.7881
 6705SOL    HW131577   4.717   1.802   5.208 -0.8910  0.4578  1.7274
 6705SOL    HW231578   0.036   1.938   5.177 -0.4881 -0.6782 -0.3062
 6706SOL     OW31579   3.452   0.366  11.899  0.1162  0.7872 -0.0132
 6706SOL    HW131580   3.538   0.405  11.914  0.8041 -0.7704  0.0472
 6706SOL    HW231581   3.387   0.436  11.890  1.1433  1.5471 -1.5418
 6707SOL     OW31582   3.332   1.458   5.914 -0.5576 -0.3395  0.4586
 6707SOL    HW131583   3.382   1.479   5.835 -2.0946 -0.9341 -0.6897
 6707SOL    HW231584   3.269   1.390   5.891  0.7513 -1.7450  1.0655
 6708SOL     OW31585   0.970   1.733   6.831  0.2417  0.1865  0.2615
 6708SOL    HW131586   0.957   1.648   6.872 -1.1411  0.3353  0.1272
 6708SOL    HW231587   0.886   1.773   6.856  0.9387  1.7823  0.0559
 6709SOL     OW31588   0.649   2.030   5.600 -0.2321 -0.0361 -0.0472
 6709SOL    HW131589   0.721   1.998   5.655 -0.6244 -0.6778  0.0863
 6709SOL    HW231590   0.618   1.944   5.573  0.9349 -0.6179  0.4737
 6710SOL     OW31591   0.646   0.958   8.711 -0.4656  0.1829  0.5530
 6710SOL    HW131592   0.639   1.046   8.750  0.8259  0.2602  0.6293
 6710SOL    HW231593   0.601   0.973   8.628 -0.0166 -0.4127  0.1990
 6711SOL     OW31594   2.241   2.802   4.200 -0.4332  0.6712 -0.7401
 6711SOL    HW131595   2.258   2.814   4.294 -2.0170 -1.3285 -0.1792
 6711SOL    HW231596   2.185   2.724   4.207 -1.0758  1.1464 -0.6272
 6712SOL     OW31597   1.415   2.552   6.786  0.2378 -0.1460 -0.0169
 6712SOL    HW131598   1.354   2.604   6.838  0.3920 -0.1472  0.1667
 6712SOL    HW231599   1.359   2.523   6.714  1.1878  0.1955 -0.9040
 6713SOL     OW31600   0.803   3.178   0.640  0.2316  0.2250 -0.1948
 6713SOL    HW131601   0.756   3.261   0.641 -0.7623 -0.3576  1.0718
 6713SOL    HW231602   0.732   3.114   0.641  0.6851 -0.1616  4.8969
 6714SOL     OW31603   3.567   3.515   8.000  0.1098 -0.4474  0.4601
 6714SOL    HW131604   3.654   3.555   8.004  0.9311 -1.9897 -2.2417
 6714SOL    HW231605   3.528   3.527   8.087  2.5512 -0.4372  1.5448
 6715SOL     OW31606   4.396   2.360   2.670  0.3677  0.1088 -0.3076
 6715SOL    HW131607   4.328   2.359   2.738  0.8112  0.9609  0.1511
 6715SOL    HW231608   4.416   2.454   2.660  1.5473  0.0108  1.1573
 6716SOL     OW31609   1.114   0.254   2.700 -0.5785  0.3944  0.7752
 6716SOL    HW131610   1.182   0.187   2.689 -2.5575 -1.6583  1.0641
 6716SOL    HW231611   1.118   0.266   2.795 -1.5846 -0.0209  0.8671
 6717SOL     OW31612   3.919   2.017  10.741 -0.1825 -0.1636  0.3370
 6717SOL    HW131613   3.993   2.078  10.740 -0.2216 -0.1165  0.2799
 6717SOL    HW231614   3.850   2.070  10.700  1.0364  0.3877 -0.9629
 6718SOL     OW31615   4.322   1.537  16.731  0.5467  0.0265 -0.1759
 6718SOL    HW131616   4.291   1.499  16.814 -0.4724  1.4732  0.0958
 6718SOL    HW231617   4.243   1.588  16.711  1.5409  2.3615  1.8067
 6719SOL     OW31618   0.968   1.503   9.542 -0.4471  0.4101  0.1888
 6719SOL    HW131619   0.907   1.430   9.540  1.1701 -0.8559 -2.4222
 6719SOL    HW231620   1.010   1.490   9.627 -1.0249  0.8018  0.5364
 6720SOL     OW31621   3.262   3.068   8.027 -0.2661 -0.1865  0.2738
 6720SOL    HW131622   3.231   2.991   7.979 -1.0543 -1.3664  2.6950
 6720SOL    HW231623   3.221   3.140   7.980  1.3056 -1.2468 -2.7357
 6721SOL     OW31624   4.179   1.022   8.080 -0.5599 -0.2472 -0.0696
 6721SOL    HW131625   4.264   1.018   8.036  0.0755  1.5491  1.0235
 6721SOL    HW231626   4.203   0.982   8.163 -1.2317 -0.0285  0.2280
 6722SOL     OW31627   3.520   3.500  14.091 -0.3796  0.3611  0.2171
 6722SOL    HW131628   3.596   3.546  14.126 -0.2964  0.6668 -0.3722
 6722SOL    HW231629   3.471   3.467  14.167 -0.8187  1.1355  0.2672
 6723SOL     OW31630   0.993   4.192   4.630  0.0043  0.6135  0.0893
 6723SOL    HW131631   0.981   4.179   4.536 -0.1832  2.8525 -0.2067
 6723SOL    HW231632   0.906   4.191   4.668 -0.9069  0.4541 -2.0232
 6724SOL     OW31633   2.456   0.203  11.376  0.5320  0.5947 -0.1703
 6724SOL    HW131634   2.502   0.273  11.330 -1.0622 -0.0152 -2.7356
 6724SOL    HW231635   2.511   0.135  11.339  1.1235 -0.2216  2.2713
 6725SOL     OW31636   1.435   3.827  12.038  0.3815  0.1370  0.2216
 6725SOL    HW131637   1.388   3.750  12.006  0.6375 -1.1091  2.8736
 6725SOL    HW231638   1.526   3.797  12.047  0.1274 -0.8192 -0.4543
 6726SOL     OW31639   0.214   3.682   4.632  0.5235  0.1489 -0.4563
 6726SOL    HW131640   0.152   3.671   4.560  1.1342 -1.4076 -0.7626
 6726SOL    HW231641   0.259   3.597   4.637 -2.4315 -1.4083 -0.4741
 6727SOL     OW31642   2.087   0.637   3.477 -0.4478  0.2012 -0.5782
 6727SOL    HW131643   2.127   0.616   3.562  1.0835  1.1964 -1.0621
 6727SOL    HW231644   1.999   0.609   3.504  0.2456 -0.0650  1.3795
 6728SOL     OW31645   4.047   2.766   4.979  0.3965  0.5913  0.0882
 6728SOL    HW131646   4.117   2.728   4.924  0.4651  2.9789 -1.4879
 6728SOL    HW231647   3.986   2.696   5.000  2.4421 -1.6557 -1.3286
 6729SOL     OW31648   4.508   0.755   5.064 -0.7011 -0.0237 -0.3360
 6729SOL    HW131649   4.415   0.733   5.065 -1.2345  2.2437 -1.1902
 6729SOL    HW231650   4.542   0.700   5.135  0.3620  2.4759  1.0736
 6730SOL     OW31651   3.382   0.127  14.160 -0.0285  0.6221 -0.1724
 6730SOL    HW131652   3.344   0.148  14.074 -0.8846 -3.0748 -0.6890
 6730SOL    HW231653   3.387   0.212  14.204  2.0691  0.4017  0.0275
 6731SOL     OW31654   1.127   3.898   4.718  0.0925 -0.0737  0.6782
 6731SOL    HW131655   1.085   3.907   4.804 -0.2832 -1.9785  0.6996
 6731SOL    HW231656   1.070   3.950   4.661 -0.1223 -0.5498  0.4602
 6732SOL     OW31657   0.832   0.178  16.052  0.0629 -0.0604 -0.2086
 6732SOL    HW131658   0.866   0.196  15.964 -0.3354 -0.0079 -0.3491
 6732SOL    HW231659   0.870   0.248  16.105 -2.1135  1.2633 -0.3974
 6733SOL     OW31660   3.618   0.782   2.701  0.0932  0.2307 -0.0866
 6733SOL    HW131661   3.598   0.866   2.659  0.9091  0.5568  0.1668
 6733SOL    HW231662   3.682   0.806   2.768 -0.2694 -3.1047  1.4242
 6734SOL     OW31663   4.203   4.330   1.728 -0.3783 -0.1885  0.3940
 6734SOL    HW131664   4.179   4.371   1.811  2.5387 -0.3978  1.3659
 6734SOL    HW231665   4.241   4.244   1.750 -0.7966 -0.7906 -1.2620
 6735SOL     OW31666   0.232   2.154   6.910 -0.7169  0.6587  0.0909
 6735SOL    HW131667   0.159   2.105   6.873  2.0834 -3.5707  0.2719
 6735SOL    HW231668   0.307   2.131   6.856  1.2411 -3.1994  4.4583
 6736SOL     OW31669   0.644   1.238  11.752  0.0116 -0.0953 -0.4556
 6736SOL    HW131670   0.672   1.202  11.837  0.8712 -0.5337 -0.9271
 6736SOL    HW231671   0.623   1.154  11.712  2.4772 -1.0124  0.1241
 6737SOL     OW31672   1.484   4.693   8.788 -0.0907  0.2378  0.5402
 6737SOL    HW131673   1.390   4.708   8.786 -0.0595  0.5802  1.8987
 6737SOL    HW231674   1.517   0.042   8.838 -1.0539  0.7253  0.4514
 6738SOL     OW31675   3.315   4.213   6.923 -0.0874  0.0565  0.0348
 6738SOL    HW131676   3.258   4.289   6.911 -0.2645 -0.2165 -0.8233
 6738SOL    HW231677   3.255   4.139   6.924 -1.5707  1.2949  3.3540
 6739SOL     OW31678   3.142   3.277   8.326 -0.0643  0.1522 -0.6252
 6739SOL    HW131679   3.090   3.207   8.287 -2.0460  0.4438  1.4900
 6739SOL    HW231680   3.203   3.230   8.383 -0.7024  2.1238  1.6728
 6740SOL     OW31681   1.681   3.896   6.212 -0.0548 -0.1910  0.2278
 6740SOL    HW131682   1.586   3.882   6.212  0.0163 -0.6578  2.2453
 6740SOL    HW231683   1.712   3.809   6.187 -0.2782  0.5752 -2.7289
 6741SOL     OW31684   4.070   3.748   4.426  0.2385 -0.4278  0.2591
 6741SOL    HW131685   4.046   3.660   4.456 -0.2492 -0.2382  0.4226
 6741SOL    HW231686   4.156   3.760   4.466  0.3009  1.0302 -0.3373
 6742SOL     OW31687   0.654   0.185  13.206 -0.2747  0.0505  0.5963
 6742SOL    HW131688   0.737   0.220  13.172 -1.7574  1.7399 -1.3499
 6742SOL    HW231689   0.598   0.190  13.128  0.0695 -0.0861  0.3412
 6743SOL     OW31690   0.275   0.001   6.174  0.6803  0.0861  0.3838
 6743SOL    HW131691   0.340   0.041   6.117 -0.5586  0.4586 -0.7464
 6743SOL    HW231692   0.214   4.674   6.123  2.1844 -0.8259 -0.4799
 6744SOL     OW31693   0.187   4.188   8.590 -1.1793 -0.3626  0.6446
 6744SOL    HW131694   0.247   4.250   8.548 -1.1364  0.3271  1.7088
 6744SOL    HW231695   0.236   4.111   8.617  0.1630  0.6537  1.1518
 6745SOL     OW31696   1.838   2.236   3.331 -0.1533  0.6597  0.2297
 6745SOL    HW131697   1.930   2.251   3.352  0.2686  0.5524 -1.6020
 6745SOL    HW231698   1.824   2.155   3.381 -1.6900  0.5747 -0.3328
 6746SOL     OW31699   4.435   3.202  11.072 -0.0546  0.4830  0.1849
 6746SOL    HW131700   4.354   3.251  11.058 -1.2971 -1.6265  0.0548
 6746SOL    HW231701   4.418   3.121  11.024  2.7134  0.8892 -1.4834
 6747SOL     OW31702   1.838   0.819   6.096 -0.5014  0.2524  0.5092
 6747SOL    HW131703   1.923   0.863   6.101 -0.2488 -0.1439 -0.4129
 6747SOL    HW231704   1.870   0.734   6.126 -0.9640 -0.2882 -0.5283
 6748SOL     OW31705   3.815   1.051   9.481  0.3402  0.0171 -0.4300
 6748SOL    HW131706   3.729   1.091   9.495  0.5394 -0.2679  1.4758
 6748SOL    HW231707   3.819   0.988   9.552  0.0626  0.1950 -0.2566
 6749SOL     OW31708   2.609   3.611   4.808 -0.0315  0.6327  0.2567
 6749SOL    HW131709   2.545   3.545   4.780 -1.4027  1.2781  1.8457
 6749SOL    HW231710   2.634   3.589   4.898 -1.6245 -1.0599  0.2941
 6750SOL     OW31711   0.696   3.587  16.814 -0.3428 -0.0401 -0.3337
 6750SOL    HW131712   0.699   3.563  16.722 -0.0428 -1.3368  0.0181
 6750SOL    HW231713   0.605   3.578  16.842  0.5948 -0.0816  2.7269
 6751SOL     OW31714   3.216   1.674   7.163 -0.6713 -0.6825 -0.0975
 6751SOL    HW131715   3.160   1.752   7.157 -1.3144 -1.1745 -0.4560
 6751SOL    HW231716   3.157   1.600   7.177 -0.7472 -0.2683  1.7851
 6752SOL     OW31717   2.106   4.197   4.039  0.4924 -0.1617 -0.6175
 6752SOL    HW131718   2.163   4.124   4.062  0.6237  0.5457  1.3064
 6752SOL    HW231719   2.040   4.144   3.993 -1.9202  1.7033  0.7019
 6753SOL     OW31720   3.812   1.647   9.510 -0.4759  0.3158 -0.1307
 6753SOL    HW131721   3.726   1.666   9.548  0.0588  1.4419  0.5154
 6753SOL    HW231722   3.783   1.592   9.437  2.4107 -0.1791 -0.9046
 6754SOL     OW31723   4.587   0.002  14.895  0.1168  0.0069 -0.3293
 6754SOL    HW131724   4.663   0.040  14.851 -0.4656  1.0328 -0.4713
 6754SOL    HW231725   4.578   0.080  14.950  1.0326 -1.8540  2.4494
 6755SOL     OW31726   0.379   1.194   2.687 -0.2175 -0.3635  0.3000
 6755SOL    HW131727   0.309   1.254   2.714 -0.7512 -0.2130 -1.4139
 6755SOL    HW231728   0.343   1.176   2.600  0.0419 -1.9293  0.5239
 6756SOL     OW31729   1.590   0.196   5.595  0.5558 -0.8211  0.1332
 6756SOL    HW131730   1.545   0.112   5.600 -0.9620  0.0397  0.9458
 6756SOL    HW231731   1.584   0.228   5.685 -1.9681 -1.3993  0.1574
 6757SOL     OW31732   3.095   4.464   3.025  0.1881  0.6073 -0.0002
 6757SOL    HW131733   3.135   4.537   3.073 -0.9500  1.1867  0.0722
 6757SOL    HW231734   3.026   4.497   2.968  0.8499  0.9224 -0.6233
 6758SOL     OW31735   1.266   4.721   1.914 -0.2626  0.4949 -0.1954
 6758SOL    HW131736   1.204   4.688   1.849 -0.1587  0.2280 -0.1579
 6758SOL    HW231737   1.349   4.696   1.873  0.2092 -1.0383  1.6832
 6759SOL     OW31738   2.357   3.822   8.425  0.0010 -0.1542  0.0235
 6759SOL    HW131739   2.300   3.876   8.480 -1.8835 -3.8389  1.6978
 6759SOL    HW231740   2.443   3.864   8.432 -1.7091  2.9838  1.9573
 6760SOL     OW31741   0.081   0.709   6.098  0.3106  0.2602  0.1410
 6760SOL    HW131742   0.104   0.619   6.074 -0.3163  0.4348 -1.1467
 6760SOL    HW231743   0.095   0.712   6.193  0.5532 -2.1767  0.1943
 6761SOL     OW31744   1.899   4.242   5.454 -0.3369 -0.0625  0.3295
 6761SOL    HW131745   1.991   4.220   5.470  0.0471  0.1939 -1.5690
 6761SOL    HW231746   1.908   4.336   5.436  2.0126 -0.1251  1.0721
 6762SOL     OW31747   0.922   0.451   4.427 -0.7324 -0.0650 -0.1087
 6762SOL    HW131748   0.870   0.376   4.397 -0.6362 -0.2072  0.0764
 6762SOL    HW231749   0.990   0.402   4.474 -0.1193  0.9887  0.1086
 6763SOL     OW31750   4.698   1.891   9.744  0.0267  0.7422  0.0629
 6763SOL    HW131751   4.606   1.874   9.724  0.7375 -0.5507 -2.0745
 6763SOL    HW231752   4.697   1.921   9.835 -0.0151  0.7382  0.0637
 6764SOL     OW31753   2.807   1.747  13.204  0.5480 -0.0413  0.2004
 6764SOL    HW131754   2.899   1.735  13.229  0.9864  2.2396 -0.2792
 6764SOL    HW231755   2.778   1.777  13.290  2.5679  1.4411  0.3574
 6765SOL     OW31756   3.446   2.448   7.981  0.0134 -0.5287  0.0958
 6765SOL    HW131757   3.534   2.432   7.947 -1.1377 -2.7549 -1.8873
 6765SOL    HW231758   3.401   2.468   7.899  0.6265 -0.0785 -0.1261
 6766SOL     OW31759   3.278   1.095   2.347 -0.1133 -0.1266 -0.4292
 6766SOL    HW131760   3.198   1.144   2.328 -1.5736 -2.8945 -1.5348
 6766SOL    HW231761   3.345   1.162   2.335  0.5744 -0.3544  2.1104
 6767SOL     OW31762   3.347   1.075   9.084  0.8993  0.3691 -0.5789
 6767SOL    HW131763   3.395   1.001   9.048  1.9244  0.5382  0.4650
 6767SOL    HW231764   3.339   1.043   9.174 -0.2548 -1.3885 -1.2970
 6768SOL     OW31765   1.806   2.427   3.090  0.2182  0.2226 -0.3569
 6768SOL    HW131766   1.767   2.500   3.139  0.4065 -0.3060  0.5723
 6768SOL    HW231767   1.807   2.354   3.151 -2.0844  0.1069 -0.4530
 6769SOL     OW31768   2.904   3.433   3.834  0.5272 -0.3781  0.1969
 6769SOL    HW131769   2.947   3.391   3.760  0.9785  0.6318 -0.1251
 6769SOL    HW231770   2.863   3.365   3.887  1.1560 -0.7811  0.1689
 6770SOL     OW31771   1.018   2.270   3.835 -0.3385 -0.2487  0.4326
 6770SOL    HW131772   1.003   2.365   3.833  1.2522  0.0075  1.2173
 6770SOL    HW231773   1.091   2.258   3.895 -0.3573 -2.8183 -0.0641
 6771SOL     OW31774   4.210   0.349   4.440  0.4552 -0.1167  0.0347
 6771SOL    HW131775   4.251   0.317   4.520  3.1670  2.1255 -0.4691
 6771SOL    HW231776   4.119   0.319   4.439  0.6529 -0.7252  0.4848
 6772SOL     OW31777   3.295   1.173   1.177 -0.7922  0.0325  0.8672
 6772SOL    HW131778   3.316   1.144   1.089  1.0825 -1.5561  1.8593
 6772SOL    HW231779   3.383   1.185   1.211  0.2526  0.0933 -1.8991
 6773SOL     OW31780   4.064   3.805   3.328 -0.2000 -0.4602 -0.8265
 6773SOL    HW131781   4.035   3.727   3.376  0.2481  1.5144  2.6746
 6773SOL    HW231782   4.088   3.776   3.240  0.8601 -3.3843  0.4252
 6774SOL     OW31783   0.534   3.493  17.305  0.2354  0.2004 -0.0071
 6774SOL    HW131784   0.599   3.422  17.313 -0.6989 -0.3738  2.3015
 6774SOL    HW231785   0.565   3.548  17.376  0.7483  0.7974 -0.6888
 6775SOL     OW31786   2.100   2.832   5.476 -0.7334  0.5634  0.5570
 6775SOL    HW131787   2.061   2.885   5.406  0.7590  2.0119  0.8041
 6775SOL    HW231788   2.119   2.908   5.532 -0.1239  0.5813  0.3283
 6776SOL     OW31789   1.489   2.601   7.111 -0.3870  0.7488 -0.0581
 6776SOL    HW131790   1.409   2.549   7.116  1.8888 -2.8602 -1.0764
 6776SOL    HW231791   1.516   2.563   7.027  1.7780  2.1350  0.0103
 6777SOL     OW31792   0.604   0.424  16.959 -0.6563  0.4741  0.2202
 6777SOL    HW131793   0.691   0.465  16.957 -0.4310  0.0665  1.2125
 6777SOL    HW231794   0.597   0.420  17.055  1.2055 -2.7802  0.2099
 6778SOL     OW31795   2.470   2.854   2.311  0.4879  0.2599  0.1242
 6778SOL    HW131796   2.553   2.847   2.264  1.5047  1.3117  1.7754
 6778SOL    HW231797   2.485   2.809   2.393 -2.9352 -0.3150  0.4344
 6779SOL     OW31798   4.324   0.699  12.837  0.1240 -0.5098  0.3862
 6779SOL    HW131799   4.404   0.645  12.835  1.1104  0.9525  0.1017
 6779SOL    HW231800   4.336   0.739  12.922  0.8421  1.8916 -0.8446
 6780SOL     OW31801   2.077   0.485   1.218 -0.2306 -0.0826  0.5102
 6780SOL    HW131802   2.024   0.533   1.155  3.8230 -0.6614 -3.3307
 6780SOL    HW231803   2.165   0.504   1.185  0.4424 -1.3639  1.5733
 6781SOL     OW31804   3.302   4.499   4.166  0.4961 -0.2610  0.2150
 6781SOL    HW131805   3.378   4.533   4.119  0.5164  0.4200  0.7374
 6781SOL    HW231806   3.339   4.503   4.254 -2.6595  0.6178  1.5199
 6782SOL     OW31807   2.006   0.795   4.508 -0.6245 -0.0662  0.6011
 6782SOL    HW131808   1.959   0.718   4.541  0.9747 -1.0055  0.7034
 6782SOL    HW231809   1.936   0.858   4.492 -0.2895  0.0465 -0.3894
 6783SOL     OW31810   0.494   3.415   2.102 -0.2240  0.7166  0.1676
 6783SOL    HW131811   0.412   3.413   2.053  0.9132 -0.1484 -1.6977
 6783SOL    HW231812   0.493   3.500   2.147 -2.0463  0.3750  0.7856
 6784SOL     OW31813   2.599   4.257   6.271 -0.1755 -0.0497 -0.2950
 6784SOL    HW131814   2.642   4.189   6.218  3.4876  1.0781  1.1748
 6784SOL    HW231815   2.584   4.317   6.199 -0.2212  0.2763 -0.0134
 6785SOL     OW31816   3.734   3.706   2.649 -0.4741  0.2084 -0.3242
 6785SOL    HW131817   3.699   3.621   2.675 -0.0706  0.0498 -0.3097
 6785SOL    HW231818   3.739   3.700   2.553  1.9323  1.7330 -0.2829
 6786SOL     OW31819   2.794   3.552   7.872  0.2297  0.4961  1.0047
 6786SOL    HW131820   2.879   3.554   7.829  0.1754 -0.4643  0.8589
 6786SOL    HW231821   2.772   3.639   7.837 -1.4836 -0.7852 -1.0783
 6787SOL     OW31822   0.144   2.823   6.075 -0.1812 -0.3338  0.0959
 6787SOL    HW131823   0.121   2.811   5.983 -2.7788 -0.6434  0.7905
 6787SOL    HW231824   0.212   2.756   6.085  2.4270  2.1689 -0.8079
 6788SOL     OW31825   1.780   3.589   1.770 -0.1733 -0.0316  0.0918
 6788SOL    HW131826   1.764   3.584   1.864 -3.7339  0.5071 -0.4801
 6788SOL    HW231827   1.745   3.508   1.732  0.3143  1.3454 -3.2541
 6789SOL     OW31828   0.461   3.146   3.328  0.3512 -0.5329 -0.1800
 6789SOL    HW131829   0.501   3.080   3.270 -1.3315 -0.3997 -1.4837
 6789SOL    HW231830   0.506   3.226   3.298  0.6859 -0.5138  0.3777
 6790SOL     OW31831   2.900   4.231  10.834 -0.2132  0.2616  0.5144
 6790SOL    HW131832   2.889   4.269  10.747 -2.1258 -1.6607 -0.0802
 6790SOL    HW231833   2.853   4.294  10.889  0.5302  0.7119  0.6338
 6791SOL     OW31834   0.946   1.452  13.485 -0.0659  0.4869 -0.8636
 6791SOL    HW131835   1.010   1.508  13.443  0.6647 -1.0706 -1.8505
 6791SOL    HW231836   0.964   1.374  13.431 -1.1215  0.2300 -0.8569
 6792SOL     OW31837   3.826   2.281  10.940  0.2351 -0.2362  0.2829
 6792SOL    HW131838   3.756   2.336  10.973  1.0188 -0.0557  1.6382
 6792SOL    HW231839   3.821   2.282  10.844  0.5556  0.7780  0.2790
 6793SOL     OW31840   1.027   4.157   6.116 -0.3974  0.0936  0.4332
 6793SOL    HW131841   1.023   4.253   6.114 -0.8053  0.0622 -0.3800
 6793SOL    HW231842   1.041   4.139   6.209  2.5823  0.7493  0.1036
 6794SOL     OW31843   4.289   2.718   5.267 -0.4364  0.3356 -0.3431
 6794SOL    HW131844   4.315   2.631   5.296 -1.2010  0.6677  1.3381
 6794SOL    HW231845   4.327   2.722   5.179 -0.2478  1.1271 -0.2323
 6795SOL     OW31846   0.128   0.985  15.640  0.4417  0.4530  0.4417
 6795SOL    HW131847   0.097   0.939  15.717 -0.9345 -1.6795 -1.3964
 6795SOL    HW231848   0.104   1.075  15.664  0.0751  0.4557  0.0727
 6796SOL     OW31849   2.886   3.807  17.246  0.0294 -0.6671 -0.2309
 6796SOL    HW131850   2.886   3.862  17.325  1.4575  1.3536 -1.6711
 6796SOL    HW231851   2.821   3.859  17.199  1.4113  1.4041  0.1458
 6797SOL     OW31852   3.111   4.007   4.969 -0.5061  0.3105  0.2195
 6797SOL    HW131853   3.024   4.045   4.965 -2.1112 -3.6807 -2.0698
 6797SOL    HW231854   3.105   3.915   4.994  1.7559  0.0387 -0.2102
 6798SOL     OW31855   0.759   3.692   5.963 -0.0006  0.1730 -0.2445
 6798SOL    HW131856   0.821   3.629   6.000 -1.1482 -1.2069 -0.6425
 6798SOL    HW231857   0.809   3.773   5.967  2.2221 -1.2170 -0.2978
 6799SOL     OW31858   4.276   0.243  14.995 -0.4238  0.1792 -0.1216
 6799SOL    HW131859   4.364   0.206  14.989 -1.0971 -1.3155 -0.8459
 6799SOL    HW231860   4.282   0.300  15.071 -1.9905 -1.1884  1.0363
 6800SOL     OW31861   0.525   0.862  15.257 -0.2820  0.5151  0.6866
 6800SOL    HW131862   0.613   0.865  15.221  0.5996 -0.1576  2.7845
 6800SOL    HW231863   0.517   0.948  15.300 -0.0526 -0.6046  2.9654
 6801SOL     OW31864   3.444   0.230   8.514  0.0909 -0.5736  0.0022
 6801SOL    HW131865   3.349   0.218   8.519 -0.0527  0.0251 -1.1269
 6801SOL    HW231866   3.454   0.322   8.491 -0.6985 -0.1075  1.5817
 6802SOL     OW31867   4.682   2.483  17.445  0.0167 -0.6528 -0.0398
 6802SOL    HW131868   0.046   2.517  17.443 -0.6995  1.0207 -3.5428
 6802SOL    HW231869   4.701   2.395  17.477  0.8370 -0.5821 -0.3132
 6803SOL     OW31870   2.029   0.876  15.677 -0.4073 -0.5947 -0.1552
 6803SOL    HW131871   1.957   0.937  15.689 -0.3307 -0.7555  1.0605
 6803SOL    HW231872   2.084   0.886  15.754  1.3753 -1.3848 -1.3233
 6804SOL     OW31873   4.102   4.268   9.534 -0.0397  0.1161 -0.1065
 6804SOL    HW131874   4.012   4.235   9.539  0.4114 -1.0244  0.3432
 6804SOL    HW231875   4.099   4.324   9.612 -3.3696 -0.3885  0.1422
 6805SOL     OW31876   2.565   2.472   8.608  0.0362 -0.6254 -0.1354
 6805SOL    HW131877   2.567   2.385   8.647  1.0144 -0.5526 -0.0100
 6805SOL    HW231878   2.474   2.497   8.623  0.5710  1.5448 -0.5092
 6806SOL     OW31879   4.008   3.355  10.840 -0.0090  0.3952 -0.4258
 6806SOL    HW131880   4.080   3.336  10.900 -0.4283  2.0677  0.6167
 6806SOL    HW231881   4.050   3.329  10.758 -0.4385 -2.4496  0.2566
 6807SOL     OW31882   4.088   3.735   2.044  0.1093 -0.3488  0.5918
 6807SOL    HW131883   4.095   3.829   2.062 -2.3920 -0.6837  3.3170
 6807SOL    HW231884   4.010   3.701   2.088 -0.8620 -0.2474 -1.0323
 6808SOL     OW31885   0.103   1.910   2.964  0.5637 -0.9626 -0.2966
 6808SOL    HW131886   0.144   1.833   3.004  1.2449 -0.7964 -0.6788
 6808SOL    HW231887   0.025   1.913   3.020  0.6712 -0.3440 -0.1797
 6809SOL     OW31888   2.513   1.366   4.752  0.2960  0.0361 -0.0700
 6809SOL    HW131889   2.491   1.393   4.841  0.5866 -0.8446  0.2748
 6809SOL    HW231890   2.484   1.275   4.747  0.5074 -0.1867  3.0272
 6810SOL     OW31891   2.101   1.208   6.040  0.5672  0.3983 -0.0314
 6810SOL    HW131892   2.034   1.252   5.987  1.1462 -1.1861 -2.1074
 6810SOL    HW231893   2.175   1.211   5.980  0.9111 -1.3019  0.3034
 6811SOL     OW31894   0.147   2.188  14.767  0.3862 -0.3377  0.4026
 6811SOL    HW131895   0.222   2.237  14.802 -0.2352 -0.3334  1.7345
 6811SOL    HW231896   0.164   2.211  14.675  0.1028 -1.2533  0.1287
 6812SOL     OW31897   4.355   4.568   6.173  0.3388 -0.6737 -0.4082
 6812SOL    HW131898   4.447   4.572   6.196  0.4892  1.5793 -1.4190
 6812SOL    HW231899   4.345   4.643   6.114  0.9693 -0.4528 -0.2294
 6813SOL     OW31900   2.162   2.895   8.568  0.4666  0.2695  0.5029
 6813SOL    HW131901   2.129   2.818   8.521  0.9391 -0.3805  1.2273
 6813SOL    HW231902   2.248   2.898   8.526  0.1833  0.0078 -0.0904
 6814SOL     OW31903   0.651   2.988   2.557  0.7376  0.5331 -0.0750
 6814SOL    HW131904   0.720   2.921   2.563  1.8110  1.8232  1.9899
 6814SOL    HW231905   0.704   3.067   2.559 -0.5123  1.3514  0.4933
 6815SOL     OW31906   3.886   3.363   2.300  0.2309 -0.2126 -0.0507
 6815SOL    HW131907   3.981   3.366   2.314  0.0314 -0.8928  1.3823
 6815SOL    HW231908   3.861   3.454   2.315 -1.3979 -0.6903  0.0457
 6816SOL     OW31909   0.835   3.824  16.840  0.7355  0.6552  0.9413
 6816SOL    HW131910   0.777   3.755  16.809 -0.9734  2.0413  1.0186
 6816SOL    HW231911   0.864   3.786  16.923  1.5864  1.4440  1.0088
 6817SOL     OW31912   0.512   4.508  12.164 -0.2127  0.2925 -0.4768
 6817SOL    HW131913   0.538   4.553  12.083 -0.5132 -2.5645 -2.1438
 6817SOL    HW231914   0.442   4.565  12.196  0.1393 -0.5242  1.7052
 6818SOL     OW31915   2.060   1.297  10.123  0.2806 -0.4200  0.1934
 6818SOL    HW131916   2.090   1.368  10.066 -1.9528  1.1891  1.0729
 6818SOL    HW231917   2.127   1.234  10.095  3.2600  3.1292 -0.7889
 6819SOL     OW31918   3.286   0.731  11.886  0.8125  0.1763 -0.6353
 6819SOL    HW131919   3.263   0.790  11.957 -1.4895 -1.0713 -0.3458
 6819SOL    HW231920   3.326   0.799  11.832  0.2086 -0.4201 -1.8285
 6820SOL     OW31921   0.541   0.317  15.475  0.6712 -0.7015  0.1227
 6820SOL    HW131922   0.455   0.342  15.441 -0.8558 -2.5858  2.5655
 6820SOL    HW231923   0.594   0.390  15.444  0.5529 -0.4948  0.4093
 6821SOL     OW31924   1.016   2.263   0.060 -0.3167 -0.3774 -0.0629
 6821SOL    HW131925   1.076   2.221   0.122  1.4707  1.2546 -0.6890
 6821SOL    HW231926   1.020   2.350   0.099  1.3237 -0.4707 -0.0045
 6822SOL     OW31927   0.779   0.765   4.949  0.2653  0.0481 -0.1644
 6822SOL    HW131928   0.779   0.837   4.886 -1.1687  1.2052  1.1507
 6822SOL    HW231929   0.837   0.706   4.901 -0.8523 -0.5963 -0.7321
 6823SOL     OW31930   0.375   3.198   9.141 -0.2136  0.7017 -0.0843
 6823SOL    HW131931   0.348   3.274   9.192 -1.5371  0.4185 -0.3821
 6823SOL    HW231932   0.331   3.124   9.183 -0.9502  2.2406  1.8729
 6824SOL     OW31933   1.943   1.968  17.008 -0.6684  0.5759 -0.0515
 6824SOL    HW131934   1.989   2.032  17.063  2.5137 -2.7660  1.1552
 6824SOL    HW231935   1.869   2.020  16.975  0.3827  1.3802 -1.1292
 6825SOL     OW31936   1.695   1.019   8.980 -0.2850  0.1387 -0.1409
 6825SOL    HW131937   1.682   1.088   9.045  0.1032 -0.9108  1.0507
 6825SOL    HW231938   1.734   0.947   9.030 -0.1326 -1.1518 -2.0946
 6826SOL     OW31939   4.047   3.479   7.118  0.1166 -0.1250  0.1640
 6826SOL    HW131940   4.062   3.401   7.064 -1.4796 -0.3318  0.0016
 6826SOL    HW231941   4.088   3.541   7.059  0.2032 -0.3836 -0.0489
 6827SOL     OW31942   4.371   1.514   7.849 -0.2574 -0.0983  0.2271
 6827SOL    HW131943   4.340   1.465   7.773 -0.3010  0.1651  0.0734
 6827SOL    HW231944   4.414   1.440   7.890  0.1869  0.0723  0.0746
 6828SOL     OW31945   0.969   3.568  15.171  0.0249 -0.0056 -0.5216
 6828SOL    HW131946   0.996   3.479  15.149  0.4019  0.4188 -1.7905
 6828SOL    HW231947   1.053   3.593  15.211 -0.6597 -0.2953  1.0686
 6829SOL     OW31948   2.324   2.294   1.293  0.0934 -0.2144 -0.1679
 6829SOL    HW131949   2.415   2.290   1.322  0.6149  1.5867 -1.5126
 6829SOL    HW231950   2.337   2.350   1.217 -0.2690 -0.0755 -0.1284
 6830SOL     OW31951   3.513   0.918   8.934 -0.0680 -0.1871 -0.3995
 6830SOL    HW131952   3.539   0.835   8.974 -0.4185 -0.4589 -0.7262
 6830SOL    HW231953   3.468   0.881   8.857  0.8241 -3.9515  0.8794
 6831SOL     OW31954   3.739   3.893   8.005 -0.0753  0.3156  0.0584
 6831SOL    HW131955   3.773   3.924   7.921  0.9675 -0.0036  0.3712
 6831SOL    HW231956   3.718   3.803   7.982  1.2797 -0.1740  0.7627
 6832SOL     OW31957   0.189   0.594   6.950 -0.1514  0.0625  0.2252
 6832SOL    HW131958   0.126   0.658   6.918 -0.0456  0.1676  0.2296
 6832SOL    HW231959   0.143   0.543   7.016 -0.0638 -0.3126 -0.0016
 6833SOL     OW31960   0.892   3.234  12.824  0.0670  0.1453 -0.4986
 6833SOL    HW131961   0.839   3.244  12.745 -0.1224 -0.0473 -0.3981
 6833SOL    HW231962   0.972   3.188  12.799  1.4409  1.8213  0.7964
 6834SOL     OW31963   0.083   3.175  13.120 -0.3384  0.0719  0.4120
 6834SOL    HW131964   0.117   3.164  13.031  1.9334  0.1053  1.3025
 6834SOL    HW231965   4.725   3.219  13.104  1.2023  1.8605 -2.7427
 6835SOL     OW31966   2.252   3.639   9.196 -0.0791 -0.3870 -0.2743
 6835SOL    HW131967   2.204   3.562   9.226 -1.0438  0.2806 -0.0824
 6835SOL    HW231968   2.300   3.672   9.272  0.7615  0.3731 -1.1300
 6836SOL     OW31969   3.896   3.827   8.224 -0.2069 -0.1531 -0.2023
 6836SOL    HW131970   3.848   3.846   8.143  0.9300  1.3615 -0.5057
 6836SOL    HW231971   3.913   3.732   8.229 -0.0953 -0.1859 -1.2649
 6837SOL     OW31972   0.498   4.686   5.359 -0.3282 -0.4768  0.5451
 6837SOL    HW131973   0.413   4.645   5.345 -0.0219 -1.1682  0.7333
 6837SOL    HW231974   0.518   0.006   5.277  1.0180  0.5224  1.4152
 6838SOL     OW31975   3.472   2.296   7.568 -0.2310 -0.1546 -0.8105
 6838SOL    HW131976   3.545   2.240   7.594  2.3066  2.8119 -1.5719
 6838SOL    HW231977   3.401   2.253   7.615  0.3149 -0.8905 -0.6593
 6839SOL     OW31978   0.103   2.949   8.054  0.1089 -0.0098 -0.1049
 6839SOL    HW131979   0.048   3.019   8.089 -3.2166 -2.3981 -0.5430
 6839SOL    HW231980   0.169   2.952   8.124 -1.8503 -0.0457  1.7632
 6840SOL     OW31981   1.049   2.642   5.618 -0.6490  0.5068 -0.2639
 6840SOL    HW131982   1.115   2.626   5.686 -2.0564  0.3612  1.0791
 6840SOL    HW231983   1.081   2.727   5.587 -0.1176 -1.0856 -4.0851
 6841SOL     OW31984   1.679   2.824   3.621  0.1426 -0.6860 -0.4449
 6841SOL    HW131985   1.768   2.824   3.654 -0.4903  0.5860  1.2958
 6841SOL    HW231986   1.680   2.878   3.542 -0.6066 -0.0259 -0.0069
 6842SOL     OW31987   3.026   4.678  15.421 -0.1020 -0.8831 -0.2579
 6842SOL    HW131988   3.015   4.650  15.330 -1.4101  1.0208 -0.6790
 6842SOL    HW231989   3.119   4.657  15.431  0.2057  0.7616  0.2004
 6843SOL     OW31990   1.019   3.129   4.263 -0.6081 -0.2812  0.6221
 6843SOL    HW131991   1.099   3.135   4.212 -0.7593 -1.6568  0.2330
 6843SOL    HW231992   1.012   3.035   4.283 -1.0977 -0.2899  0.4065
 6844SOL     OW31993   1.966   2.867   4.957  0.0346  0.1912  0.8703
 6844SOL    HW131994   2.019   2.947   4.961  1.0650 -0.4710  0.5792
 6844SOL    HW231995   1.885   2.896   4.999  0.3645  1.0541  0.9151
 6845SOL     OW31996   4.315   2.753   5.518  0.3039 -0.4459  0.2076
 6845SOL    HW131997   4.314   2.729   5.426  0.8468 -1.5661  0.4925
 6845SOL    HW231998   4.240   2.813   5.511 -0.3928 -1.4972 -1.2664
 6846SOL     OW31999   3.807   1.841   1.160 -0.2029 -0.5192  0.6427
 6846SOL    HW132000   3.859   1.786   1.218  0.5462 -2.7252 -2.1071
 6846SOL    HW232001   3.734   1.787   1.132  1.2695 -1.5853 -1.1670
 6847SOL     OW32002   0.452   1.906  13.591  0.1229  0.3987 -0.2073
 6847SOL    HW132003   0.368   1.860  13.595  0.5221 -0.4282 -1.2410
 6847SOL    HW232004   0.425   1.996  13.571  0.7879 -0.3518 -4.5808
 6848SOL     OW32005   0.989   4.503   0.600  0.6296  0.0517  0.3914
 6848SOL    HW132006   1.033   4.423   0.627  3.2015  0.5129 -2.5409
 6848SOL    HW232007   0.979   4.553   0.681  0.0799 -1.5640  1.3120
 6849SOL     OW32008   0.306   4.659  12.230  0.0909 -0.8101 -0.8954
 6849SOL    HW132009   0.225   4.686  12.189  1.1545  0.7214 -1.9686
 6849SOL    HW232010   0.353   0.013  12.256  1.4329 -1.5244 -1.1452
 6850SOL     OW32011   3.916   2.182   8.467 -0.2862  0.2424  0.1791
 6850SOL    HW132012   3.860   2.232   8.527  0.1417  0.5443  0.3229
 6850SOL    HW232013   3.988   2.243   8.453 -3.9986  4.1609 -1.7424
 6851SOL     OW32014   2.626   2.376   0.720  0.2542 -0.6433  0.1298
 6851SOL    HW132015   2.533   2.358   0.736  0.2978 -1.4039 -0.4874
 6851SOL    HW232016   2.660   2.379   0.809 -1.5941  1.8967  0.7466
 6852SOL     OW32017   1.489   0.481  14.940  0.5474 -0.0187  0.9895
 6852SOL    HW132018   1.535   0.397  14.937 -1.8758 -1.3562  0.1967
 6852SOL    HW232019   1.536   0.541  14.997  3.6611  0.2619 -1.8790
 6853SOL     OW32020   3.410   4.301  15.651  0.6173  0.2301 -0.1835
 6853SOL    HW132021   3.499   4.329  15.672  0.6959  1.0565 -1.5743
 6853SOL    HW232022   3.394   4.314  15.558  0.7282  0.8143 -0.1210
 6854SOL     OW32023   3.754   1.061   5.503 -0.5016 -0.0902 -0.0940
 6854SOL    HW132024   3.810   0.994   5.541  1.5298  1.8423  0.3509
 6854SOL    HW232025   3.823   1.123   5.482 -0.8461  0.6354  0.8798
 6855SOL     OW32026   4.243   1.571  15.693 -0.1041 -0.2201  0.3511
 6855SOL    HW132027   4.159   1.530  15.710 -0.6698  0.7185 -0.1773
 6855SOL    HW232028   4.294   1.507  15.643  1.3904  0.5003  0.9564
 6856SOL     OW32029   4.088   0.196   7.639  0.7586 -0.5310  0.6237
 6856SOL    HW132030   4.163   0.227   7.689  1.3636 -0.2986 -0.4313
 6856SOL    HW232031   4.039   0.278   7.642  0.5957 -0.6169  0.3530
 6857SOL     OW32032   0.718   2.410   8.733  0.3078 -0.4153  0.0209
 6857SOL    HW132033   0.699   2.496   8.770 -2.1989 -1.4533  1.1516
 6857SOL    HW232034   0.809   2.399   8.760 -0.2975 -0.1106  2.1943
 6858SOL     OW32035   4.662   4.426   7.341  0.1943 -0.4342  0.1817
 6858SOL    HW132036   0.023   4.463   7.323 -0.2168  1.3694  1.8110
 6858SOL    HW232037   4.606   4.503   7.327  1.3456  0.8333  2.4494
 6859SOL     OW32038   1.508   3.241   6.425 -0.2470  0.3501  0.1175
 6859SOL    HW132039   1.551   3.166   6.384 -2.2137  0.0938 -1.4600
 6859SOL    HW232040   1.581   3.295   6.457  0.4848 -0.5342 -0.0589
 6860SOL     OW32041   1.590   3.597   5.239 -0.5237 -0.1437 -0.0782
 6860SOL    HW132042   1.524   3.646   5.190 -1.2874  0.4029  1.5163
 6860SOL    HW232043   1.612   3.520   5.187 -2.3736 -0.1043 -0.9116
 6861SOL     OW32044   2.700   3.683  16.407 -0.1528  0.2467  0.0460
 6861SOL    HW132045   2.676   3.678  16.315 -1.6323 -1.4678  0.5263
 6861SOL    HW232046   2.650   3.606  16.434 -1.2129  1.2527  0.9591
 6862SOL     OW32047   3.301   4.294  13.845 -0.3103  0.1739  0.1979
 6862SOL    HW132048   3.226   4.282  13.903 -1.9353  1.5629 -1.6319
 6862SOL    HW232049   3.266   4.346  13.772  0.9931 -0.2343 -0.7180
 6863SOL     OW32050   0.243   1.609  10.790 -0.1856  0.0293  0.0253
 6863SOL    HW132051   0.266   1.550  10.861  0.9200  0.4231 -0.0069
 6863SOL    HW232052   0.194   1.683  10.825 -1.5382 -0.1470 -1.4622
 6864SOL     OW32053   3.345   1.690  11.778 -0.1282 -0.4796  0.2258
 6864SOL    HW132054   3.428   1.716  11.739  0.9870 -2.4760  1.2471
 6864SOL    HW232055   3.284   1.706  11.706  0.2018  0.1988  0.1034
 6865SOL     OW32056   1.980   3.297  11.798 -0.1379 -0.1360  0.4433
 6865SOL    HW132057   1.935   3.291  11.714 -1.5093  0.5648  1.1288
 6865SOL    HW232058   2.008   3.387  11.783  0.8809 -0.3650  0.9665
 6866SOL     OW32059   2.329   1.425   7.400 -0.2583  0.3434  0.2890
 6866SOL    HW132060   2.253   1.464   7.443 -0.3991  0.5519 -0.1529
 6866SOL    HW232061   2.383   1.401   7.475 -0.1496 -0.1829  0.0382
 6867SOL     OW32062   1.059   2.243  13.250 -0.8925 -0.9589  0.2582
 6867SOL    HW132063   1.031   2.236  13.158  0.0638  3.3851 -0.3557
 6867SOL    HW232064   1.115   2.320  13.239  0.0425 -1.3220  2.6622
 6868SOL     OW32065   4.274   4.006   3.305 -0.2642 -0.3670 -0.1039
 6868SOL    HW132066   4.223   4.062   3.363  0.2089  1.2823 -1.2819
 6868SOL    HW232067   4.215   3.931   3.293 -2.1339  1.1930 -0.7356
 6869SOL     OW32068   3.054   1.725   6.411  0.0358  0.2434 -0.2095
 6869SOL    HW132069   2.997   1.778   6.355 -0.8711  2.8391  3.1445
 6869SOL    HW232070   3.096   1.802   6.449  0.7971  0.7463 -2.0703
 6870SOL     OW32071   4.510   0.672   6.741 -0.1147 -0.5569 -0.0381
 6870SOL    HW132072   4.472   0.760   6.734  0.5382 -0.3651 -1.1151
 6870SOL    HW232073   4.499   0.665   6.836  0.8536 -0.0244  0.1124
 6871SOL     OW32074   3.311   2.742  17.061  0.0601 -0.4166  0.0368
 6871SOL    HW132075   3.272   2.748  17.148 -1.1836  0.9359 -0.6232
 6871SOL    HW232076   3.247   2.792  17.011 -0.8736 -1.7308 -0.0710
 6872SOL     OW32077   4.608   3.329   5.328  0.0276 -0.5846 -0.0116
 6872SOL    HW132078   4.540   3.367   5.271  0.1839 -0.8449 -0.3731
 6872SOL    HW232079   4.568   3.356   5.411  0.2917 -2.2183  0.6315
 6873SOL     OW32080   3.003   3.937   1.386 -0.1335 -0.2136 -0.1884
 6873SOL    HW132081   3.033   3.939   1.476 -1.3837  0.7255  0.2065
 6873SOL    HW232082   3.073   3.988   1.346  1.2690 -1.5244  0.6349
 6874SOL     OW32083   1.179   2.075   3.956 -0.0359  0.1995 -0.2219
 6874SOL    HW132084   1.129   1.995   3.973  1.2218 -0.6342 -0.3753
 6874SOL    HW232085   1.272   2.051   3.963  0.5943  2.5642 -0.7077
 6875SOL     OW32086   1.791   2.111   1.187 -0.0044 -0.1682 -0.2648
 6875SOL    HW132087   1.809   2.126   1.279  0.0625  0.5259 -0.3926
 6875SOL    HW232088   1.880   2.123   1.153  0.7145  1.1308  2.1241
 6876SOL     OW32089   2.957   2.224   8.516  0.2278 -0.0568  0.1922
 6876SOL    HW132090   2.989   2.301   8.563  2.1265  0.0385 -1.2167
 6876SOL    HW232091   3.041   2.182   8.495 -0.2946 -1.0601  0.1540
 6877SOL     OW32092   1.829   2.320  13.400  0.4466  0.3046 -0.3092
 6877SOL    HW132093   1.738   2.292  13.407  0.3718  0.4339 -0.7505
 6877SOL    HW232094   1.823   2.382  13.327 -2.3028  1.2105  0.7121
 6878SOL     OW32095   0.584   0.199   4.116 -0.3108  0.9562 -0.7569
 6878SOL    HW132096   0.526   0.217   4.191  1.6500  0.5100  0.8691
 6878SOL    HW232097   0.550   0.120   4.074 -0.8443  1.1294 -0.6606
 6879SOL     OW32098   1.078   3.878   1.137  0.3408  0.0681  0.1819
 6879SOL    HW132099   1.000   3.881   1.081  0.6618  0.3889 -0.2446
 6879SOL    HW232100   1.079   3.782   1.144 -2.0957 -0.0357 -1.0008
 6880SOL     OW32101   4.264   1.399   6.349 -0.3246 -0.0665 -0.3092
 6880SOL    HW132102   4.213   1.343   6.290  2.0257 -1.5218 -1.0119
 6880SOL    HW232103   4.207   1.473   6.366  2.8976  2.4675 -0.5122
 6881SOL     OW32104   1.511   0.276  12.317  0.2264  0.2380  0.3175
 6881SOL    HW132105   1.421   0.302  12.300 -0.6282 -2.3013  1.0070
 6881SOL    HW232106   1.561   0.317  12.246 -0.6208  0.7946  0.0519
 6882SOL     OW32107   0.447   0.475   3.943  0.2992  0.1462  0.8861
 6882SOL    HW132108   0.382   0.455   4.011  0.5233 -1.0723  0.7467
 6882SOL    HW232109   0.387   0.505   3.875  3.0022 -0.9184 -1.9833
 6883SOL     OW32110   1.631   2.726   9.749 -0.4905  0.0689 -0.2166
 6883SOL    HW132111   1.539   2.700   9.743 -0.7612  0.8018  0.8049
 6883SOL    HW232112   1.670   2.661   9.691  0.3701  1.8212 -1.6156
 6884SOL     OW32113   0.757   3.007   8.101  0.3327  0.8374 -0.2136
 6884SOL    HW132114   0.663   3.010   8.083  0.8977  0.1943 -3.3384
 6884SOL    HW232115   0.762   3.078   8.165 -3.0261  1.0938 -0.2571
 6885SOL     OW32116   0.342   0.285   4.289 -0.3317  0.5246 -0.2223
 6885SOL    HW132117   0.337   0.381   4.297  1.7588  0.6558 -0.5874
 6885SOL    HW232118   0.302   0.287   4.202  0.6383 -1.1648 -0.7148
 6886SOL     OW32119   0.022   4.651   9.053  0.4349  0.2898 -0.9169
 6886SOL    HW132120   0.076   4.693   8.986  0.6983 -1.7337 -1.9723
 6886SOL    HW232121   0.082   4.587   9.091  0.8007  1.0665 -0.1722
 6887SOL     OW32122   1.684   3.583   4.225 -0.2811  0.2958  0.1050
 6887SOL    HW132123   1.716   3.671   4.240  2.4957 -0.5430 -1.0215
 6887SOL    HW232124   1.589   3.597   4.228 -0.5088 -0.8210 -1.7922
 6888SOL     OW32125   0.537   2.778   5.943 -0.0481  0.4801  0.5012
 6888SOL    HW132126   0.493   2.824   5.872 -1.1205 -1.5212 -0.1307
 6888SOL    HW232127   0.509   2.687   5.932  0.1642  0.3891  0.6993
 6889SOL     OW32128   0.377   0.358   0.537  0.8216 -0.5477 -0.4448
 6889SOL    HW132129   0.394   0.267   0.510 -0.2012 -0.5309 -1.1482
 6889SOL    HW232130   0.418   0.412   0.470  1.4503 -0.9165 -0.3547
 6890SOL     OW32131   3.304   1.471   3.765 -0.2361 -0.5262 -0.2958
 6890SOL    HW132132   3.297   1.397   3.826 -0.4187 -1.5899 -1.6140
 6890SOL    HW232133   3.395   1.470   3.736 -0.5041  0.2819 -1.1641
 6891SOL     OW32134   4.086   2.882   5.241  0.0071 -0.5152 -0.9308
 6891SOL    HW132135   4.170   2.839   5.253  0.0994 -0.5989 -1.8673
 6891SOL    HW232136   4.035   2.801   5.237  0.4766 -0.8157 -0.7547
 6892SOL     OW32137   0.572   0.499   7.366 -0.3457  0.0136 -0.1355
 6892SOL    HW132138   0.598   0.563   7.301  1.0251  2.0519  2.4297
 6892SOL    HW232139   0.518   0.555   7.422 -2.0587 -0.8708 -0.8953
 6893SOL     OW32140   1.820   3.430   6.806 -0.2281  0.1184 -0.1013
 6893SOL    HW132141   1.813   3.384   6.890 -0.9147 -0.1667 -0.3134
 6893SOL    HW232142   1.848   3.514   6.843 -0.0049  0.5027 -1.1297
 6894SOL     OW32143   2.739   2.320  13.125  0.2660  1.2329  0.0760
 6894SOL    HW132144   2.783   2.385  13.071  1.1208  1.4577  1.0545
 6894SOL    HW232145   2.727   2.367  13.207  0.5907 -0.2871  0.9784
 6895SOL     OW32146   0.329   4.498   4.096 -0.3263  0.0497 -0.1250
 6895SOL    HW132147   0.295   4.485   4.185  0.7749 -1.6313  0.0674
 6895SOL    HW232148   0.274   4.440   4.044  2.0577 -2.3524  0.0341
 6896SOL     OW32149   1.115   2.363   7.782  0.3243  0.6525  0.0382
 6896SOL    HW132150   1.095   2.322   7.867  0.8158 -0.4965 -0.4048
 6896SOL    HW232151   1.171   2.435   7.810  0.1583  0.2171  1.4893
 6897SOL     OW32152   2.510   4.599   4.724  0.3069 -0.3376 -0.1228
 6897SOL    HW132153   2.564   4.528   4.689 -0.0633 -1.5080  1.6762
 6897SOL    HW232154   2.584   4.656   4.744  0.0551  0.8406 -2.5851
 6898SOL     OW32155   3.566   3.999   0.092  0.0581 -0.0586  0.2283
 6898SOL    HW132156   3.510   3.969   0.164 -1.6007  2.6078  0.0563
 6898SOL    HW232157   3.644   4.015   0.145  0.5110  0.0843 -0.4913
 6899SOL     OW32158   1.085   3.180   2.429 -0.3557 -0.1228  0.4405
 6899SOL    HW132159   1.076   3.155   2.337 -0.6969  0.5225  0.3041
 6899SOL    HW232160   1.169   3.225   2.421  1.9015 -4.3737  0.2367
 6900SOL     OW32161   3.411   3.391   0.839  0.3766  0.2514  0.3731
 6900SOL    HW132162   3.504   3.370   0.840  0.2639 -0.3535 -2.4614
 6900SOL    HW232163   3.376   3.322   0.783 -0.8984  2.2851 -1.3434
 6901SOL     OW32164   1.305   3.206   9.522 -0.0932  0.4656 -0.4157
 6901SOL    HW132165   1.395   3.224   9.549  0.6152 -3.3969 -0.2408
 6901SOL    HW232166   1.299   3.113   9.542  2.2466  0.8967  2.3078
 6902SOL     OW32167   3.736   0.912   9.714 -0.3771 -0.5982  0.0545
 6902SOL    HW132168   3.670   0.937   9.779 -1.8138  0.4829 -1.8159
 6902SOL    HW232169   3.815   0.908   9.768  1.0116 -0.5131 -1.9444
 6903SOL     OW32170   4.489   2.582  17.150  0.2600 -0.6017  0.0311
 6903SOL    HW132171   4.548   2.628  17.091  0.5322 -1.8854 -0.6949
 6903SOL    HW232172   4.432   2.537  17.087 -3.1063  1.1094  1.8202
 6904SOL     OW32173   3.147   0.319   1.461  0.5649 -0.2564  0.0015
 6904SOL    HW132174   3.118   0.387   1.400  2.2976  0.6453  0.1955
 6904SOL    HW232175   3.132   0.354   1.549  1.7014 -1.7414  0.7977
 6905SOL     OW32176   2.836   2.883  13.588 -0.1619  0.1224  0.2332
 6905SOL    HW132177   2.740   2.889  13.596 -0.2021  0.8023 -0.7042
 6905SOL    HW232178   2.851   2.908  13.679  0.1721  0.5111  0.0717
 6906SOL     OW32179   3.733   2.934   9.038  0.0885 -0.0268  0.0411
 6906SOL    HW132180   3.699   2.950   9.126 -0.4954 -0.9370 -0.0221
 6906SOL    HW232181   3.767   3.022   9.020 -2.0804  0.7861 -0.1452
 6907SOL     OW32182   2.413   3.048   1.176  0.2290 -0.1825  0.1581
 6907SOL    HW132183   2.465   2.975   1.210 -2.1561 -2.5137 -1.2336
 6907SOL    HW232184   2.421   3.113   1.246 -0.5360 -2.1079  2.0171
 6908SOL     OW32185   2.349   4.617   5.866 -0.4059  0.4825 -0.3029
 6908SOL    HW132186   2.292   4.691   5.887  0.8396  0.7767  2.0344
 6908SOL    HW232187   2.277   4.558   5.842  0.3203 -1.0759  1.4124
 6909SOL     OW32188   2.630   3.935  16.564 -0.1511  0.0750  0.2099
 6909SOL    HW132189   2.677   3.919  16.645  0.4999 -1.1214 -0.4025
 6909SOL    HW232190   2.680   3.884  16.500 -1.3025 -0.0907 -0.5663
 6910SOL     OW32191   0.629   2.277   6.628  0.0901 -0.1441  0.1023
 6910SOL    HW132192   0.680   2.219   6.571 -1.3838 -0.9798 -0.3479
 6910SOL    HW232193   0.616   2.343   6.560  0.8686 -0.6024 -0.5098
 6911SOL     OW32194   2.011   2.342   6.488 -0.5085 -0.4111  0.6060
 6911SOL    HW132195   1.946   2.347   6.418  0.8220  1.6470 -0.4636
 6911SOL    HW232196   1.949   2.342   6.561 -0.8445 -0.6528  0.3226
 6912SOL     OW32197   2.859   0.231   9.604 -0.0653 -0.1163 -0.1833
 6912SOL    HW132198   2.907   0.309   9.634 -1.4242  0.8612 -0.5403
 6912SOL    HW232199   2.788   0.246   9.666 -0.8940 -1.4197 -0.8091
 6913SOL     OW32200   4.243   3.924  15.761 -0.4770 -0.2754  0.1796
 6913SOL    HW132201   4.302   3.981  15.810  1.6955 -1.1358 -1.4533
 6913SOL    HW232202   4.295   3.898  15.685 -0.4599  0.3892 -0.0370
 6914SOL     OW32203   3.378   1.450   2.905  0.4404  0.4264  0.2831
 6914SOL    HW132204   3.469   1.428   2.925  0.7910  0.2796 -1.4117
 6914SOL    HW232205   3.344   1.371   2.861  0.2708  0.8729 -0.3947
 6915SOL     OW32206   1.886   2.556  13.528 -0.0699 -0.3783  0.1640
 6915SOL    HW132207   1.950   2.521  13.465 -0.4139  0.2304 -0.5149
 6915SOL    HW232208   1.831   2.479  13.541 -1.1811  0.7779  2.3410
 6916SOL     OW32209   0.701   1.121   7.818 -0.0894 -0.7086 -0.0075
 6916SOL    HW132210   0.652   1.052   7.864  0.0264 -1.7670 -1.4884
 6916SOL    HW232211   0.670   1.202   7.859  0.4137  0.4138 -1.8891
 6917SOL     OW32212   1.956   4.299   2.635  0.0344 -0.0568  0.1318
 6917SOL    HW132213   2.028   4.337   2.585 -0.1636 -0.9527 -0.8416
 6917SOL    HW232214   1.892   4.272   2.569  1.0676  0.0665 -0.9083
 6918SOL     OW32215   1.564   3.230   9.591 -0.2437 -0.3717 -0.0116
 6918SOL    HW132216   1.552   3.150   9.644  1.7720  0.7052  2.1096
 6918SOL    HW232217   1.656   3.246   9.612 -1.1084  0.6081  3.0915
 6919SOL     OW32218   0.327   4.653  16.524  0.1795 -0.4312 -0.3310
 6919SOL    HW132219   0.313   4.660  16.429 -2.4393 -1.0452  0.0024
 6919SOL    HW232220   0.237   4.645  16.555 -0.0797 -0.3727 -1.0491
 6920SOL     OW32221   2.359   4.092  13.127 -0.1928  1.0740 -0.0432
 6920SOL    HW132222   2.449   4.065  13.107 -0.4802  0.1693 -0.1307
 6920SOL    HW232223   2.317   4.092  13.041  0.7088  1.9699 -0.4879
 6921SOL     OW32224   1.630   1.684   8.254 -0.6501 -0.7609  0.1538
 6921SOL    HW132225   1.693   1.709   8.187 -1.8850  0.4038 -0.5779
 6921SOL    HW232226   1.589   1.607   8.216  0.7325 -1.5755  0.3132
 6922SOL     OW32227   1.589   4.544   3.121  0.2118  0.0432  0.1447
 6922SOL    HW132228   1.540   4.463   3.131 -2.3241  1.6449  0.7601
 6922SOL    HW232229   1.535   4.598   3.063  0.9441  0.5568 -0.0677
 6923SOL     OW32230   1.245   2.770   6.990  0.5279 -0.0425  0.0327
 6923SOL    HW132231   1.228   2.834   6.922 -0.5094  0.3079  0.6267
 6923SOL    HW232232   1.289   2.817   7.061  0.0551  2.5848 -1.4332
 6924SOL     OW32233   2.387   0.970   6.390  0.4577 -0.1669  0.0689
 6924SOL    HW132234   2.334   1.000   6.464  1.1347  1.0674  0.0438
 6924SOL    HW232235   2.322   0.942   6.325 -0.7645  1.8645  0.4040
 6925SOL     OW32236   2.376   3.625   7.877 -0.0129 -0.0958  0.1329
 6925SOL    HW132237   2.368   3.661   7.966  1.1049 -0.2746  0.2970
 6925SOL    HW232238   2.467   3.644   7.854  0.3811  0.2743  1.9897
 6926SOL     OW32239   3.643   0.855  12.364  0.0551 -0.2220 -0.2596
 6926SOL    HW132240   3.670   0.926  12.305 -0.8240  0.7068  0.4572
 6926SOL    HW232241   3.550   0.852  12.343  0.6289 -0.7491 -2.7419
 6927SOL     OW32242   2.469   1.278   6.271 -0.4434  0.5501  0.5330
 6927SOL    HW132243   2.463   1.282   6.367  0.1535 -2.1205  0.6778
 6927SOL    HW232244   2.389   1.324   6.246 -1.3416 -1.0801  0.4126
 6928SOL     OW32245   0.016   2.654   3.808 -0.6173  0.1201  0.1740
 6928SOL    HW132246   4.680   2.671   3.737  1.1668  1.7780 -0.9715
 6928SOL    HW232247   0.094   2.659   3.753 -1.9618  0.5256 -1.6896
 6929SOL     OW32248   3.864   4.462   4.455  0.1068  0.8124 -0.3187
 6929SOL    HW132249   3.819   4.539   4.420 -3.0649 -0.9386 -0.1470
 6929SOL    HW232250   3.939   4.496   4.503 -0.1013 -0.6747  1.0592
 6930SOL     OW32251   3.737   1.818   4.246  0.2145 -0.2425 -0.5157
 6930SOL    HW132252   3.761   1.753   4.312  0.4047 -0.0005 -0.3462
 6930SOL    HW232253   3.733   1.764   4.166  0.1453 -1.8411  0.5632
 6931SOL     OW32254   4.526   1.043   1.376 -0.0566 -0.5924 -0.7232
 6931SOL    HW132255   4.436   1.064   1.352 -0.8038 -0.4090  2.2861
 6931SOL    HW232256   4.506   0.959   1.416  0.0725  0.7032  2.1102
 6932SOL     OW32257   2.031   4.532   7.204  0.0346 -0.2771 -0.0749
 6932SOL    HW132258   1.973   4.603   7.229  2.0645  0.7913  1.6262
 6932SOL    HW232259   2.061   4.508   7.292  0.3509 -1.7786 -0.5814
 6933SOL     OW32260   2.291   2.819   7.869  0.2435  0.2588 -0.1562
 6933SOL    HW132261   2.263   2.789   7.956 -0.5009  1.2492 -0.0545
 6933SOL    HW232262   2.282   2.914   7.877 -1.4633  0.2025 -1.3386
 6934SOL     OW32263   2.597   0.583  16.772  0.1821 -0.1393  0.0940
 6934SOL    HW132264   2.571   0.508  16.827 -0.5683  1.0149  1.3056
 6934SOL    HW232265   2.537   0.570  16.699 -1.3169 -2.1956  1.6924
 6935SOL     OW32266   1.361   3.090  15.225 -0.5003 -0.2250  0.6054
 6935SOL    HW132267   1.293   3.100  15.158  0.4329  1.3972 -0.0921
 6935SOL    HW232268   1.359   3.177  15.264  1.5830  0.3553 -0.5861
 6936SOL     OW32269   0.545   4.026  14.795  0.0883  0.5988 -0.3267
 6936SOL    HW132270   0.575   4.075  14.719 -0.0493  1.2484  0.0385
 6936SOL    HW232271   0.462   3.992  14.762  0.2271  0.5603 -0.6378
 6937SOL     OW32272   3.748   0.146   4.141  0.2586 -0.1471 -0.1144
 6937SOL    HW132273   3.696   0.223   4.166 -0.8936 -0.5254 -1.2944
 6937SOL    HW232274   3.799   0.199   4.080 -1.1670  0.4916 -0.7556
 6938SOL     OW32275   0.231   1.564  16.636 -0.1478 -0.6107  0.3059
 6938SOL    HW132276   0.158   1.567  16.698 -0.5386  2.6608 -0.3490
 6938SOL    HW232277   0.293   1.522  16.696  1.5759 -0.3044 -1.2516
 6939SOL     OW32278   0.199   2.511   8.150  0.2034  0.2444 -0.5507
 6939SOL    HW132279   0.127   2.537   8.207 -0.4218  1.0606 -1.7169
 6939SOL    HW232280   0.220   2.420   8.169  1.7869  0.4853 -1.0938
 6940SOL     OW32281   3.857   0.928   7.237 -0.0156  0.1114  0.4138
 6940SOL    HW132282   3.898   0.918   7.151 -0.2433 -0.6489  0.3995
 6940SOL    HW232283   3.893   1.015   7.255  2.2666 -0.4730 -1.3702
 6941SOL     OW32284   2.080   1.678   4.171  0.0052 -0.3056 -0.2142
 6941SOL    HW132285   2.157   1.731   4.194 -0.9584 -0.4532  3.3100
 6941SOL    HW232286   2.027   1.678   4.250 -0.4187 -2.1657 -0.5046
 6942SOL     OW32287   2.389   4.039   3.021  0.7659  0.1630  0.6618
 6942SOL    HW132288   2.382   4.133   3.006 -1.7736 -0.7275 -3.5659
 6942SOL    HW232289   2.479   4.028   3.053  1.1650  0.4550 -0.3824
 6943SOL     OW32290   0.886   0.779   0.289  0.2407  0.0372  0.1349
 6943SOL    HW132291   0.936   0.858   0.307  0.3723  0.1223 -0.6021
 6943SOL    HW232292   0.914   0.723   0.361  0.5836  1.0639  0.7938
 6944SOL     OW32293   4.154   3.848   5.671  0.0051  0.1665  0.2585
 6944SOL    HW132294   4.113   3.820   5.752 -0.5987 -0.8104 -0.3833
 6944SOL    HW232295   4.111   3.932   5.652 -0.6659  0.0147  1.1227
 6945SOL     OW32296   2.470   2.010   7.781 -0.3712 -0.5765 -0.0337
 6945SOL    HW132297   2.489   1.956   7.857 -1.5297 -1.1133 -0.1326
 6945SOL    HW232298   2.553   2.044   7.745 -0.9715  1.0215  0.0804
 6946SOL     OW32299   0.354   4.515   0.164 -0.1106 -0.0379 -0.0024
 6946SOL    HW132300   0.412   4.474   0.100 -0.7678 -1.2673  0.2010
 6946SOL    HW232301   0.298   4.446   0.197  0.0263 -0.3780 -0.4820
 6947SOL     OW32302   4.438   2.600   9.738 -0.4361 -0.5236  0.1573
 6947SOL    HW132303   4.453   2.642   9.653  0.8720  0.0552  0.6748
 6947SOL    HW232304   4.527   2.575   9.763 -0.0620  0.1439 -0.4965
 6948SOL     OW32305   2.292   2.686   5.618 -0.1325  0.7499  0.1506
 6948SOL    HW132306   2.217   2.719   5.568 -0.6277 -0.4227  0.1041
 6948SOL    HW232307   2.336   2.630   5.553 -0.5998 -1.0305  1.3693
 6949SOL     OW32308   1.432   2.513  16.164  0.3397 -0.3237  0.8313
 6949SOL    HW132309   1.449   2.587  16.105  1.4747 -1.7836 -0.6642
 6949SOL    HW232310   1.485   2.545  16.237 -1.0038  0.9342  1.2402
 6950SOL     OW32311   3.572   2.646   4.808 -0.0085  0.2688 -0.0121
 6950SOL    HW132312   3.633   2.591   4.858 -0.4487  0.8896  1.1968
 6950SOL    HW232313   3.587   2.736   4.837 -0.9416 -0.8835  3.9399
 6951SOL     OW32314   2.458   1.905   4.840  0.4008 -0.0756 -0.2812
 6951SOL    HW132315   2.540   1.938   4.804 -0.3148  0.5302 -1.3364
 6951SOL    HW232316   2.406   1.878   4.765 -2.3045  0.2834  1.4520
 6952SOL     OW32317   3.732   0.747   2.356  0.3746  0.0811 -0.5355
 6952SOL    HW132318   3.649   0.784   2.327 -0.5707 -1.3029  0.3915
 6952SOL    HW232319   3.706   0.681   2.420  0.6646  0.8178  0.3342
 6953SOL     OW32320   2.813   3.205   3.208 -0.0429  0.2199  0.1299
 6953SOL    HW132321   2.800   3.299   3.223 -0.1261  0.3911 -0.9839
 6953SOL    HW232322   2.908   3.206   3.199 -0.2146 -0.2272 -1.8147
 6954SOL     OW32323   4.162   1.214  11.827  0.0999 -0.0363 -0.2433
 6954SOL    HW132324   4.091   1.275  11.845 -1.0493 -1.8511  1.4237
 6954SOL    HW232325   4.139   1.130  11.868 -0.7154  0.3944  0.1849
 6955SOL     OW32326   3.764   2.975   4.654  0.4705 -0.1105 -0.0041
 6955SOL    HW132327   3.809   3.014   4.578  1.4103 -0.6334  0.2849
 6955SOL    HW232328   3.721   3.057   4.679 -1.1079 -1.0255  0.2570
 6956SOL     OW32329   3.604   1.064   2.594  0.3381  0.4897  0.4263
 6956SOL    HW132330   3.627   1.080   2.503  0.9059  0.6540  0.6004
 6956SOL    HW232331   3.692   1.074   2.629 -0.2281  2.2993  1.3465
 6957SOL     OW32332   3.880   3.136   5.982 -0.3826 -0.1038  0.2356
 6957SOL    HW132333   3.971   3.147   6.009 -0.8908 -2.1751  2.8032
 6957SOL    HW232334   3.878   3.047   5.946  0.5366 -0.6712  1.5755
 6958SOL     OW32335   3.240   0.881   7.831 -0.0246 -0.1033 -0.0068
 6958SOL    HW132336   3.220   0.879   7.738 -0.1119  0.8504 -0.0106
 6958SOL    HW232337   3.303   0.954   7.825  1.0288 -0.8857  1.5342
 6959SOL     OW32338   0.621   1.670   0.735  0.3343  0.1358 -0.2418
 6959SOL    HW132339   0.653   1.753   0.701 -1.6554  1.0688  0.1240
 6959SOL    HW232340   0.660   1.673   0.822 -0.2569 -0.3397  0.0412
 6960SOL     OW32341   1.454   0.746  17.599  0.1480  0.2712  0.1196
 6960SOL    HW132342   1.369   0.784  17.622  0.5908  0.2282  1.8586
 6960SOL    HW232343   1.511   0.820  17.621 -0.7310  0.9012  0.2764
 6961SOL     OW32344   4.122   1.147  15.400  0.3140  0.0537  0.1737
 6961SOL    HW132345   4.032   1.141  15.368  0.4357 -1.2119  0.0570
 6961SOL    HW232346   4.155   1.212  15.338 -1.7613 -0.8054 -1.8326
 6962SOL     OW32347   2.215   0.652  12.835 -0.2019  0.1619 -0.0145
 6962SOL    HW132348   2.216   0.556  12.841 -4.1959  0.0271 -1.4741
 6962SOL    HW232349   2.295   0.654  12.782 -0.6967 -1.5114 -0.8392
 6963SOL     OW32350   1.970   1.790  16.801  0.0411 -0.3231 -0.1471
 6963SOL    HW132351   2.027   1.840  16.744  0.4407  0.4493  0.9342
 6963SOL    HW232352   1.951   1.857  16.867 -0.2781 -0.2608 -0.3002
 6964SOL     OW32353   1.423   4.670   0.706 -0.3137  0.3468  0.6020
 6964SOL    HW132354   1.421   4.655   0.612 -0.9893 -2.2947  1.0532
 6964SOL    HW232355   1.419   0.040   0.712  0.8386  0.2995  2.1434
 6965SOL     OW32356   0.723   2.748   7.122 -0.0839 -0.4285  0.0972
 6965SOL    HW132357   0.749   2.814   7.057  0.6202 -2.4718 -1.7015
 6965SOL    HW232358   0.783   2.676   7.103  1.9560  1.3653 -0.2358
 6966SOL     OW32359   1.416   1.598   2.273  0.4961 -0.4854 -0.0486
 6966SOL    HW132360   1.389   1.676   2.320  2.2456 -0.0832  0.3106
 6966SOL    HW232361   1.490   1.564   2.324 -0.3083 -1.0397  0.7644
 6967SOL     OW32362   2.103   1.509   9.441 -0.1019 -0.0892 -0.6151
 6967SOL    HW132363   2.023   1.561   9.437  1.0632  1.7392 -0.3345
 6967SOL    HW232364   2.165   1.577   9.467 -0.3332  0.0893 -0.5284
 6968SOL     OW32365   0.074   4.411   2.574  0.1636  0.4055 -0.2258
 6968SOL    HW132366   0.022   4.423   2.654 -0.5130 -0.1935 -0.5736
 6968SOL    HW232367   0.163   4.414   2.609  0.4749  3.0399 -1.1967
 6969SOL     OW32368   2.972   0.803   9.387  0.3739  0.0060  0.8373
 6969SOL    HW132369   2.900   0.752   9.425 -1.0764  0.5853 -1.1276
 6969SOL    HW232370   2.912   0.855   9.333  0.3226 -0.7094  0.2059
 6970SOL     OW32371   1.439   3.029  16.060  0.5529  0.0563  0.3859
 6970SOL    HW132372   1.408   3.102  16.007 -0.8989 -0.2802  0.7661
 6970SOL    HW232373   1.535   3.038  16.064  0.5285 -0.3122  1.8145
 6971SOL     OW32374   0.085   3.147  10.118 -0.5071 -0.6786 -0.2795
 6971SOL    HW132375   4.720   3.166  10.145  0.0762  1.1016  0.4694
 6971SOL    HW232376   0.103   3.202  10.042 -0.6248 -0.0230  0.1567
 6972SOL     OW32377   2.098   1.172   3.588 -0.2164 -0.2116 -0.1807
 6972SOL    HW132378   2.193   1.181   3.579 -0.4221  1.7669 -0.2099
 6972SOL    HW232379   2.075   1.099   3.530 -1.2097 -0.7040  0.8172
 6973SOL     OW32380   2.980   4.581   2.258  0.3669  0.1381  0.2079
 6973SOL    HW132381   2.886   4.598   2.266  0.1769 -0.0498 -1.7115
 6973SOL    HW232382   2.991   4.486   2.268 -0.3845 -0.1515 -1.7936
 6974SOL     OW32383   4.662   4.148   2.212 -0.0298 -0.1501 -0.5857
 6974SOL    HW132384   0.017   4.101   2.231 -0.7516 -1.0442  0.2881
 6974SOL    HW232385   4.646   4.207   2.285 -0.5219 -0.6450 -0.2916
 6975SOL     OW32386   1.139   3.203   0.282  0.2042  0.3578 -0.5261
 6975SOL    HW132387   1.174   3.237   0.199 -1.0590 -1.9813 -2.0043
 6975SOL    HW232388   1.217   3.200   0.337  0.0022 -2.6373 -0.3955
 6976SOL     OW32389   3.998   3.324   3.032 -0.4515  0.5519 -0.1695
 6976SOL    HW132390   3.990   3.327   3.127  1.1148  0.0484 -0.0295
 6976SOL    HW232391   4.084   3.285   3.014 -1.4885 -0.9686 -1.8174
 6977SOL     OW32392   1.838   1.199   7.045 -0.2014  0.3072  0.3247
 6977SOL    HW132393   1.863   1.270   6.987  1.1722  0.6189  1.3194
 6977SOL    HW232394   1.913   1.140   7.041 -2.5235 -2.6416 -0.0209
 6978SOL     OW32395   1.293   1.387   2.141 -0.1317 -0.0295 -0.5361
 6978SOL    HW132396   1.348   1.447   2.190 -2.1325  0.8638  0.6116
 6978SOL    HW232397   1.229   1.366   2.209  1.7490  0.7558  1.4553
 6979SOL     OW32398   4.433   4.616  11.616  0.3138  0.0591  0.4920
 6979SOL    HW132399   4.476   4.696  11.585  0.0496  0.7403  1.8722
 6979SOL    HW232400   4.498   4.546  11.621  0.0172 -0.2118  0.5237
 6980SOL     OW32401   1.092   1.974  10.017  0.5500  0.6302 -0.4244
 6980SOL    HW132402   1.177   1.938  10.044  0.6908  0.6324 -0.8499
 6980SOL    HW232403   1.035   1.917  10.068  1.8385 -0.1390  0.1612
 6981SOL     OW32404   3.335   3.607   7.167 -0.4171  0.1282  0.2620
 6981SOL    HW132405   3.385   3.623   7.247  3.2454 -2.1416 -1.5850
 6981SOL    HW232406   3.264   3.669   7.185 -2.1049 -1.6958 -0.1681
 6982SOL     OW32407   1.081   3.384  10.741  0.1044  0.4145 -0.7744
 6982SOL    HW132408   1.097   3.333  10.661 -0.1278 -0.9237  0.0382
 6982SOL    HW232409   1.104   3.324  10.812  0.9547  0.1604 -1.2496
 6983SOL     OW32410   0.313   2.193   5.975  0.1340  0.0461  0.2598
 6983SOL    HW132411   0.254   2.201   5.900 -2.6356  1.2063  2.5631
 6983SOL    HW232412   0.298   2.106   6.012 -2.0273  0.7364  1.0094
 6984SOL     OW32413   2.920   4.638  15.165  0.0247 -0.2564  0.1509
 6984SOL    HW132414   2.995   4.682  15.126  0.8256 -0.7467  1.1264
 6984SOL    HW232415   2.862   4.636  15.088  1.2600  3.0630 -0.8303
 6985SOL     OW32416   0.661   1.737   1.616  0.0660 -0.2132  0.0859
 6985SOL    HW132417   0.727   1.797   1.651 -1.0392  0.3051  1.2824
 6985SOL    HW232418   0.613   1.801   1.563 -0.3055 -0.0588  0.6131
 6986SOL     OW32419   1.168   0.969  17.315  0.2127  0.0616 -0.0281
 6986SOL    HW132420   1.112   0.958  17.392  0.8227  0.9488  0.5456
 6986SOL    HW232421   1.256   0.948  17.345  0.3273  0.6140  0.0266
 6987SOL     OW32422   2.099   3.652   3.044  0.0877  0.5259 -0.0344
 6987SOL    HW132423   2.034   3.717   3.017  0.3566  0.5190 -0.7049
 6987SOL    HW232424   2.126   3.625   2.956  0.7677  0.0136  0.3310
 6988SOL     OW32425   1.594   2.152  14.603 -0.1565 -0.4076  0.2048
 6988SOL    HW132426   1.520   2.213  14.599 -0.3405 -0.4954  2.2220
 6988SOL    HW232427   1.655   2.199  14.659 -1.4588  1.8326 -0.2816
 6989SOL     OW32428   3.706   4.066   1.246 -0.4542  0.0477 -0.1365
 6989SOL    HW132429   3.641   4.003   1.214 -1.0308  2.2493 -3.2879
 6989SOL    HW232430   3.741   4.014   1.319 -0.3008 -0.0167 -0.2532
 6990SOL     OW32431   0.545   0.328  16.252  0.8135 -0.0599  0.7139
 6990SOL    HW132432   0.517   0.419  16.262  1.0785  0.0639  0.3263
 6990SOL    HW232433   0.625   0.355  16.206  0.0363  1.2648  0.1198
 6991SOL     OW32434   1.207   4.294   3.101  0.0554  0.3166  0.2038
 6991SOL    HW132435   1.120   4.303   3.061 -0.1852 -1.0248  0.4445
 6991SOL    HW232436   1.219   4.387   3.119 -1.4872  0.7193 -0.7500
 6992SOL     OW32437   2.797   2.510   6.226 -0.9041  0.1078  0.2006
 6992SOL    HW132438   2.796   2.588   6.281 -1.2183  1.0646 -1.1655
 6992SOL    HW232439   2.884   2.479   6.254 -1.5440  0.5277  2.7040
 6993SOL     OW32440   0.884   0.673  15.723 -0.2628 -0.7737  0.3146
 6993SOL    HW132441   0.945   0.699  15.654 -0.8675  0.1867  0.1454
 6993SOL    HW232442   0.941   0.638  15.792 -1.1843 -1.0288  0.9452
 6994SOL     OW32443   3.708   2.741   3.585 -0.0394 -0.3523  0.3014
 6994SOL    HW132444   3.761   2.783   3.652  0.6503  0.7092 -0.9252
 6994SOL    HW232445   3.661   2.816   3.548 -1.4044 -1.3763 -0.0757
 6995SOL     OW32446   1.332   0.029  16.742 -0.4663 -0.0429  0.7151
 6995SOL    HW132447   1.329   0.039  16.837  0.9558 -0.4110  0.7982
 6995SOL    HW232448   1.403   0.089  16.720  0.2250 -0.3935  2.0121
 6996SOL     OW32449   1.500   0.517   9.857  0.5153 -0.1497 -0.1418
 6996SOL    HW132450   1.555   0.561   9.922  0.1317 -1.7026  1.2504
 6996SOL    HW232451   1.521   0.424   9.868  1.4622  0.1884  0.9548
 6997SOL     OW32452   1.932   2.103   3.722  0.0625 -1.0573 -0.3866
 6997SOL    HW132453   1.991   2.090   3.796  0.0831  0.3346 -0.1591
 6997SOL    HW232454   1.950   2.195   3.703  0.8273 -1.3828 -1.2755
 6998SOL     OW32455   3.647   2.889   4.889  0.0081 -0.0966  0.2098
 6998SOL    HW132456   3.665   2.922   4.801  2.0008  1.5477  1.2494
 6998SOL    HW232457   3.726   2.929   4.926  0.3096 -1.5791  1.1755
 6999SOL     OW32458   1.849   3.943   5.435 -0.1119 -0.4650 -0.2942
 6999SOL    HW132459   1.932   3.919   5.393  1.2343  2.6542  0.5946
 6999SOL    HW232460   1.848   4.039   5.435 -0.5400 -0.4669 -0.9087
 7000SOL     OW32461   2.991   1.525  12.927 -1.3205  0.3056  0.1075
 7000SOL    HW132462   3.079   1.506  12.897 -1.7138 -0.3035 -0.6475
 7000SOL    HW232463   2.995   1.615  12.958  1.5972 -0.8855  3.1950
 7001SOL     OW32464   2.864   2.992   5.486 -0.2783 -0.1295 -0.3792
 7001SOL    HW132465   2.877   3.070   5.432  2.1535  0.8382  1.6139
 7001SOL    HW232466   2.957   2.969   5.490 -0.5420 -1.3433 -0.9160
 7002SOL     OW32467   3.076   0.267   6.054 -0.4060 -0.3155 -0.1499
 7002SOL    HW132468   3.043   0.182   6.083  3.9718 -1.7240  0.7534
 7002SOL    HW232469   3.137   0.246   5.983 -2.0154  0.5105 -1.7447
 7003SOL     OW32470   0.305   3.166   7.026  0.5947 -0.0901  0.3332
 7003SOL    HW132471   0.387   3.208   7.053  0.9073 -1.1037  0.9328
 7003SOL    HW232472   0.333   3.082   7.062  1.4729  0.7789  1.6654
 7004SOL     OW32473   0.097   0.954   3.655 -0.1128  0.1634  0.7785
 7004SOL    HW132474   0.137   0.942   3.741 -0.1319 -1.6290  0.5459
 7004SOL    HW232475   0.010   0.975   3.690 -1.1690  0.1690 -1.8046
 7005SOL     OW32476   0.971   2.398   9.538  0.0197 -0.2801  0.2538
 7005SOL    HW132477   0.973   2.343   9.459  1.7439  0.6075 -0.3329
 7005SOL    HW232478   0.908   2.357   9.596  2.4172 -1.9694  1.6557
 7006SOL     OW32479   4.349   2.258   0.882 -0.0139 -0.2130  0.2603
 7006SOL    HW132480   4.332   2.346   0.849  3.3568 -0.5209 -2.2424
 7006SOL    HW232481   4.371   2.213   0.801  0.0290  0.6407 -0.2017
 7007SOL     OW32482   0.118   1.266  11.962 -0.1120 -0.3986 -0.1045
 7007SOL    HW132483   0.067   1.289  11.885  0.0297 -1.0822 -0.4028
 7007SOL    HW232484   0.056   1.219  12.018  1.3519  1.5653  3.2137
 7008SOL     OW32485   3.574   3.883  16.035  0.4347 -0.5310  0.4612
 7008SOL    HW132486   3.654   3.921  16.070 -1.3842  2.9181  0.8380
 7008SOL    HW232487   3.518   3.877  16.113 -1.0435 -0.0679 -0.5605
 7009SOL     OW32488   1.046   4.570  14.566  0.7054  0.1099  0.2775
 7009SOL    HW132489   1.053   4.611  14.479  0.4816  1.1285  0.7347
 7009SOL    HW232490   0.958   4.592  14.597  0.9444 -0.0126  1.0346
 7010SOL     OW32491   2.449   0.747  13.606  0.3981 -0.2202 -0.1808
 7010SOL    HW132492   2.477   0.665  13.566 -0.5762  0.2122 -1.7187
 7010SOL    HW232493   2.363   0.720  13.639 -1.2986  2.7221 -2.1721
 7011SOL     OW32494   4.709   4.677   2.130 -0.4649  0.5171 -0.5352
 7011SOL    HW132495   4.643   4.662   2.063 -2.0805  0.3351  1.0906
 7011SOL    HW232496   4.656   4.668   2.209 -1.7174  0.4551 -1.3922
 7012SOL     OW32497   2.820   0.743   1.847 -0.5495  0.0171  0.5273
 7012SOL    HW132498   2.791   0.830   1.819 -2.5916  0.1364  3.0122
 7012SOL    HW232499   2.841   0.713   1.758 -0.5056  0.3716  0.4204
 7013SOL     OW32500   2.283   3.395   2.110 -0.1271 -0.3631  0.0148
 7013SOL    HW132501   2.310   3.462   2.047  1.0000  0.6147  1.5505
 7013SOL    HW232502   2.212   3.354   2.061 -2.6335  1.5735  1.9697
 7014SOL     OW32503   0.313   1.282   2.980 -0.0884 -0.1394 -0.1831
 7014SOL    HW132504   0.395   1.232   2.973 -0.1590 -0.2898  0.0584
 7014SOL    HW232505   0.301   1.309   2.889 -1.3218  0.9910  0.3094
 7015SOL     OW32506   2.926   0.054  16.280  0.2524 -0.2611 -0.3380
 7015SOL    HW132507   2.912   4.713  16.348 -0.2643  2.5764  2.3187
 7015SOL    HW232508   2.955   4.718  16.213 -0.0294 -0.6057 -0.1464
 7016SOL     OW32509   1.482   2.155  11.918 -0.5147 -0.3901 -0.0544
 7016SOL    HW132510   1.431   2.178  11.840 -1.8623  0.1139  0.9743
 7016SOL    HW232511   1.546   2.096  11.879  0.0107  0.0546  0.1494
 7017SOL     OW32512   0.397   2.377   8.644  0.1503 -0.2447 -0.2970
 7017SOL    HW132513   0.337   2.357   8.715  1.3361  2.7332  1.5288
 7017SOL    HW232514   0.484   2.364   8.683  0.2983  2.3715  0.2620
 7018SOL     OW32515   1.588   0.027  13.531  0.5397 -0.1989  0.1785
 7018SOL    HW132516   1.499   0.022  13.565 -0.4530  1.3839 -2.2394
 7018SOL    HW232517   1.572   0.091  13.462 -0.4845  1.1034  1.6037
 7019SOL     OW32518   0.295   2.777  15.481  0.0610 -0.0959 -0.6527
 7019SOL    HW132519   0.234   2.851  15.487  0.1406 -0.2172  1.3835
 7019SOL    HW232520   0.339   2.783  15.566 -0.9738  0.8386 -0.1806
 7020SOL     OW32521   3.684   3.074   2.712  0.3167  0.3847  0.2925
 7020SOL    HW132522   3.722   3.128   2.642  0.3417  1.6114  1.2437
 7020SOL    HW232523   3.753   3.053   2.775  0.7209 -0.2924 -0.3834
 7021SOL     OW32524   0.222   3.992   3.474 -0.0821 -0.3997 -0.1150
 7021SOL    HW132525   0.186   4.075   3.503 -1.1329 -0.8750 -0.0458
 7021SOL    HW232526   0.142   3.944   3.449 -0.8134  0.3400  0.7962
 7022SOL     OW32527   1.111   3.552   4.921 -0.3010 -0.4764 -0.4022
 7022SOL    HW132528   1.202   3.524   4.931 -0.9673 -2.2818  0.5671
 7022SOL    HW232529   1.098   3.559   4.826 -0.1324  2.4470 -0.1874
 7023SOL     OW32530   2.647   0.981   4.600 -0.4871 -0.0364  0.1656
 7023SOL    HW132531   2.637   1.076   4.590 -0.1465 -0.0334 -0.1197
 7023SOL    HW232532   2.623   0.976   4.693 -0.7940 -3.1958 -0.0967
 7024SOL     OW32533   3.295   1.108  11.356 -0.1150 -0.2187  0.0694
 7024SOL    HW132534   3.266   1.129  11.445 -0.6639 -1.1868  0.1155
 7024SOL    HW232535   3.357   1.181  11.347 -0.8666  0.4425  0.2235
 7025SOL     OW32536   3.197   3.926   6.655 -0.4901 -0.1523  0.0532
 7025SOL    HW132537   3.257   3.852   6.658 -0.5242 -0.1257  1.5990
 7025SOL    HW232538   3.120   3.888   6.613 -1.1450  1.7022 -0.4337
 7026SOL     OW32539   4.471   3.083   7.039  0.2714  0.1672 -0.3188
 7026SOL    HW132540   4.537   3.108   6.975 -0.4843  1.5139 -0.5544
 7026SOL    HW232541   4.450   2.992   7.018  0.0732  0.0970  0.1802
 7027SOL     OW32542   4.485   2.470  12.199 -0.2523  0.1296  0.3272
 7027SOL    HW132543   4.537   2.433  12.128 -0.8028 -2.9388  1.5483
 7027SOL    HW232544   4.472   2.559  12.167  0.8559  1.1450  2.6595
 7028SOL     OW32545   1.954   1.401   6.901 -0.6177 -0.6467 -0.0230
 7028SOL    HW132546   1.998   1.402   6.816 -1.1683  0.5377 -0.2936
 7028SOL    HW232547   1.958   1.489   6.938  3.5600 -0.3475 -1.1784
 7029SOL     OW32548   1.174   0.814   3.476 -0.5968  0.4401  0.2225
 7029SOL    HW132549   1.179   0.908   3.460 -0.9100  0.7305  1.7815
 7029SOL    HW232550   1.085   0.810   3.511 -0.7843 -1.2883 -0.4866
 7030SOL     OW32551   4.007   4.580   6.787 -0.5670 -0.2743 -0.0548
 7030SOL    HW132552   4.093   4.598   6.825 -1.1532 -0.8653  1.5652
 7030SOL    HW232553   3.958   4.543   6.861 -0.5999 -0.5087 -0.1966
 7031SOL     OW32554   2.659   3.926   3.948  0.0958  0.0236 -0.7075
 7031SOL    HW132555   2.652   3.846   3.895 -0.1133 -0.9244  0.7428
 7031SOL    HW232556   2.649   3.989   3.877  1.5248  0.6726 -0.3379
 7032SOL     OW32557   0.919   1.916  13.695 -0.2476  0.2679  0.7236
 7032SOL    HW132558   0.864   1.873  13.760  1.6982  2.9900  4.1696
 7032SOL    HW232559   0.949   1.849  13.634 -0.1986  2.1736 -1.3853
 7033SOL     OW32560   2.462   1.059  15.913 -0.2951 -0.6455  0.6881
 7033SOL    HW132561   2.542   1.012  15.890  0.5823  0.7683  0.8521
 7033SOL    HW232562   2.502   1.141  15.941  0.8784 -1.0617  0.2431
 7034SOL     OW32563   4.251   1.267   3.688 -0.3596  0.0244  0.2665
 7034SOL    HW132564   4.333   1.269   3.638 -1.0627  0.5417 -0.8636
 7034SOL    HW232565   4.210   1.188   3.654  0.6183 -0.4760  0.2421
 7035SOL     OW32566   3.907   3.046  16.846  0.4430  0.1811  0.5024
 7035SOL    HW132567   3.876   2.983  16.912 -1.5433  0.9023  0.2759
 7035SOL    HW232568   3.881   3.128  16.887 -1.0428 -0.0113 -0.0360
 7036SOL     OW32569   0.782   0.100   9.345  0.5376  0.3464 -0.1233
 7036SOL    HW132570   0.694   0.062   9.351  0.6446  0.5351  2.6312
 7036SOL    HW232571   0.835   0.022   9.328  2.0432  1.3081  0.2130
 7037SOL     OW32572   1.391   1.659   9.650 -0.0301  0.2612 -0.1705
 7037SOL    HW132573   1.322   1.642   9.585  0.0147 -0.6642  0.0279
 7037SOL    HW232574   1.438   1.739   9.625  1.3409 -0.6531 -0.4649
 7038SOL     OW32575   2.787   2.485   1.042 -0.5638 -0.5997  0.4953
 7038SOL    HW132576   2.751   2.524   1.122  1.0861 -0.5572  1.2151
 7038SOL    HW232577   2.722   2.417   1.023 -0.6958 -0.5180  0.6550
 7039SOL     OW32578   3.867   1.726   2.324  0.1007 -0.0276 -0.1074
 7039SOL    HW132579   3.782   1.739   2.365  0.6790  0.5823  0.8941
 7039SOL    HW232580   3.912   1.665   2.382 -0.6678 -1.3110 -0.8692
 7040SOL     OW32581   1.479   0.524   9.455  0.3173 -0.5579  0.0192
 7040SOL    HW132582   1.413   0.593   9.449  0.3268 -0.6303 -0.9108
 7040SOL    HW232583   1.467   0.484   9.368  0.3257 -2.8372  1.0668
 7041SOL     OW32584   2.318   0.183   4.922 -0.1640 -0.1890  0.0030
 7041SOL    HW132585   2.340   0.092   4.945  0.5113 -0.4504 -1.6974
 7041SOL    HW232586   2.223   0.178   4.913 -0.3026 -1.1521  1.7996
 7042SOL     OW32587   2.992   3.208   8.650 -0.1797 -0.6483 -0.1532
 7042SOL    HW132588   2.996   3.119   8.686 -0.3543 -1.0788 -1.1971
 7042SOL    HW232589   3.067   3.217   8.591 -0.4609 -0.7867 -0.5340
 7043SOL     OW32590   4.311   4.430   3.508  0.1973 -0.1963 -0.6428
 7043SOL    HW132591   4.251   4.360   3.482 -1.8645  1.2483  0.2023
 7043SOL    HW232592   4.355   4.394   3.585  1.0759 -2.7138 -2.3360
 7044SOL     OW32593   3.807   1.882   2.736 -0.1380 -0.2566 -0.0209
 7044SOL    HW132594   3.718   1.847   2.742 -0.2194  0.1570  1.3006
 7044SOL    HW232595   3.800   1.942   2.810  0.0447  0.7547 -0.8201
 7045SOL     OW32596   3.739   2.662  16.540  0.3540  0.3250 -0.1750
 7045SOL    HW132597   3.750   2.699  16.628 -0.1491  4.2333 -1.7393
 7045SOL    HW232598   3.830   2.636  16.532  0.5290 -0.1511  3.1803
 7046SOL     OW32599   0.306   3.353  11.708  0.0869  0.1971 -0.5243
 7046SOL    HW132600   0.386   3.401  11.690 -0.3654  1.0804 -0.1719
 7046SOL    HW232601   0.325   3.312  11.793  1.8449  0.0083 -1.0136
 7047SOL     OW32602   2.696   4.197  15.779  0.5523 -0.2612  0.6755
 7047SOL    HW132603   2.710   4.291  15.769  3.1646 -0.5344  1.5968
 7047SOL    HW232604   2.605   4.192  15.808  1.5250  3.1562  4.2690
 7048SOL     OW32605   0.104   1.339   3.937  0.2032 -0.3358  0.2721
 7048SOL    HW132606   0.099   1.384   4.021 -0.7668  0.9477 -0.4633
 7048SOL    HW232607   0.126   1.250   3.966  0.2517 -0.3127  0.3056
 7049SOL     OW32608   4.623   3.414   0.903 -0.4967  0.0575  0.3080
 7049SOL    HW132609   4.700   3.389   0.954 -0.1655 -2.1162 -1.2660
 7049SOL    HW232610   4.601   3.501   0.937 -1.9709 -0.7063  1.3045
 7050SOL     OW32611   0.036   2.537   4.111  0.2458 -0.3281  0.1294
 7050SOL    HW132612   4.666   2.529   4.119 -0.1274  0.6943 -3.1020
 7050SOL    HW232613   0.041   2.594   4.034  1.3940 -0.4097  0.1485
 7051SOL     OW32614   1.370   3.490   7.255  0.2032 -0.4054  0.0344
 7051SOL    HW132615   1.353   3.431   7.181 -2.5419  0.4478 -0.0099
 7051SOL    HW232616   1.327   3.570   7.225  1.3130 -0.0275 -0.5667
 7052SOL     OW32617   0.206   0.258  12.137 -0.2361  0.6671 -0.6312
 7052SOL    HW132618   0.253   0.227  12.060  0.5378 -0.9211  0.4925
 7052SOL    HW232619   0.135   0.194  12.139 -2.0799  2.7292  1.8827
 7053SOL     OW32620   1.874   1.785   4.006  0.1891 -0.1642 -0.5986
 7053SOL    HW132621   1.950   1.731   4.032 -1.1964 -1.8117  0.0253
 7053SOL    HW232622   1.891   1.797   3.913  0.3810 -0.6168 -0.6244
 7054SOL     OW32623   1.267   2.140   3.671 -0.0406 -0.4938 -0.0855
 7054SOL    HW132624   1.209   2.133   3.746  0.6509  0.8605  0.5673
 7054SOL    HW232625   1.265   2.234   3.652  1.3059 -0.2827  0.7608
 7055SOL     OW32626   1.985   3.148   4.608 -0.4671  0.5298  0.1188
 7055SOL    HW132627   1.973   3.225   4.554 -0.2763 -0.7364 -1.7240
 7055SOL    HW232628   2.015   3.188   4.690 -2.4297  0.7993  0.6926
 7056SOL     OW32629   3.918   3.006   7.222  0.2432 -0.3677 -0.2906
 7056SOL    HW132630   3.874   2.921   7.216  0.6064 -0.4738 -1.3444
 7056SOL    HW232631   3.847   3.066   7.203  0.7872 -0.2524 -1.9453
 7057SOL     OW32632   1.292   1.254  11.306  0.3792 -0.1327  0.4586
 7057SOL    HW132633   1.261   1.223  11.221 -1.4746  3.6784 -0.2417
 7057SOL    HW232634   1.381   1.220  11.308  1.5556  2.8629 -1.6562
 7058SOL     OW32635   4.651   3.818   6.483 -0.0044  0.4280 -0.0152
 7058SOL    HW132636   4.605   3.770   6.552  0.3957 -1.6569 -1.2078
 7058SOL    HW232637   0.000   3.762   6.461 -1.2383 -1.4678  0.5859
 7059SOL     OW32638   0.063   4.581   8.647  0.2135 -0.5568  0.2041
 7059SOL    HW132639   0.082   4.585   8.740 -1.1607  2.6356  0.3599
 7059SOL    HW232640   0.118   4.648   8.606 -0.6584  0.2065  0.2711
 7060SOL     OW32641   0.678   4.139   6.258 -0.0663 -0.1363 -0.1349
 7060SOL    HW132642   0.749   4.093   6.302 -1.2648 -1.3772  0.4772
 7060SOL    HW232643   0.699   4.230   6.282 -0.1795  0.0373 -0.6795
 7061SOL     OW32644   1.700   4.069   3.472 -0.0651 -0.0747 -0.0677
 7061SOL    HW132645   1.738   4.137   3.416 -1.5492  0.2487 -0.6850
 7061SOL    HW232646   1.742   4.086   3.557 -0.7184 -1.8603  0.6260
 7062SOL     OW32647   1.399   3.847   4.787  0.2748  0.6767  0.4497
 7062SOL    HW132648   1.459   3.874   4.718  0.7337 -0.4204  0.4190
 7062SOL    HW232649   1.320   3.894   4.760  0.8078  0.0646 -2.1670
 7063SOL     OW32650   2.031   3.691   4.838 -0.2162  0.0056 -0.6805
 7063SOL    HW132651   2.100   3.757   4.832  0.1553 -0.1156  2.1770
 7063SOL    HW232652   2.061   3.631   4.770  0.5699  2.4372 -2.4641
 7064SOL     OW32653   3.895   1.090   2.545  0.1863 -0.1057  0.4706
 7064SOL    HW132654   3.911   1.011   2.493  0.6256  0.8228 -0.8054
 7064SOL    HW232655   3.972   1.134   2.509  0.5138 -2.3648 -1.6535
 7065SOL     OW32656   1.813   1.838   4.362  0.6457  0.0573  0.0698
 7065SOL    HW132657   1.795   1.884   4.443 -1.3795  1.0743 -0.9571
 7065SOL    HW232658   1.851   1.756   4.394  0.4107 -0.4656 -0.9659
 7066SOL     OW32659   2.529   1.164  10.069 -0.2148 -0.4519  0.2163
 7066SOL    HW132660   2.586   1.229  10.110 -1.5919 -0.0819  1.5543
 7066SOL    HW232661   2.527   1.085  10.124 -1.2591 -0.9433 -0.5166
 7067SOL     OW32662   3.726   1.702   3.969 -0.2019  0.1352 -0.0729
 7067SOL    HW132663   3.667   1.660   3.907 -0.4727 -2.5242  1.9837
 7067SOL    HW232664   3.787   1.629   3.978  0.6597  0.9731  0.8424
 7068SOL     OW32665   3.379   1.114   3.104 -0.4843  0.4643  0.3261
 7068SOL    HW132666   3.308   1.177   3.111  0.4525  1.3343  2.1391
 7068SOL    HW232667   3.329   1.056   3.046  0.5934 -2.1089  1.9341
 7069SOL     OW32668   3.012   1.288   1.225  0.1201  0.4160 -0.0704
 7069SOL    HW132669   3.101   1.262   1.203 -0.1767  0.2209 -1.0292
 7069SOL    HW232670   2.973   1.288   1.138  0.8776 -0.6078 -0.4057
 7070SOL     OW32671   2.842   0.675   3.187 -0.0306 -0.3100  0.3371
 7070SOL    HW132672   2.901   0.751   3.179  1.2227 -1.5010 -1.8807
 7070SOL    HW232673   2.834   0.675   3.282  0.6853 -0.2816  0.3967
 7071SOL     OW32674   1.892   2.474  17.264  0.5215 -0.4366 -0.2269
 7071SOL    HW132675   1.954   2.411  17.227  0.2001 -0.9926  0.1931
 7071SOL    HW232676   1.872   2.521  17.183  1.9770  0.7108  0.0762
 7072SOL     OW32677   0.928   0.267   2.137 -0.6394 -0.3846 -0.0234
 7072SOL    HW132678   0.869   0.280   2.211 -2.0387  1.5250 -1.4516
 7072SOL    HW232679   0.957   0.358   2.145 -2.6695  0.2592 -0.0167
 7073SOL     OW32680   2.328   4.254   4.674 -0.2669 -0.3356 -0.1807
 7073SOL    HW132681   2.282   4.305   4.607 -0.2177 -0.2402 -0.1418
 7073SOL    HW232682   2.418   4.284   4.688 -0.4492  0.5834 -1.0136
 7074SOL     OW32683   2.409   0.831   5.015 -0.0080  0.5118  0.1127
 7074SOL    HW132684   2.333   0.889   5.009  0.0926  0.5674 -0.6868
 7074SOL    HW232685   2.373   0.774   5.082 -0.5323  1.3324  0.5424
 7075SOL     OW32686   1.146   2.554  12.978 -0.2695  0.1889  0.7200
 7075SOL    HW132687   1.081   2.483  12.982  1.0658 -1.0897 -0.4188
 7075SOL    HW232688   1.195   2.537  13.059  1.9694  1.7452 -0.3116
 7076SOL     OW32689   1.356   1.119   5.405  0.3247  0.4245 -0.0246
 7076SOL    HW132690   1.331   1.035   5.442 -3.5191  1.6448  0.1881
 7076SOL    HW232691   1.272   1.163   5.397  0.0796 -0.0258  0.0931
 7077SOL     OW32692   0.356   3.401   7.988  0.7381  0.4766  0.0096
 7077SOL    HW132693   0.423   3.428   7.925 -0.6799 -0.4203 -1.9071
 7077SOL    HW232694   0.339   3.315   7.949  0.3735 -0.9022  3.2546
 7078SOL     OW32695   4.700   3.570   1.688  0.4451 -0.1635 -0.6950
 7078SOL    HW132696   4.667   3.653   1.722  1.5728 -0.1550  0.3999
 7078SOL    HW232697   0.060   3.567   1.733  1.3716  0.7416 -2.3962
 7079SOL     OW32698   3.358   3.909  16.208  0.1104 -0.0201 -0.2921
 7079SOL    HW132699   3.322   3.979  16.262  0.4277 -0.1080  0.0313
 7079SOL    HW232700   3.395   3.855  16.277  0.6088  2.2870  1.2365
 7080SOL     OW32701   3.242   2.846   6.562  0.4300 -0.0838 -0.1537
 7080SOL    HW132702   3.214   2.874   6.475 -0.8879 -0.1531  0.2472
 7080SOL    HW232703   3.308   2.913   6.579 -1.1615  1.2074  0.8339
 7081SOL     OW32704   2.721   1.693   2.072  0.3201 -0.0278 -0.5259
 7081SOL    HW132705   2.638   1.741   2.068 -0.3201 -1.3414 -3.0941
 7081SOL    HW232706   2.704   1.605   2.039  1.0645 -0.4176  0.1375
 7082SOL     OW32707   3.417   1.619  12.041  0.3938  0.2656  0.2890
 7082SOL    HW132708   3.464   1.672  12.105  0.5950  0.1113  0.2695
 7082SOL    HW232709   3.399   1.682  11.971 -0.6297  0.6288  0.8871
 7083SOL     OW32710   1.814   0.015   5.597 -0.3432 -0.2238 -0.5693
 7083SOL    HW132711   1.724   0.044   5.605 -0.0595  0.0485  1.8540
 7083SOL    HW232712   1.845   0.035   5.686  1.1282 -2.8417 -0.4847
 7084SOL     OW32713   0.394   2.830  10.223  0.0958  0.9007 -0.2444
 7084SOL    HW132714   0.323   2.882  10.185  0.3733  1.3858 -0.0943
 7084SOL    HW232715   0.340   2.752  10.240 -0.1735  0.7306 -1.8978
 7085SOL     OW32716   1.720   2.219   3.965  0.1033  0.3491  0.1470
 7085SOL    HW132717   1.763   2.140   3.997 -0.0103  0.7972  1.3949
 7085SOL    HW232718   1.708   2.206   3.871  3.5438 -0.6661 -0.1548
 7086SOL     OW32719   2.780   1.111   7.797  0.1729  0.1093  0.0098
 7086SOL    HW132720   2.715   1.058   7.843 -0.7009  0.3451 -0.9604
 7086SOL    HW232721   2.817   1.052   7.732  0.4755 -0.7050  0.9167
 7087SOL     OW32722   0.337   0.133  13.861 -0.0233 -0.1225 -0.2244
 7087SOL    HW132723   0.390   0.192  13.914  0.5791  0.9394 -2.0063
 7087SOL    HW232724   0.408   0.081  13.822 -0.2066 -1.3378  1.0792
 7088SOL     OW32725   1.012   4.474   6.670  0.1109  0.2493 -0.0728
 7088SOL    HW132726   1.067   4.505   6.598  2.4143  1.8195  2.3349
 7088SOL    HW232727   1.019   4.379   6.661  0.2533  0.3121 -0.6102
 7089SOL     OW32728   4.272   2.765   4.784  0.9418 -0.2359 -0.1231
 7089SOL    HW132729   4.215   2.761   4.707 -1.1322  1.6791  1.2823
 7089SOL    HW232730   4.312   2.852   4.776  0.6763 -0.1241 -0.2352
 7090SOL     OW32731   2.669   1.334   4.384 -0.1164 -0.4924 -0.1040
 7090SOL    HW132732   2.615   1.271   4.336  2.2168 -1.4203 -1.5367
 7090SOL    HW232733   2.661   1.408   4.323  0.5747 -1.2582 -1.1253
 7091SOL     OW32734   3.670   1.946  15.887 -0.3085  0.2800 -0.0228
 7091SOL    HW132735   3.723   1.866  15.883 -1.4353 -0.5406  1.4612
 7091SOL    HW232736   3.654   1.961  15.980  0.4553  0.2324  0.1150
 7092SOL     OW32737   1.345   1.919  10.116 -0.0010 -0.0156  0.2838
 7092SOL    HW132738   1.427   1.962  10.138  0.2211 -0.0893 -0.4058
 7092SOL    HW232739   1.377   1.844  10.067  0.4121 -1.9667  3.5542
 7093SOL     OW32740   2.016   1.074   9.781  0.0540 -0.1491 -0.1003
 7093SOL    HW132741   2.071   0.997   9.790 -0.2748 -0.5448 -1.5623
 7093SOL    HW232742   2.021   1.089   9.687 -0.5900 -0.8521 -0.2415
 7094SOL     OW32743   3.842   3.658   6.863 -0.0398 -0.0582  0.4008
 7094SOL    HW132744   3.936   3.678   6.861 -0.2188  0.7013 -0.3403
 7094SOL    HW232745   3.868   3.566   6.850 -0.4762  0.0205 -1.0953
 7095SOL     OW32746   2.097   4.108   7.422 -0.0309  0.1314 -0.0460
 7095SOL    HW132747   2.023   4.161   7.453 -1.6535 -1.9279 -0.4115
 7095SOL    HW232748   2.117   4.067   7.506 -0.3696 -0.4626 -0.2524
 7096SOL     OW32749   0.741   0.933   4.091  0.1206 -0.1467  0.2899
 7096SOL    HW132750   0.746   0.878   4.169  0.4350 -2.7416 -1.5615
 7096SOL    HW232751   0.703   0.876   4.024 -1.3673  0.2324  0.8116
 7097SOL     OW32752   0.721   1.552   3.419  0.4218  0.3206  0.1656
 7097SOL    HW132753   0.815   1.569   3.425  0.4597  0.8738 -2.0547
 7097SOL    HW232754   0.686   1.628   3.372  0.1667 -1.0653 -1.8780
 7098SOL     OW32755   3.108   4.076   2.650  0.0731  0.1693  0.0458
 7098SOL    HW132756   3.106   4.092   2.744 -1.2697 -3.2928  0.6281
 7098SOL    HW232757   3.015   4.079   2.628  0.6782  1.9433 -2.2917
 7099SOL     OW32758   1.015   1.530   4.193 -0.3084 -0.2104  0.2918
 7099SOL    HW132759   0.967   1.481   4.259 -1.0623 -0.2046 -0.2526
 7099SOL    HW232760   1.105   1.540   4.224 -0.0999 -0.0342 -0.3693
 7100SOL     OW32761   0.528   0.880  14.372  0.4035  0.2339  0.7560
 7100SOL    HW132762   0.509   0.962  14.326  0.5708 -0.4663 -0.5801
 7100SOL    HW232763   0.595   0.843  14.315  0.6637  2.2992 -0.2809
 7101SOL     OW32764   0.982   4.541  16.133  0.0037 -0.1908 -0.6384
 7101SOL    HW132765   1.056   4.488  16.104  0.2139  0.0357 -0.5133
 7101SOL    HW232766   1.021   4.623  16.163 -0.9213 -0.4958  1.3842
 7102SOL     OW32767   1.189   1.834   5.545 -0.5383 -0.1400  0.7229
 7102SOL    HW132768   1.235   1.831   5.629  0.0659  0.8173  0.4267
 7102SOL    HW232769   1.178   1.928   5.527  0.6991 -0.1942 -0.2724
 7103SOL     OW32770   1.315   0.844  15.014 -0.6818 -0.1831 -0.3329
 7103SOL    HW132771   1.334   0.792  14.935  2.2965  1.2802 -0.5923
 7103SOL    HW232772   1.276   0.777  15.070  2.3582 -1.6763  0.0185
 7104SOL     OW32773   4.438   0.157   5.709  0.2145  0.9576  0.6392
 7104SOL    HW132774   4.448   0.062   5.702 -1.1277  0.8071  0.8633
 7104SOL    HW232775   4.529   0.171   5.735  0.3963  2.1630 -0.6066
 7105SOL     OW32776   0.302   1.218   8.833 -0.0728 -0.1969  0.0632
 7105SOL    HW132777   0.299   1.165   8.753  1.1005 -0.1537 -0.0064
 7105SOL    HW232778   0.341   1.160   8.898  2.0665  1.5214  0.2819
 7106SOL     OW32779   4.143   4.055   8.961 -0.2713 -0.1052  0.3037
 7106SOL    HW132780   4.187   4.010   9.033  1.2037  0.3728 -0.3020
 7106SOL    HW232781   4.146   3.998   8.884  0.0232  0.5964 -0.1978
 7107SOL     OW32782   2.531   1.555   5.222 -0.6717 -0.7257 -0.7829
 7107SOL    HW132783   2.513   1.526   5.312  3.1809 -1.1248 -0.1395
 7107SOL    HW232784   2.466   1.626   5.219 -1.6207 -1.5266  0.6390
 7108SOL     OW32785   0.865   2.355  15.224 -0.0818  0.0916 -0.6124
 7108SOL    HW132786   0.960   2.361  15.214  0.2352  0.6066  2.7273
 7108SOL    HW232787   0.841   2.426  15.164  0.9241  0.2704 -0.8051
 7109SOL     OW32788   3.075   2.808   5.747  0.0162 -0.4404  0.3244
 7109SOL    HW132789   3.024   2.784   5.824 -1.8096  1.1361 -0.4052
 7109SOL    HW232790   3.009   2.796   5.679 -2.0208 -0.8658  2.3670
 7110SOL     OW32791   3.028   0.794  11.711 -0.3518  1.1421  0.7343
 7110SOL    HW132792   2.985   0.712  11.734  1.7809 -0.1971 -0.0838
 7110SOL    HW232793   3.021   0.834  11.798 -2.1419 -1.4228  1.7479
 7111SOL     OW32794   3.265   2.442  14.463 -0.2318  0.2971  0.1425
 7111SOL    HW132795   3.284   2.498  14.538 -0.6274 -1.8592  1.8460
 7111SOL    HW232796   3.175   2.416  14.483 -0.2269  1.0251  1.1123
 7112SOL     OW32797   0.991   4.118  12.838 -0.5769 -0.2271  0.4538
 7112SOL    HW132798   1.050   4.180  12.795 -0.8434  0.4961  1.1275
 7112SOL    HW232799   0.988   4.051  12.770  1.6682 -0.7458  0.8504
 7113SOL     OW32800   4.304   1.033   8.981 -0.2883  0.3456  0.2783
 7113SOL    HW132801   4.335   1.011   9.068 -1.6206 -0.6222  0.5114
 7113SOL    HW232802   4.216   1.051   9.013  0.6844  0.5366  2.8055
 7114SOL     OW32803   0.216   4.535  14.303  0.5722  0.2844 -0.2579
 7114SOL    HW132804   0.311   4.531  14.304  0.4612 -1.6409  2.3863
 7114SOL    HW232805   0.186   4.444  14.314 -0.5965  0.8734  1.4595
 7115SOL     OW32806   3.370   3.897   4.379  0.2164 -0.2439 -0.1671
 7115SOL    HW132807   3.424   3.917   4.302 -1.8658  0.7322 -1.4001
 7115SOL    HW232808   3.414   3.959   4.437 -2.3770  2.5121 -1.1011
 7116SOL     OW32809   3.338   1.115   8.694 -0.3151  0.4070 -0.0608
 7116SOL    HW132810   3.310   1.164   8.772  5.2405  0.2195  2.0263
 7116SOL    HW232811   3.430   1.102   8.715 -0.5249 -0.1104  0.5486
 7117SOL     OW32812   1.652   1.292   8.342 -0.0845  0.5710 -0.3940
 7117SOL    HW132813   1.742   1.284   8.371 -0.1206 -1.4816 -0.8643
 7117SOL    HW232814   1.605   1.214   8.372  0.9131  0.9428  2.1167
 7118SOL     OW32815   3.303   3.513  16.821  0.5292  0.0277  0.0931
 7118SOL    HW132816   3.315   3.607  16.835 -0.3833 -0.0519  1.4660
 7118SOL    HW232817   3.225   3.488  16.871  0.6646 -0.9715 -0.2014
 7119SOL     OW32818   4.018   1.303   2.371 -0.3076  0.0163 -0.3469
 7119SOL    HW132819   4.032   1.382   2.424  3.3713 -0.4431 -0.6781
 7119SOL    HW232820   4.107   1.269   2.362 -1.0480 -1.5319 -1.8742
 7120SOL     OW32821   1.508   1.988   4.879  0.0023  0.2810  0.3413
 7120SOL    HW132822   1.456   1.972   4.800 -0.0404 -0.2807  0.4808
 7120SOL    HW232823   1.438   2.022   4.935 -1.3792 -0.9108 -0.6360
 7121SOL     OW32824   0.693   2.594   6.591 -0.5688 -0.2769  0.5370
 7121SOL    HW132825   0.622   2.598   6.655  0.2364  1.5417  1.3239
 7121SOL    HW232826   0.637   2.575   6.515 -0.5074 -2.5211  1.0455
 7122SOL     OW32827   0.215   3.004  11.164 -0.1307  0.0602  0.1244
 7122SOL    HW132828   0.224   3.079  11.223 -1.7294  1.6173 -1.6139
 7122SOL    HW232829   0.285   3.022  11.101  0.4185 -2.2286  0.1006
 7123SOL     OW32830   1.408   4.412   5.629 -0.5467  0.1223  0.2347
 7123SOL    HW132831   1.468   4.358   5.579 -0.7031 -1.2992  1.5977
 7123SOL    HW232832   1.394   4.366   5.711 -1.8019 -0.8819 -0.5425
 7124SOL     OW32833   0.332   0.899   2.849  0.2889  0.2952  0.1310
 7124SOL    HW132834   0.238   0.904   2.868  0.3765  0.7475  0.4524
 7124SOL    HW232835   0.340   0.982   2.801 -2.6116 -0.3290 -1.4710
 7125SOL     OW32836   4.007   1.373   6.645  0.0705 -0.0966  0.9180
 7125SOL    HW132837   4.075   1.339   6.703  0.9223  0.0102 -0.0220
 7125SOL    HW232838   3.939   1.382   6.712 -0.9037 -0.3756 -0.0133
 7126SOL     OW32839   0.994   3.878   9.496  0.0892 -0.4689  0.2365
 7126SOL    HW132840   0.914   3.902   9.449  2.2313  0.6805 -2.8077
 7126SOL    HW232841   1.057   3.937   9.455 -1.1750  0.8595  0.2217
 7127SOL     OW32842   4.598   2.191   4.498  0.4217 -0.0086  0.6090
 7127SOL    HW132843   4.600   2.253   4.425 -0.7577  1.8716  2.1772
 7127SOL    HW232844   4.526   2.225   4.550 -1.7154 -2.4606 -0.7606
 7128SOL     OW32845   3.216   0.301   7.564  0.0692 -0.0611 -0.0314
 7128SOL    HW132846   3.200   0.341   7.478  2.8011  1.1413  0.0418
 7128SOL    HW232847   3.151   0.340   7.622 -0.0846  0.6937 -0.7069
 7129SOL     OW32848   1.848   1.358   4.176  0.3730 -0.1716  0.1699
 7129SOL    HW132849   1.832   1.266   4.153 -2.3552  0.4459 -0.3994
 7129SOL    HW232850   1.836   1.349   4.271  2.0839  0.4427  0.4499
 7130SOL     OW32851   3.449   0.892   6.971  0.0287 -0.2662  0.3260
 7130SOL    HW132852   3.480   0.983   6.977 -0.0383 -0.2086 -0.2491
 7130SOL    HW232853   3.467   0.871   6.880  1.7543 -1.7425  1.0224
 7131SOL     OW32854   4.584   4.383  16.632  0.0331 -0.3670  0.3041
 7131SOL    HW132855   4.580   4.349  16.543  1.2453 -0.7590  0.4038
 7131SOL    HW232856   4.627   4.468  16.623  1.0810 -1.0714 -1.4424
 7132SOL     OW32857   2.382   1.484  14.984  0.1221  0.0556 -0.0233
 7132SOL    HW132858   2.326   1.488  15.062 -2.4558  1.0804 -1.9135
 7132SOL    HW232859   2.361   1.399  14.943 -0.4041  0.1464  0.0486
 7133SOL     OW32860   3.733   3.572   3.139  0.1044  0.2332 -0.3441
 7133SOL    HW132861   3.651   3.525   3.152  0.6849 -1.1819 -1.7737
 7133SOL    HW232862   3.723   3.643   3.202 -0.7679  0.2063 -0.4451
 7134SOL     OW32863   1.440   2.621   3.616  0.3840  0.7424 -0.3273
 7134SOL    HW132864   1.535   2.611   3.610  0.0032 -1.1037 -3.5672
 7134SOL    HW232865   1.435   2.700   3.670 -0.3649 -1.4805  2.8967
 7135SOL     OW32866   1.411   3.347   7.692 -0.5537  0.5826  0.3395
 7135SOL    HW132867   1.440   3.419   7.636  2.5355 -1.7385 -1.0155
 7135SOL    HW232868   1.381   3.286   7.625  1.0256 -0.6328  0.7382
 7136SOL     OW32869   4.417   0.388   9.403 -0.1167 -0.7378 -0.2031
 7136SOL    HW132870   4.362   0.449   9.452 -1.2872 -1.3758 -0.7051
 7136SOL    HW232871   4.357   0.370   9.330 -1.3867  1.4700  0.2769
 7137SOL     OW32872   2.534   4.175   2.678 -0.4268 -0.0277 -0.3271
 7137SOL    HW132873   2.596   4.245   2.697  1.1724 -1.3871 -0.4364
 7137SOL    HW232874   2.457   4.230   2.689  0.3317  0.8371  0.5715
 7138SOL     OW32875   4.450   4.697  16.417  0.6590 -0.6766  0.1778
 7138SOL    HW132876   4.501   0.042  16.376 -0.5663  0.3308  0.3682
 7138SOL    HW232877   4.480   4.621  16.369  1.2053  0.3742 -1.1372
 7139SOL     OW32878   2.630   0.730   7.237 -0.6607 -0.4601  0.2994
 7139SOL    HW132879   2.630   0.637   7.216 -1.5292 -0.2972 -0.4253
 7139SOL    HW232880   2.539   0.756   7.223 -0.6976 -1.5001 -1.4408
 7140SOL     OW32881   3.434   3.572   1.631 -0.1646 -0.3336  0.0213
 7140SOL    HW132882   3.474   3.641   1.579 -0.2226  0.9504  1.7067
 7140SOL    HW232883   3.359   3.559   1.573  1.2396 -0.3862 -1.7727
 7141SOL     OW32884   2.389   2.054   8.946 -0.0303  0.5474  0.2847
 7141SOL    HW132885   2.355   2.141   8.967 -1.0843 -0.2702  1.9913
 7141SOL    HW232886   2.454   2.072   8.878  1.3908 -2.3514  0.8942
 7142SOL     OW32887   2.181   0.250   8.582  0.6013 -0.6329  0.3648
 7142SOL    HW132888   2.267   0.211   8.595  0.4487 -1.8944 -2.4095
 7142SOL    HW232889   2.119   0.180   8.603 -1.0738  0.4359 -1.0113
 7143SOL     OW32890   2.412   4.236  13.369  0.2465  0.5224  0.4143
 7143SOL    HW132891   2.368   4.206  13.289  1.5525 -1.4183  0.4387
 7143SOL    HW232892   2.360   4.315  13.385 -0.7925  0.0739 -0.7078
 7144SOL     OW32893   1.738   0.095   2.343 -0.1950  0.4414  0.0977
 7144SOL    HW132894   1.680   0.144   2.284  0.6495 -0.9672 -1.8713
 7144SOL    HW232895   1.817   0.114   2.293  0.1185  0.1036  0.4666
 7145SOL     OW32896   2.808   1.777   3.452  0.3627  0.9633 -0.1295
 7145SOL    HW132897   2.806   1.821   3.367  1.4827 -2.3439 -1.8870
 7145SOL    HW232898   2.813   1.687   3.420  1.4789  0.1555  2.3265
 7146SOL     OW32899   1.504   3.789   4.366 -0.0158 -0.1048 -0.1469
 7146SOL    HW132900   1.595   3.781   4.397  0.2546  0.8896 -0.6702
 7146SOL    HW232901   1.469   3.865   4.414 -2.3540 -2.0788  1.2228
 7147SOL     OW32902   0.908   0.277   3.282  0.2548  0.3743 -0.1274
 7147SOL    HW132903   0.924   0.350   3.223  2.5537  0.9346  1.2070
 7147SOL    HW232904   0.875   0.216   3.216 -0.9655  0.8458  0.0471
 7148SOL     OW32905   1.702   4.205   8.052 -0.3892 -0.0302 -0.3599
 7148SOL    HW132906   1.660   4.203   8.138 -0.6244  0.1346 -0.4724
 7148SOL    HW232907   1.773   4.142   8.070 -1.6084 -1.5626 -0.9689
 7149SOL     OW32908   4.087   1.615   6.509 -0.0142  0.2394 -0.2501
 7149SOL    HW132909   4.064   1.529   6.544  0.4942  0.6656  1.1359
 7149SOL    HW232910   4.003   1.653   6.485 -0.7393 -0.1195  1.6712
 7150SOL     OW32911   0.431   0.260  13.424  0.2504  0.4070  0.3644
 7150SOL    HW132912   0.495   0.229  13.361 -0.6987  1.8444 -1.2937
 7150SOL    HW232913   0.415   0.190  13.487 -1.4490  0.3688 -0.0958
 7151SOL     OW32914   4.519   3.915   8.962 -0.2293  0.3242  0.3424
 7151SOL    HW132915   4.575   3.874   9.028  0.4929  0.0707 -0.4305
 7151SOL    HW232916   4.559   3.892   8.879  0.0029  1.3252  0.1776
 7152SOL     OW32917   1.770   2.319  15.634  0.0299  0.2615 -0.1071
 7152SOL    HW132918   1.730   2.253  15.691 -1.0040  0.6521 -0.3803
 7152SOL    HW232919   1.690   2.339  15.585 -0.6018 -1.1181  0.3696
 7153SOL     OW32920   4.395   3.809   5.500  0.0443  0.1484  0.0037
 7153SOL    HW132921   4.484   3.815   5.535 -0.2961 -1.4604  1.1475
 7153SOL    HW232922   4.335   3.816   5.574 -1.4126  0.4029 -1.1995
 7154SOL     OW32923   1.711   3.287   3.322  0.2011 -0.1319 -0.0531
 7154SOL    HW132924   1.683   3.371   3.357 -0.6004 -1.2989  2.0707
 7154SOL    HW232925   1.644   3.279   3.253 -0.4825 -0.5152  0.6593
 7155SOL     OW32926   2.124   1.539   4.919 -0.2775 -0.1541  0.4341
 7155SOL    HW132927   2.123   1.555   4.825 -1.2180 -0.5187  0.3844
 7155SOL    HW232928   2.203   1.584   4.950 -0.1510 -0.3498  0.3962
 7156SOL     OW32929   4.190   3.497   7.365 -0.1482  0.5954  0.1851
 7156SOL    HW132930   4.142   3.519   7.286 -0.3662  1.6845  0.6172
 7156SOL    HW232931   4.161   3.572   7.418  0.2035  0.0766  1.1267
 7157SOL     OW32932   0.413   4.061  16.862  0.4222 -0.3083  0.0196
 7157SOL    HW132933   0.326   4.080  16.898  0.2301 -2.0918  0.4572
 7157SOL    HW232934   0.404   3.974  16.825 -3.0062  0.1655 -0.2649
 7158SOL     OW32935   3.238   3.424   5.613  0.6029  0.0740  0.4645
 7158SOL    HW132936   3.307   3.358   5.600  3.4437  2.6550  2.6256
 7158SOL    HW232937   3.263   3.488   5.679  1.7471  2.0589 -1.8597
 7159SOL     OW32938   1.516   1.951   7.959  0.5051 -0.0744 -0.5271
 7159SOL    HW132939   1.535   1.975   8.050 -1.3997  0.7332 -0.3534
 7159SOL    HW232940   1.442   2.006   7.935  0.9182  1.2651  1.2665
 7160SOL     OW32941   2.166   3.451   0.721 -0.2745  0.4434  0.0095
 7160SOL    HW132942   2.244   3.437   0.667 -0.7481  0.3935 -0.6448
 7160SOL    HW232943   2.205   3.436   0.808  1.8424  0.4300 -0.9379
 7161SOL     OW32944   1.973   2.378   2.115  0.0576 -0.3236  0.5644
 7161SOL    HW132945   1.887   2.393   2.154 -1.0359 -0.9185 -1.5894
 7161SOL    HW232946   1.998   2.465   2.084  0.2482 -1.3368 -2.1706
 7162SOL     OW32947   2.228   3.076  17.113 -0.0284 -0.1777  0.0543
 7162SOL    HW132948   2.300   3.101  17.055  0.4902 -0.3627  0.6092
 7162SOL    HW232949   2.168   3.148  17.095  0.0802 -1.1024 -4.0174
 7163SOL     OW32950   4.609   2.092   4.778 -0.5947 -0.1032 -0.4023
 7163SOL    HW132951   4.592   2.124   4.690 -0.4392  0.3879 -0.2504
 7163SOL    HW232952   4.621   1.999   4.758  2.1200  0.2671 -0.4379
 7164SOL     OW32953   3.692   4.647   6.505  0.1857 -0.1622  0.1006
 7164SOL    HW132954   3.743   4.716   6.464  0.4222 -1.0725 -1.1323
 7164SOL    HW232955   3.759   4.580   6.492  1.7915  1.5993 -0.6641
 7165SOL     OW32956   1.736   1.246   3.833 -0.3259  0.3753 -0.4093
 7165SOL    HW132957   1.782   1.326   3.809 -1.5274  0.9679 -0.6952
 7165SOL    HW232958   1.815   1.194   3.850 -1.2104 -0.6535  0.5018
 7166SOL     OW32959   1.943   4.624   9.112  0.0739  0.1807  0.4336
 7166SOL    HW132960   1.929   4.615   9.206  1.3431  2.2059  0.8203
 7166SOL    HW232961   1.990   4.708   9.112 -1.8648  1.2826  0.4159
 7167SOL     OW32962   0.984   1.516   5.590  0.3696  0.2820 -0.3160
 7167SOL    HW132963   0.940   1.438   5.624  0.5571  0.7047  0.8969
 7167SOL    HW232964   1.054   1.529   5.654  0.9149 -1.0519 -0.6498
 7168SOL     OW32965   0.203   2.826   2.424  0.1408 -0.1272 -0.1403
 7168SOL    HW132966   0.219   2.899   2.364 -0.1887 -1.0845 -1.3923
 7168SOL    HW232967   0.120   2.850   2.465  0.1628 -0.8849  0.3522
 7169SOL     OW32968   3.850   2.079   1.527  0.6095  0.6700  0.0209
 7169SOL    HW132969   3.846   2.161   1.478 -0.0196  0.9635  0.5753
 7169SOL    HW232970   3.945   2.069   1.520  0.3736 -1.7241  0.2811
 7170SOL     OW32971   3.036   3.548   6.679 -0.2123  0.1882  0.1441
 7170SOL    HW132972   3.120   3.567   6.721  1.1655 -0.0536 -2.5184
 7170SOL    HW232973   3.031   3.455   6.657  0.1479  0.3189 -0.5063
 7171SOL     OW32974   3.911   2.222   7.950 -0.9926  0.0899  0.7716
 7171SOL    HW132975   3.969   2.270   8.010  1.8611 -0.3021 -1.6641
 7171SOL    HW232976   3.914   2.141   8.001 -2.2588  0.6418  1.7304
 7172SOL     OW32977   0.702   3.100   7.237  0.1223 -0.4896  0.3006
 7172SOL    HW132978   0.767   3.098   7.307  0.7005 -1.1347 -0.2482
 7172SOL    HW232979   0.756   3.118   7.160 -1.4312 -1.6750 -1.0481
 7173SOL     OW32980   0.415   4.121   5.241  0.5665  0.3956  0.4154
 7173SOL    HW132981   0.448   4.128   5.331  1.3225 -0.6574  0.2148
 7173SOL    HW232982   0.472   4.050   5.212 -1.1838 -0.5972 -0.6168
 7174SOL     OW32983   3.395   2.637   6.248 -0.3678  0.3700  0.0468
 7174SOL    HW132984   3.398   2.723   6.205  2.6420 -0.1425 -0.8041
 7174SOL    HW232985   3.452   2.659   6.322  2.2478  1.0391 -2.1173
 7175SOL     OW32986   3.221   2.613   3.992  0.4851  0.0940 -0.4921
 7175SOL    HW132987   3.258   2.526   4.009  0.1080 -0.0712 -0.5357
 7175SOL    HW232988   3.140   2.622   4.042  1.3434 -1.8822  1.2356
 7176SOL     OW32989   3.040   4.683  13.561 -0.3243 -0.1391  0.2204
 7176SOL    HW132990   3.044   0.019  13.634 -0.9641 -1.0999  1.0490
 7176SOL    HW232991   3.116   4.709  13.508 -0.3451  0.8573  0.6806
 7177SOL     OW32992   0.376   3.348   5.519  0.6475  0.2199 -0.4440
 7177SOL    HW132993   0.312   3.303   5.463 -0.2152 -0.5409  1.1368
 7177SOL    HW232994   0.361   3.436   5.486 -3.1017 -0.0419  0.5312
 7178SOL     OW32995   2.105   2.552   4.241 -0.6002  0.8683 -0.0939
 7178SOL    HW132996   2.027   2.541   4.294 -0.7909  0.8935 -0.3713
 7178SOL    HW232997   2.086   2.492   4.169 -0.7339 -0.4695  1.0619
 7179SOL     OW32998   0.909   1.766   9.589 -0.1012 -0.5268 -0.2691
 7179SOL    HW132999   0.989   1.775   9.640 -0.2565  2.3873 -0.5114
 7179SOL    HW233000   0.906   1.674   9.563 -1.6027 -0.3046 -0.8609
 7180SOL     OW33001   1.652   3.001  16.852  0.4777  0.1281 -0.4461
 7180SOL    HW133002   1.565   2.981  16.885  0.4015  0.6665 -0.3199
 7180SOL    HW233003   1.665   2.928  16.792  0.7750 -0.4686  0.3507
 7181SOL     OW33004   1.958   0.595  16.629  0.2176  0.0318  0.2994
 7181SOL    HW133005   2.024   0.664  16.635 -1.5035  1.6039  1.0801
 7181SOL    HW233006   2.004   0.515  16.655  1.0332  0.7107  0.9477
 7182SOL     OW33007   3.315   4.385  12.026  0.7775  0.7438 -0.2654
 7182SOL    HW133008   3.227   4.401  11.991 -0.1194  0.0446  1.7157
 7182SOL    HW233009   3.321   4.438  12.105  1.9327 -0.9293  0.7517
 7183SOL     OW33010   3.909   2.760   1.999  0.1648  0.3719  0.5484
 7183SOL    HW133011   3.992   2.712   1.998  0.0120  0.1136 -0.6838
 7183SOL    HW233012   3.878   2.716   2.077  0.4252 -1.1039 -0.1850
 7184SOL     OW33013   4.211   4.217   7.282  0.8508  0.2191  0.2669
 7184SOL    HW133014   4.200   4.286   7.347 -0.1625  0.4920 -0.2093
 7184SOL    HW233015   4.305   4.225   7.265  0.4636  3.4063 -0.2505
 7185SOL     OW33016   1.862   2.001  15.515  0.1753  0.1948 -0.2695
 7185SOL    HW133017   1.820   2.086  15.501  1.4895  1.0607  1.1522
 7185SOL    HW233018   1.870   1.974  15.423 -2.2192  0.2183 -0.4935
 7186SOL     OW33019   0.759   3.890   7.481 -0.6995  0.2390 -0.3735
 7186SOL    HW133020   0.828   3.952   7.503 -1.1683  0.2098  1.2427
 7186SOL    HW233021   0.781   3.829   7.552  1.5318  0.6796 -0.6982
 7187SOL     OW33022   0.652   3.840   3.383  0.3362 -0.1309  0.5180
 7187SOL    HW133023   0.645   3.809   3.292 -0.4217 -2.6117  1.4244
 7187SOL    HW233024   0.634   3.765   3.439 -1.3348 -0.2584 -0.1922
 7188SOL     OW33025   3.151   2.066   6.308 -0.4888 -0.1195 -0.0188
 7188SOL    HW133026   3.134   2.028   6.394  0.4601  0.8354  0.6042
 7188SOL    HW233027   3.122   1.996   6.250 -1.8581  0.3124  0.1457
 7189SOL     OW33028   1.369   2.886   9.184 -0.2108 -0.1498 -0.3176
 7189SOL    HW133029   1.372   2.886   9.279  1.0845 -3.0574 -0.3415
 7189SOL    HW233030   1.463   2.876   9.168 -0.2917  0.9713 -1.5667
 7190SOL     OW33031   3.609   4.025   8.221 -0.1418 -0.2243  0.4076
 7190SOL    HW133032   3.573   3.945   8.260  2.1955  0.0896  3.2079
 7190SOL    HW233033   3.677   3.989   8.165 -0.8420  0.4010 -0.8580
 7191SOL     OW33034   0.357   4.153   2.815  0.7528  0.2916 -0.3912
 7191SOL    HW133035   0.359   4.230   2.760 -3.1031  0.8855  0.2855
 7191SOL    HW233036   0.318   4.185   2.897 -0.2115  0.9106 -1.0899
 7192SOL     OW33037   0.146   1.850   8.017  0.2455  0.1277  0.0114
 7192SOL    HW133038   0.051   1.837   8.023  0.2708  0.4423  1.0454
 7192SOL    HW233039   0.153   1.891   7.931  2.4042  0.0654  0.1500
 7193SOL     OW33040   4.390   2.827   8.044 -0.3772 -0.6520 -0.1356
 7193SOL    HW133041   4.465   2.791   8.091  0.0413  2.4257  1.5735
 7193SOL    HW233042   4.416   2.814   7.952 -1.0840 -2.0279 -0.1403
 7194SOL     OW33043   2.954   0.258  17.471  0.0401  0.3380 -0.1796
 7194SOL    HW133044   2.976   0.184  17.415 -2.5061 -0.5922  0.0500
 7194SOL    HW233045   2.882   0.222  17.522 -0.4892 -1.4291 -2.1838
 7195SOL     OW33046   4.427   0.887   8.323 -0.2871  0.1445 -0.0261
 7195SOL    HW133047   4.480   0.850   8.394  1.1780  0.2472 -1.0520
 7195SOL    HW233048   4.417   0.975   8.361  0.1559  0.2807 -0.2172
 7196SOL     OW33049   0.079   0.692  15.060  0.1125  0.4313 -0.5246
 7196SOL    HW133050   0.133   0.738  14.996 -0.2434 -1.2766 -2.0554
 7196SOL    HW233051   0.012   0.668  14.996  1.1058 -0.5751 -1.1848
 7197SOL     OW33052   4.311   3.378   3.432 -0.0745 -0.0029  0.3810
 7197SOL    HW133053   4.316   3.473   3.424  1.0467 -0.1037 -0.2249
 7197SOL    HW233054   4.290   3.351   3.343 -1.6341  0.5489  0.5916
 7198SOL     OW33055   4.361   1.753   6.483  0.0824 -0.3509 -0.6112
 7198SOL    HW133056   4.369   1.775   6.576 -0.7063 -1.3651 -0.2906
 7198SOL    HW233057   4.289   1.690   6.487  0.8682 -1.1230  1.7203
 7199SOL     OW33058   4.578   0.192   3.330 -0.9244  0.0302 -0.1790
 7199SOL    HW133059   4.577   0.186   3.426 -3.0073 -0.6825 -0.2507
 7199SOL    HW233060   4.630   0.270   3.309 -2.3845  0.2422 -3.0050
 7200SOL     OW33061   1.956   1.392   3.464 -0.3362 -0.2518  0.4970
 7200SOL    HW133062   2.033   1.443   3.440 -0.5413 -1.0716 -1.9161
 7200SOL    HW233063   1.994   1.331   3.527 -0.2498 -0.8472 -0.1330
 7201SOL     OW33064   0.776   1.228   4.779 -0.6474 -0.3517 -0.1828
 7201SOL    HW133065   0.829   1.269   4.710  1.8722  1.3347  2.7179
 7201SOL    HW233066   0.812   1.281   4.850  2.6255 -3.3633  0.4237
 7202SOL     OW33067   2.115   0.643   5.782 -0.2485 -0.8041  0.1019
 7202SOL    HW133068   2.036   0.668   5.734  0.3961  0.9725 -0.0055
 7202SOL    HW233069   2.183   0.642   5.715  0.2179  0.6184  0.5555
 7203SOL     OW33070   3.539   2.814   8.415 -0.7565  0.0265 -0.2828
 7203SOL    HW133071   3.583   2.893   8.446 -0.7666  0.0501 -0.3280
 7203SOL    HW233072   3.469   2.853   8.363  0.6772  1.1123 -1.3820
 7204SOL     OW33073   2.218   1.835   9.036 -0.2335  0.6488 -0.4003
 7204SOL    HW133074   2.285   1.886   8.990  0.8571 -0.3348  0.0683
 7204SOL    HW233075   2.151   1.825   8.969 -0.4421 -3.0563  0.3586
 7205SOL     OW33076   1.187   4.437   8.304 -0.3280 -0.0284 -0.3666
 7205SOL    HW133077   1.275   4.419   8.336 -1.4505 -0.5578  2.4392
 7205SOL    HW233078   1.162   4.347   8.284  2.4285 -1.1222  1.0976
 7206SOL     OW33079   2.861   1.844   2.679 -0.0750 -0.5962 -0.5610
 7206SOL    HW133080   2.787   1.794   2.711 -0.2649  0.6255  0.9387
 7206SOL    HW233081   2.863   1.917   2.741  2.4227  0.4798 -1.8950
 7207SOL     OW33082   3.854   1.455   4.043 -0.3233 -0.1471 -0.5239
 7207SOL    HW133083   3.925   1.440   3.981  1.7814  0.1483  1.8056
 7207SOL    HW233084   3.876   1.409   4.125 -0.6114  2.6268  1.1085
 7208SOL     OW33085   2.428   1.596   1.472 -0.5385  0.6498  0.1648
 7208SOL    HW133086   2.379   1.515   1.457 -0.2875  0.4190  0.5992
 7208SOL    HW233087   2.376   1.640   1.539  1.6694  2.4267  0.6736
 7209SOL     OW33088   2.064   1.859   6.138 -0.1621 -0.1399 -0.6800
 7209SOL    HW133089   2.084   1.823   6.052  0.5422  1.6713 -1.2598
 7209SOL    HW233090   2.098   1.946   6.117  0.9063 -0.2113  0.7377
 7210SOL     OW33091   3.253   4.286   2.546  0.5693  0.1056 -0.2533
 7210SOL    HW133092   3.219   4.204   2.584 -1.0203  0.4979 -0.8274
 7210SOL    HW233093   3.343   4.295   2.577  0.0481  0.4388  1.2005
 7211SOL     OW33094   3.409   4.382   5.955  0.1310 -0.4286  0.5002
 7211SOL    HW133095   3.425   4.453   5.892 -0.4699  0.9278  1.8922
 7211SOL    HW233096   3.372   4.433   6.027 -0.7630 -2.4057  1.4263
 7212SOL     OW33097   3.115   1.113   6.892  0.4127 -0.0783  0.1191
 7212SOL    HW133098   3.210   1.104   6.896  0.3233 -1.0420  0.2341
 7212SOL    HW233099   3.098   1.159   6.974  0.8431 -0.8652  0.6450
 7213SOL     OW33100   0.747   4.310   2.843  0.0718 -0.4930  0.0555
 7213SOL    HW133101   0.802   4.316   2.921 -0.3755  0.2284  0.3105
 7213SOL    HW233102   0.662   4.345   2.869 -0.4477 -2.0789  0.5033
 7214SOL     OW33103   3.440   4.202   8.102 -0.1706  0.7292  0.2507
 7214SOL    HW133104   3.506   4.147   8.143  0.4539  1.2869 -0.0041
 7214SOL    HW233105   3.492   4.232   8.028 -0.1268 -0.0377 -0.0174
 7215SOL     OW33106   4.437   0.690   7.003 -0.4703  0.5484  0.0430
 7215SOL    HW133107   4.383   0.755   7.047 -2.7787  0.5627 -2.8058
 7215SOL    HW233108   4.427   0.609   7.052 -0.1039 -0.6290 -1.8158
 7216SOL     OW33109   1.232   4.339   0.614 -0.1610  0.6292 -0.6515
 7216SOL    HW133110   1.274   4.385   0.687 -0.0416  1.0731 -1.0019
 7216SOL    HW233111   1.239   4.251   0.651  3.2814  1.2543  0.1416
 7217SOL     OW33112   3.619   3.747   7.348  0.0748  0.4017  0.0089
 7217SOL    HW133113   3.544   3.783   7.395 -0.2805  0.3554 -0.5316
 7217SOL    HW233114   3.631   3.670   7.405  2.0480 -1.0639 -2.3949
 7218SOL     OW33115   4.468   0.826   3.578  0.0240 -0.4019 -0.1862
 7218SOL    HW133116   4.490   0.916   3.599 -0.4666 -0.6689  1.4318
 7218SOL    HW233117   4.460   0.847   3.485 -0.0798  1.2941  0.2074
 7219SOL     OW33118   4.602   0.129   8.840  0.0873  0.5580 -0.7639
 7219SOL    HW133119   4.602   0.171   8.754  0.6934  1.4710 -0.3170
 7219SOL    HW233120   4.693   0.103   8.855  0.8967  3.6408 -0.1839
 7220SOL     OW33121   0.127   3.843   5.523  0.4549  0.0390  0.1912
 7220SOL    HW133122   0.098   3.795   5.445 -1.4687  1.7425 -0.1387
 7220SOL    HW233123   0.221   3.839   5.502  0.5936  3.1515  0.2814
 7221SOL     OW33124   1.243   3.367   6.336 -0.3704 -0.3020  0.2479
 7221SOL    HW133125   1.213   3.309   6.266  0.6573 -1.3816  0.7015
 7221SOL    HW233126   1.317   3.314   6.367  1.1775 -0.6360 -4.0093
 7222SOL     OW33127   4.219   3.780   3.096  0.4172  0.7658 -0.5256
 7222SOL    HW133128   4.136   3.734   3.081 -1.0317  3.8214 -1.8354
 7222SOL    HW233129   4.260   3.761   3.012 -1.5488  1.5107 -1.6444
 7223SOL     OW33130   0.109   4.457   9.454  0.6112 -0.3352  0.2776
 7223SOL    HW133131   0.069   4.392   9.513  1.3350  1.1016  2.3477
 7223SOL    HW233132   0.040   4.523   9.447  0.0490 -1.0125 -0.4744
 7224SOL     OW33133   1.331   2.146   8.756  0.3466 -0.1486  0.2345
 7224SOL    HW133134   1.318   2.191   8.839  3.8288  3.8933 -1.4303
 7224SOL    HW233135   1.381   2.211   8.708 -1.9033  0.7885 -0.8539
 7225SOL     OW33136   2.992   2.825   0.297 -0.4366 -0.1475 -0.2761
 7225SOL    HW133137   3.051   2.818   0.372 -0.8057  0.9272  0.1040
 7225SOL    HW233138   2.960   2.915   0.300 -0.2057 -0.1004  0.7587
 7226SOL     OW33139   4.624   1.932  17.567  0.1344 -0.5552  0.3622
 7226SOL    HW133140   4.560   1.862  17.581 -1.9340  1.0421 -1.1767
 7226SOL    HW233141   4.686   1.917  17.639 -0.0657  2.0662  1.0494
 7227SOL     OW33142   3.346   4.418   3.246 -0.0430 -0.0861 -0.1098
 7227SOL    HW133143   3.294   4.489   3.284  0.7032 -0.0531  0.8456
 7227SOL    HW233144   3.425   4.468   3.226 -0.1704  0.7273  1.4193
 7228SOL     OW33145   2.563   4.349  16.796 -0.4275 -0.3321  0.2368
 7228SOL    HW133146   2.515   4.301  16.729  0.6254  0.3993 -1.0267
 7228SOL    HW233147   2.650   4.311  16.780 -0.4122 -1.1934  2.2681
 7229SOL     OW33148   0.316   4.429   6.490  0.3807 -0.3007  0.5869
 7229SOL    HW133149   0.347   4.442   6.401  0.6884  2.3283  1.0680
 7229SOL    HW233150   0.377   4.371   6.535 -0.0978 -0.5932  0.8571
 7230SOL     OW33151   2.216   2.067  16.321 -0.1451  0.3099  0.2278
 7230SOL    HW133152   2.250   1.995  16.375  0.5270  0.5472  0.1218
 7230SOL    HW233153   2.122   2.066  16.338 -0.6597  2.8773 -2.6065
 7231SOL     OW33154   1.405   1.242   0.934 -0.2614 -0.5864  0.1002
 7231SOL    HW133155   1.322   1.243   0.887 -0.8168 -1.5361  1.0641
 7231SOL    HW233156   1.451   1.284   0.861  0.2487 -0.0489  0.7317
 7232SOL     OW33157   0.216   4.320   9.842  0.2803 -0.4864  0.3076
 7232SOL    HW133158   0.138   4.286   9.885 -0.6801  0.4661 -0.6697
 7232SOL    HW233159   0.225   4.253   9.773  1.9633  1.0359 -0.9552
 7233SOL     OW33160   4.298   2.478  17.511  0.0538 -0.0192 -0.0786
 7233SOL    HW133161   4.243   2.404  17.484 -0.9341  0.8739 -0.4716
 7233SOL    HW233162   4.242   2.538  17.561 -1.8426 -0.8813 -1.1610
 7234SOL     OW33163   3.118   2.757   6.254  0.3946  0.8618 -0.2360
 7234SOL    HW133164   3.203   2.749   6.211 -0.2653 -3.4468 -0.7214
 7234SOL    HW233165   3.142   2.837   6.301  1.7135  0.3803 -0.0849
 7235SOL     OW33166   0.099   2.034  13.364 -0.7850 -0.6608  0.2015
 7235SOL    HW133167   0.186   2.047  13.402  0.1007 -0.5640 -1.8547
 7235SOL    HW233168   0.116   2.091  13.290 -1.0864  0.4694  1.0008
 7236SOL     OW33169   3.250   4.253   7.385 -0.6800  0.2958  0.2939
 7236SOL    HW133170   3.278   4.338   7.419  2.5415 -1.2003  1.3894
 7236SOL    HW233171   3.198   4.289   7.313 -0.1226 -0.8450 -0.6921
 7237SOL     OW33172   3.290   1.367   7.892 -0.3885 -0.7118 -0.3912
 7237SOL    HW133173   3.242   1.449   7.877 -0.5069 -1.0900 -2.0312
 7237SOL    HW233174   3.352   1.364   7.820 -4.1864 -2.8273 -3.5191
 7238SOL     OW33175   1.571   0.819   8.495  0.2507  0.1281 -0.0877
 7238SOL    HW133176   1.563   0.883   8.566 -0.7195 -1.6541  1.3907
 7238SOL    HW233177   1.655   0.852   8.462 -0.7057  1.0854 -1.5519
 7239SOL     OW33178   4.249   3.445   1.422 -0.5518 -0.1416 -0.2401
 7239SOL    HW133179   4.339   3.475   1.412 -0.3610 -1.6426 -3.2443
 7239SOL    HW233180   4.254   3.399   1.506 -2.1679 -0.8314 -0.5159
 7240SOL     OW33181   4.157   4.345   6.694 -0.6662  0.1275  0.4788
 7240SOL    HW133182   4.082   4.390   6.734 -0.6271 -0.1094  0.8267
 7240SOL    HW233183   4.196   4.297   6.768  0.9594 -0.0799 -0.5295
 7241SOL     OW33184   3.320   4.133   2.100 -0.2752 -0.4574  0.1582
 7241SOL    HW133185   3.320   4.201   2.033 -1.3454 -1.7759 -1.1769
 7241SOL    HW233186   3.380   4.169   2.166  0.8788 -0.3981 -0.9343
 7242SOL     OW33187   1.058   4.368   2.211 -0.5477 -0.3559  0.3812
 7242SOL    HW133188   1.016   4.321   2.283  0.2398 -1.1287  0.3237
 7242SOL    HW233189   0.991   4.436   2.221 -0.7131 -0.3521 -0.7065
 7243SOL     OW33190   0.876   2.106   5.460  0.4428  0.0147  0.0113
 7243SOL    HW133191   0.794   2.090   5.506  0.5092  1.4129  0.5975
 7243SOL    HW233192   0.903   2.196   5.477  0.7275 -0.5707  2.6544
 7244SOL     OW33193   3.306   3.455  12.627 -0.6648  0.4894  0.0823
 7244SOL    HW133194   3.387   3.500  12.603 -0.7603  0.4016 -0.4127
 7244SOL    HW233195   3.255   3.454  12.545  0.0029  0.8198 -0.3371
 7245SOL     OW33196   0.115   1.759   4.565  0.5408  0.4703  0.2596
 7245SOL    HW133197   0.137   1.849   4.542  0.2865  0.8339  1.4674
 7245SOL    HW233198   0.024   1.774   4.590  0.7173  0.9145  0.6324
 7246SOL     OW33199   4.105   1.647   4.781 -0.0518 -0.2838  0.1276
 7246SOL    HW133200   4.099   1.694   4.864 -0.1548 -2.0693  1.1425
 7246SOL    HW233201   4.034   1.684   4.729 -1.1662 -2.2585  0.2198
 7247SOL     OW33202   3.098   2.583  11.871  0.3960 -0.2727  0.2077
 7247SOL    HW133203   3.007   2.607  11.887  0.2154  0.3997 -1.8568
 7247SOL    HW233204   3.082   2.489  11.863 -0.3390  0.0642 -2.1757
 7248SOL     OW33205   2.863   0.480   5.330 -0.0281 -0.2394 -0.3415
 7248SOL    HW133206   2.912   0.490   5.411  1.2691 -1.5208 -0.9620
 7248SOL    HW233207   2.911   0.405   5.295 -1.2967 -1.5545  0.7067
 7249SOL     OW33208   2.513   2.146   5.516  0.5486  0.5209 -0.5293
 7249SOL    HW133209   2.523   2.240   5.535  0.9395  0.0702  1.4745
 7249SOL    HW233210   2.484   2.110   5.600  0.5193  1.3975 -0.1574
 7250SOL     OW33211   3.929   4.173  11.008 -0.3493 -0.1770 -0.1946
 7250SOL    HW133212   3.897   4.257  11.041  0.9818  0.7368 -1.2250
 7250SOL    HW233213   3.855   4.143  10.954 -0.5855 -0.8200  0.4853
 7251SOL     OW33214   2.017   1.430  11.718  0.4442  0.9747  0.4419
 7251SOL    HW133215   1.963   1.505  11.693  0.2296  0.2655 -1.2265
 7251SOL    HW233216   2.060   1.398  11.639  0.1854  0.3949  0.5339
 7252SOL     OW33217   3.302   2.083   5.489  0.4820  0.4203 -0.0298
 7252SOL    HW133218   3.225   2.094   5.545  2.1441 -0.6979  2.4740
 7252SOL    HW233219   3.382   2.085   5.542 -0.1796  0.2396  0.9909
 7253SOL     OW33220   1.714   4.708   2.049  0.0516  0.0673  0.3399
 7253SOL    HW133221   1.743   0.073   2.064  0.3960  0.1202 -0.6459
 7253SOL    HW233222   1.637   4.721   1.993  0.1184 -0.4439  0.1286
 7254SOL     OW33223   3.486   0.498   6.661 -0.2742  0.8889 -0.0150
 7254SOL    HW133224   3.396   0.530   6.658 -1.0078 -1.3935 -2.0743
 7254SOL    HW233225   3.485   0.437   6.588 -2.9252 -1.2188  1.8059
 7255SOL     OW33226   1.551   1.599   3.048  0.0571  0.4151  0.6722
 7255SOL    HW133227   1.570   1.623   3.139  1.2931 -1.5688  0.9377
 7255SOL    HW233228   1.467   1.556   3.062  0.9070 -1.8470 -1.2268
 7256SOL     OW33229   0.107   2.294   5.125  0.4191 -0.5533  0.1265
 7256SOL    HW133230   0.044   2.355   5.087  0.2653 -0.6679  0.1968
 7256SOL    HW233231   0.117   2.313   5.218 -1.0640  0.9065 -0.0183
 7257SOL     OW33232   4.139   1.668   3.193  0.1018  0.7173 -0.1428
 7257SOL    HW133233   4.202   1.696   3.260  1.2696 -0.4104 -0.7876
 7257SOL    HW233234   4.071   1.659   3.259 -0.3151  2.0613 -0.3775
 7258SOL     OW33235   2.324   0.254   1.310  0.5522  0.3377  0.0766
 7258SOL    HW133236   2.397   0.220   1.258  0.0725  0.6235 -0.7787
 7258SOL    HW233237   2.332   0.343   1.274 -0.9658  0.4269 -0.0241
 7259SOL     OW33238   4.391   0.024   5.364  0.1798  0.2632 -0.4612
 7259SOL    HW133239   4.476   0.049   5.401 -0.5212 -0.1388  1.4175
 7259SOL    HW233240   4.433   4.694   5.298 -2.2988 -1.5971 -0.5007
 7260SOL     OW33241   3.002   2.964   4.154 -0.5255 -0.4722 -0.0652
 7260SOL    HW133242   3.077   2.910   4.182 -1.6231 -1.9325  0.0848
 7260SOL    HW233243   2.959   2.979   4.238 -0.5082  2.0607 -0.5310
 7261SOL     OW33244   0.180   0.861   4.718 -0.1249  0.5062 -0.1527
 7261SOL    HW133245   0.267   0.821   4.727 -0.4909 -0.0884  0.7238
 7261SOL    HW233246   0.137   0.815   4.790  0.8967  0.8094  0.6643
 7262SOL     OW33247   1.666   0.154   8.527  0.5107 -0.3884  0.4508
 7262SOL    HW133248   1.703   0.096   8.594  0.5562  1.6029  2.1762
 7262SOL    HW233249   1.576   0.122   8.519  1.0694 -0.8332 -3.9525
 7263SOL     OW33250   0.048   3.078  10.811  0.0243  0.1346  0.0935
 7263SOL    HW133251   0.142   3.092  10.799 -0.1339 -1.1554 -2.9436
 7263SOL    HW233252   0.036   3.151  10.871 -0.4152  2.2462 -2.5686
 7264SOL     OW33253   3.835   1.658   1.711  0.2082  0.0889 -0.2175
 7264SOL    HW133254   3.907   1.714   1.739 -1.6695  1.6505  1.4602
 7264SOL    HW233255   3.804   1.715   1.641 -2.4999 -0.1900  0.7562
 7265SOL     OW33256   0.588   2.687   8.225  0.3231 -0.5280  0.8254
 7265SOL    HW133257   0.538   2.769   8.226  0.8740 -0.1433 -2.6420
 7265SOL    HW233258   0.537   2.634   8.287  0.5976 -0.2218  1.3127
 7266SOL     OW33259   3.016   3.734   5.373 -0.3117 -0.0132 -0.0078
 7266SOL    HW133260   3.083   3.780   5.323 -0.7122  0.7478  0.1595
 7266SOL    HW233261   3.061   3.656   5.406  1.4672  0.3528 -1.5767
 7267SOL     OW33262   2.356   1.351   4.048  0.2565  0.1038  0.1276
 7267SOL    HW133263   2.279   1.295   4.058  0.0354  0.7949  2.3234
 7267SOL    HW233264   2.362   1.395   4.133 -0.6086  0.4120  0.0319
 7268SOL     OW33265   3.112   0.535  10.480 -0.3561  0.0590  0.0255
 7268SOL    HW133266   3.026   0.577  10.470 -0.0411  0.1048 -2.4509
 7268SOL    HW233267   3.156   0.595  10.541 -0.8747  0.9439 -0.4612
 7269SOL     OW33268   1.098   3.032   7.718 -0.2934  0.6391  0.5164
 7269SOL    HW133269   1.068   3.025   7.808  1.5417  0.6015  1.1146
 7269SOL    HW233270   1.187   3.001   7.733 -0.7970 -0.6493  0.7816
 7270SOL     OW33271   4.694   2.250   7.975 -0.2684 -0.2266  0.3857
 7270SOL    HW133272   4.687   2.202   8.057  0.6966  0.8759  1.1078
 7270SOL    HW233273   4.644   2.327   8.000 -0.4350 -0.5908  1.1505
 7271SOL     OW33274   2.893   0.134   2.425  1.0743  1.2473  0.3772
 7271SOL    HW133275   2.980   0.099   2.441  0.9109  0.2097 -0.9368
 7271SOL    HW233276   2.839   0.109   2.500 -1.0530  0.0290 -1.5512
 7272SOL     OW33277   4.332   2.236   5.166 -0.0279  0.2097  0.2245
 7272SOL    HW133278   4.360   2.228   5.075  1.4411 -1.1406  0.8152
 7272SOL    HW233279   4.247   2.191   5.164  1.8784 -3.3557 -0.5660
 7273SOL     OW33280   3.534   0.144   3.133  0.3063 -0.1058  0.0820
 7273SOL    HW133281   3.474   0.123   3.062 -0.9530 -0.9873  1.4270
 7273SOL    HW233282   3.617   0.116   3.093 -0.9401 -0.4223 -2.2889
 7274SOL     OW33283   4.399   2.403  16.870  0.8047  0.2766  0.1786
 7274SOL    HW133284   4.320   2.432  16.824  1.0482  0.4184 -0.1485
 7274SOL    HW233285   4.358   2.362  16.947 -0.1221 -1.4265 -1.2436
 7275SOL     OW33286   0.327   4.424  13.943  0.0791  0.0610 -0.6347
 7275SOL    HW133287   0.415   4.418  13.906  0.5268 -1.9411  0.7798
 7275SOL    HW233288   0.273   4.354  13.906 -0.0580  0.4729 -1.2135
 7276SOL     OW33289   0.680   4.076   7.097 -0.1376 -0.3858  0.0143
 7276SOL    HW133290   0.658   4.050   7.187 -0.9964  0.9872  0.2133
 7276SOL    HW233291   0.625   4.154   7.100  2.0160  1.1974 -1.9216
 7277SOL     OW33292   2.787   0.565   8.563 -0.3833  0.2423 -0.1069
 7277SOL    HW133293   2.865   0.551   8.510 -2.5025 -1.5923 -2.7473
 7277SOL    HW233294   2.755   0.649   8.528 -2.6173  0.1190  1.5627
 7278SOL     OW33295   3.216   2.946   2.140 -0.1274  0.1412 -0.0962
 7278SOL    HW133296   3.185   2.856   2.126 -0.2983  0.1505  0.2248
 7278SOL    HW233297   3.200   2.971   2.231  0.1600 -0.9176  0.2440
 7279SOL     OW33298   0.432   3.974   3.922  0.7309  0.1949 -0.3286
 7279SOL    HW133299   0.453   3.972   3.828 -1.4207 -0.3342 -0.7891
 7279SOL    HW233300   0.414   3.882   3.941  1.5460 -0.2157 -1.5262
 7280SOL     OW33301   3.532   1.266   8.248  0.3400  0.1346 -0.0591
 7280SOL    HW133302   3.560   1.178   8.222 -0.0938 -0.2970  0.9316
 7280SOL    HW233303   3.558   1.267   8.340  2.2866  1.2906 -0.6422
 7281SOL     OW33304   4.356   1.951   8.071  0.0698  0.1721 -0.4006
 7281SOL    HW133305   4.392   1.941   8.159 -1.3228 -2.8536 -0.1568
 7281SOL    HW233306   4.319   2.038   8.084  1.0392  0.3738  0.9669
 7282SOL     OW33307   1.927   2.011   7.159  0.5881  0.3947 -0.4360
 7282SOL    HW133308   1.975   1.998   7.078  1.1177  0.8739 -0.2057
 7282SOL    HW233309   1.977   1.951   7.215 -1.6934 -3.1303 -2.1604
 7283SOL     OW33310   2.783   1.348   7.944  0.3068 -0.0598 -0.1995
 7283SOL    HW133311   2.777   1.273   7.884  2.2119 -2.0022  2.0439
 7283SOL    HW233312   2.826   1.302   8.017  0.8482  0.5139 -0.1574
 7284SOL     OW33313   4.009   0.504  10.865  0.2680 -0.0690  0.9156
 7284SOL    HW133314   4.067   0.455  10.807 -1.9307 -1.9616  0.3075
 7284SOL    HW233315   4.071   0.509  10.937  1.4083  0.2438 -0.0799
 7285SOL     OW33316   3.155   1.716   4.368  0.4081  0.1024 -0.7309
 7285SOL    HW133317   3.176   1.641   4.425  1.8898  1.6967  0.8147
 7285SOL    HW233318   3.146   1.681   4.279  0.4975 -0.3670 -0.5585
 7286SOL     OW33319   2.972   3.612   5.679 -1.0910 -0.0797  0.1217
 7286SOL    HW133320   3.045   3.638   5.735  0.4523 -0.6007 -1.6482
 7286SOL    HW233321   2.925   3.695   5.683  0.4655  0.7503  1.2867
 7287SOL     OW33322   4.258   2.766  10.375  0.0722 -0.1251 -0.0223
 7287SOL    HW133323   4.236   2.797  10.462 -2.2062 -0.7729 -0.3649
 7287SOL    HW233324   4.235   2.843  10.324  1.0148 -0.7960 -1.4870
 7288SOL     OW33325   0.168   3.991   2.259  0.2387  0.0196  0.0778
 7288SOL    HW133326   0.240   4.033   2.307  0.0697 -1.7306  1.8927
 7288SOL    HW233327   0.109   3.953   2.324  0.7989 -3.7165 -1.6232
 7289SOL     OW33328   1.488   4.705  12.547  0.1453  0.4625  0.1224
 7289SOL    HW133329   1.580   4.708  12.522  0.4606  0.6877  1.3084
 7289SOL    HW233330   1.507   4.722  12.639  0.8617  0.3574 -0.0101
 7290SOL     OW33331   4.602   4.651   2.383 -0.0234 -0.3030 -0.4294
 7290SOL    HW133332   4.525   4.697   2.415 -0.0770 -0.6766 -0.0222
 7290SOL    HW233333   4.664   4.722   2.400 -0.2849  0.2431 -1.7947
 7291SOL     OW33334   0.747   0.454   8.942 -0.0806  0.5382  0.2944
 7291SOL    HW133335   0.753   0.390   9.013 -0.5768 -1.1698 -1.2396
 7291SOL    HW233336   0.820   0.513   8.964  0.4673 -0.3382  0.8110
 7292SOL     OW33337   3.613   1.028   8.149  0.2641 -0.1636 -0.1407
 7292SOL    HW133338   3.554   1.045   8.076 -1.9959  0.5873  1.8954
 7292SOL    HW233339   3.589   0.936   8.152  0.9671 -0.4204 -2.2876
 7293SOL     OW33340   3.267   2.944  14.983 -0.0935  0.7394  0.6703
 7293SOL    HW133341   3.332   2.964  14.915 -1.5292 -1.1684 -1.2557
 7293SOL    HW233342   3.321   2.895  15.044 -1.0552 -0.2954  0.6879
 7294SOL     OW33343   1.632   4.581  13.322  0.0511  0.4236  0.0854
 7294SOL    HW133344   1.722   4.610  13.305 -0.4734 -0.1817 -3.6178
 7294SOL    HW233345   1.618   4.631  13.403 -2.2813 -1.5891  0.9008
 7295SOL     OW33346   0.832   4.024  15.869 -0.0639 -0.1242 -0.1555
 7295SOL    HW133347   0.759   3.989  15.817  0.0674 -1.3764  0.5251
 7295SOL    HW233348   0.811   4.117  15.859 -0.6720 -0.3814 -1.3462
 7296SOL     OW33349   1.687   3.636   2.348  0.5832  0.1933 -0.4052
 7296SOL    HW133350   1.653   3.631   2.438  0.8570  2.3919 -0.1708
 7296SOL    HW233351   1.647   3.716   2.313 -3.3843 -1.5795  0.1136
 7297SOL     OW33352   2.017   3.802   4.076  0.1687  0.1885  0.0788
 7297SOL    HW133353   2.070   3.766   4.148  1.4193 -2.7056 -2.2584
 7297SOL    HW233354   2.091   3.852   4.043  0.5582 -0.7374 -0.4528
 7298SOL     OW33355   4.370   4.017  11.597  0.3645  0.0901  0.0604
 7298SOL    HW133356   4.297   4.077  11.615  1.2874  1.8287 -1.9097
 7298SOL    HW233357   4.341   3.931  11.626  1.6429 -0.1736  0.5329
 7299SOL     OW33358   1.613   1.838   3.882  0.5336  0.2797 -0.7250
 7299SOL    HW133359   1.648   1.816   3.968  0.6069  0.5312 -0.6891
 7299SOL    HW233360   1.689   1.808   3.832  1.1398  1.1125 -0.3161
 7300SOL     OW33361   2.477   2.028   5.270  0.6013 -0.2275 -0.1201
 7300SOL    HW133362   2.497   2.081   5.347 -0.6589 -3.2054  2.2381
 7300SOL    HW233363   2.562   2.028   5.225  1.0183 -1.8722  0.6703
 7301SOL     OW33364   0.161   4.602   4.677  0.2144  0.4718 -0.5232
 7301SOL    HW133365   0.138   4.512   4.700  0.7943 -0.3929 -3.3120
 7301SOL    HW233366   0.244   4.606   4.724  0.0431 -0.7371 -0.1257
 7302SOL     OW33367   4.528   2.217   5.898 -0.1631 -0.5085 -0.1487
 7302SOL    HW133368   4.510   2.205   5.992  1.5144 -1.0460  0.1011
 7302SOL    HW233369   4.546   2.127   5.872  0.0080 -0.8011  0.9846
 7303SOL     OW33370   1.569   0.261   2.803  0.2358 -0.1878  0.3075
 7303SOL    HW133371   1.623   0.197   2.849  1.4467 -0.3027 -1.2544
 7303SOL    HW233372   1.563   0.220   2.717  2.0822 -0.3864  0.2858
 7304SOL     OW33373   1.190   4.219  16.948  0.3085  0.7122  0.7686
 7304SOL    HW133374   1.155   4.131  16.965  1.6716  0.2964  1.4451
 7304SOL    HW233375   1.271   4.196  16.902  1.4025  0.8919  2.5832
 7305SOL     OW33376   2.579   2.704   7.861  0.1054  0.1778 -0.4682
 7305SOL    HW133377   2.488   2.729   7.875 -0.8178 -2.5831 -1.6394
 7305SOL    HW233378   2.621   2.789   7.842  1.0977  0.5453  3.3570
 7306SOL     OW33379   2.055   3.633   5.596 -0.5787 -0.0938 -0.2579
 7306SOL    HW133380   2.058   3.722   5.560 -0.1780  0.4370  1.0744
 7306SOL    HW233381   2.033   3.587   5.515  2.4334 -2.1352  0.0886
 7307SOL     OW33382   4.419   1.142   6.689  0.2134  0.2107  0.2445
 7307SOL    HW133383   4.395   1.233   6.673 -0.8113 -0.2390 -0.7651
 7307SOL    HW233384   4.510   1.169   6.699 -0.0859  0.7834  1.4712
 7308SOL     OW33385   3.013   3.274   1.248  0.0446 -0.0606  0.4837
 7308SOL    HW133386   2.972   3.347   1.295  1.4712  1.9442 -1.3956
 7308SOL    HW233387   3.103   3.286   1.279  0.4223 -0.5888 -0.4210
 7309SOL     OW33388   1.147   0.746   6.924 -0.3212  0.4736 -1.3346
 7309SOL    HW133389   1.219   0.702   6.880 -0.3741 -0.6613 -0.3019
 7309SOL    HW233390   1.187   0.810   6.983  2.6152 -0.8888 -1.8827
 7310SOL     OW33391   3.970   3.396   3.723  0.5413  0.3270 -0.2414
 7310SOL    HW133392   3.982   3.464   3.656  3.8892 -0.0370 -0.0301
 7310SOL    HW233393   3.930   3.442   3.796 -0.6657 -1.8403  0.4396
 7311SOL     OW33394   1.292   4.544   5.255 -0.0464 -0.3771  0.6002
 7311SOL    HW133395   1.220   4.482   5.243  0.2082 -0.5154 -0.2057
 7311SOL    HW233396   1.269   4.570   5.344 -2.1726 -0.2032  0.0070
 7312SOL     OW33397   3.211   4.667  12.034  0.1804  0.5637  1.0269
 7312SOL    HW133398   3.263   4.660  12.114  1.5909 -0.0903  0.0465
 7312SOL    HW233399   3.276   4.650  11.966 -1.1673  1.2298 -0.4284
 7313SOL     OW33400   4.359   2.626   0.465  0.7193 -0.0827 -0.4953
 7313SOL    HW133401   4.368   2.721   0.460  0.5534 -0.1452 -1.9411
 7313SOL    HW233402   4.288   2.604   0.405  0.2689  0.5248 -0.1932
 7314SOL     OW33403   3.485   0.541   6.373 -0.3144 -0.0883 -0.6782
 7314SOL    HW133404   3.550   0.473   6.392  0.7125  0.9917 -0.2945
 7314SOL    HW233405   3.454   0.497   6.294 -0.8131 -0.3937 -0.3075
 7315SOL     OW33406   2.050   1.189   7.496  0.4640  0.7449  0.0238
 7315SOL    HW133407   1.993   1.201   7.572 -0.1071 -1.8110  0.0049
 7315SOL    HW233408   2.000   1.241   7.433 -0.2369  1.0608  0.8451
 7316SOL     OW33409   2.047   2.305   8.537 -0.3870  0.2315  0.2605
 7316SOL    HW133410   1.967   2.274   8.495 -1.6193  1.4126  1.7474
 7316SOL    HW233411   2.088   2.225   8.572  1.7150  1.0367 -0.3589
 7317SOL     OW33412   1.478   2.294   5.047  0.0469 -0.1351 -0.0382
 7317SOL    HW133413   1.385   2.273   5.044 -0.1113  0.3796  1.1310
 7317SOL    HW233414   1.512   2.258   5.129 -0.7541  0.1121  0.4088
 7318SOL     OW33415   4.489   2.349   8.423 -0.0404 -0.0479  0.7382
 7318SOL    HW133416   4.457   2.439   8.424  0.0564 -0.0310  1.6850
 7318SOL    HW233417   4.498   2.331   8.516 -2.6918  1.8137  1.3776
 7319SOL     OW33418   2.950   3.516  16.806  0.2798 -0.5917  0.3581
 7319SOL    HW133419   2.923   3.586  16.746 -1.1412 -0.2736  1.3443
 7319SOL    HW233420   2.992   3.459  16.742 -1.3419 -0.1667 -1.0805
 7320SOL     OW33421   3.611   3.820  16.698  0.2958 -0.2542 -0.3694
 7320SOL    HW133422   3.686   3.784  16.746 -0.8351 -0.1180  1.4872
 7320SOL    HW233423   3.551   3.812  16.772 -0.3976 -1.6382 -1.0830
 7321SOL     OW33424   0.609   1.050  16.605 -0.3665 -0.1760  0.6704
 7321SOL    HW133425   0.577   1.012  16.523  0.6402  0.8692 -0.2086
 7321SOL    HW233426   0.577   1.140  16.598  0.3943  0.0250 -0.3196
 7322SOL     OW33427   1.904   3.988   8.082  0.1474  0.2506  0.0933
 7322SOL    HW133428   1.917   3.990   8.176  2.6959  1.4904 -0.2975
 7322SOL    HW233429   1.877   3.896   8.073  0.9941  0.0186 -0.0942
 7323SOL     OW33430   3.483   1.854   3.424  0.3512 -0.0911 -0.5768
 7323SOL    HW133431   3.458   1.938   3.462  0.9132  0.0481 -0.5065
 7323SOL    HW233432   3.415   1.793   3.451  0.0080  1.3755  1.8876
 7324SOL     OW33433   0.718   4.077  15.427 -0.1901 -0.5388 -0.4812
 7324SOL    HW133434   0.803   4.097  15.466  0.9330 -1.7089 -2.3622
 7324SOL    HW233435   0.738   4.000  15.374 -0.7093 -0.2421 -1.1072
 7325SOL     OW33436   2.542   2.439   8.280 -0.1973  0.3889  0.2342
 7325SOL    HW133437   2.535   2.452   8.374  1.2205  0.7128  0.2999
 7325SOL    HW233438   2.628   2.477   8.260 -1.5427  2.3781 -1.7421
 7326SOL     OW33439   1.244   0.051  16.003 -0.1396  0.3808 -0.2002
 7326SOL    HW133440   1.243   0.047  16.099 -1.7054 -0.5018 -0.2586
 7326SOL    HW233441   1.209   0.139  15.995  0.3240  0.5359 -0.5741
 7327SOL     OW33442   0.771   4.340  16.007  0.0232  0.6804  0.1143
 7327SOL    HW133443   0.856   4.355  15.968 -0.0217  0.4637 -0.0685
 7327SOL    HW233444   0.792   4.389  16.087  1.3515  1.0623 -0.4815
 7328SOL     OW33445   0.401   3.410   3.083  0.4243 -0.6150  0.0927
 7328SOL    HW133446   0.345   3.480   3.048  2.0994 -0.0471 -1.4339
 7328SOL    HW233447   0.363   3.329   3.050  0.6510 -0.4378 -0.6087
 7329SOL     OW33448   2.126   3.527   1.807  0.3032 -0.7386 -0.3418
 7329SOL    HW133449   2.211   3.555   1.842 -0.9297  1.3786  0.9275
 7329SOL    HW233450   2.078   3.563   1.881  0.5204  0.7722 -0.9287
 7330SOL     OW33451   2.790   1.452   6.715 -1.0303  0.3481 -0.8931
 7330SOL    HW133452   2.871   1.476   6.670 -2.0752  0.0839 -2.9128
 7330SOL    HW233453   2.753   1.537   6.740 -0.0422  0.4935  0.0595
 7331SOL     OW33454   0.321   2.818  13.475 -0.3022 -0.0557  0.0550
 7331SOL    HW133455   0.303   2.893  13.419 -0.8221  1.1018  1.7928
 7331SOL    HW233456   0.251   2.808  13.539 -1.2559 -0.5053 -1.0444
 7332SOL     OW33457   0.096   2.414   3.530 -0.0138 -0.7398  0.0910
 7332SOL    HW133458   0.190   2.428   3.543 -0.2619  2.1352 -1.1998
 7332SOL    HW233459   0.084   2.443   3.440 -2.5211 -0.0366  0.6678
 7333SOL     OW33460   4.582   2.488   8.094 -0.1975  0.0856  0.2038
 7333SOL    HW133461   4.594   2.518   8.184  1.2680  1.2974 -0.3803
 7333SOL    HW233462   4.609   2.568   8.048  1.5807  0.3011  1.6067
 7334SOL     OW33463   1.257   2.059   4.708 -0.7980 -0.3963 -0.7575
 7334SOL    HW133464   1.259   2.074   4.803 -1.4339 -2.8521 -0.3557
 7334SOL    HW233465   1.296   2.138   4.672 -0.5715 -1.2881 -2.4657
 7335SOL     OW33466   0.499   2.954  13.966  0.0765 -0.0914 -0.3844
 7335SOL    HW133467   0.507   3.028  13.905  0.1346  1.9555  2.1233
 7335SOL    HW233468   0.588   2.919  13.969 -0.2628 -1.0832 -1.7965
 7336SOL     OW33469   1.885   4.049   6.649  0.9823 -0.7917  0.2844
 7336SOL    HW133470   1.811   4.066   6.590 -0.1187 -2.7115  1.1210
 7336SOL    HW233471   1.828   4.046   6.725  2.4145  3.2123  1.5531
 7337SOL     OW33472   2.458   0.306   3.097  0.4603 -0.6535 -0.7481
 7337SOL    HW133473   2.546   0.339   3.079 -0.2830 -0.1014 -3.2912
 7337SOL    HW233474   2.483   0.232   3.153  3.9576  0.6369 -0.5649
 7338SOL     OW33475   4.665   4.093   2.879 -0.2200  0.1559 -0.2106
 7338SOL    HW133476   4.671   4.038   2.801 -1.3696 -0.5874  0.2124
 7338SOL    HW233477   0.007   4.053   2.933  0.2192  0.7531 -0.3190
 7339SOL     OW33478   1.557   3.886   3.179 -0.0190 -0.0171  0.5966
 7339SOL    HW133479   1.504   3.838   3.116  0.2728  1.8620 -1.1088
 7339SOL    HW233480   1.630   3.826   3.195 -0.9058 -0.5150  2.7553
 7340SOL     OW33481   1.039   0.846   4.043  0.3734  0.3997 -0.8661
 7340SOL    HW133482   1.047   0.753   4.064  2.1975  1.1168  1.6409
 7340SOL    HW233483   1.015   0.877   4.131 -1.2949  1.6433 -1.7747
 7341SOL     OW33484   4.127   3.912   5.236 -0.4220  0.0069 -0.7576
 7341SOL    HW133485   4.144   3.962   5.156  0.6190  0.7423 -0.0720
 7341SOL    HW233486   4.086   3.975   5.296  0.5329 -0.2456  0.1570
 7342SOL     OW33487   4.196   4.251   4.805 -0.1175  0.3801 -0.2791
 7342SOL    HW133488   4.108   4.267   4.771 -0.7279  1.9605  2.0834
 7342SOL    HW233489   4.251   4.197   4.748 -0.4436  0.0811 -0.3091
 7343SOL     OW33490   3.104   2.880   7.934 -0.0347  0.0413 -0.5626
 7343SOL    HW133491   3.009   2.882   7.947  0.1111  1.6338  0.3038
 7343SOL    HW233492   3.130   2.805   7.987 -0.0212 -1.1564 -2.2492
 7344SOL     OW33493   1.803   2.604  16.924 -0.4753 -0.4341 -0.0568
 7344SOL    HW133494   1.755   2.671  16.877  2.4337  0.8319 -1.2001
 7344SOL    HW233495   1.733   2.594  16.989 -1.8453 -0.0679 -1.4716
 7345SOL     OW33496   4.546   0.481  11.019 -0.3704  0.0200  0.3233
 7345SOL    HW133497   4.472   0.477  11.079 -0.7320 -2.4676 -0.2821
 7345SOL    HW233498   4.603   0.432  11.078 -2.1953 -2.6846 -0.1641
 7346SOL     OW33499   2.163   2.654   1.235  0.1261  0.0135 -0.5069
 7346SOL    HW133500   2.073   2.637   1.263 -0.4483  1.2938 -1.5331
 7346SOL    HW233501   2.144   2.711   1.160 -1.6385  1.8442  1.3309
 7347SOL     OW33502   4.679   3.821   8.757  0.4041  0.1739 -0.0419
 7347SOL    HW133503   4.715   3.741   8.796  0.0231  0.6754  1.3299
 7347SOL    HW233504   0.001   3.825   8.674  1.3199 -0.5399  0.4527
 7348SOL     OW33505   2.148   4.275   8.149  0.1547 -0.1287  0.0136
 7348SOL    HW133506   2.165   4.228   8.230 -1.2240 -2.8447 -1.2635
 7348SOL    HW233507   2.113   4.361   8.173 -0.5513  0.1472 -1.9893
 7349SOL     OW33508   2.056   2.019   8.088 -0.3036 -0.3337 -0.4426
 7349SOL    HW133509   2.136   2.028   8.140  0.2351  2.0659 -1.7107
 7349SOL    HW233510   2.087   2.007   7.998 -0.3348  2.4496 -0.8122
 7350SOL     OW33511   0.351   1.960   7.575  0.2361 -0.0074 -0.2489
 7350SOL    HW133512   0.364   2.005   7.658  2.9298 -3.0392  0.9634
 7350SOL    HW233513   0.442   1.964   7.546  0.1243  1.9575 -0.2803
 7351SOL     OW33514   3.993   1.126  13.434  0.4033  0.4380 -0.9837
 7351SOL    HW133515   4.002   1.117  13.529 -0.3613  1.5776 -0.8068
 7351SOL    HW233516   3.938   1.204  13.437  0.7591  0.6421  0.2591
 7352SOL     OW33517   1.898   4.021   4.943 -0.4869 -0.4273  0.0779
 7352SOL    HW133518   1.869   4.103   4.982  0.0779 -1.2026  2.1308
 7352SOL    HW233519   1.968   4.055   4.889 -1.1099 -0.9671 -1.0817
 7353SOL     OW33520   2.594   4.443  10.823 -0.1618  0.3863 -0.4378
 7353SOL    HW133521   2.623   4.384  10.754 -0.6939 -0.7956  0.3545
 7353SOL    HW233522   2.540   4.502  10.771 -1.5563 -0.6963 -0.2034
 7354SOL     OW33523   3.390   0.733   9.821  0.0610  0.0517  0.1570
 7354SOL    HW133524   3.433   0.818   9.818 -1.6310  0.9313  0.9037
 7354SOL    HW233525   3.326   0.740   9.891 -0.3534 -3.7025  0.1773
 7355SOL     OW33526   2.048   3.482  15.548  0.4101 -0.1130 -0.3037
 7355SOL    HW133527   2.141   3.475  15.571 -0.0554  1.2550  2.0207
 7355SOL    HW233528   2.019   3.530  15.626  0.8231  1.0526 -0.8711
 7356SOL     OW33529   2.910   4.501   7.480  0.4865 -0.2208  0.6838
 7356SOL    HW133530   2.833   4.451   7.452 -0.8719  3.1172 -1.5410
 7356SOL    HW233531   2.954   4.442   7.541  0.6695 -1.8928 -1.0605
 7357SOL     OW33532   1.107   1.829  14.971 -0.4949 -0.3365  0.2364
 7357SOL    HW133533   1.188   1.816  14.922 -0.4160 -0.0683  0.2936
 7357SOL    HW233534   1.084   1.736  14.976 -1.6186 -0.0672  0.2565
 7358SOL     OW33535   1.271   0.623   6.248 -0.0729  0.0701 -0.0244
 7358SOL    HW133536   1.320   0.699   6.279  3.1126 -1.2114 -1.9109
 7358SOL    HW233537   1.316   0.556   6.299  0.9467  1.4136  0.8261
 7359SOL     OW33538   3.467   0.326   2.427  0.2071  0.4545 -0.8733
 7359SOL    HW133539   3.441   0.388   2.359  0.7773  1.2172 -0.3924
 7359SOL    HW233540   3.559   0.353   2.431  1.2798 -3.7647  2.3945
 7360SOL     OW33541   2.819   4.538   3.544  0.1869  0.3233 -0.3095
 7360SOL    HW133542   2.740   4.576   3.506 -1.7365 -2.5533  0.8182
 7360SOL    HW233543   2.887   4.598   3.515 -1.8604  0.5427 -4.7381
 7361SOL     OW33544   4.447   3.811   3.986 -0.0216  0.3534 -0.6535
 7361SOL    HW133545   4.395   3.887   3.959  0.5114  1.4688  1.5267
 7361SOL    HW233546   4.529   3.852   4.013  0.4811 -0.7820 -0.4551
 7362SOL     OW33547   0.402   1.106   5.721  0.7348 -0.1489  0.3316
 7362SOL    HW133548   0.462   1.032   5.724 -0.5636 -1.1279  2.5774
 7362SOL    HW233549   0.318   1.060   5.730  0.7535 -0.6612 -2.0620
 7363SOL     OW33550   2.078   3.622  15.335  0.7452  0.3728 -0.5420
 7363SOL    HW133551   2.172   3.641  15.333  1.0298 -1.0762 -0.6368
 7363SOL    HW233552   2.059   3.575  15.415  0.9962  1.9526  0.4539
 7364SOL     OW33553   0.717   4.577  11.209 -0.4052  0.3425  0.0301
 7364SOL    HW133554   0.677   4.569  11.123  0.2571  0.8793 -0.3317
 7364SOL    HW233555   0.642   4.618  11.251 -0.9820  0.8458 -1.4870
 7365SOL     OW33556   0.515   2.584   4.530 -0.7736 -0.7248 -1.0239
 7365SOL    HW133557   0.463   2.566   4.608  0.7952  0.2419  0.2478
 7365SOL    HW233558   0.596   2.540   4.556 -2.1545 -1.8663  1.3046
 7366SOL     OW33559   3.545   0.567   4.404  0.2299  0.8768  1.0963
 7366SOL    HW133560   3.539   0.662   4.404 -2.0336  0.7470  0.9572
 7366SOL    HW233561   3.588   0.550   4.488  1.9409 -0.2014  0.0088
 7367SOL     OW33562   2.068   2.727   7.300 -0.0965 -0.4446 -0.3198
 7367SOL    HW133563   1.999   2.670   7.267 -1.9856  1.1507  0.9331
 7367SOL    HW233564   2.027   2.811   7.280  0.9827  0.2390  0.3328
 7368SOL     OW33565   0.502   2.979   7.578  0.0311  0.0504 -0.2660
 7368SOL    HW133566   0.442   2.918   7.620 -0.7397 -0.3311 -1.8968
 7368SOL    HW233567   0.574   2.921   7.555 -0.5171 -0.1034 -1.6155
 7369SOL     OW33568   2.212   2.333   3.816  0.0486 -0.5386 -0.2190
 7369SOL    HW133569   2.147   2.271   3.850 -0.5068 -0.4610 -1.1336
 7369SOL    HW233570   2.298   2.307   3.850  0.1716  1.3457  0.9251
 7370SOL     OW33571   4.194   3.561   7.840 -0.1748 -0.0755  0.3406
 7370SOL    HW133572   4.173   3.650   7.869  0.4191  0.1678  0.0366
 7370SOL    HW233573   4.248   3.580   7.763  0.9808  1.4826  1.5331
 7371SOL     OW33574   2.857   4.483   6.256 -0.7177 -0.1781 -0.6690
 7371SOL    HW133575   2.904   4.412   6.299 -2.4000 -1.3314 -0.7221
 7371SOL    HW233576   2.784   4.501   6.316 -1.1236 -1.9310 -0.6365
 7372SOL     OW33577   3.477   0.647  13.881  0.0142 -0.1909 -0.2781
 7372SOL    HW133578   3.502   0.594  13.957 -1.0318 -0.6891 -0.2784
 7372SOL    HW233579   3.506   0.729  13.922  1.2903 -0.6447 -0.2775
 7373SOL     OW33580   2.872   4.191   3.751  0.2090 -0.0460  0.3015
 7373SOL    HW133581   2.792   4.152   3.786  1.0023 -1.7289  0.2147
 7373SOL    HW233582   2.932   4.191   3.825  0.6884  1.8970 -0.0725
 7374SOL     OW33583   1.210   4.554  16.629  0.0273  0.4410  0.0812
 7374SOL    HW133584   1.169   4.530  16.711  0.2084  0.7691  0.2688
 7374SOL    HW233585   1.255   4.634  16.657 -1.7942  0.7824  2.0173
 7375SOL     OW33586   3.115   2.973   7.238  0.2171  0.1592  0.7641
 7375SOL    HW133587   3.208   2.991   7.250  0.4446  0.2531 -1.2991
 7375SOL    HW233588   3.086   3.061   7.215  1.5843 -0.5420 -3.4846
 7376SOL     OW33589   4.602   3.208   1.896  0.4155 -0.3738 -0.8706
 7376SOL    HW133590   4.606   3.165   1.981 -0.0061  1.2455 -0.0339
 7376SOL    HW233591   4.691   3.242   1.886  0.6981 -0.8798 -0.0622
 7377SOL     OW33592   0.258   2.475   3.085  0.0598 -0.0832  0.7281
 7377SOL    HW133593   0.270   2.569   3.100  1.0546 -0.1177  0.2029
 7377SOL    HW233594   0.347   2.447   3.061  0.7179  3.0230 -0.4001
 7378SOL     OW33595   2.330   4.068  12.838  0.1146  0.3393 -0.0824
 7378SOL    HW133596   2.397   4.115  12.788 -0.5463 -0.4074 -1.6582
 7378SOL    HW233597   2.380   3.986  12.840 -1.7704 -0.8093  0.7145
 7379SOL     OW33598   2.543   3.800   5.879 -0.7054  0.4795  0.4651
 7379SOL    HW133599   2.480   3.784   5.809 -1.7419  1.2796  1.2073
 7379SOL    HW233600   2.500   3.867   5.933  0.0402  2.2461 -1.1339
 7380SOL     OW33601   1.445   4.636  15.889 -0.2320 -0.2931  0.9818
 7380SOL    HW133602   1.373   4.676  15.937 -1.0295  0.7090 -1.0359
 7380SOL    HW233603   1.415   4.545  15.895 -0.9278 -0.1550 -0.3864
 7381SOL     OW33604   1.121   0.262   5.662  0.1012  0.0436 -0.3262
 7381SOL    HW133605   1.046   0.286   5.608  0.0716 -1.6474 -1.0299
 7381SOL    HW233606   1.167   0.190   5.619  0.4235  0.3306 -0.4618
 7382SOL     OW33607   3.296   3.105  12.762 -0.3593  0.2379 -0.1733
 7382SOL    HW133608   3.339   3.191  12.759 -2.2052  1.1611  0.3034
 7382SOL    HW233609   3.298   3.073  12.672  1.3092  1.5530 -0.6182
 7383SOL     OW33610   1.986   3.900  11.492  0.6681 -0.1962  0.4484
 7383SOL    HW133611   1.929   3.963  11.537 -0.7455  0.0514 -1.6755
 7383SOL    HW233612   1.926   3.876  11.421 -0.8202  0.8917  1.3213
 7384SOL     OW33613   1.693   0.393  12.675 -0.2931 -0.2081 -0.0017
 7384SOL    HW133614   1.639   0.327  12.633 -1.2201 -0.2435  1.2346
 7384SOL    HW233615   1.658   0.393  12.764 -2.2996  0.0967 -0.7853
 7385SOL     OW33616   2.035   2.145  10.301 -0.5545 -0.2953 -0.1130
 7385SOL    HW133617   1.944   2.161  10.326 -1.4496 -0.8097 -3.0761
 7385SOL    HW233618   2.033   2.129  10.207 -1.4396  2.0498 -0.5056
 7386SOL     OW33619   4.178   3.794   7.162 -1.0059  0.2692  0.3287
 7386SOL    HW133620   4.180   3.879   7.206  2.9428  1.7565 -2.7818
 7386SOL    HW233621   4.089   3.760   7.174 -0.3913 -1.0856  1.1298
 7387SOL     OW33622   4.223   2.167   8.685  0.2162  0.4231 -0.2486
 7387SOL    HW133623   4.233   2.132   8.596 -0.5799 -0.2161 -0.0786
 7387SOL    HW233624   4.164   2.111   8.735  1.0974 -0.1476  0.1544
 7388SOL     OW33625   1.514   1.453   8.184  0.5076  0.8729 -0.1900
 7388SOL    HW133626   1.514   1.406   8.100  0.2729  0.9626 -0.2397
 7388SOL    HW233627   1.569   1.395   8.237  0.5017  1.5765  0.5797
 7389SOL     OW33628   4.525   0.355  16.892 -0.1490 -0.6145 -0.1614
 7389SOL    HW133629   4.584   0.340  16.817 -0.5605  1.4254 -0.8889
 7389SOL    HW233630   4.457   0.291  16.871 -1.2503 -0.6715  3.5557
 7390SOL     OW33631   2.243   0.267  11.526 -0.0983  0.5388  0.2046
 7390SOL    HW133632   2.308   0.238  11.461 -1.3784  0.4557 -1.0389
 7390SOL    HW233633   2.161   0.236  11.487 -1.2040  1.3005  1.9364
 7391SOL     OW33634   2.138   0.685   8.353 -0.0840  0.5661 -0.0582
 7391SOL    HW133635   2.102   0.640   8.429 -2.4125  0.3667 -1.2523
 7391SOL    HW233636   2.062   0.701   8.296  0.4891 -1.0385 -1.2693
 7392SOL     OW33637   1.338   0.571   8.880  0.0953  0.3573 -0.5143
 7392SOL    HW133638   1.432   0.579   8.896 -0.3682  0.7791  2.1216
 7392SOL    HW233639   1.298   0.617   8.954 -0.1570  0.9869 -1.0454
 7393SOL     OW33640   0.513   4.337   4.342  0.3955 -0.2844  0.2299
 7393SOL    HW133641   0.495   4.427   4.369  0.0302 -1.0637  2.5623
 7393SOL    HW233642   0.448   4.330   4.272 -1.2573 -1.1652  1.8553
 7394SOL     OW33643   0.032   1.863   4.204  0.3414  0.2811 -0.7806
 7394SOL    HW133644   0.047   1.923   4.277 -1.1134 -0.1346 -0.1496
 7394SOL    HW233645   4.685   1.813   4.242  1.3391 -0.5947 -0.0244
 7395SOL     OW33646   0.997   1.894   3.295  0.0091 -0.1380  0.2246
 7395SOL    HW133647   0.990   1.969   3.236  1.8451 -0.9023 -0.9723
 7395SOL    HW233648   1.049   1.912   3.373 -0.4028  0.4296  0.3640
 7396SOL     OW33649   2.613   0.817  16.630  0.2872 -0.6172 -0.1223
 7396SOL    HW133650   2.635   0.761  16.704  1.4581  0.3681  0.2783
 7396SOL    HW233651   2.654   0.766  16.560 -2.7071 -1.2273 -1.4254
 7397SOL     OW33652   2.052   3.578   8.377  0.4678 -0.0030 -0.0827
 7397SOL    HW133653   2.028   3.507   8.316  1.2959 -0.4318  0.0913
 7397SOL    HW233654   2.106   3.635   8.322 -0.8875 -0.1049 -1.5341
 7398SOL     OW33655   0.125   3.885  14.173  0.2613  0.7439  0.2629
 7398SOL    HW133656   0.122   3.955  14.108  1.5003  0.0406 -0.5616
 7398SOL    HW233657   0.038   3.899  14.210 -0.4997  1.3531 -1.7774
 7399SOL     OW33658   0.014   2.457   8.356  0.6375 -0.5568  0.1185
 7399SOL    HW133659   4.668   2.399   8.384 -0.7463 -0.1249 -2.5177
 7399SOL    HW233660   0.061   2.463   8.439 -0.1286  0.9574  0.4463
 7400SOL     OW33661   3.536   2.700   6.469 -0.4264 -0.5284  0.5328
 7400SOL    HW133662   3.609   2.650   6.506  0.2615 -0.8915 -1.3056
 7400SOL    HW233663   3.503   2.741   6.549  0.6345  1.8577 -0.2448
 7401SOL     OW33664   3.876   1.935   0.276 -0.5090  0.6431 -0.1801
 7401SOL    HW133665   3.952   1.877   0.281 -0.7819  0.2380 -0.8060
 7401SOL    HW233666   3.805   1.872   0.270  1.5204 -1.5948 -0.5032
 7402SOL     OW33667   2.867   4.437  17.072 -0.0414  0.2001  0.1696
 7402SOL    HW133668   2.838   4.353  17.035  0.1167 -0.7101  2.1320
 7402SOL    HW233669   2.881   4.407  17.161  1.8730 -1.1807 -0.5892
 7403SOL     OW33670   2.724   2.676   4.271  0.1321 -0.3001  0.1849
 7403SOL    HW133671   2.777   2.667   4.350  1.1117  3.5202 -0.0610
 7403SOL    HW233672   2.687   2.764   4.278 -0.1998 -0.4131 -0.1150
 7404SOL     OW33673   1.794   4.461   8.982  0.4548  0.5546  0.3799
 7404SOL    HW133674   1.866   4.511   9.022  0.4078  0.1008  1.0263
 7404SOL    HW233675   1.811   4.479   8.889  0.7365 -0.3731  0.2502
 7405SOL     OW33676   0.223   3.451   7.717  0.2323  0.0948  0.1296
 7405SOL    HW133677   0.204   3.383   7.781 -0.6311 -0.4385 -0.6980
 7405SOL    HW233678   0.159   3.509   7.759  0.9521  0.3860  0.8356
 7406SOL     OW33679   4.708   1.830   0.132  0.2337 -0.9581 -0.3010
 7406SOL    HW133680   4.674   1.881   0.206  1.6170  1.1319 -1.0992
 7406SOL    HW233681   4.653   1.754   0.110 -0.2611 -0.4289 -0.9145
 7407SOL     OW33682   1.974   0.415  11.285  0.0130  0.2114  0.0152
 7407SOL    HW133683   2.039   0.485  11.288  0.0210  0.3474 -2.9332
 7407SOL    HW233684   1.957   0.407  11.379  1.5323 -0.4776  0.2305
 7408SOL     OW33685   1.108   0.497   1.982  0.9625  0.1319 -0.0973
 7408SOL    HW133686   1.088   0.534   1.896 -2.9631 -2.8488 -0.4332
 7408SOL    HW233687   1.108   0.404   1.957  2.7586  1.0005 -3.4370
 7409SOL     OW33688   0.215   3.678  10.778 -0.1062 -0.3231  0.1306
 7409SOL    HW133689   0.257   3.613  10.722 -1.3256 -0.7042 -0.3535
 7409SOL    HW233690   0.266   3.751  10.743  0.8200 -1.2817 -0.5111
 7410SOL     OW33691   4.649   1.487   5.143 -0.1519 -0.3674  0.2271
 7410SOL    HW133692   4.659   1.398   5.110 -2.6314  0.2191 -2.0927
 7410SOL    HW233693   4.555   1.502   5.145 -0.2124 -0.4517 -1.5736
 7411SOL     OW33694   3.138   2.677   3.109  0.1987  0.1116  0.9059
 7411SOL    HW133695   3.110   2.746   3.048  1.9364 -0.6852 -0.7893
 7411SOL    HW233696   3.165   2.605   3.052 -1.0477  0.2470  0.1494
 7412SOL     OW33697   3.088   4.063  12.043 -0.2124  0.0902  0.6103
 7412SOL    HW133698   3.091   4.102  12.131 -0.9647 -1.4536  1.3164
 7412SOL    HW233699   3.074   3.970  12.060  0.7883  0.2744  2.4227
 7413SOL     OW33700   0.239   2.085   3.545 -0.0019 -0.0446  0.1220
 7413SOL    HW133701   0.325   2.125   3.558  0.6938 -1.4007 -0.3615
 7413SOL    HW233702   0.264   2.009   3.493  2.2292 -0.5837  1.9864
 7414SOL     OW33703   0.390   1.109   7.092  0.0120 -0.0405  0.1441
 7414SOL    HW133704   0.482   1.132   7.076 -0.3419 -0.0444 -1.8581
 7414SOL    HW233705   0.387   1.075   7.181  0.1883  0.9412  0.5304
 7415SOL     OW33706   0.878   2.022   9.701  0.0769  0.0214 -0.0987
 7415SOL    HW133707   0.884   1.937   9.658 -2.0266 -0.8019  1.2325
 7415SOL    HW233708   0.958   2.070   9.682  0.8260 -0.0785  2.6780
 7416SOL     OW33709   3.146   0.667   7.578  0.1501 -0.2922 -0.1933
 7416SOL    HW133710   3.104   0.746   7.613  1.5880  1.1006 -1.6013
 7416SOL    HW233711   3.083   0.599   7.599  0.6259 -1.2463 -1.8857
 7417SOL     OW33712   3.002   0.595   0.733 -0.0331 -0.3109 -0.2009
 7417SOL    HW133713   2.935   0.642   0.683  0.6966 -0.8035 -1.6325
 7417SOL    HW233714   3.074   0.590   0.671  0.2638  0.4306  0.0743
 7418SOL     OW33715   1.294   2.885   9.780 -0.0395 -0.1336 -0.3072
 7418SOL    HW133716   1.302   2.799   9.822 -0.3935 -0.6893 -1.3404
 7418SOL    HW233717   1.289   2.930   9.864 -1.6976 -1.7714  0.4905
 7419SOL     OW33718   0.733   3.512  16.540 -0.2384  0.5094 -0.1962
 7419SOL    HW133719   0.705   3.432  16.494  1.4642  0.6322 -1.4372
 7419SOL    HW233720   0.821   3.485  16.565  0.5327  3.0277 -0.2044
 7420SOL     OW33721   3.337   0.616  11.145  0.5017  0.4792  0.9177
 7420SOL    HW133722   3.371   0.691  11.194  0.8359  0.7006  0.3423
 7420SOL    HW233723   3.416   0.588  11.100 -0.7192 -0.3991 -0.6626
 7421SOL     OW33724   2.891   1.858  10.827  0.0558  0.5561 -0.5708
 7421SOL    HW133725   2.980   1.831  10.847  0.6306  1.4795 -1.9716
 7421SOL    HW233726   2.899   1.951  10.810  1.2959  0.2847 -1.3965
 7422SOL     OW33727   4.529   4.295   1.984 -0.1747 -0.6647 -0.4841
 7422SOL    HW133728   4.589   4.251   2.043 -2.6424 -1.0735  1.7353
 7422SOL    HW233729   4.566   4.270   1.899  1.0708 -2.3884  0.5661
 7423SOL     OW33730   2.223   1.372   8.498 -0.1797  0.4220  0.0108
 7423SOL    HW133731   2.243   1.338   8.411  1.2244  1.0187  0.0966
 7423SOL    HW233732   2.307   1.366   8.544  0.1097 -1.9443 -0.8334
 7424SOL     OW33733   4.539   1.204   1.114 -0.1434  0.7146  0.2682
 7424SOL    HW133734   4.554   1.250   1.197  2.2527  1.6895 -0.7096
 7424SOL    HW233735   4.464   1.153   1.143  0.2590  0.4694  0.8894
 7425SOL     OW33736   1.751   0.600   7.697 -0.6465  0.1934 -0.3399
 7425SOL    HW133737   1.820   0.536   7.718  0.9484  2.8314  2.4908
 7425SOL    HW233738   1.715   0.572   7.613 -3.7250  1.2533  0.6398
 7426SOL     OW33739   4.580   0.129  14.589  0.8015  0.0247 -0.3332
 7426SOL    HW133740   4.635   0.141  14.666 -1.9042 -0.5975  1.6939
 7426SOL    HW233741   4.582   0.034  14.594  0.4642  0.0054 -0.5425
 7427SOL     OW33742   0.966   4.210   2.423 -0.4024 -0.8373  0.3316
 7427SOL    HW133743   0.871   4.198   2.422 -0.0005 -3.9205 -0.5548
 7427SOL    HW233744   0.985   4.237   2.513  1.5187 -0.2617 -0.2471
 7428SOL     OW33745   3.727   3.358  10.836 -0.5365  0.1223 -0.2018
 7428SOL    HW133746   3.821   3.375  10.836 -0.7302  1.2879  1.0222
 7428SOL    HW233747   3.697   3.413  10.909  0.3302 -0.0402  0.2786
 7429SOL     OW33748   4.537   2.028   6.252 -0.7942  0.1948 -0.0806
 7429SOL    HW133749   4.556   2.028   6.345  2.5398  0.5090 -0.7294
 7429SOL    HW233750   4.539   2.122   6.234 -0.8353  0.1716 -0.2096
 7430SOL     OW33751   2.750   0.883  11.288  0.4468  0.4596 -0.5449
 7430SOL    HW133752   2.822   0.829  11.321 -0.6187  0.9277  2.4849
 7430SOL    HW233753   2.678   0.833  11.326  0.1315 -0.4155 -2.2757
 7431SOL     OW33754   1.828   0.358   8.407  0.2746  0.0266 -0.2821
 7431SOL    HW133755   1.773   0.400   8.341 -1.0814 -0.7678  0.3347
 7431SOL    HW233756   1.766   0.302   8.453  0.6867 -0.5422 -0.4145
 7432SOL     OW33757   4.652   3.481   0.529  0.0828  0.1919  0.4842
 7432SOL    HW133758   0.001   3.538   0.549  0.6131  0.5349 -2.4762
 7432SOL    HW233759   4.578   3.531   0.564 -0.0120  0.8770 -0.6954
 7433SOL     OW33760   3.116   4.313   3.489 -0.2117  0.1575  0.4791
 7433SOL    HW133761   3.061   4.332   3.412 -2.9588  3.1536  3.1983
 7433SOL    HW233762   3.132   4.398   3.530 -1.8120 -0.3008  2.0305
 7434SOL     OW33763   4.291   2.516  10.520 -0.7175 -0.0180  0.1376
 7434SOL    HW133764   4.274   2.485  10.431 -1.5672 -0.3538  0.4249
 7434SOL    HW233765   4.319   2.604  10.496  0.3467 -0.7761 -1.4418
 7435SOL     OW33766   0.991   2.291   6.327  0.8522 -0.2160 -0.0511
 7435SOL    HW133767   1.013   2.311   6.418 -0.2865 -0.6599  0.3353
 7435SOL    HW233768   1.072   2.260   6.287  1.4027  1.5282 -0.2588
 7436SOL     OW33769   3.222   3.015   6.338 -0.4494  0.2845 -0.2456
 7436SOL    HW133770   3.246   3.103   6.365 -2.0730  0.8920 -0.8257
 7436SOL    HW233771   3.284   2.998   6.267 -0.4486  2.0135 -0.6476
 7437SOL     OW33772   3.425   4.413   4.883 -0.2383  0.0620  0.7554
 7437SOL    HW133773   3.373   4.452   4.813 -0.1042 -0.2334  0.4888
 7437SOL    HW233774   3.406   4.319   4.872  4.6182 -0.6824 -1.3361
 7438SOL     OW33775   0.596   3.004   3.548  0.0059  0.0392  0.3049
 7438SOL    HW133776   0.658   2.972   3.482  2.3711  1.0523  2.0440
 7438SOL    HW233777   0.547   3.055   3.484 -1.1166 -1.0201  0.3143
 7439SOL     OW33778   3.144   2.047   1.940  0.0424 -0.0940 -0.2530
 7439SOL    HW133779   3.195   2.022   2.017  0.6462  0.2256 -0.5512
 7439SOL    HW233780   3.059   2.081   1.968  0.8111  0.7301  1.0363
 7440SOL     OW33781   0.166   0.660   9.172 -0.1115 -0.4080 -0.2059
 7440SOL    HW133782   0.233   0.610   9.217  0.6541  0.3606 -0.4991
 7440SOL    HW233783   0.211   0.696   9.096 -1.1831  0.6765 -0.3376
 7441SOL     OW33784   2.241   3.247  11.324 -0.5673 -0.2108  0.3808
 7441SOL    HW133785   2.249   3.310  11.253  1.5911 -0.8819  0.0376
 7441SOL    HW233786   2.262   3.164  11.282 -0.7573 -0.0808  0.0263
 7442SOL     OW33787   3.072   4.065   8.037 -0.3383 -0.0571 -0.1639
 7442SOL    HW133788   3.069   3.991   8.097  0.6206 -1.1367 -1.4530
 7442SOL    HW233789   3.166   4.067   8.022 -0.1473 -0.1889  1.0248
 7443SOL     OW33790   2.175   3.080   1.034  0.0949  0.3747  0.2677
 7443SOL    HW133791   2.254   3.064   1.086  0.1961  1.1200  0.3445
 7443SOL    HW233792   2.199   3.044   0.948 -0.7081 -0.8616  0.5608
 7444SOL     OW33793   0.308   0.273   7.471  0.7389 -0.2704  0.5407
 7444SOL    HW133794   0.293   0.303   7.382 -0.5195  2.0795  1.5626
 7444SOL    HW233795   0.224   0.236   7.498  0.5862  0.2175  0.7230
 7445SOL     OW33796   0.607   1.850  10.089  0.4302  0.1825 -0.5791
 7445SOL    HW133797   0.636   1.792  10.019  0.7127 -1.1693  0.6421
 7445SOL    HW233798   0.655   1.931  10.073  0.6101  0.1514 -0.2057
 7446SOL     OW33799   1.000   2.563  13.926 -0.2674 -0.2756 -0.1046
 7446SOL    HW133800   0.911   2.570  13.961 -0.5217  0.5273 -0.9392
 7446SOL    HW233801   0.976   2.525  13.842 -0.1553  0.1175 -0.3126
 7447SOL     OW33802   1.547   2.751  14.624 -0.3308  0.1021 -0.3140
 7447SOL    HW133803   1.495   2.696  14.682  0.1047 -0.0369 -0.0567
 7447SOL    HW233804   1.488   2.826  14.617  0.4031  0.2826 -4.6959
 7448SOL     OW33805   4.388   1.281   2.501 -0.7734 -0.3040  0.3761
 7448SOL    HW133806   4.347   1.203   2.465  2.1014 -2.1617  1.0960
 7448SOL    HW233807   4.342   1.332   2.435 -0.2394  2.3819  2.0641
 7449SOL     OW33808   4.654   2.904   3.161 -0.0758 -0.8687  0.2683
 7449SOL    HW133809   0.004   2.917   3.104 -0.9047 -1.4046 -0.9455
 7449SOL    HW233810   4.698   2.908   3.246  0.6721  1.0835 -0.2028
 7450SOL     OW33811   0.549   1.541  16.462  0.0334  0.1984 -0.2644
 7450SOL    HW133812   0.511   1.459  16.492  1.7673 -1.1898 -1.9170
 7450SOL    HW233813   0.576   1.531  16.371 -1.1596 -0.7927 -0.4990
 7451SOL     OW33814   0.047   3.188   1.490 -0.3506 -0.1111  0.2661
 7451SOL    HW133815   4.686   3.212   1.524 -0.4726  2.3882 -1.7632
 7451SOL    HW233816   0.063   3.108   1.539 -1.2376 -1.6132 -1.9009
 7452SOL     OW33817   0.770   3.361   4.350 -0.4046 -0.3814  0.2357
 7452SOL    HW133818   0.865   3.352   4.335 -0.2860 -0.2274  0.8841
 7452SOL    HW233819   0.763   3.292   4.416  0.3461 -0.2959  0.4112
 7453SOL     OW33820   0.806   0.251   9.101 -0.4347  0.3314  0.1750
 7453SOL    HW133821   0.831   0.218   9.187 -0.0367  2.5183  0.9030
 7453SOL    HW233822   0.715   0.223   9.092 -0.9547  2.2983 -0.8350
 7454SOL     OW33823   4.582   2.387  12.430  0.4083 -0.0787  0.2543
 7454SOL    HW133824   4.535   2.415  12.351  0.2533 -1.5554 -0.1794
 7454SOL    HW233825   4.649   2.453  12.446  2.0154 -1.1326 -2.0690
 7455SOL     OW33826   3.638   0.927  11.887 -0.3475 -0.0784  0.5724
 7455SOL    HW133827   3.663   0.878  11.965 -2.5570 -1.4768  0.3772
 7455SOL    HW233828   3.703   0.997  11.898 -0.3212  0.0795 -0.5929
 7456SOL     OW33829   1.571   2.416   8.372 -0.5175  0.2736  0.5435
 7456SOL    HW133830   1.587   2.510   8.374 -3.1020  0.7279 -1.0494
 7456SOL    HW233831   1.617   2.388   8.451 -0.2708  0.9574  0.6426
 7457SOL     OW33832   1.579   4.567  16.717 -0.0521  0.1805 -0.1277
 7457SOL    HW133833   1.661   4.613  16.735  0.0048 -0.0816  0.2855
 7457SOL    HW233834   1.519   4.621  16.769 -1.8166 -0.1375 -1.8450
 7458SOL     OW33835   2.928   2.915  12.585 -0.1145 -0.3639 -1.1308
 7458SOL    HW133836   2.880   2.987  12.626  0.7535 -1.2872  1.5531
 7458SOL    HW233837   3.012   2.958  12.567 -1.6034  2.8734 -0.3596
 7459SOL     OW33838   0.149   0.073  13.545 -0.6913 -0.4876 -0.4724
 7459SOL    HW133839   0.120   0.047  13.633  1.2454 -0.9600  0.0445
 7459SOL    HW233840   0.234   0.028  13.540  0.3000  1.3899 -0.5498
 7460SOL     OW33841   0.033   0.655   6.632  0.4984 -0.0543 -0.0786
 7460SOL    HW133842   0.051   0.749   6.631 -2.1396  0.4292 -0.4166
 7460SOL    HW233843   4.680   0.653   6.686  1.2740  1.2888  1.1107
 7461SOL     OW33844   1.196   0.803   5.695  0.0566 -0.0317 -0.5222
 7461SOL    HW133845   1.183   0.861   5.770 -0.8695 -1.8644  0.7264
 7461SOL    HW233846   1.128   0.737   5.707 -0.9792  1.0307 -0.5151
 7462SOL     OW33847   1.986   2.651  12.133  0.3616  0.4122  0.5805
 7462SOL    HW133848   2.062   2.602  12.164 -0.1262 -2.0003 -2.0640
 7462SOL    HW233849   2.018   2.741  12.145  2.7702 -0.4728  0.9909
 7463SOL     OW33850   4.288   4.140  17.160 -0.3359 -0.4769 -0.4940
 7463SOL    HW133851   4.239   4.218  17.186 -2.7677 -1.7868 -1.1642
 7463SOL    HW233852   4.312   4.094  17.241  1.9913 -0.3104 -1.0825
 7464SOL     OW33853   2.954   1.161   8.763 -0.0386  0.6167 -0.1473
 7464SOL    HW133854   2.968   1.162   8.858 -0.2437 -4.2986 -0.0564
 7464SOL    HW233855   2.955   1.065   8.766 -2.8787  0.6044  0.7755
 7465SOL     OW33856   0.543   3.147   5.337  0.1814 -0.3246 -0.4034
 7465SOL    HW133857   0.463   3.194   5.312  0.2344  0.6384  1.2314
 7465SOL    HW233858   0.596   3.150   5.258 -0.0656 -1.0579 -0.5993
 7466SOL     OW33859   2.142   4.609   3.749  0.0337  0.3194 -0.5016
 7466SOL    HW133860   2.158   4.565   3.666  0.0269  0.8533 -0.7900
 7466SOL    HW233861   2.189   4.547   3.805 -2.9295 -2.9608 -1.7333
 7467SOL     OW33862   0.425   3.091   4.383  0.0683 -0.3404 -0.5127
 7467SOL    HW133863   0.459   3.008   4.418  1.7695  0.3526 -0.5084
 7467SOL    HW233864   0.453   3.073   4.293 -0.8866 -1.4319 -0.5919
 7468SOL     OW33865   3.998   4.160   1.100 -0.1242  0.3406  0.1961
 7468SOL    HW133866   4.056   4.120   1.165 -0.6815  0.0262  0.4950
 7468SOL    HW233867   3.911   4.138   1.133 -0.2670 -0.0049 -0.4065
 7469SOL     OW33868   3.807   1.263  11.236  0.0809  0.6646 -0.1061
 7469SOL    HW133869   3.872   1.196  11.215 -2.3950 -1.8567  0.4655
 7469SOL    HW233870   3.856   1.342  11.212  1.9691 -0.2200  0.7647
 7470SOL     OW33871   1.017   4.066   5.233 -0.5381  0.0496 -0.5110
 7470SOL    HW133872   0.990   3.997   5.294 -0.4629 -0.2434 -0.8068
 7470SOL    HW233873   0.939   4.088   5.182 -0.6359  0.5870 -0.1219
 7471SOL     OW33874   0.764   3.700   4.895  0.5556  0.2861  0.1874
 7471SOL    HW133875   0.676   3.735   4.883  1.0279  0.7550 -1.9355
 7471SOL    HW233876   0.815   3.775   4.864  1.5099 -0.4661 -0.0546
 7472SOL     OW33877   0.035   3.604   3.801  0.3688  0.1655 -0.4909
 7472SOL    HW133878   0.047   3.699   3.804  1.9719 -0.0188 -1.0608
 7472SOL    HW233879   0.117   3.566   3.770 -0.2234 -0.7671 -0.9220
 7473SOL     OW33880   4.499   4.459  14.881  0.1517  0.2587 -0.0436
 7473SOL    HW133881   4.504   4.553  14.861 -1.5733  0.4740  0.5021
 7473SOL    HW233882   4.576   4.451  14.937  2.5228 -2.0347 -3.6694
 7474SOL     OW33883   1.328   2.081   3.134 -0.2394  0.1906  0.2281
 7474SOL    HW133884   1.409   2.121   3.165 -0.2077  1.2297 -1.2176
 7474SOL    HW233885   1.336   1.995   3.176  1.2927  0.2021 -0.0448
 7475SOL     OW33886   0.942   4.320  14.479  0.3325 -0.3044  0.3350
 7475SOL    HW133887   0.892   4.356  14.553 -0.7191  0.3299 -0.6778
 7475SOL    HW233888   1.019   4.376  14.487  1.1955 -1.3071 -0.9368
 7476SOL     OW33889   4.578   2.256   2.505  0.0366 -0.5481 -0.7139
 7476SOL    HW133890   4.605   2.170   2.537 -0.3841 -0.4924 -0.1964
 7476SOL    HW233891   4.515   2.286   2.571  2.4000 -0.1880  1.3781
 7477SOL     OW33892   0.808   2.161   3.059 -0.1509  0.0109  0.3544
 7477SOL    HW133893   0.897   2.192   3.076 -0.0288 -0.4040  0.4816
 7477SOL    HW233894   0.795   2.188   2.968  1.1396 -0.5088  0.0158
 7478SOL     OW33895   1.222   4.619   8.581 -0.5312  0.1343  0.1670
 7478SOL    HW133896   1.130   4.645   8.569 -0.9993 -1.7422 -0.4012
 7478SOL    HW233897   1.246   4.684   8.647 -0.5772  0.8208 -0.4976
 7479SOL     OW33898   0.371   2.585  17.124  0.0901 -0.2432 -0.2664
 7479SOL    HW133899   0.405   2.590  17.213  0.9859 -2.4844 -0.4645
 7479SOL    HW233900   0.453   2.609  17.079  0.9011  0.2448  1.4976
 7480SOL     OW33901   2.057   1.351   3.151 -0.3554  0.0387 -0.3454
 7480SOL    HW133902   2.052   1.441   3.183 -3.4184 -0.7932  1.5527
 7480SOL    HW233903   1.965   1.323   3.150 -0.2645 -0.2430 -0.7769
 7481SOL     OW33904   2.032   0.540   8.011 -0.2770 -0.5431  0.8272
 7481SOL    HW133905   2.128   0.533   8.008 -0.2461  0.0227  0.4694
 7481SOL    HW233906   1.997   0.518   7.925 -0.8748  0.0695  0.9172
 7482SOL     OW33907   4.309   4.495   4.107 -0.3447  0.2980 -0.0122
 7482SOL    HW133908   4.373   4.483   4.177 -1.0881  0.3311  0.6757
 7482SOL    HW233909   4.244   4.529   4.169  0.0829 -1.0849  1.1837
 7483SOL     OW33910   2.121   4.507   5.777 -0.3466  0.4649 -0.3903
 7483SOL    HW133911   2.156   4.530   5.692 -0.9964 -3.9078 -1.8182
 7483SOL    HW233912   2.026   4.503   5.770 -0.2230  0.7977 -2.1256
 7484SOL     OW33913   4.596   3.184  15.974  0.7251 -0.0358  0.3033
 7484SOL    HW133914   4.524   3.123  15.960  0.6471 -0.0424  0.7371
 7484SOL    HW233915   4.565   3.233  16.051  0.9212 -2.3516  1.8491
 7485SOL     OW33916   1.068   4.018   2.213 -1.1066  0.0583  0.1599
 7485SOL    HW133917   1.000   4.065   2.263 -0.7272  0.2953  0.4569
 7485SOL    HW233918   1.092   4.084   2.148 -1.8016  1.9308  1.7773
 7486SOL     OW33919   2.891   0.518  17.603  0.0294  0.2032 -0.1908
 7486SOL    HW133920   2.930   0.430  17.597 -1.9114 -0.7610  1.4566
 7486SOL    HW233921   2.964   0.579  17.593  1.4259 -1.0359  2.2905
 7487SOL     OW33922   4.343   2.597  11.807  0.5623  0.2908 -0.3774
 7487SOL    HW133923   4.354   2.546  11.727 -0.6729  2.0222 -1.6363
 7487SOL    HW233924   4.260   2.571  11.848  0.5126 -0.1829 -0.7869
 7488SOL     OW33925   3.671   2.353   7.885 -0.3140 -0.2188  0.5120
 7488SOL    HW133926   3.712   2.439   7.881 -0.3182 -0.2344  0.1564
 7488SOL    HW233927   3.748   2.304   7.913  0.7544  2.0176  1.4419
 7489SOL     OW33928   2.263   4.700  17.239  0.0023 -0.5692  0.7563
 7489SOL    HW133929   2.336   4.642  17.263  0.4450 -0.7957 -1.1172
 7489SOL    HW233930   2.304   0.003  17.157  0.0144 -2.4245  0.1157
 7490SOL     OW33931   1.230   1.755   8.833 -0.2580 -0.0473  0.5051
 7490SOL    HW133932   1.305   1.704   8.864 -0.2493 -0.2969  0.0697
 7490SOL    HW233933   1.245   1.745   8.739  3.6548  0.7071  1.0515
 7491SOL     OW33934   2.041   3.541  11.679  0.0257  0.3939  0.2987
 7491SOL    HW133935   2.066   3.633  11.684 -0.1610  0.5282 -1.1919
 7491SOL    HW233936   2.039   3.534  11.583 -2.8422  0.8958  0.3222
 7492SOL     OW33937   1.471   4.099   3.323 -0.5814 -0.1264 -0.1344
 7492SOL    HW133938   1.550   4.080   3.372  1.4840  3.4216 -2.1417
 7492SOL    HW233939   1.481   4.031   3.256 -1.0625 -0.8141  0.4809
 7493SOL     OW33940   1.860   4.138  12.676 -0.1665  0.5027  0.2093
 7493SOL    HW133941   1.954   4.149  12.688 -0.3303 -1.1939  2.8701
 7493SOL    HW233942   1.842   4.161  12.585  3.2981  0.8786 -0.4008
 7494SOL     OW33943   0.880   0.377  17.202  0.4131  0.2881 -0.1669
 7494SOL    HW133944   0.951   0.431  17.167  0.3175 -0.9612 -2.3108
 7494SOL    HW233945   0.855   0.321  17.129 -1.0109 -0.0302  0.5686
 7495SOL     OW33946   0.869   0.045   1.945 -1.2935 -0.1104 -0.1013
 7495SOL    HW133947   0.804   0.053   2.016  0.8731  0.7806  1.7636
 7495SOL    HW233948   0.927   4.702   1.979  0.0424  0.4017 -1.3830
 7496SOL     OW33949   2.376   0.967   7.513  0.3199  0.1995  0.8552
 7496SOL    HW133950   2.467   0.937   7.502  0.3177  0.0076  1.3459
 7496SOL    HW233951   2.331   0.952   7.430 -2.4224  1.0801  2.1941
 7497SOL     OW33952   2.676   1.095   2.883 -0.0859 -0.2333 -0.2036
 7497SOL    HW133953   2.627   1.035   2.938  0.2861 -1.3617 -1.0940
 7497SOL    HW233954   2.657   1.181   2.921  0.3151  0.0022 -0.5341
 7498SOL     OW33955   0.366   3.115  11.481 -0.2208 -0.3053 -0.3915
 7498SOL    HW133956   0.436   3.177  11.463 -0.2306 -0.4968 -1.0732
 7498SOL    HW233957   0.351   3.146  11.571 -0.2614  0.5873 -0.7067
 7499SOL     OW33958   1.368   0.832   2.653 -0.5630 -0.3563  0.1101
 7499SOL    HW133959   1.436   0.851   2.589  0.4372  0.8022  1.5240
 7499SOL    HW233960   1.289   0.860   2.607 -1.1935 -1.9646  0.2182
 7500SOL     OW33961   3.550   4.470  15.168 -0.8167 -0.0016 -0.1474
 7500SOL    HW133962   3.600   4.401  15.125  2.0095  3.0222 -1.7163
 7500SOL    HW233963   3.581   4.447  15.255 -0.5266 -2.6160 -0.9555
 7501SOL     OW33964   3.145   1.836   2.364 -0.1562 -0.3718 -0.0762
 7501SOL    HW133965   3.140   1.752   2.408  0.8913  0.0249  0.7910
 7501SOL    HW233966   3.222   1.883   2.395  0.2088 -1.2098  0.2842
 7502SOL     OW33967   4.416   2.199   4.906 -0.1710 -0.3012  0.4975
 7502SOL    HW133968   4.355   2.192   4.832 -1.8212  1.0316  1.7359
 7502SOL    HW233969   4.486   2.152   4.861 -0.3207 -2.0288  2.0972
 7503SOL     OW33970   4.284   2.940   1.800 -0.1736 -0.0901  0.2508
 7503SOL    HW133971   4.298   2.845   1.793  1.3567  0.2428 -1.2733
 7503SOL    HW233972   4.313   2.979   1.717  0.1220  0.4307  0.6028
 7504SOL     OW33973   2.356   1.379   9.470  0.0777 -0.1595 -0.1008
 7504SOL    HW133974   2.292   1.446   9.445 -0.1833  0.2292  1.6101
 7504SOL    HW233975   2.431   1.418   9.425 -0.7399  0.0506 -1.2974
 7505SOL     OW33976   2.505   0.588   7.482 -0.2355 -0.8759 -0.0730
 7505SOL    HW133977   2.523   0.643   7.405  1.4299 -1.7420 -0.3008
 7505SOL    HW233978   2.436   0.534   7.444 -1.2421  0.1036  0.3795
 7506SOL     OW33979   0.524   3.302   7.131  0.2693  0.4141 -0.0533
 7506SOL    HW133980   0.485   3.302   7.219  0.6126 -0.3143  0.0926
 7506SOL    HW233981   0.606   3.256   7.146  0.8066  1.9094  1.6810
 7507SOL     OW33982   2.374   0.784  15.583  0.4671 -0.2696  0.6775
 7507SOL    HW133983   2.337   0.743  15.505 -1.9539  1.3614  0.9321
 7507SOL    HW233984   2.350   0.876  15.568  2.3775  0.0765 -0.1525
 7508SOL     OW33985   3.010   1.716  10.496 -0.2150  0.3760  0.0466
 7508SOL    HW133986   3.004   1.806  10.462 -0.3540  0.2295 -0.3150
 7508SOL    HW233987   2.918   1.698  10.515 -0.0632 -1.1646 -0.7191
 7509SOL     OW33988   4.511   4.636   5.641 -0.3180 -0.3912 -0.5640
 7509SOL    HW133989   4.496   4.554   5.689  1.5776 -1.8560 -2.4727
 7509SOL    HW233990   4.606   4.639   5.644 -0.3686  1.2769 -0.7705
 7510SOL     OW33991   1.440   2.630  14.844  0.0968 -1.0556  0.3532
 7510SOL    HW133992   1.349   2.619  14.869 -0.2213  0.1262 -0.3042
 7510SOL    HW233993   1.491   2.570  14.899 -1.8910 -1.0864  2.1556
 7511SOL     OW33994   1.367   0.446   6.031  0.0834 -0.2624  0.2558
 7511SOL    HW133995   1.366   0.368   6.087  1.5073 -1.5747 -1.5516
 7511SOL    HW233996   1.297   0.492   6.076  0.8167 -0.6978  1.8360
 7512SOL     OW33997   4.386   3.888   0.507 -0.7299  0.0958 -0.3602
 7512SOL    HW133998   4.335   3.818   0.466 -1.2025 -0.8958  1.8744
 7512SOL    HW233999   4.392   3.841   0.591  1.3176  0.8120 -0.1191
 7513SOL     OW34000   4.151   1.342   6.083 -0.5528  0.1206  0.2358
 7513SOL    HW134001   4.097   1.333   6.005  1.0719  1.3123 -1.0255
 7513SOL    HW234002   4.154   1.248   6.103 -1.5170 -0.1327 -0.8139
 7514SOL     OW34003   2.871   0.618  14.457  0.0481 -0.9575 -0.4016
 7514SOL    HW134004   2.880   0.528  14.488 -0.8986 -0.8868  0.0626
 7514SOL    HW234005   2.864   0.615  14.361 -2.6593 -1.6598 -0.1701
 7515SOL     OW34006   3.816   0.847  14.138 -0.0329 -0.3521 -0.3421
 7515SOL    HW134007   3.909   0.828  14.123  0.1358  1.9348 -2.1137
 7515SOL    HW234008   3.829   0.933  14.178  1.3316  0.0426 -1.6209
 7516SOL     OW34009   1.343   2.287   2.486  0.1934  0.0027 -0.1653
 7516SOL    HW134010   1.292   2.297   2.406 -2.3466 -0.0175  1.4505
 7516SOL    HW234011   1.421   2.236   2.463 -0.7224 -1.5633  0.1921
 7517SOL     OW34012   2.763   2.899   8.735 -0.2451 -0.0939 -0.1271
 7517SOL    HW134013   2.780   2.974   8.793 -3.0279  0.9802 -0.6884
 7517SOL    HW234014   2.812   2.836   8.788 -0.4858 -2.2645 -2.5054
 7518SOL     OW34015   2.928   4.356   8.183  0.2735  0.3686  0.2691
 7518SOL    HW134016   3.021   4.338   8.166 -0.0371 -1.1380  0.1857
 7518SOL    HW234017   2.894   4.372   8.095  1.8750 -1.4286 -0.6805
 7519SOL     OW34018   0.320   3.995  15.268 -0.0613 -0.1931  0.5596
 7519SOL    HW134019   0.390   3.930  15.260  0.7502  0.6024  1.1088
 7519SOL    HW234020   0.343   4.054  15.196  0.4442  2.7456  3.1455
 7520SOL     OW34021   2.707   1.560   1.511  0.0993  0.0479  0.0137
 7520SOL    HW134022   2.613   1.551   1.499 -0.2665  2.6285  0.8797
 7520SOL    HW234023   2.727   1.591   1.422  0.9957 -3.0388 -0.8651
 7521SOL     OW34024   2.943   1.156   4.415 -0.2274 -0.2952 -0.2951
 7521SOL    HW134025   2.959   1.194   4.329 -0.4636  1.0980  0.2717
 7521SOL    HW234026   2.850   1.132   4.422 -0.7563  1.4717 -1.4435
 7522SOL     OW34027   1.145   0.352  15.696 -0.4874 -0.0221  0.2570
 7522SOL    HW134028   1.089   0.367  15.621 -1.4750  0.5660  1.1177
 7522SOL    HW234029   1.212   0.293  15.660 -0.3855  1.4435 -1.9084
 7523SOL     OW34030   3.459   4.049   3.629  0.3532  0.4188  0.6217
 7523SOL    HW134031   3.371   4.064   3.596 -0.5299 -1.6986  1.9975
 7523SOL    HW234032   3.470   4.112   3.699  0.5553  2.3867 -1.1696
 7524SOL     OW34033   1.046   3.189   2.986  0.1400 -0.1026 -0.1358
 7524SOL    HW134034   1.090   3.245   2.922 -1.7515  3.0003  1.3221
 7524SOL    HW234035   1.071   3.233   3.067 -1.5110 -0.4068  0.5314
 7525SOL     OW34036   1.099   0.242   4.512 -0.2574  0.2118 -0.7350
 7525SOL    HW134037   1.189   0.238   4.481 -0.1319 -0.4216 -0.2921
 7525SOL    HW234038   1.088   0.152   4.542  0.3147  1.2138  2.5276
 7526SOL     OW34039   3.186   0.312   4.286 -0.0141  0.1018  0.8704
 7526SOL    HW134040   3.264   0.349   4.245 -0.8260  0.8003 -0.0234
 7526SOL    HW234041   3.157   0.267   4.207 -0.5458 -0.5509  1.4399
 7527SOL     OW34042   0.575   3.509   4.204 -0.1729  0.1571  0.0498
 7527SOL    HW134043   0.644   3.459   4.247 -0.5300 -0.2041  0.1972
 7527SOL    HW234044   0.499   3.457   4.228 -2.1285  2.5842 -0.9422
 7528SOL     OW34045   2.184   4.266  12.381 -0.2580 -0.3414 -0.2576
 7528SOL    HW134046   2.161   4.332  12.316  0.8006 -0.2641 -0.5526
 7528SOL    HW234047   2.204   4.319  12.458  2.0293 -0.1332 -0.9847
 7529SOL     OW34048   2.242   4.532   1.788  0.5579 -0.1438 -0.4257
 7529SOL    HW134049   2.275   4.490   1.709  0.7200 -0.9343  0.0671
 7529SOL    HW234050   2.150   4.536   1.763  0.1856 -0.7486  0.8374
 7530SOL     OW34051   2.953   2.244   0.262 -0.0491 -0.1926  0.0100
 7530SOL    HW134052   2.931   2.162   0.307 -3.3841  0.7850  0.1662
 7530SOL    HW234053   2.904   2.303   0.319  2.6427  0.1615  1.9466
 7531SOL     OW34054   0.750   3.536   8.690 -0.4155 -0.3285  0.1774
 7531SOL    HW134055   0.768   3.588   8.768  2.7362 -1.6567  0.3340
 7531SOL    HW234056   0.837   3.502   8.669  0.4314  1.0282  1.4881
 7532SOL     OW34057   1.663   3.001  13.041  0.1128  0.3370  0.1287
 7532SOL    HW134058   1.753   3.034  13.046  0.0299  0.4594  0.7812
 7532SOL    HW234059   1.662   2.980  12.948 -1.2142 -0.7053  0.3926
 7533SOL     OW34060   3.791   1.769  16.849 -0.2042 -0.3772  0.8038
 7533SOL    HW134061   3.708   1.817  16.855 -0.7037 -1.0201 -0.8186
 7533SOL    HW234062   3.843   1.824  16.908 -1.2971 -0.8829  2.2338
 7534SOL     OW34063   2.401   3.110   6.558  0.0944  0.0837 -0.5278
 7534SOL    HW134064   2.385   3.016   6.549 -0.1880  0.1753 -0.9882
 7534SOL    HW234065   2.343   3.150   6.493 -2.3075 -1.8361  0.4176
 7535SOL     OW34066   0.123   1.623   5.761 -0.4287 -0.1793 -0.0157
 7535SOL    HW134067   0.030   1.628   5.779 -0.2612 -0.6980  0.9788
 7535SOL    HW234068   0.153   1.713   5.753  2.2261 -1.0339  0.2453
 7536SOL     OW34069   1.423   4.379   6.684 -0.2781 -0.4021  0.8554
 7536SOL    HW134070   1.444   4.439   6.756 -0.5531  2.3243 -1.3212
 7536SOL    HW234071   1.399   4.301   6.733 -1.4141 -0.3863  0.3262
 7537SOL     OW34072   1.095   2.540   9.977  1.1331 -0.2693 -0.1440
 7537SOL    HW134073   1.079   2.454   9.938  0.9393 -0.5327  0.5304
 7537SOL    HW234074   1.010   2.576  10.000  1.4342  0.0413  0.4921
 7538SOL     OW34075   0.844   3.823   6.971  0.4567  0.2458  0.1706
 7538SOL    HW134076   0.848   3.916   6.994  2.1433 -0.4814  2.7747
 7538SOL    HW234077   0.800   3.773   7.040 -3.4727  1.6935 -1.2923
 7539SOL     OW34078   1.827   4.262  17.209 -0.1182  0.2392  0.0139
 7539SOL    HW134079   1.821   4.167  17.221  1.0161  0.0072 -1.1791
 7539SOL    HW234080   1.749   4.295  17.253  0.5371  1.7370  0.0484
 7540SOL     OW34081   1.079   2.373   0.902 -0.5726 -0.5037  0.3957
 7540SOL    HW134082   1.162   2.419   0.889 -1.1952  0.7406  0.8068
 7540SOL    HW234083   1.030   2.420   0.834 -0.6613 -0.1975  0.6699
 7541SOL     OW34084   4.714   1.015   7.842  0.1446 -0.0622 -0.2079
 7541SOL    HW134085   4.707   1.109   7.826 -0.6725  0.0640  0.8945
 7541SOL    HW234086   0.023   1.011   7.931 -0.7981 -2.0126  0.0721
 7542SOL     OW34087   2.952   0.704   7.078  0.4759  0.4359 -0.1624
 7542SOL    HW134088   2.929   0.630   7.135  3.1022 -0.2773 -0.0464
 7542SOL    HW234089   3.017   0.752   7.130  1.8537  1.2392 -2.6206
 7543SOL     OW34090   0.914   4.190   8.472  0.0250 -0.9491  0.0063
 7543SOL    HW134091   0.824   4.223   8.469 -0.1412 -1.5004 -0.8638
 7543SOL    HW234092   0.937   4.194   8.565  2.7278 -3.0148 -0.5978
 7544SOL     OW34093   4.260   3.458   3.014 -0.0862 -0.4065  0.4682
 7544SOL    HW134094   4.286   3.515   2.941 -0.6222  0.4872  0.9711
 7544SOL    HW234095   4.167   3.477   3.023 -0.3436 -0.8894 -1.1628
 7545SOL     OW34096   2.143   4.133   6.548 -0.3897  0.2760 -0.2822
 7545SOL    HW134097   2.122   4.225   6.560 -0.0991  0.2663  0.3423
 7545SOL    HW234098   2.081   4.079   6.597 -0.8126  1.5024  0.5180
 7546SOL     OW34099   3.018   0.254  16.562 -0.0553 -0.3393  0.0969
 7546SOL    HW134100   3.084   0.186  16.571  1.9636  1.6844  0.5859
 7546SOL    HW234101   3.037   0.279  16.472  0.6596 -0.0755  0.3195
 7547SOL     OW34102   0.646   0.523  15.744 -0.2771  0.7027 -0.7331
 7547SOL    HW134103   0.609   0.574  15.671  0.3665  2.2350  0.0000
 7547SOL    HW234104   0.737   0.551  15.755  0.1157 -0.9535  0.2291
 7548SOL     OW34105   2.944   0.677  13.941  0.4677  0.5193 -0.5247
 7548SOL    HW134106   3.029   0.714  13.965  0.9124 -1.2625  0.6201
 7548SOL    HW234107   2.924   0.728  13.862  0.3186 -1.5192 -1.7850
 7549SOL     OW34108   4.166   3.404   2.379 -0.1272  0.6497  0.1207
 7549SOL    HW134109   4.226   3.477   2.364  0.0998  0.2708 -0.7806
 7549SOL    HW234110   4.129   3.423   2.465 -1.6713 -2.1122  0.0722
 7550SOL     OW34111   1.664   2.382   4.873  0.1244  0.3040  0.1818
 7550SOL    HW134112   1.598   2.394   4.804  0.0051 -2.4604 -0.1896
 7550SOL    HW234113   1.605   2.352   4.942 -0.3677  0.7940 -0.0202
 7551SOL     OW34114   3.680   1.339   6.094 -0.1935  0.3382  0.0855
 7551SOL    HW134115   3.713   1.374   6.011 -1.1783  0.6026 -0.1969
 7551SOL    HW234116   3.621   1.409   6.123  1.2138  1.2361  0.7599
 7552SOL     OW34117   2.757   3.599   0.721  0.3786 -0.5649  0.6319
 7552SOL    HW134118   2.753   3.518   0.671  0.9554  0.6845 -1.4431
 7552SOL    HW234119   2.672   3.639   0.703  0.6770  0.8035  2.1983
 7553SOL     OW34120   2.717   1.145   1.193 -1.0413 -0.1574 -0.3387
 7553SOL    HW134121   2.768   1.144   1.112 -0.6362 -1.4747 -0.0721
 7553SOL    HW234122   2.676   1.059   1.207  1.1107 -1.1238  0.0862
 7554SOL     OW34123   0.479   1.438   7.653 -0.0222  0.2153  0.2028
 7554SOL    HW134124   0.472   1.350   7.617  1.8144  0.7461 -1.4374
 7554SOL    HW234125   0.385   1.454   7.665 -0.3026 -0.0370 -1.5461
 7555SOL     OW34126   0.051   0.421   8.997 -0.1641  0.0370  0.1524
 7555SOL    HW134127   0.069   0.503   9.042  2.0219 -1.5194  2.1865
 7555SOL    HW234128   4.687   0.424   9.030 -0.5035 -0.7629 -0.7147
 7556SOL     OW34129   3.904   2.738  16.023  0.3229 -0.1546 -0.4096
 7556SOL    HW134130   3.848   2.713  16.097 -1.3039  0.4374 -1.4637
 7556SOL    HW234131   3.972   2.782  16.076 -0.9138 -0.6421  1.5841
 7557SOL     OW34132   0.084   1.039  12.661  0.1245 -0.0973  0.0544
 7557SOL    HW134133   0.001   1.071  12.627 -0.5179 -0.2434  1.4823
 7557SOL    HW234134   0.078   0.951  12.625  1.6889  0.2892 -1.1674
 7558SOL     OW34135   0.317   0.972   3.841  0.3802  0.2645  0.3165
 7558SOL    HW134136   0.307   0.902   3.906 -0.0340 -0.3042 -0.3541
 7558SOL    HW234137   0.348   1.048   3.889 -1.3942  1.6317 -0.6841
 7559SOL     OW34138   2.251   3.519   2.837  0.1340  0.1669 -0.2460
 7559SOL    HW134139   2.281   3.429   2.846 -0.0636 -0.0969 -2.2436
 7559SOL    HW234140   2.186   3.514   2.767 -0.6411  1.9999  0.3442
 7560SOL     OW34141   4.293   1.685  10.336  0.8051 -0.3446 -0.1266
 7560SOL    HW134142   4.288   1.698  10.242  0.2141  2.2009  0.2705
 7560SOL    HW234143   4.319   1.770  10.372 -1.2023 -0.5386  1.7441
 7561SOL     OW34144   3.501   4.177   5.454 -0.1349  0.4819  0.0752
 7561SOL    HW134145   3.434   4.151   5.517 -1.5961 -0.5070 -1.8551
 7561SOL    HW234146   3.561   4.211   5.520 -0.3640 -0.5566  0.8043
 7562SOL     OW34147   1.671   3.662  14.368 -0.3006 -0.0370  0.1503
 7562SOL    HW134148   1.708   3.615  14.294 -1.2370 -1.9891  0.9053
 7562SOL    HW234149   1.716   3.746  14.366 -1.9462  0.8104 -1.2352
 7563SOL     OW34150   3.276   0.989   1.813 -0.1801  0.1221 -0.4105
 7563SOL    HW134151   3.290   0.933   1.890 -0.4699 -0.4585 -0.7799
 7563SOL    HW234152   3.311   0.928   1.748 -0.4524 -1.4327  0.9004
 7564SOL     OW34153   0.283   1.722   2.547  0.3111 -0.0374  0.2330
 7564SOL    HW134154   0.308   1.797   2.602 -0.7653 -0.6978  1.6282
 7564SOL    HW234155   0.192   1.709   2.571 -0.2389  1.4108 -1.0795
 7565SOL     OW34156   1.491   4.167  17.440  0.3531  0.0981  0.3988
 7565SOL    HW134157   1.410   4.160  17.390  0.3770 -0.4536  0.4380
 7565SOL    HW234158   1.516   4.259  17.435 -2.2737  0.7567 -0.2443
 7566SOL     OW34159   3.330   3.785  12.011  0.4394 -0.0582  0.0684
 7566SOL    HW134160   3.363   3.697  11.995  0.7028  0.1191 -0.3727
 7566SOL    HW234161   3.373   3.791  12.097  1.0553 -1.5030 -0.1441
 7567SOL     OW34162   0.602   0.026  16.067  0.1724 -0.5862 -0.2023
 7567SOL    HW134163   0.680   0.079  16.053  0.0014 -0.0797  0.7238
 7567SOL    HW234164   0.641   4.674  16.109 -0.2964 -1.1578 -0.8223
 7568SOL     OW34165   1.350   4.317   0.969  0.9926  0.6452 -0.3166
 7568SOL    HW134166   1.301   4.395   0.944 -0.1188  0.3515  0.9611
 7568SOL    HW234167   1.431   4.351   0.931  1.2003  1.5458  0.9300
 7569SOL     OW34168   4.137   2.178  13.112 -0.5100 -0.3292 -0.4612
 7569SOL    HW134169   4.129   2.167  13.207 -0.9668  0.4744 -0.4113
 7569SOL    HW234170   4.210   2.240  13.106 -0.9637  0.0232 -2.2235
 7570SOL     OW34171   1.659   1.249  16.954  0.1878  0.6160  0.0704
 7570SOL    HW134172   1.749   1.223  16.935 -0.2412 -0.7079 -0.1703
 7570SOL    HW234173   1.672   1.337  16.990 -1.2298  1.0752 -0.5396
 7571SOL     OW34174   2.964   1.361   6.003  0.5794 -0.2550  0.1565
 7571SOL    HW134175   2.940   1.387   6.092  0.3219  0.6681 -0.1833
 7571SOL    HW234176   3.013   1.280   6.018  1.1690 -0.0503 -0.6836
 7572SOL     OW34177   3.809   1.815   6.802  0.1577 -0.2051 -0.2105
 7572SOL    HW134178   3.758   1.860   6.734 -2.5620  0.4874  2.2878
 7572SOL    HW234179   3.750   1.799   6.875  1.1511  0.0598  0.6544
 7573SOL     OW34180   2.133   4.295   3.282  0.3270 -0.3816  0.5865
 7573SOL    HW134181   2.207   4.264   3.230 -0.6955 -0.0377 -1.0584
 7573SOL    HW234182   2.122   4.379   3.237  0.8362  0.2959  1.7158
 7574SOL     OW34183   3.119   3.626   2.518  0.0339  0.6064  0.0994
 7574SOL    HW134184   3.103   3.613   2.425  2.6918 -1.5047 -0.0437
 7574SOL    HW234185   3.047   3.575   2.555  0.2709 -0.4451 -0.8970
 7575SOL     OW34186   4.084   0.808  13.565  0.6366  0.5461  0.7316
 7575SOL    HW134187   4.085   0.714  13.544 -0.2709  0.3302  1.6147
 7575SOL    HW234188   4.025   0.845  13.501 -0.2449 -1.2257  0.5121
 7576SOL     OW34189   0.430   4.531  15.259 -0.1276 -0.1948 -0.1655
 7576SOL    HW134190   0.494   4.462  15.275  0.8678  0.7990  0.0966
 7576SOL    HW234191   0.366   4.490  15.199 -0.8923 -1.2926  1.4042
 7577SOL     OW34192   2.258   1.097   4.399 -0.1560  0.1598 -0.1663
 7577SOL    HW134193   2.334   1.045   4.427 -1.7187 -1.1305  1.6707
 7577SOL    HW234194   2.200   1.022   4.393 -0.5061  0.5876 -2.1505
 7578SOL     OW34195   2.583   2.141   1.350  0.7602 -0.3480 -0.5722
 7578SOL    HW134196   2.629   2.189   1.419  1.1678 -0.9978 -0.3856
 7578SOL    HW234197   2.579   2.060   1.401 -1.7391  0.1189 -0.0333
 7579SOL     OW34198   1.446   0.089   9.451  0.0032  0.4984  0.2055
 7579SOL    HW134199   1.526   0.140   9.449  1.0340 -1.1031  0.2045
 7579SOL    HW234200   1.376   0.154   9.455  0.3246  0.9186 -0.9781
 7580SOL     OW34201   2.510   1.705   4.596  0.0506  0.4232 -0.3262
 7580SOL    HW134202   2.429   1.714   4.547 -0.5557 -3.6397 -0.0806
 7580SOL    HW234203   2.505   1.625   4.648 -1.2198  0.9386  0.3149
 7581SOL     OW34204   1.107   3.036   5.760  0.3721 -0.2104  0.3483
 7581SOL    HW134205   1.014   3.052   5.749  0.0211 -1.5091  1.3897
 7581SOL    HW234206   1.138   3.112   5.711 -3.0974  0.1580 -1.2124
 7582SOL     OW34207   2.862   0.718   8.152 -0.1107  0.7738  0.6145
 7582SOL    HW134208   2.950   0.734   8.184  0.5268 -1.3497 -0.0767
 7582SOL    HW234209   2.822   0.786   8.207  1.6352  0.8623  1.7553
 7583SOL     OW34210   1.638   4.575   7.816 -0.4160 -0.2033  0.0244
 7583SOL    HW134211   1.554   4.530   7.805 -0.3710  0.1033 -1.5603
 7583SOL    HW234212   1.690   4.509   7.862  0.6603  0.2910 -0.4970
 7584SOL     OW34213   1.012   3.310  15.135 -0.1793 -0.2102  0.5236
 7584SOL    HW134214   1.068   3.236  15.110  0.1892 -0.1406  1.1230
 7584SOL    HW234215   0.944   3.268  15.186 -0.4263  0.5855  0.8489
 7585SOL     OW34216   1.702   1.749   9.883  0.0338 -0.2166  0.0309
 7585SOL    HW134217   1.662   1.662   9.881  0.8855 -0.6067  0.0707
 7585SOL    HW234218   1.708   1.773   9.975 -0.2144 -0.9976  0.2565
 7586SOL     OW34219   3.268   2.809   6.938  0.0118  0.3060 -0.2907
 7586SOL    HW134220   3.221   2.736   6.897  0.1603  0.1766 -0.2299
 7586SOL    HW234221   3.211   2.882   6.915  1.6674  1.2980 -1.2672
 7587SOL     OW34222   3.644   2.447  11.026  0.3565  0.3196 -0.3045
 7587SOL    HW134223   3.593   2.524  11.051 -1.6567 -0.5834 -1.6912
 7587SOL    HW234224   3.658   2.412  11.114 -2.2809 -1.4176 -0.5835
 7588SOL     OW34225   1.876   2.574   6.190 -0.1190  0.4031  0.3094
 7588SOL    HW134226   1.926   2.653   6.166 -0.7665  0.5591 -0.4975
 7588SOL    HW234227   1.860   2.591   6.283 -0.7323 -2.8741  0.7901
 7589SOL     OW34228   4.205   3.247  14.489  0.7899  0.5691  0.2459
 7589SOL    HW134229   4.189   3.336  14.456 -1.6336 -0.1368 -0.4145
 7589SOL    HW234230   4.149   3.204  14.425  1.4555 -2.0471  1.4174
 7590SOL     OW34231   0.900   1.031   5.752  0.0771 -0.2068 -0.5871
 7590SOL    HW134232   0.894   0.956   5.693 -1.7416  1.0104 -1.9240
 7590SOL    HW234233   0.992   1.018   5.777 -0.3993 -1.5006  0.5126
 7591SOL     OW34234   3.638   2.198  11.476 -0.0029 -0.4502  0.0229
 7591SOL    HW134235   3.678   2.255  11.542  2.8565 -1.6747 -0.6223
 7591SOL    HW234236   3.642   2.252  11.397  1.5272 -0.4148  0.1148
 7592SOL     OW34237   0.924   2.704   3.563  0.4603  0.2744  0.0772
 7592SOL    HW134238   0.914   2.794   3.533 -0.0647  0.6863  1.5030
 7592SOL    HW234239   1.008   2.685   3.521 -0.8903  2.2141 -3.5369
 7593SOL     OW34240   1.232   3.750   7.159  0.0564  0.0277 -0.3100
 7593SOL    HW134241   1.201   3.825   7.210 -1.8263 -2.1827  1.7489
 7593SOL    HW234242   1.304   3.787   7.108 -0.1921  0.6821 -0.1820
 7594SOL     OW34243   0.757   4.200   3.538  0.5898  0.2408 -0.0273
 7594SOL    HW134244   0.850   4.206   3.559  0.4854  0.7717  0.2604
 7594SOL    HW234245   0.749   4.104   3.532 -1.0016  0.4236 -0.7008
 7595SOL     OW34246   2.280   2.763   2.106 -0.2159 -0.2159 -0.1172
 7595SOL    HW134247   2.351   2.779   2.169 -0.6441  0.4484  0.2021
 7595SOL    HW234248   2.285   2.847   2.060  3.7372 -0.5955 -0.4028
 7596SOL     OW34249   4.519   0.744   2.504 -0.3096  0.1652  0.6413
 7596SOL    HW134250   4.438   0.693   2.502 -0.5002  0.5128 -0.5955
 7596SOL    HW234251   4.574   0.668   2.482 -0.2425  0.0571  1.1716
 7597SOL     OW34252   2.780   4.190  17.552 -0.6449 -0.2499 -0.5028
 7597SOL    HW134253   2.818   4.109  17.517 -0.6354  0.6070 -2.4335
 7597SOL    HW234254   2.847   4.258  17.551 -1.2015  0.3067 -0.0600
 7598SOL     OW34255   0.716   4.087   4.655 -0.3765  0.4521  0.9558
 7598SOL    HW134256   0.680   4.094   4.566  0.0215  0.3568  0.7864
 7598SOL    HW234257   0.661   4.023   4.700  0.7518  0.0060  1.6838
 7599SOL     OW34258   3.612   1.426   1.873 -0.6748  0.0485 -0.2556
 7599SOL    HW134259   3.575   1.460   1.954  0.3487  0.6155 -0.0320
 7599SOL    HW234260   3.649   1.507   1.841  0.3355 -0.2182  0.2289
 7600SOL     OW34261   2.841   1.349   0.685  0.4146  0.0225  0.3129
 7600SOL    HW134262   2.834   1.296   0.606 -0.8083  1.3755 -0.4838
 7600SOL    HW234263   2.813   1.433   0.648 -0.1629 -0.2063  0.2339
 7601SOL     OW34264   3.612   4.112  15.470 -0.1992  0.2380 -0.3062
 7601SOL    HW134265   3.664   4.031  15.467  0.0333  0.3897 -0.4046
 7601SOL    HW234266   3.596   4.116  15.564 -1.8395 -1.2479 -0.5330
 7602SOL     OW34267   4.563   0.227   4.481  0.6333  0.5266  0.3682
 7602SOL    HW134268   4.657   0.213   4.466  0.1925 -1.1188 -0.7999
 7602SOL    HW234269   4.528   0.139   4.474 -0.7238  1.1136 -0.1743
 7603SOL     OW34270   4.497   1.547   8.749  0.3417  0.6253  0.4288
 7603SOL    HW134271   4.530   1.548   8.839 -0.2394  2.2785  0.6230
 7603SOL    HW234272   4.403   1.563   8.759 -0.5015 -3.4140 -0.7128
 7604SOL     OW34273   2.085   4.161   4.786  0.1800 -0.2773  0.3783
 7604SOL    HW134274   2.137   4.194   4.713  0.7227 -3.1579 -0.5504
 7604SOL    HW234275   2.150   4.126   4.847  1.2159  1.0925  0.0835
 7605SOL     OW34276   0.590   2.993  16.636 -0.3902  1.0976  0.2894
 7605SOL    HW134277   0.659   3.006  16.572 -1.5096 -1.4303 -1.4380
 7605SOL    HW234278   0.640   2.927  16.685 -0.4662 -0.0669 -1.1960
 7606SOL     OW34279   2.336   4.653   7.493 -0.0021 -0.4723 -0.5006
 7606SOL    HW134280   2.369   4.656   7.583 -3.1245  2.0833  0.5673
 7606SOL    HW234281   2.273   4.724   7.505  0.6219  0.4139 -2.4088
 7607SOL     OW34282   0.162   0.528   3.590 -0.2042 -0.1310  0.2058
 7607SOL    HW134283   0.174   0.563   3.502 -0.0426  0.3722  0.4249
 7607SOL    HW234284   0.082   0.573   3.619 -0.8499 -1.6554  0.7723
 7608SOL     OW34285   1.311   3.669   6.800  0.1568 -0.4324 -0.0479
 7608SOL    HW134286   1.311   3.586   6.751 -0.0213  0.5132 -1.6418
 7608SOL    HW234287   1.231   3.672   6.853 -0.0576  2.9061 -0.5708
 7609SOL     OW34288   2.348   0.342   2.551  0.1051  0.6924  0.1517
 7609SOL    HW134289   2.328   0.366   2.641  2.3217  1.4941  0.4447
 7609SOL    HW234290   2.366   0.426   2.509 -0.6706  0.4503 -0.6532
 7610SOL     OW34291   2.813   1.336   7.199  0.2695  0.5924 -0.0982
 7610SOL    HW134292   2.752   1.263   7.184  0.9766 -0.2033  0.9215
 7610SOL    HW234293   2.748   1.405   7.210 -2.3017 -1.1499 -4.2569
 7611SOL     OW34294   1.533   4.126   8.294  0.1205 -0.0568 -0.0178
 7611SOL    HW134295   1.537   4.102   8.386 -2.0686 -0.8391 -0.1344
 7611SOL    HW234296   1.451   4.087   8.264  0.2490  0.8060 -1.5045
 7612SOL     OW34297   0.499   0.397   8.845 -0.3144  0.3548 -0.5230
 7612SOL    HW134298   0.593   0.411   8.851 -0.1813 -1.5008  1.9453
 7612SOL    HW234299   0.480   0.486   8.877 -0.6717 -0.6526  2.1384
 7613SOL     OW34300   1.788   0.296   9.483  0.2615 -0.1553  0.1261
 7613SOL    HW134301   1.762   0.383   9.514 -1.0847  0.0064 -1.4383
 7613SOL    HW234302   1.862   0.290   9.542 -0.0558 -0.4482  0.4922
 7614SOL     OW34303   4.148   3.327  17.051 -0.4689  0.0298 -0.0468
 7614SOL    HW134304   4.105   3.386  17.114 -0.8087  0.0421 -0.2879
 7614SOL    HW234305   4.219   3.380  17.015  1.6978 -3.4637 -0.8478
 7615SOL     OW34306   3.820   1.724   6.491  0.1000 -0.0881  0.0824
 7615SOL    HW134307   3.759   1.722   6.418  0.9965 -1.2418 -0.6313
 7615SOL    HW234308   3.882   1.792   6.465 -1.2267  1.7960  1.8419
 7616SOL     OW34309   2.990   0.332  10.678  0.0646  0.0019  0.4547
 7616SOL    HW134310   3.067   0.303  10.629 -1.0770  0.4500 -1.6139
 7616SOL    HW234311   3.000   0.425  10.695 -1.3065  0.2839 -0.2554
 7617SOL     OW34312   1.926   0.138  16.952  0.6505  0.4504  0.0238
 7617SOL    HW134313   1.953   0.067  17.010 -2.5084 -1.1317 -0.4409
 7617SOL    HW234314   1.896   0.201  17.018 -2.2792 -1.0890  0.1214
 7618SOL     OW34315   4.239   0.840  10.255  0.1824 -0.1379  0.1357
 7618SOL    HW134316   4.184   0.846  10.334  2.4292  0.5708  1.6393
 7618SOL    HW234317   4.316   0.893  10.275  0.8835 -1.6333  1.4082
 7619SOL     OW34318   1.686   3.183   3.662  0.3172  0.3302 -0.5029
 7619SOL    HW134319   1.752   3.207   3.727 -0.0571 -1.4037  0.5084
 7619SOL    HW234320   1.609   3.235   3.686  1.1334  1.3258 -0.0261
 7620SOL     OW34321   0.389   3.511   6.915 -0.0560 -0.3796  0.7815
 7620SOL    HW134322   0.435   3.502   6.998 -1.6497 -0.3814  1.6782
 7620SOL    HW234323   0.464   3.499   6.856  0.7180  0.9164  1.5232
 7621SOL     OW34324   2.563   1.140  12.206  0.0733  0.6342  0.5255
 7621SOL    HW134325   2.540   1.050  12.228 -1.5253  1.5189  2.4660
 7621SOL    HW234326   2.635   1.154  12.268  0.4743 -2.2251  0.7078
 7622SOL     OW34327   1.264   1.529   9.363 -0.1920 -0.0229 -0.0894
 7622SOL    HW134328   1.316   1.585   9.306 -1.4633  1.0942 -0.1458
 7622SOL    HW234329   1.180   1.574   9.358  1.1283  2.4217 -0.1047
 7623SOL     OW34330   3.675   4.235   5.648 -0.3118  0.2038 -0.4098
 7623SOL    HW134331   3.677   4.145   5.681 -0.7915 -1.3841 -4.7341
 7623SOL    HW234332   3.664   4.287   5.728  0.4818 -0.2784  0.0112
 7624SOL     OW34333   2.876   3.485   2.591  0.0940  0.1315 -0.1949
 7624SOL    HW134334   2.826   3.435   2.527 -0.9448  1.2423 -0.2458
 7624SOL    HW234335   2.810   3.520   2.651  0.1483  2.1254 -1.3162
 7625SOL     OW34336   4.691   0.228  15.500  0.1362  0.0651  0.0763
 7625SOL    HW134337   0.028   0.166  15.462  0.0147 -0.0209  0.0136
 7625SOL    HW234338   4.696   0.216  15.595 -1.3246  1.0858  0.2887
 7626SOL     OW34339   0.493   2.066  16.083  0.3447 -0.2969 -0.0262
 7626SOL    HW134340   0.442   2.085  16.161 -0.6565  0.3349 -0.8220
 7626SOL    HW234341   0.580   2.060  16.123  0.0022  0.5350  0.8316
 7627SOL     OW34342   0.291   0.837   9.585 -0.1322 -0.1970 -0.7708
 7627SOL    HW134343   0.299   0.746   9.558 -2.6920 -0.7442  0.2702
 7627SOL    HW234344   0.258   0.867   9.500  0.9887  1.6891 -0.5539
 7628SOL     OW34345   2.499   1.919   3.820 -0.3985 -0.2256  0.2173
 7628SOL    HW134346   2.561   1.991   3.832 -0.5536 -0.1088  0.3199
 7628SOL    HW234347   2.498   1.899   3.726 -0.4183  0.1217  0.1422
 7629SOL     OW34348   4.578   1.828   3.282 -0.2557 -0.0240  0.1392
 7629SOL    HW134349   4.606   1.908   3.237 -1.5357 -0.5543 -1.5552
 7629SOL    HW234350   4.654   1.792   3.328  0.3290 -0.5446 -1.2540
 7630SOL     OW34351   3.852   0.133   2.664 -0.1092  0.1452  0.7077
 7630SOL    HW134352   3.759   0.109   2.660  0.0605 -0.5179  0.8106
 7630SOL    HW234353   3.856   0.149   2.569  0.0852 -0.0372  0.6846
 7631SOL     OW34354   3.620   0.205  13.871  0.1297 -0.4580 -0.0298
 7631SOL    HW134355   3.686   0.275  13.865 -0.9531  0.4901 -0.8796
 7631SOL    HW234356   3.567   0.233  13.946 -2.1580 -0.1013 -1.8038
 7632SOL     OW34357   2.668   0.154   7.819  0.2143  0.0615 -0.2025
 7632SOL    HW134358   2.585   0.129   7.778  0.1564  1.4470 -0.9421
 7632SOL    HW234359   2.733   0.140   7.750 -0.6119 -1.8203 -0.5959
 7633SOL     OW34360   2.805   4.541   4.631 -0.3237  0.2378  0.3545
 7633SOL    HW134361   2.869   4.611   4.643  0.9816 -0.7049 -1.1061
 7633SOL    HW234362   2.794   4.539   4.536 -1.0560 -2.9160  0.4984
 7634SOL     OW34363   1.711   3.020   3.446 -0.4155 -0.0338  0.1961
 7634SOL    HW134364   1.693   3.095   3.503  0.5522 -0.2958  0.8591
 7634SOL    HW234365   1.720   3.069   3.364 -0.9439  1.3888  0.9823
 7635SOL     OW34366   3.467   2.173   4.227 -0.3957 -0.4204 -0.7304
 7635SOL    HW134367   3.378   2.191   4.258 -0.4637  0.2336 -1.3131
 7635SOL    HW234368   3.455   2.087   4.189 -1.1896 -0.4731 -0.3660
 7636SOL     OW34369   4.482   3.666  10.153 -0.1619  0.0980  0.0687
 7636SOL    HW134370   4.545   3.737  10.139 -1.5056  1.1436 -0.6061
 7636SOL    HW234371   4.405   3.714  10.123 -0.0598  0.4328  0.3519
 7637SOL     OW34372   4.277   3.333  12.806 -0.7223 -0.2620  0.1621
 7637SOL    HW134373   4.218   3.408  12.816  1.1154  0.9702  1.7500
 7637SOL    HW234374   4.309   3.337  12.716  1.1777  0.2917  0.8605
 7638SOL     OW34375   2.757   0.870   1.510 -0.0793 -0.1360  0.0136
 7638SOL    HW134376   2.754   0.781   1.474 -0.5778 -0.5267  1.0204
 7638SOL    HW234377   2.737   0.917   1.430  1.2570 -2.3892 -1.6727
 7639SOL     OW34378   1.622   2.994  13.328  0.0453 -0.1182  0.0692
 7639SOL    HW134379   1.641   2.988  13.235  1.0682 -2.6738  0.4496
 7639SOL    HW234380   1.680   2.929  13.367  0.4007  0.6446  0.8198
 7640SOL     OW34381   1.619   0.464   1.318 -0.0609  0.1994 -0.0248
 7640SOL    HW134382   1.637   0.558   1.314  0.3833  0.1392  0.6143
 7640SOL    HW234383   1.671   0.428   1.246 -0.8895 -1.9269  0.4394
 7641SOL     OW34384   0.332   4.215   2.373  0.5682 -0.2950  0.0500
 7641SOL    HW134385   0.281   4.294   2.392  0.9665 -0.3931  1.5169
 7641SOL    HW234386   0.403   4.257   2.323  0.0091  0.9455  0.3058
 7642SOL     OW34387   2.065   0.761   1.910  0.0741 -0.8770 -0.1289
 7642SOL    HW134388   2.012   0.684   1.928 -0.2939 -1.1251 -2.2422
 7642SOL    HW234389   2.072   0.780   2.003 -0.1918 -0.7077 -0.1426
 7643SOL     OW34390   2.560   4.580   5.496  0.1654 -0.3406  0.3508
 7643SOL    HW134391   2.630   4.643   5.477 -1.3741  1.5451  0.9550
 7643SOL    HW234392   2.484   4.636   5.484  2.3914  2.8570  1.2954
 7644SOL     OW34393   3.383   0.341   8.874  0.9342  0.1071 -0.2507
 7644SOL    HW134394   3.459   0.293   8.840  2.1725  1.5050  0.5031
 7644SOL    HW234395   3.319   0.284   8.832 -0.2700  0.7824  0.6917
 7645SOL     OW34396   3.359   2.270   9.458  0.5797 -0.0690  0.1661
 7645SOL    HW134397   3.423   2.337   9.436  2.1381 -1.7628 -0.4445
 7645SOL    HW234398   3.386   2.206   9.392 -1.9467  2.1216 -2.9954
 7646SOL     OW34399   2.771   1.725   5.895  0.5772 -0.0852  0.2593
 7646SOL    HW134400   2.724   1.717   5.978 -0.9159 -1.7264 -0.7607
 7646SOL    HW234401   2.831   1.791   5.930 -0.5360  1.8992 -1.5528
 7647SOL     OW34402   1.023   3.407   4.311  0.4991 -0.1882 -0.3742
 7647SOL    HW134403   1.069   3.328   4.285  0.9116  0.0706 -0.4309
 7647SOL    HW234404   1.098   3.466   4.307 -0.4332  1.0150 -0.4257
 7648SOL     OW34405   4.542   2.090   7.822  0.4152  0.3272  0.2681
 7648SOL    HW134406   4.592   2.008   7.827 -0.2786 -0.1797 -1.0824
 7648SOL    HW234407   4.612   2.152   7.842 -0.1737 -0.0218  3.3302
 7649SOL     OW34408   3.877   1.775   4.665  0.3437 -0.3236 -0.6235
 7649SOL    HW134409   3.816   1.732   4.725 -1.6652  1.2878 -1.5004
 7649SOL    HW234410   3.819   1.837   4.620  2.3645  1.6949 -0.4047
 7650SOL     OW34411   2.485   2.147   4.169  0.1631  0.5372  0.1607
 7650SOL    HW134412   2.535   2.071   4.198 -0.6232  1.0808  3.0246
 7650SOL    HW234413   2.397   2.108   4.162 -0.1828  1.3835 -0.1383
 7651SOL     OW34414   0.733   1.301   3.202 -0.0124 -0.0358  0.1542
 7651SOL    HW134415   0.703   1.261   3.284 -0.3466 -1.6235 -0.7381
 7651SOL    HW234416   0.711   1.392   3.222  1.0262  0.0040  1.1006
 7652SOL     OW34417   0.209   0.517  12.119  0.3730  0.3773  0.0314
 7652SOL    HW134418   0.224   0.424  12.129  0.1484  0.2123 -1.0901
 7652SOL    HW234419   0.123   0.536  12.155  1.0300  0.9270  1.3406
 7653SOL     OW34420   0.511   0.432   1.602  0.3820  0.2251  0.2503
 7653SOL    HW134421   0.465   0.431   1.518  1.3930 -1.2012 -0.2886
 7653SOL    HW234422   0.494   0.340   1.623  0.9560  0.0809  0.0875
 7654SOL     OW34423   0.994   2.302   6.016 -0.0557  0.3763  1.1272
 7654SOL    HW134424   0.931   2.256   5.961  0.6781  0.2558  0.3935
 7654SOL    HW234425   0.952   2.304   6.102  0.0915  0.0472  1.2074
 7655SOL     OW34426   4.707   0.946   9.004  0.2117 -0.4957 -0.6767
 7655SOL    HW134427   0.049   0.880   8.989  0.9313  0.6264 -2.4845
 7655SOL    HW234428   4.653   0.908   9.073  1.3879 -1.4598 -0.2912
 7656SOL     OW34429   2.274   0.072   2.707  0.4489 -0.0852 -0.0933
 7656SOL    HW134430   2.220   0.150   2.696 -0.4042 -0.6046  0.4043
 7656SOL    HW234431   2.327   0.066   2.628  2.1496  1.4416  0.9333
 7657SOL     OW34432   2.407   2.052   1.596 -0.3458  0.1714  0.3557
 7657SOL    HW134433   2.324   2.081   1.558 -2.0217 -0.7987  3.2027
 7657SOL    HW234434   2.407   1.957   1.584 -1.5242  0.1604  0.4117
 7658SOL     OW34435   2.586   1.854   8.035 -0.4032  0.3712 -0.0780
 7658SOL    HW134436   2.633   1.826   8.114 -0.3463  1.3060  0.2223
 7658SOL    HW234437   2.655   1.849   7.970  0.0165 -2.8929  0.5967
 7659SOL     OW34438   2.758   1.406   9.599 -0.2111 -0.0581  0.2756
 7659SOL    HW134439   2.753   1.387   9.693 -1.0491  2.2377  0.7102
 7659SOL    HW234440   2.749   1.501   9.585 -3.0266 -0.1661  1.2086
 7660SOL     OW34441   2.906   2.882  17.067 -0.3280 -0.1378 -0.9013
 7660SOL    HW134442   2.922   2.828  17.144  1.2551 -0.5832 -1.5510
 7660SOL    HW234443   2.964   2.959  17.066  0.1483 -0.4915 -0.2557
 7661SOL     OW34444   0.859   1.655   3.718  0.6447 -0.0920 -0.2805
 7661SOL    HW134445   0.948   1.665   3.686  0.1076  2.5860 -0.9406
 7661SOL    HW234446   0.868   1.578   3.774  0.9584 -0.4868 -0.8901
 7662SOL     OW34447   4.633   3.714   6.048  0.0315 -0.2184  0.4095
 7662SOL    HW134448   4.657   3.792   6.097 -0.6526  0.7564 -0.8290
 7662SOL    HW234449   4.702   3.724   5.983  0.2517 -2.6315  0.2715
 7663SOL     OW34450   1.219   1.993   8.964 -0.0522  0.1369  0.1146
 7663SOL    HW134451   1.271   2.031   8.894  0.9166  0.0376  0.7786
 7663SOL    HW234452   1.225   1.898   8.953  1.4373  0.0632  1.5709
 7664SOL     OW34453   0.128   0.804   5.213  0.0918 -0.6384 -0.3476
 7664SOL    HW134454   0.061   0.868   5.238 -0.1998 -0.8798 -0.5162
 7664SOL    HW234455   0.106   0.738   5.278 -1.6476  1.9268  1.6899
 7665SOL     OW34456   3.959   4.697   7.720 -0.1887 -0.1254 -0.4967
 7665SOL    HW134457   4.010   0.052   7.710 -0.3441  0.0868  0.3943
 7665SOL    HW234458   3.919   4.693   7.633 -0.6316  0.2123 -0.3111
 7666SOL     OW34459   1.787   4.119  10.031 -0.4002  0.0196 -0.5263
 7666SOL    HW134460   1.706   4.168  10.021 -0.6103 -0.2868 -0.3357
 7666SOL    HW234461   1.759   4.027  10.034 -2.1004  0.6480  2.4388
 7667SOL     OW34462   0.710   1.680   7.421 -0.6495 -0.1667  0.1853
 7667SOL    HW134463   0.806   1.670   7.423 -0.5950  0.1490 -0.8292
 7667SOL    HW234464   0.690   1.593   7.385  1.7053 -1.0481  0.9901
 7668SOL     OW34465   3.867   4.574   5.750  0.1837  0.2627  0.0830
 7668SOL    HW134466   3.835   4.566   5.840 -0.0676 -2.6566 -0.2527
 7668SOL    HW234467   3.919   4.655   5.752 -0.7438  0.8189  1.3627
 7669SOL     OW34468   2.863   0.142   7.617  0.1330 -0.2579  0.0676
 7669SOL    HW134469   2.954   0.113   7.619  0.1680 -0.1053  1.3048
 7669SOL    HW234470   2.836   0.120   7.528  2.1776 -0.4513 -0.4862
 7670SOL     OW34471   4.547   2.984   6.171  0.1238  0.2538 -0.1919
 7670SOL    HW134472   4.492   2.916   6.131  0.2644  0.3948 -0.6294
 7670SOL    HW234473   4.605   2.938   6.231  1.4624  1.6203 -0.4354
 7671SOL     OW34474   0.463   0.061  16.285  0.1500 -0.0940 -0.1504
 7671SOL    HW134475   0.504   0.045  16.200  0.1714 -0.4027 -0.0801
 7671SOL    HW234476   0.458   0.157  16.286  0.0869 -0.1187  3.8337
 7672SOL     OW34477   3.450   4.535   3.519 -1.0002 -0.0257 -0.3338
 7672SOL    HW134478   3.500   4.454   3.510  0.0875  0.2844  3.1275
 7672SOL    HW234479   3.500   4.601   3.471 -2.9476  1.4969 -0.2605
 7673SOL     OW34480   2.767   0.560   7.466 -0.2643 -0.5806 -0.0890
 7673SOL    HW134481   2.676   0.544   7.493 -0.6899 -2.8315 -2.8809
 7673SOL    HW234482   2.799   0.615   7.537  1.8526 -0.9301 -0.7904
 7674SOL     OW34483   1.208   4.572   8.042 -0.2832  0.2008  0.0055
 7674SOL    HW134484   1.198   4.548   8.134 -0.9780 -0.2445 -0.1879
 7674SOL    HW234485   1.300   4.596   8.029  0.1046 -0.2739  1.9076
 7675SOL     OW34486   3.095   4.552   2.626  0.1939 -0.0584  0.3270
 7675SOL    HW134487   3.146   4.490   2.573  0.8278  1.0146 -0.3094
 7675SOL    HW234488   3.014   4.532   2.579  1.8053 -2.5503 -1.3565
 7676SOL     OW34489   3.275   2.740   3.371 -0.1934  0.0113  0.2424
 7676SOL    HW134490   3.268   2.828   3.335 -0.5705  0.1370  0.6170
 7676SOL    HW234491   3.193   2.701   3.339 -0.4568  0.9107 -0.1570
 7677SOL     OW34492   0.959   4.458   8.572  0.2730 -0.2460 -0.7575
 7677SOL    HW134493   0.930   4.532   8.519 -1.5393  0.2612  0.9366
 7677SOL    HW234494   1.029   4.423   8.516 -0.8684 -1.7808 -1.2081
 7678SOL     OW34495   0.337   3.455  13.787 -0.3022  0.4097  0.4011
 7678SOL    HW134496   0.363   3.537  13.829  0.0587  0.4940  0.0090
 7678SOL    HW234497   0.256   3.428  13.830 -0.6846 -0.7366 -1.0140
 7679SOL     OW34498   3.189   3.781  16.789 -0.3374 -0.7384 -0.3459
 7679SOL    HW134499   3.252   3.845  16.824  0.0464 -0.5932 -1.3031
 7679SOL    HW234500   3.104   3.821  16.807  0.4789  0.5259  0.6840
 7680SOL     OW34501   0.182   3.423   2.890  0.4572 -0.0903  0.5457
 7680SOL    HW134502   0.253   3.462   2.840 -0.0157 -0.6803 -0.6007
 7680SOL    HW234503   0.175   3.342   2.839 -1.1046  0.3559  0.0357
 7681SOL     OW34504   1.129   4.133  10.852  0.0382  0.0932  0.7591
 7681SOL    HW134505   1.122   4.180  10.768 -0.0948 -0.5557  0.4067
 7681SOL    HW234506   1.048   4.082  10.852 -0.1106  0.3256  1.0347
 7682SOL     OW34507   4.406   1.571  11.652  0.1010  0.0977  0.1404
 7682SOL    HW134508   4.476   1.547  11.713  2.9130  1.6804 -2.4512
 7682SOL    HW234509   4.426   1.518  11.576 -1.1815  1.1176 -0.9137
 7683SOL     OW34510   1.988   2.692   4.739  0.1122  0.4969 -0.2568
 7683SOL    HW134511   1.954   2.612   4.780 -2.2024  2.6971  2.1341
 7683SOL    HW234512   1.976   2.750   4.815 -1.3842 -1.3593  0.9523
 7684SOL     OW34513   2.853   3.122  16.760  0.0136  0.9421 -0.0360
 7684SOL    HW134514   2.793   3.113  16.834 -0.0179 -0.9110 -0.3036
 7684SOL    HW234515   2.799   3.192  16.723 -1.3243 -0.2660 -0.3860
 7685SOL     OW34516   2.305   3.869   2.833  0.3655  0.4617 -0.1688
 7685SOL    HW134517   2.360   3.917   2.895 -1.0946 -1.8991  2.9556
 7685SOL    HW234518   2.213   3.897   2.830  0.7579  1.5434 -2.0998
 7686SOL     OW34519   0.813   3.284   5.287 -0.1658 -0.1962  0.2721
 7686SOL    HW134520   0.899   3.324   5.270  0.1112 -1.4262 -1.2307
 7686SOL    HW234521   0.810   3.323   5.374 -0.7534  1.1229 -0.3283
 7687SOL     OW34522   3.970   3.798   8.535  0.0411  0.0760  0.0006
 7687SOL    HW134523   3.923   3.876   8.506  0.2272 -0.3701 -1.5433
 7687SOL    HW234524   3.906   3.761   8.597  0.3299 -2.1683 -1.0282
 7688SOL     OW34525   3.933   2.364   6.629 -0.1700  0.1511  0.3029
 7688SOL    HW134526   3.884   2.306   6.687  1.3326 -0.3425  1.0767
 7688SOL    HW234527   3.994   2.399   6.694 -0.5835 -0.4959  1.0288
 7689SOL     OW34528   1.336   0.324   9.616  0.4918 -0.5217 -0.2830
 7689SOL    HW134529   1.386   0.334   9.697 -1.2183 -2.3587  0.9875
 7689SOL    HW234530   1.386   0.374   9.551  3.1253 -1.6349  0.8712
 7690SOL     OW34531   2.705   0.303   5.989  0.0688  0.1612  0.0363
 7690SOL    HW134532   2.658   0.385   5.972 -0.3841 -0.2180 -0.5015
 7690SOL    HW234533   2.736   0.322   6.078  0.5785 -0.0653 -0.0935
 7691SOL     OW34534   1.331   2.123  16.149  0.3384  0.7616  0.3381
 7691SOL    HW134535   1.343   2.036  16.186 -1.4356  0.4125  0.0895
 7691SOL    HW234536   1.411   2.144  16.100  2.0433 -2.5036  1.7501
 7692SOL     OW34537   3.752   2.988  16.533 -0.4625  0.4078 -0.4651
 7692SOL    HW134538   3.730   3.060  16.591 -0.0960 -1.9757  2.6353
 7692SOL    HW234539   3.706   2.912  16.570 -2.1093 -0.0329 -3.3624
 7693SOL     OW34540   1.620   1.109   1.067 -0.6909  0.1063 -0.9267
 7693SOL    HW134541   1.579   1.023   1.073  0.8105 -0.6563 -1.5182
 7693SOL    HW234542   1.549   1.156   1.025  0.4158  0.9999 -1.7729
 7694SOL     OW34543   4.701   4.013   4.663  0.2657 -0.8122  0.5878
 7694SOL    HW134544   4.643   4.030   4.590  0.8608 -2.8832 -0.3690
 7694SOL    HW234545   4.663   4.064   4.734 -0.5114  0.1875 -0.5524
 7695SOL     OW34546   0.333   0.794   1.710  0.3849 -0.3719  0.1016
 7695SOL    HW134547   0.256   0.793   1.654 -0.6413  1.3510  1.5043
 7695SOL    HW234548   0.314   0.869   1.765 -0.6586  0.5582 -1.5190
 7696SOL     OW34549   3.806   4.428  10.649  0.4367  0.2755  0.1442
 7696SOL    HW134550   3.739   4.495  10.633 -0.5724 -0.6533  0.4383
 7696SOL    HW234551   3.800   4.413  10.743  3.1481 -0.5949  0.1678
 7697SOL     OW34552   0.620   0.491   0.418 -0.0141  0.5120  0.1515
 7697SOL    HW134553   0.642   0.404   0.450  0.5296  0.1293 -1.2871
 7697SOL    HW234554   0.654   0.543   0.490 -0.6200  0.3448  0.5617
 7698SOL     OW34555   3.526   2.449   3.999  0.0502  0.0701  0.3774
 7698SOL    HW134556   3.592   2.388   4.031  0.1067  0.1759  0.4627
 7698SOL    HW234557   3.574   2.502   3.937 -0.5765  0.9590  0.6535
 7699SOL     OW34558   0.076   0.051   9.569  0.1450  0.0366  0.1760
 7699SOL    HW134559   0.037   0.136   9.549  0.4833 -0.0632 -0.8836
 7699SOL    HW234560   0.035   0.007   9.494  2.3970  0.5698 -1.3467
 7700SOL     OW34561   2.836   1.094   9.542 -0.1374 -0.7358  0.1979
 7700SOL    HW134562   2.891   1.097   9.620  2.0768  1.9475 -1.4324
 7700SOL    HW234563   2.749   1.069   9.572  0.0992  0.0136  1.4789
 7701SOL     OW34564   4.235   4.224   6.967 -0.3125  0.3341  0.0109
 7701SOL    HW134565   4.302   4.198   7.030  0.1831 -1.8094 -1.4211
 7701SOL    HW234566   4.154   4.234   7.017 -0.5016 -0.2979 -0.1760
 7702SOL     OW34567   0.116   4.486   8.378 -0.2914 -0.2576 -0.1270
 7702SOL    HW134568   0.100   4.454   8.467 -1.7995 -0.2310 -0.3908
 7702SOL    HW234569   0.033   4.497   8.333  0.5814  0.6706 -1.5238
 7703SOL     OW34570   0.317   2.735   1.226 -0.1796 -0.6232 -0.2841
 7703SOL    HW134571   0.317   2.640   1.210  3.2650 -0.4225 -1.4303
 7703SOL    HW234572   0.326   2.742   1.321  1.1075 -0.7181 -0.4028
 7704SOL     OW34573   3.800   3.840   1.752  0.3988  0.5987 -0.3785
 7704SOL    HW134574   3.743   3.780   1.704 -0.4970 -1.0064  2.6856
 7704SOL    HW234575   3.755   3.858   1.834  0.4625  2.2886 -0.7023
 7705SOL     OW34576   1.751   3.473   9.165 -1.1820 -0.7092 -0.8368
 7705SOL    HW134577   1.718   3.535   9.230  0.0434 -0.1388 -0.7606
 7705SOL    HW234578   1.775   3.394   9.215  0.5623 -0.1682 -0.8300
 7706SOL     OW34579   4.713   2.774   9.997  0.5463  0.2315  0.4008
 7706SOL    HW134580   4.658   2.697   9.981 -2.0957  1.7754  1.9803
 7706SOL    HW234581   4.667   2.804  10.075  1.5824  2.6615  0.0615
 7707SOL     OW34582   3.417   0.327   5.573 -0.0259 -0.3365  0.5111
 7707SOL    HW134583   3.432   0.278   5.492  1.6990  0.1834  0.5220
 7707SOL    HW234584   3.507   0.344   5.599  0.6462 -0.6980 -1.5604
 7708SOL     OW34585   4.503   3.244   3.679 -0.3771 -0.2267 -0.0037
 7708SOL    HW134586   4.441   3.182   3.718 -0.2296  0.2287  0.9593
 7708SOL    HW234587   4.451   3.313   3.637  1.0146  0.3629 -0.7555
 7709SOL     OW34588   4.006   3.230   8.359 -0.0494  0.2304  0.1396
 7709SOL    HW134589   3.976   3.254   8.271  2.7229  4.2603  0.2772
 7709SOL    HW234590   4.030   3.138   8.360 -1.2553 -0.0789  0.1420
 7710SOL     OW34591   0.412   1.505   6.245 -0.2909  0.6734  0.3642
 7710SOL    HW134592   0.405   1.504   6.150  2.1389 -1.2692  0.2115
 7710SOL    HW234593   0.394   1.415   6.273  3.8366 -0.4669 -0.6917
 7711SOL     OW34594   4.357   0.909   6.304  0.2429  0.4068 -0.6599
 7711SOL    HW134595   4.330   0.977   6.243 -2.1828 -0.0663 -0.1265
 7711SOL    HW234596   4.274   0.860   6.304  1.0627 -0.9698 -2.0728
 7712SOL     OW34597   4.708   0.305   6.000 -0.0705  0.2814 -0.2748
 7712SOL    HW134598   0.057   0.364   6.011  0.8538 -0.9295 -0.1236
 7712SOL    HW234599   4.655   0.329   6.076  0.6929 -3.8741  1.5594
 7713SOL     OW34600   2.632   0.817  15.933 -0.3313 -0.5458  0.4338
 7713SOL    HW134601   2.703   0.810  15.870  1.2909  2.3644  1.9287
 7713SOL    HW234602   2.632   0.726  15.965  1.9445 -0.9926 -0.8501
 7714SOL     OW34603   0.145   3.957   2.999 -0.0191 -0.0910 -0.0652
 7714SOL    HW134604   0.132   3.891   3.067 -1.6930 -0.3711 -0.6532
 7714SOL    HW234605   0.181   3.901   2.930  1.0934 -0.8627  1.1250
 7715SOL     OW34606   3.951   1.389  15.355  0.2829 -0.1163  0.2286
 7715SOL    HW134607   4.012   1.379  15.281 -2.6323 -1.3137 -2.0218
 7715SOL    HW234608   3.979   1.476  15.381  1.7447 -0.4648 -0.1488
 7716SOL     OW34609   0.943   3.313   1.996 -0.3378 -0.3267 -0.8742
 7716SOL    HW134610   0.944   3.259   1.917 -2.4152  0.3124 -1.3306
 7716SOL    HW234611   0.957   3.399   1.957 -2.4249 -0.0918 -1.0979
 7717SOL     OW34612   1.942   3.036   5.388 -0.3751  0.0276 -0.1633
 7717SOL    HW134613   1.955   3.131   5.393 -2.5724  0.3449 -0.1751
 7717SOL    HW234614   1.856   3.027   5.430  0.1295 -2.7547  0.2620
 7718SOL     OW34615   4.402   3.378   6.737 -0.1588 -0.7813 -0.1044
 7718SOL    HW134616   4.494   3.354   6.734  0.4815  1.8111 -0.5945
 7718SOL    HW234617   4.374   3.366   6.646 -0.1791  1.5311 -0.3913
 7719SOL     OW34618   3.784   2.434   4.478  0.1135  0.3349  0.1041
 7719SOL    HW134619   3.825   2.348   4.493  0.9492  0.6855 -0.1832
 7719SOL    HW234620   3.788   2.484   4.559 -2.1510  1.4504 -0.4623
 7720SOL     OW34621   2.852   3.992   8.428 -0.2463 -0.0464 -0.5032
 7720SOL    HW134622   2.807   4.034   8.501 -2.7384  0.3510 -2.2422
 7720SOL    HW234623   2.848   4.058   8.359  0.9952 -0.6695 -1.1758
 7721SOL     OW34624   1.901   3.648   7.151 -0.4917 -0.9525 -0.5199
 7721SOL    HW134625   1.983   3.628   7.106 -0.2175  1.4955 -1.0907
 7721SOL    HW234626   1.924   3.717   7.214 -1.3682 -0.5266 -0.6618
 7722SOL     OW34627   1.463   4.183   6.002  0.3010 -0.7447  0.3038
 7722SOL    HW134628   1.522   4.196   5.927 -0.6045 -0.4699 -0.3654
 7722SOL    HW234629   1.501   4.250   6.059 -0.7630 -0.0618  0.1987
 7723SOL     OW34630   0.617   3.222  13.896  0.5817  0.0674  0.6214
 7723SOL    HW134631   0.675   3.265  13.959 -0.0605  0.3460  1.0264
 7723SOL    HW234632   0.543   3.241  13.953  0.5133 -0.4432  0.6986
 7724SOL     OW34633   0.205   0.617   8.361  0.6162 -0.2138  0.7382
 7724SOL    HW134634   0.293   0.586   8.338  0.9250  0.6664  0.7357
 7724SOL    HW234635   0.176   0.646   8.275 -0.6354  2.5009  2.0661
 7725SOL     OW34636   0.762   0.957  17.607 -0.3400  0.2474  0.5593
 7725SOL    HW134637   0.791   0.930  17.519  0.2793 -1.9995  1.4432
 7725SOL    HW234638   0.702   0.887  17.634 -2.7472  0.9233 -3.0414
 7726SOL     OW34639   3.928   4.631   6.186  0.1961  0.7227  0.4158
 7726SOL    HW134640   3.992   4.594   6.247 -0.8836  0.2282  1.2324
 7726SOL    HW234641   3.981   4.603   6.112 -0.2680  1.8500 -0.3447
 7727SOL     OW34642   1.509   3.168  15.014 -0.4664 -0.7736 -0.5618
 7727SOL    HW134643   1.490   3.127  15.098  0.6845 -0.3630 -0.1056
 7727SOL    HW234644   1.534   3.088  14.967 -0.3381  0.1355 -2.0648
 7728SOL     OW34645   2.680   4.341  15.152  0.1805 -0.4090  0.5651
 7728SOL    HW134646   2.773   4.345  15.174  0.0669 -0.3327  1.0261
 7728SOL    HW234647   2.658   4.249  15.158  0.4116 -0.4715  0.4566
 7729SOL     OW34648   0.053   2.758   1.489 -0.1576  0.0027 -0.6378
 7729SOL    HW134649   0.005   2.781   1.568  0.6205  0.0256 -0.1774
 7729SOL    HW234650   0.145   2.768   1.514 -0.1952 -1.0810 -0.0700
 7730SOL     OW34651   4.446   4.178   6.295 -0.2995  0.1584 -0.4432
 7730SOL    HW134652   4.374   4.238   6.278  0.1778  0.7545 -0.3321
 7730SOL    HW234653   4.426   4.150   6.384 -2.2602 -1.4414 -1.3643
 7731SOL     OW34654   3.513   3.618   8.253  0.1065  0.5069  0.0369
 7731SOL    HW134655   3.494   3.711   8.264  0.6141  0.6715 -0.4793
 7731SOL    HW234656   3.591   3.611   8.309  0.7600  1.6057 -0.7453
 7732SOL     OW34657   4.237   4.683   6.932 -0.1314  0.2855 -0.1567
 7732SOL    HW134658   4.204   4.717   7.015 -1.0954 -0.1439 -0.3651
 7732SOL    HW234659   4.312   4.633   6.963  0.6164  0.4432 -1.7221
 7733SOL     OW34660   1.536   1.782   7.567  0.0716  0.0903  0.1552
 7733SOL    HW134661   1.559   1.872   7.546 -0.7186  0.6397  1.6272
 7733SOL    HW234662   1.559   1.735   7.487 -2.3762  0.4147 -0.7499
 7734SOL     OW34663   3.833   0.414  14.181  0.1772  0.3150 -0.2215
 7734SOL    HW134664   3.789   0.365  14.251  0.6109 -0.5603 -0.5573
 7734SOL    HW234665   3.884   0.352  14.129  2.6949  1.4263  0.9277
 7735SOL     OW34666   2.943   0.455  16.780  0.0452 -0.3205 -0.4311
 7735SOL    HW134667   2.967   0.414  16.864 -0.5832  1.3514  0.5637
 7735SOL    HW234668   2.965   0.394  16.709 -0.2003 -1.0916  0.1509
 7736SOL     OW34669   2.619   3.152   8.082 -0.2526  0.0296 -0.1525
 7736SOL    HW134670   2.609   3.247   8.072 -0.7861  0.0921  0.9528
 7736SOL    HW234671   2.674   3.140   8.159 -0.8314  0.6156  0.3579
 7737SOL     OW34672   1.009   1.748   4.909  0.2682  0.2508  0.3053
 7737SOL    HW134673   1.099   1.779   4.917  0.1214  0.6230  0.5577
 7737SOL    HW234674   0.975   1.752   4.999  0.6033  0.4802  0.4210
 7738SOL     OW34675   1.701   0.138  10.432  0.0799  0.0828  0.2985
 7738SOL    HW134676   1.636   0.170  10.494 -0.1496 -1.3770  0.8077
 7738SOL    HW234677   1.780   0.130  10.485  1.1218  1.0158 -1.1039
 7739SOL     OW34678   2.249   0.532   5.559  0.1076  0.2522 -0.4556
 7739SOL    HW134679   2.180   0.483   5.515 -0.5672 -0.0322  0.9297
 7739SOL    HW234680   2.326   0.492   5.517 -0.0950 -0.8497  0.2231
 7740SOL     OW34681   0.251   1.727   7.428 -0.2665  0.0137 -0.0224
 7740SOL    HW134682   0.308   1.798   7.458  2.5766 -0.2964 -4.7294
 7740SOL    HW234683   0.261   1.672   7.506  0.2085  1.2562  0.7988
 7741SOL     OW34684   3.311   3.303  13.029  0.2220 -0.3130 -0.1705
 7741SOL    HW134685   3.245   3.235  13.037  0.8697 -0.8941  0.2718
 7741SOL    HW234686   3.345   3.293  13.118  4.0985  0.2181 -1.5987
 7742SOL     OW34687   3.522   3.412   3.099  0.3136 -0.2637 -0.1792
 7742SOL    HW134688   3.455   3.421   3.032  0.2259  1.6555  0.1730
 7742SOL    HW234689   3.471   3.367   3.167 -0.4157 -0.0097 -0.5516
 7743SOL     OW34690   4.006   4.256   6.017  0.6515 -0.4228  0.0102
 7743SOL    HW134691   4.013   4.351   6.023 -1.5095 -0.3009  0.5741
 7743SOL    HW234692   3.910   4.260   6.020  0.6059  1.6433 -3.4338
 7744SOL     OW34693   1.030   2.229   8.689 -0.7267 -0.0595  0.3941
 7744SOL    HW134694   1.103   2.168   8.685 -1.6358 -1.0165 -1.5119
 7744SOL    HW234695   1.064   2.304   8.641 -0.1792 -0.4225  0.2154
 7745SOL     OW34696   3.214   0.487  16.254 -0.2482 -0.1178 -0.4199
 7745SOL    HW134697   3.192   0.410  16.308  1.0097  0.8359  1.4456
 7745SOL    HW234698   3.124   0.520  16.251 -0.4848 -0.7828 -0.7503
 7746SOL     OW34699   1.619   0.604   8.906  0.3996  0.3860  0.2314
 7746SOL    HW134700   1.678   0.533   8.930 -0.5027 -0.3452  0.3032
 7746SOL    HW234701   1.637   0.679   8.963  0.2707 -0.1240  0.9478
 7747SOL     OW34702   3.864   3.503  10.441  0.2804 -0.8307 -0.3497
 7747SOL    HW134703   3.897   3.431  10.387  0.6746 -0.5363 -0.5084
 7747SOL    HW234704   3.945   3.552  10.454 -0.7684  1.1710 -1.3538
 7748SOL     OW34705   2.566   4.067  11.985  0.1280  0.0023  0.3632
 7748SOL    HW134706   2.615   4.082  12.067  0.8799  0.3048 -0.1360
 7748SOL    HW234707   2.488   4.119  11.999 -0.9070 -0.7158 -2.7380
 7749SOL     OW34708   1.045   3.822   3.758  0.2279 -0.4644 -0.4850
 7749SOL    HW134709   1.041   3.858   3.847 -0.5382 -0.9804 -0.3053
 7749SOL    HW234710   1.025   3.731   3.781  1.0235 -0.4212  0.3725
 7750SOL     OW34711   0.407   0.399  11.457 -0.3222  0.6225  0.6501
 7750SOL    HW134712   0.421   0.494  11.453 -1.0039  0.7270  0.7621
 7750SOL    HW234713   0.493   0.369  11.428 -1.4774 -1.3769 -0.7381
 7751SOL     OW34714   0.011   1.546   2.998 -0.2763  0.6216 -0.3227
 7751SOL    HW134715   4.665   1.496   2.959 -0.1774 -0.8545  1.3841
 7751SOL    HW234716   4.713   1.556   3.090  1.7814 -1.8997  0.4695
 7752SOL     OW34717   3.083   1.605   2.473  0.7187 -0.0328 -0.4342
 7752SOL    HW134718   3.121   1.523   2.440  0.3140 -0.0238 -0.9172
 7752SOL    HW234719   3.092   1.577   2.564 -1.0187  1.5099  0.2049
 7753SOL     OW34720   1.419   4.465  12.664 -0.1405 -0.1053  0.4489
 7753SOL    HW134721   1.461   4.536  12.615  1.6532 -1.1879  0.3786
 7753SOL    HW234722   1.390   4.502  12.747 -0.3162  2.1378 -0.6143
 7754SOL     OW34723   4.132   1.077   2.972  0.3001 -0.2368 -0.9550
 7754SOL    HW134724   4.076   1.154   2.959 -0.5473 -1.3190 -3.8027
 7754SOL    HW234725   4.143   1.079   3.067  1.0661 -0.4424 -1.0392
 7755SOL     OW34726   4.628   4.597  14.547 -0.0989  0.3511  0.4215
 7755SOL    HW134727   4.627   4.513  14.593  0.8028 -0.2303 -0.5970
 7755SOL    HW234728   4.644   4.563  14.459 -0.2738  0.9950  0.1416
 7756SOL     OW34729   1.298   0.496   3.219 -0.8771 -0.0875 -0.3689
 7756SOL    HW134730   1.368   0.478   3.282 -0.6829  1.0200 -0.2688
 7756SOL    HW234731   1.223   0.451   3.259 -0.0537 -0.7643  0.4103
 7757SOL     OW34732   4.701   3.977  13.224  0.2472  0.1977 -0.1532
 7757SOL    HW134733   4.620   3.952  13.268 -0.8035 -0.5869 -2.5325
 7757SOL    HW234734   4.710   4.071  13.242  0.3098 -0.1076  1.4467
 7758SOL     OW34735   0.499   2.874   9.173  0.4796  0.1936  0.7737
 7758SOL    HW134736   0.440   2.877   9.097 -2.2038  1.5050  2.8933
 7758SOL    HW234737   0.559   2.946   9.152 -0.0590  1.0530  2.2045
 7759SOL     OW34738   3.990   2.505   5.604 -0.4682  0.1884 -0.1848
 7759SOL    HW134739   3.903   2.522   5.640 -0.3838  0.0772  0.0676
 7759SOL    HW234740   4.039   2.530   5.682 -0.4370  0.8855 -0.4203
 7760SOL     OW34741   4.021   0.815  13.107  0.0036  0.4340  0.4520
 7760SOL    HW134742   4.003   0.765  13.028 -0.2202  0.0220  0.7671
 7760SOL    HW234743   4.104   0.775  13.135  0.6249  0.3771 -1.4895
 7761SOL     OW34744   3.293   1.979   5.859  0.2901  0.1806 -0.0393
 7761SOL    HW134745   3.295   1.894   5.816  2.2317  0.6528 -0.9044
 7761SOL    HW234746   3.221   2.017   5.809  1.1630 -0.1815 -1.5953
 7762SOL     OW34747   2.984   1.799  15.245  0.0215  0.3026 -0.5864
 7762SOL    HW134748   3.045   1.780  15.173  1.1968  0.0774  0.4793
 7762SOL    HW234749   2.903   1.804  15.193 -0.3303  2.4010  0.1879
 7763SOL     OW34750   2.654   0.922  13.696 -0.0061 -0.1170  0.2296
 7763SOL    HW134751   2.576   0.954  13.741 -1.6930 -0.0767 -2.6733
 7763SOL    HW234752   2.610   0.867  13.631 -0.7363 -1.8021  2.1595
 7764SOL     OW34753   3.391   4.703  13.175 -0.4119 -0.1679 -0.2281
 7764SOL    HW134754   3.473   4.722  13.129 -0.6641  4.0370  1.0478
 7764SOL    HW234755   3.337   4.653  13.114  1.0251 -2.0858  0.0706
 7765SOL     OW34756   0.259   0.569   2.402  0.0995 -0.3335  0.3896
 7765SOL    HW134757   0.301   0.632   2.344  2.5884 -2.4756 -0.1226
 7765SOL    HW234758   0.182   0.624   2.419 -1.1030 -1.4958 -1.2006
 7766SOL     OW34759   1.927   4.397  11.466 -0.4932  0.4581 -0.2596
 7766SOL    HW134760   1.974   4.475  11.495  0.6854  0.1245 -1.2946
 7766SOL    HW234761   1.999   4.351  11.424 -0.6112 -0.7575  0.8760
 7767SOL     OW34762   3.266   4.539   6.633 -0.1779 -0.2614  0.1989
 7767SOL    HW134763   3.278   4.477   6.561 -2.2068  1.8578 -1.9628
 7767SOL    HW234764   3.302   4.621   6.598 -0.4215  0.0666  0.7123
 7768SOL     OW34765   1.210   4.574  15.663  0.5596  0.0736  0.0933
 7768SOL    HW134766   1.248   4.603  15.580  0.2941  1.3052  0.4037
 7768SOL    HW234767   1.259   4.613  15.735  1.3951 -2.4193  0.8800
 7769SOL     OW34768   0.039   4.255   3.492  0.2939 -0.0840  0.0469
 7769SOL    HW134769   0.096   4.269   3.416 -0.3587  0.5122 -0.3358
 7769SOL    HW234770   4.682   4.233   3.450  0.3163 -1.1670  0.5648
 7770SOL     OW34771   3.029   3.624  12.438  0.3608 -0.0459 -0.8918
 7770SOL    HW134772   3.035   3.586  12.526  0.0009 -0.6870 -1.1519
 7770SOL    HW234773   3.065   3.712  12.453 -0.7699  0.5226 -1.4745
 7771SOL     OW34774   1.803   2.124  10.417  0.0067  0.4632 -0.2251
 7771SOL    HW134775   1.766   2.136  10.505  1.6555 -0.2696  0.5667
 7771SOL    HW234776   1.804   2.030  10.400  2.2173  0.7452 -1.6582
 7772SOL     OW34777   3.847   4.624   8.921  0.1059  0.0568  0.9125
 7772SOL    HW134778   3.763   4.668   8.912  0.5609  0.9522  1.0448
 7772SOL    HW234779   3.887   4.626   8.834  1.5564  1.0608  1.6014
 7773SOL     OW34780   0.644   1.208   2.650  0.5063 -0.0237 -0.4640
 7773SOL    HW134781   0.630   1.190   2.557 -0.0483  1.0532 -0.5954
 7773SOL    HW234782   0.564   1.174   2.689  0.6067  0.9878  0.6199
 7774SOL     OW34783   1.374   1.574   0.391  0.3074 -0.1054 -0.2136
 7774SOL    HW134784   1.370   1.638   0.320 -1.6389 -1.8313 -1.6526
 7774SOL    HW234785   1.303   1.612   0.444  1.2399  0.1722  0.8279
 7775SOL     OW34786   2.536   1.760   4.049 -0.2035  0.0887 -0.4739
 7775SOL    HW134787   2.563   1.834   4.103  2.2033 -1.2981  0.2580
 7775SOL    HW234788   2.531   1.802   3.963  1.3483 -1.1911 -1.1821
 7776SOL     OW34789   1.470   0.915   3.322  0.1987 -0.2260 -0.5072
 7776SOL    HW134790   1.452   0.995   3.371 -0.6922 -0.5491 -0.3137
 7776SOL    HW234791   1.521   0.949   3.248 -2.4604  3.6861 -0.5389
 7777SOL     OW34792   3.492   0.744  10.607  0.7736  0.4088  0.1044
 7777SOL    HW134793   3.469   0.792  10.527  0.3307  1.0279  0.6039
 7777SOL    HW234794   3.532   0.664  10.573  1.6009  0.9525 -0.2257
 7778SOL     OW34795   4.501   0.784  10.484 -0.2138  0.7087  0.2927
 7778SOL    HW134796   4.474   0.795  10.575 -0.0456  1.0170  0.3043
 7778SOL    HW234797   4.521   0.691  10.469 -0.9755  0.5563  0.2216
 7779SOL     OW34798   0.888   0.286   8.729  0.2346  0.5689 -0.4247
 7779SOL    HW134799   0.845   0.358   8.775 -1.1843 -0.1169 -0.6771
 7779SOL    HW234800   0.974   0.323   8.710 -0.6645  2.7933 -0.2071
 7780SOL     OW34801   3.785   2.572   3.151 -0.8302 -0.6347 -0.2736
 7780SOL    HW134802   3.691   2.585   3.145 -0.8827 -0.1870  1.3367
 7780SOL    HW234803   3.824   2.647   3.105  0.1735  0.4294  2.2850
 7781SOL     OW34804   1.084   4.559   3.529 -0.0353  0.7920  0.1026
 7781SOL    HW134805   1.117   4.481   3.485  1.1234  0.7020  1.1252
 7781SOL    HW234806   1.059   4.608   3.451  0.0434  1.2668  0.3778
 7782SOL     OW34807   0.319   1.315  13.215  0.1306  0.5317 -0.3668
 7782SOL    HW134808   0.342   1.367  13.138 -0.0623  0.8712 -0.1933
 7782SOL    HW234809   0.398   1.315  13.268 -0.8594  1.9543  1.1040
 7783SOL     OW34810   4.212   3.294   7.000  0.1712 -0.1793 -0.2597
 7783SOL    HW134811   4.191   3.254   6.915  1.1066 -3.8905  1.2505
 7783SOL    HW234812   4.213   3.217   7.057  0.4521 -0.0100 -0.0350
 7784SOL     OW34813   4.592   2.723   5.919 -0.2014 -0.0406  0.2703
 7784SOL    HW134814   4.530   2.738   5.848  0.9869 -2.2261 -1.2072
 7784SOL    HW234815   4.533   2.741   5.993 -1.0322 -0.3234 -0.3186
 7785SOL     OW34816   1.907   4.560  14.672  0.2135 -0.0916  0.2870
 7785SOL    HW134817   1.971   4.630  14.655  0.8056 -0.7006  0.0208
 7785SOL    HW234818   1.967   4.499  14.714 -1.3318 -1.1376  0.9902
 7786SOL     OW34819   3.929   4.597   2.171  0.1678  0.0096  0.0426
 7786SOL    HW134820   4.019   4.596   2.138 -0.7535  0.3249 -2.4670
 7786SOL    HW234821   3.938   4.536   2.245  2.2838  2.1631  1.5686
 7787SOL     OW34822   2.385   3.327  12.737  0.2228 -0.7809  0.1336
 7787SOL    HW134823   2.322   3.339  12.808  0.8665  0.2730  0.5244
 7787SOL    HW234824   2.347   3.372  12.662  1.4857 -1.1914 -0.7474
 7788SOL     OW34825   0.643   1.817   3.677  0.2044  0.2227 -0.1992
 7788SOL    HW134826   0.723   1.765   3.690  0.0348 -0.5817 -2.3001
 7788SOL    HW234827   0.581   1.747   3.697  0.9155 -0.2698  0.2742
 7789SOL     OW34828   2.886   0.179  13.683 -0.2384  0.7607 -0.2569
 7789SOL    HW134829   2.809   0.149  13.731 -1.1925 -0.4275 -2.5505
 7789SOL    HW234830   2.904   0.263  13.725 -0.8928  0.9016 -0.2594
 7790SOL     OW34831   1.043   3.527  10.126  0.0370 -0.0816 -0.1065
 7790SOL    HW134832   1.026   3.601  10.068  2.0967  0.3425 -0.1945
 7790SOL    HW234833   1.014   3.455  10.071  1.1756  0.5330 -1.5130
 7791SOL     OW34834   0.503   1.289   5.896 -0.1533 -0.3921 -0.4915
 7791SOL    HW134835   0.478   1.227   5.827  1.0790 -3.0857  1.5276
 7791SOL    HW234836   0.546   1.235   5.962 -3.1544 -2.9740 -0.6598
 7792SOL     OW34837   4.248   3.694  14.081 -0.3086 -0.0372 -0.1133
 7792SOL    HW134838   4.303   3.618  14.060 -1.3216  0.1306 -3.3151
 7792SOL    HW234839   4.259   3.745  14.002 -1.1673  0.0557 -0.1805
 7793SOL     OW34840   1.504   1.574   0.634 -0.6008  0.4140  0.0245
 7793SOL    HW134841   1.417   1.581   0.673 -1.5144 -0.9243 -1.7418
 7793SOL    HW234842   1.472   1.589   0.545 -1.8409 -3.9571 -0.2691
 7794SOL     OW34843   2.059   3.410   7.920 -0.3853  0.3329 -0.2727
 7794SOL    HW134844   1.966   3.416   7.898 -1.3467 -1.4094  3.3105
 7794SOL    HW234845   2.110   3.455   7.853  1.1260  0.0682  0.7022
 7795SOL     OW34846   1.024   2.774   2.546 -0.0892  0.0055 -0.1527
 7795SOL    HW134847   1.039   2.752   2.454 -2.3504 -0.8104 -0.3148
 7795SOL    HW234848   1.059   2.863   2.551 -1.6090  0.5935  0.0814
 7796SOL     OW34849   4.396   3.323   5.036 -0.3131 -0.2822 -0.2576
 7796SOL    HW134850   4.473   3.265   5.036 -0.8753 -0.9997 -2.6219
 7796SOL    HW234851   4.340   3.289   4.966 -0.4789  0.4459 -0.4723
 7797SOL     OW34852   1.583   0.668  15.136  0.1878  0.2617 -0.0328
 7797SOL    HW134853   1.560   0.741  15.194  0.5182  1.7254 -1.7429
 7797SOL    HW234854   1.634   0.616  15.199 -1.9047 -2.8077 -0.9248
 7798SOL     OW34855   3.791   1.547   2.919  0.6647 -0.4619 -0.0743
 7798SOL    HW134856   3.871   1.533   2.969 -0.5255 -0.4016  1.8130
 7798SOL    HW234857   3.825   1.592   2.841  1.0039 -1.9411 -0.7867
 7799SOL     OW34858   2.491   1.148   8.947 -0.0128 -0.2267  0.2023
 7799SOL    HW134859   2.524   1.233   8.916 -1.4697  0.2911  0.1139
 7799SOL    HW234860   2.412   1.138   8.895 -0.4176  1.4601  0.4955
 7800SOL     OW34861   4.185   3.258  16.547  0.4001 -0.0161 -0.0415
 7800SOL    HW134862   4.184   3.193  16.616  2.3111  0.6757  0.6317
 7800SOL    HW234863   4.109   3.231  16.495  0.7790  1.2877 -1.2918
 7801SOL     OW34864   3.997   2.999  15.759 -0.6640  0.4715  0.8157
 7801SOL    HW134865   4.039   3.081  15.733 -0.9204  0.2180 -0.3647
 7801SOL    HW234866   4.047   2.937  15.707 -0.3216  1.4413 -0.0095
 7802SOL     OW34867   0.886   1.377  11.600 -0.0772 -0.0079  0.7283
 7802SOL    HW134868   0.885   1.306  11.664 -0.9209 -1.5846 -1.0150
 7802SOL    HW234869   0.939   1.345  11.528 -1.1862  2.2816 -1.1114
 7803SOL     OW34870   0.099   2.763   4.708  0.4934  0.0899  0.0873
 7803SOL    HW134871   0.051   2.721   4.636  1.8682 -1.2371 -0.0532
 7803SOL    HW234872   0.115   2.846   4.662 -2.1443  0.5801  0.0314
 7804SOL     OW34873   3.577   2.172   8.199  0.4728  0.6957 -0.2044
 7804SOL    HW134874   3.565   2.160   8.105  0.2138 -0.2695 -0.0482
 7804SOL    HW234875   3.660   2.127   8.212  1.0070  1.6585 -0.2651
 7805SOL     OW34876   0.891   0.006   6.736  0.1953  0.0917 -0.4059
 7805SOL    HW134877   0.932   4.658   6.690 -1.3584 -1.7058  1.0496
 7805SOL    HW234878   0.853   4.681   6.808 -0.4701 -1.5433 -1.8952
 7806SOL     OW34879   1.394   2.409   0.631 -0.9244  0.0973 -0.3444
 7806SOL    HW134880   1.383   2.379   0.721  3.0797  0.6899  0.3494
 7806SOL    HW234881   1.445   2.490   0.639 -0.1041 -0.2744 -1.7988
 7807SOL     OW34882   3.257   4.551  15.956  0.1483 -0.5481  0.1049
 7807SOL    HW134883   3.323   4.503  16.006  0.8909  0.8459  0.4590
 7807SOL    HW234884   3.284   4.533  15.866  2.8167 -1.5632  1.1186
 7808SOL     OW34885   0.924   1.816   5.435 -0.7982 -0.0199  0.9434
 7808SOL    HW134886   1.005   1.807   5.485 -0.8940  0.5517  1.1994
 7808SOL    HW234887   0.912   1.911   5.444  0.7951  0.2895 -0.1451
 7809SOL     OW34888   1.550   1.804   4.607  0.1948  0.5790  0.3562
 7809SOL    HW134889   1.604   1.880   4.628  1.4194 -0.4618  0.9761
 7809SOL    HW234890   1.621   1.742   4.591 -1.4762 -1.5634  1.2265
 7810SOL     OW34891   4.706   2.503   6.018  0.2916  0.1912  0.4165
 7810SOL    HW134892   4.666   2.579   5.975  1.9086 -0.3616 -2.0705
 7810SOL    HW234893   0.041   2.548   6.077  1.2664 -0.7577  0.1383
 7811SOL     OW34894   2.342   2.035   6.487  0.2816  0.7372  0.2763
 7811SOL    HW134895   2.327   2.126   6.512 -1.3556  0.3718  0.6754
 7811SOL    HW234896   2.287   1.997   6.555 -0.7341 -1.6339 -1.8767
 7812SOL     OW34897   2.172   3.506  16.006  0.1658  0.1127 -0.2186
 7812SOL    HW134898   2.216   3.435  15.959  1.1076 -0.2130  1.1685
 7812SOL    HW234899   2.255   3.545  16.033 -0.0856  1.5175 -1.5038
 7813SOL     OW34900   1.642   3.470   7.243  0.2537  0.1607 -0.2143
 7813SOL    HW134901   1.680   3.486   7.330  0.7078 -1.2017 -0.1673
 7813SOL    HW234902   1.550   3.453   7.263  0.1003  1.7946  0.4869
 7814SOL     OW34903   0.041   4.640  16.556  0.1703  0.1579  0.1816
 7814SOL    HW134904   0.022   4.634  16.462 -0.5642  1.6677  0.2245
 7814SOL    HW234905   4.692   4.690  16.590 -1.2302 -1.1927 -0.8678
 7815SOL     OW34906   0.216   4.372   4.991  0.6902 -0.2316 -0.8641
 7815SOL    HW134907   0.221   4.300   5.054  0.7081  0.3495 -0.1994
 7815SOL    HW234908   0.305   4.369   4.958  1.6039 -0.9032  1.6500
 7816SOL     OW34909   4.514   2.158  17.506  0.1959 -0.3537  0.1482
 7816SOL    HW134910   4.558   2.198  17.580  1.0257  0.5257 -0.8171
 7816SOL    HW234911   4.561   2.075  17.506  0.8566  0.0245  0.1945
 7817SOL     OW34912   1.429   1.204  17.042  0.1505 -0.3476 -0.1397
 7817SOL    HW134913   1.519   1.206  17.008  1.0668  1.6459  2.4213
 7817SOL    HW234914   1.379   1.219  16.962  1.3599  1.4634 -0.5356
 7818SOL     OW34915   0.395   3.184   4.838 -0.0227 -0.4216  0.0467
 7818SOL    HW134916   0.440   3.194   4.754  0.8026 -0.0177  0.5410
 7818SOL    HW234917   0.429   3.258   4.887 -2.1911 -0.3597  1.4339
 7819SOL     OW34918   2.979   0.720  14.686  0.7535  0.2757  0.0341
 7819SOL    HW134919   2.980   0.696  14.593 -0.0944 -0.5244  0.2230
 7819SOL    HW234920   3.020   0.806  14.686 -0.2213  0.7402 -0.8847
 7820SOL     OW34921   1.879   0.135  17.416 -0.3247  0.3682 -0.4300
 7820SOL    HW134922   1.846   0.080  17.487  0.0219  0.8218  0.0874
 7820SOL    HW234923   1.876   0.227  17.441  3.7869  0.0146  1.3834
 7821SOL     OW34924   0.206   1.633   3.603  0.1558  0.5034 -0.4141
 7821SOL    HW134925   0.265   1.558   3.616 -0.0318  0.6022  0.9581
 7821SOL    HW234926   0.213   1.676   3.688  1.4638 -1.8733  0.6896
 7822SOL     OW34927   2.811   2.839   2.353  0.0576  0.3276 -0.6860
 7822SOL    HW134928   2.755   2.817   2.278  0.7351 -2.9703 -0.2486
 7822SOL    HW234929   2.886   2.888   2.319  2.5296 -1.6932  1.8152
 7823SOL     OW34930   0.317   0.980  14.548  0.0637  0.5675 -0.6408
 7823SOL    HW134931   0.382   0.933  14.495 -1.3242 -0.4265 -1.4477
 7823SOL    HW234932   0.234   0.942  14.520  0.5895  0.9863 -2.7178
 7824SOL     OW34933   2.800   0.225  15.328  0.2883  0.4630  0.1765
 7824SOL    HW134934   2.724   0.182  15.367  0.5049  0.0879  0.1858
 7824SOL    HW234935   2.776   0.318  15.328  0.2217  0.4437 -1.3473
 7825SOL     OW34936   1.528   0.537  12.228  0.9605 -0.1641 -0.1309
 7825SOL    HW134937   1.557   0.505  12.143 -0.2431  2.3707 -1.4970
 7825SOL    HW234938   1.434   0.518  12.220  1.0052 -0.7063  0.5762
 7826SOL     OW34939   1.522   3.944  11.239  0.7221  0.2132 -0.2260
 7826SOL    HW134940   1.459   4.007  11.273 -1.4000 -1.9459 -0.1554
 7826SOL    HW234941   1.492   3.944  11.149 -0.9023 -0.7597  0.3309
 7827SOL     OW34942   0.363   1.392  11.973 -0.3156 -0.4736  0.5399
 7827SOL    HW134943   0.331   1.451  12.042 -1.2783  0.8334 -1.0388
 7827SOL    HW234944   0.285   1.338  11.965  0.2307 -1.1366 -0.2253
 7828SOL     OW34945   2.346   3.092   2.400 -0.4611 -0.3261  0.7589
 7828SOL    HW134946   2.377   3.025   2.338 -0.9386  1.1246 -1.0465
 7828SOL    HW234947   2.251   3.078   2.396 -0.5299  0.1510  0.7583
 7829SOL     OW34948   1.530   2.186   4.348 -0.0453  0.4426 -0.1036
 7829SOL    HW134949   1.509   2.242   4.274 -3.2895  1.1574  1.3566
 7829SOL    HW234950   1.620   2.214   4.363 -0.1918  0.6803  0.3337
 7830SOL     OW34951   3.327   3.546   6.450 -0.3606  0.0309  0.5992
 7830SOL    HW134952   3.321   3.598   6.530 -0.5567  0.8281  0.0657
 7830SOL    HW234953   3.299   3.609   6.383  0.3398  2.0281  2.2108
 7831SOL     OW34954   0.366   0.576   1.869  0.4091  0.2453 -0.4502
 7831SOL    HW134955   0.332   0.644   1.812 -1.6847 -1.4633 -1.2074
 7831SOL    HW234956   0.330   0.499   1.825 -2.1546  1.2342 -0.0866
 7832SOL     OW34957   1.319   1.881   5.803  0.2987 -0.6066 -0.7465
 7832SOL    HW134958   1.389   1.946   5.793  1.0742 -0.9527  2.4482
 7832SOL    HW234959   1.377   1.816   5.841 -1.3467 -0.4036  2.1131
 7833SOL     OW34960   2.464   0.762   5.768  0.3197  0.1490  0.0346
 7833SOL    HW134961   2.521   0.701   5.720  1.1921 -0.4180  1.7829
 7833SOL    HW234962   2.414   0.702   5.824 -0.0173  0.2220 -0.1881
 7834SOL     OW34963   1.050   3.151   0.787  0.1896  0.4590  0.1565
 7834SOL    HW134964   1.023   3.242   0.774 -2.8095 -0.9193 -3.3802
 7834SOL    HW234965   1.132   3.153   0.738  0.8392 -1.7067  1.1496
 7835SOL     OW34966   4.312   3.154  14.720 -0.1239 -0.0631  0.2368
 7835SOL    HW134967   4.289   3.200  14.639  1.2539 -1.2282 -0.8009
 7835SOL    HW234968   4.343   3.073  14.680  0.9467 -0.7508  2.4884
 7836SOL     OW34969   2.112   3.541   7.681  0.2735  0.1514  0.0063
 7836SOL    HW134970   2.047   3.512   7.617 -0.3792  1.0519  0.2569
 7836SOL    HW234971   2.163   3.608   7.635 -1.2222  1.8690  0.8308
 7837SOL     OW34972   3.438   2.568   8.487 -0.4109  0.3586 -0.8079
 7837SOL    HW134973   3.483   2.513   8.423 -1.1631 -2.0110  0.6730
 7837SOL    HW234974   3.478   2.652   8.469  0.5469 -0.0890 -0.7667
 7838SOL     OW34975   2.317   2.055   6.805 -0.8055 -0.3352  0.6722
 7838SOL    HW134976   2.337   2.092   6.890  1.0981 -0.5133  0.2981
 7838SOL    HW234977   2.403   2.016   6.791 -0.0466  0.2082  3.8012
 7839SOL     OW34978   2.340   3.772   3.519 -0.1722  0.6395 -0.0765
 7839SOL    HW134979   2.317   3.707   3.453 -0.6278 -0.2558  0.9783
 7839SOL    HW234980   2.282   3.844   3.494  0.9276  1.6671  0.3230
 7840SOL     OW34981   0.943   3.072   3.890  0.6691 -0.4700 -0.4550
 7840SOL    HW134982   0.929   3.083   3.796 -1.8574 -1.3300 -0.1971
 7840SOL    HW234983   0.997   2.993   3.884  0.6711 -0.4745 -0.3762
 7841SOL     OW34984   1.250   2.810  12.139  0.3880 -0.3927  0.0326
 7841SOL    HW134985   1.276   2.818  12.047  0.7272 -0.5899  0.1099
 7841SOL    HW234986   1.334   2.809  12.184  1.4881  1.8712 -2.0213
 7842SOL     OW34987   3.174   1.970   3.383  0.2960 -0.1853 -0.4284
 7842SOL    HW134988   3.176   1.885   3.427  0.4148  1.1834  2.2504
 7842SOL    HW234989   3.252   2.009   3.423  0.2472  0.1189 -0.6319
 7843SOL     OW34990   1.351   2.883   0.606  0.2205  0.5684 -0.3008
 7843SOL    HW134991   1.365   2.884   0.511 -0.6866 -0.9251 -0.4533
 7843SOL    HW234992   1.365   2.974   0.633 -1.9366  1.0914 -0.9331
 7844SOL     OW34993   0.736   0.758  15.969 -0.6566 -0.2845  0.4874
 7844SOL    HW134994   0.768   0.779  15.881 -3.3722 -0.3312 -0.5071
 7844SOL    HW234995   0.659   0.814  15.976  1.0648  1.7636  2.8714
 7845SOL     OW34996   2.468   1.132   0.995 -0.1553 -0.8167 -0.6425
 7845SOL    HW134997   2.500   1.204   1.050 -1.0949 -1.1759  0.3674
 7845SOL    HW234998   2.521   1.142   0.916  0.5750  1.5424  0.1247
 7846SOL     OW34999   2.981   0.516   6.484  0.3558 -0.4559  0.6078
 7846SOL    HW135000   2.998   0.505   6.390  1.5661  2.1975  0.5067
 7846SOL    HW235001   2.917   0.446   6.496  0.1746 -0.0528  1.9663
 7847SOL     OW35002   2.725   2.169   3.539  0.0307  0.0483  0.6536
 7847SOL    HW135003   2.630   2.178   3.537  0.0025 -0.1388  1.1580
 7847SOL    HW235004   2.741   2.150   3.446 -3.3879 -0.6761  0.2285
 7848SOL     OW35005   0.147   1.863   7.750 -0.3068 -0.3525 -0.2698
 7848SOL    HW135006   0.076   1.883   7.688  1.3491  2.0754 -1.3831
 7848SOL    HW235007   0.212   1.849   7.682  0.4414 -0.9032  0.5679
 7849SOL     OW35008   0.779   1.231   4.042 -0.0231  0.0554  0.6611
 7849SOL    HW135009   0.800   1.142   4.070  1.7876  0.1086 -0.5181
 7849SOL    HW235010   0.693   1.254   4.078 -0.8516 -1.2641 -0.5029
 7850SOL     OW35011   0.164   4.573  14.941  0.2844 -0.1605  0.1701
 7850SOL    HW135012   0.082   4.530  14.963 -0.0448  0.8465  0.9073
 7850SOL    HW235013   0.172   4.647  15.001 -1.4797  1.0381 -1.0767
 7851SOL     OW35014   1.864   2.400  17.518 -0.2610 -0.3272 -0.1006
 7851SOL    HW135015   1.873   2.422  17.425  0.8426  0.1453  0.1219
 7851SOL    HW235016   1.853   2.480  17.569 -0.9048  0.6257 -1.7436
 7852SOL     OW35017   0.289   1.957  16.670  0.0067  0.1969 -0.0879
 7852SOL    HW135018   0.302   1.902  16.593 -0.3521  0.4939 -0.3618
 7852SOL    HW235019   0.319   1.903  16.743 -2.6540 -0.7818  0.3011
 7853SOL     OW35020   2.765   1.670   3.716  0.5167 -0.3528 -0.0728
 7853SOL    HW135021   2.678   1.631   3.704  1.5261 -2.4506 -0.5466
 7853SOL    HW235022   2.781   1.718   3.634  2.1634  1.1629  1.1423
 7854SOL     OW35023   1.754   3.204   4.865  0.2105  0.0165 -0.1613
 7854SOL    HW135024   1.750   3.119   4.908 -0.5048  0.6251  0.9923
 7854SOL    HW235025   1.753   3.177   4.773  2.3163 -0.7562  0.0504
 7855SOL     OW35026   2.893   0.401   0.448  0.1090  0.1389 -0.0853
 7855SOL    HW135027   2.862   0.438   0.365 -2.2872 -0.9495  0.3193
 7855SOL    HW235028   2.976   0.358   0.425  0.9460 -0.4573  3.9940
 7856SOL     OW35029   2.959   3.575  17.143  0.3609 -0.3709  0.5687
 7856SOL    HW135030   3.038   3.555  17.193  0.6877  0.0520  0.2260
 7856SOL    HW235031   2.913   3.635  17.201 -2.3248  0.0587 -1.9620
 7857SOL     OW35032   1.784   2.943   4.294 -0.4777 -0.3636 -0.2999
 7857SOL    HW135033   1.805   2.907   4.208  1.8703  1.9017 -0.6641
 7857SOL    HW235034   1.822   3.030   4.291 -0.3609 -0.4487 -1.3658
 7858SOL     OW35035   3.356   1.270  13.169  0.4032  0.2420 -0.6100
 7858SOL    HW135036   3.344   1.364  13.153 -0.3585  0.5375  1.7025
 7858SOL    HW235037   3.381   1.267  13.261  1.3095  2.1546 -0.8068
 7859SOL     OW35038   1.529   3.046   4.243  0.0267  0.1671  0.0854
 7859SOL    HW135039   1.587   3.067   4.170 -0.5679 -2.7326 -1.2220
 7859SOL    HW235040   1.581   2.994   4.303  0.3833  0.5294  0.0881
 7860SOL     OW35041   1.857   2.432   5.743  0.5134 -0.5803  0.8473
 7860SOL    HW135042   1.834   2.450   5.834 -1.8096 -1.2998  0.4051
 7860SOL    HW235043   1.781   2.384   5.711  0.9740 -1.1592  0.6316
 7861SOL     OW35044   1.979   1.140   3.829  0.1569  1.1243 -0.1947
 7861SOL    HW135045   2.013   1.158   3.741  2.6616 -0.5570  0.4161
 7861SOL    HW235046   1.995   1.045   3.832  2.5618  1.5412  0.5417
 7862SOL     OW35047   2.530   0.413  14.082 -0.2959 -0.6272  0.0994
 7862SOL    HW135048   2.565   0.480  14.142 -2.5340 -0.9341  1.7588
 7862SOL    HW235049   2.597   0.345  14.085  0.1036 -0.2237  0.4565
 7863SOL     OW35050   0.903   1.096   7.635  0.4882 -0.7038  0.7610
 7863SOL    HW135051   0.925   1.014   7.678 -0.8794 -2.1045 -1.1910
 7863SOL    HW235052   0.826   1.127   7.683  0.3606 -0.1507  0.2016
 7864SOL     OW35053   3.194   2.850   4.285  0.3759 -0.0733  0.1355
 7864SOL    HW135054   3.233   2.770   4.322  1.8309  1.3261  1.6180
 7864SOL    HW235055   3.239   2.920   4.332  1.1083 -2.1906  2.5692
 7865SOL     OW35056   0.793   0.699   8.677  0.2429 -0.1937  0.0153
 7865SOL    HW135057   0.858   0.646   8.631 -0.8586 -0.6040 -1.0718
 7865SOL    HW235058   0.815   0.779   8.629 -1.6591 -0.4304 -1.2776
 7866SOL     OW35059   1.551   0.668   6.071  0.5477  0.0783  0.2804
 7866SOL    HW135060   1.505   0.731   6.126  0.8803 -0.1451  0.8062
 7866SOL    HW235061   1.485   0.606   6.039 -1.5018  1.9324  0.9288
 7867SOL     OW35062   0.961   0.031   6.225 -0.1248 -0.3233  0.7138
 7867SOL    HW135063   0.874   4.717   6.220 -0.1831 -0.2447  1.0851
 7867SOL    HW235064   1.017   4.682   6.203 -0.3782 -1.3933  3.6057
 7868SOL     OW35065   2.528   4.315  14.594 -0.2589 -0.3329 -0.5291
 7868SOL    HW135066   2.480   4.244  14.636 -0.5700 -0.7362 -1.5650
 7868SOL    HW235067   2.527   4.292  14.501 -0.9860 -2.2340 -0.0369
 7869SOL     OW35068   2.003   4.213   7.926 -0.3440  0.0660  0.4834
 7869SOL    HW135069   1.965   4.138   7.972  0.1199 -0.9870 -0.8278
 7869SOL    HW235070   2.073   4.230   7.989  0.6813  0.2654 -0.6956
 7870SOL     OW35071   3.751   2.972   9.894  0.7165 -0.0511  0.1277
 7870SOL    HW135072   3.734   2.891   9.942 -0.3348  1.2674  1.9687
 7870SOL    HW235073   3.667   3.017   9.892  3.0045  4.1699 -2.1612
 7871SOL     OW35074   3.161   1.818  16.264  0.1260 -0.0691  0.1279
 7871SOL    HW135075   3.131   1.891  16.320  1.1722  0.6054 -0.2002
 7871SOL    HW235076   3.233   1.777  16.311 -0.2102 -0.5804  0.2004
 7872SOL     OW35077   2.967   4.375   3.280 -0.3957 -0.3841  0.0627
 7872SOL    HW135078   2.871   4.374   3.272 -0.2970 -0.4441 -1.1274
 7872SOL    HW235079   2.990   4.413   3.195 -1.8265 -0.4765 -0.3662
 7873SOL     OW35080   2.933   1.898   5.996  0.0354 -0.3209  0.4561
 7873SOL    HW135081   2.961   1.951   6.071 -1.5969 -0.6045  1.2736
 7873SOL    HW235082   3.016   1.852   5.989  0.7719  1.1904 -0.5245
 7874SOL     OW35083   2.253   2.069   8.273 -0.1582  0.1339 -0.6502
 7874SOL    HW135084   2.220   1.980   8.276  0.5200 -0.1045 -0.2817
 7874SOL    HW235085   2.300   2.062   8.356 -3.1182  0.0941  1.0277
 7875SOL     OW35086   3.468   4.013  15.734  0.4123 -0.4410  0.1009
 7875SOL    HW135087   3.375   4.009  15.753  0.2356 -1.1311 -0.9082
 7875SOL    HW235088   3.479   4.108  15.723 -1.7015 -0.3345 -1.1314
 7876SOL     OW35089   0.158   2.949  14.122  0.0044  0.2345  0.1458
 7876SOL    HW135090   0.205   3.016  14.171  1.4069 -2.0846  2.0255
 7876SOL    HW235091   0.234   2.907  14.083 -0.3015  0.2351 -0.4463
 7877SOL     OW35092   0.759   1.543  13.670 -0.5970  0.1658  0.3931
 7877SOL    HW135093   0.689   1.601  13.641 -1.2174 -0.6769  0.2130
 7877SOL    HW235094   0.818   1.548  13.595 -2.5774  3.1278 -0.9787
 7878SOL     OW35095   2.861   3.724   1.287  0.0056  0.0288  0.0408
 7878SOL    HW135096   2.918   3.792   1.323 -1.0715  1.6008 -1.2187
 7878SOL    HW235097   2.885   3.712   1.195 -0.0088 -1.9692  0.2944
 7879SOL     OW35098   3.917   0.632   3.092  0.0592 -0.1904 -0.4616
 7879SOL    HW135099   3.965   0.552   3.073  0.9951  0.1192  0.5883
 7879SOL    HW235100   3.877   0.664   3.011  0.7833 -1.8875 -1.4739
 7880SOL     OW35101   2.547   2.617   6.188  0.2376  0.1086 -0.1951
 7880SOL    HW135102   2.600   2.537   6.188  1.0177  0.6248  0.7564
 7880SOL    HW235103   2.459   2.579   6.191 -0.4007  1.6082 -0.3479
 7881SOL     OW35104   4.425   4.658   7.192  0.1318 -0.1344 -0.3684
 7881SOL    HW135105   4.502   4.709   7.166  0.6890  0.0691  1.6932
 7881SOL    HW235106   4.433   4.594   7.122 -0.8138  1.4033 -1.8796
 7882SOL     OW35107   2.016   4.499  12.077 -0.4396 -0.2429 -0.4058
 7882SOL    HW135108   2.093   4.482  12.132 -1.9709 -2.2037  1.0945
 7882SOL    HW235109   2.043   4.499  11.985  1.8329  1.7930  0.2465
 7883SOL     OW35110   3.971   3.286  10.317  0.5298 -0.0949  0.2172
 7883SOL    HW135111   3.922   3.250  10.242 -1.0506  1.4194  0.5294
 7883SOL    HW235112   4.055   3.260  10.279 -0.5163 -1.3390 -1.2798
 7884SOL     OW35113   0.273   2.257  15.938  0.3108  0.3607  0.1667
 7884SOL    HW135114   0.247   2.253  16.030  0.0941 -2.2355 -0.0105
 7884SOL    HW235115   0.191   2.238  15.892  1.6013 -2.6339 -0.8459
 7885SOL     OW35116   1.631   3.531  12.161 -0.1353 -0.1004  0.2782
 7885SOL    HW135117   1.689   3.606  12.142  1.0444 -0.8863  0.8035
 7885SOL    HW235118   1.689   3.469  12.204  1.7059  1.1627 -0.3758
 7886SOL     OW35119   2.560   3.540   7.567 -0.1268 -0.4630 -0.1812
 7886SOL    HW135120   2.641   3.527   7.616  0.5014 -1.4910 -1.4796
 7886SOL    HW235121   2.500   3.482   7.613 -0.1885  0.7493  1.2546
 7887SOL     OW35122   2.298   0.980   6.653 -0.0967 -1.0062  0.3924
 7887SOL    HW135123   2.205   0.996   6.637  0.4514  2.1384  0.2490
 7887SOL    HW235124   2.323   1.068   6.682 -0.1838 -0.9822  0.3933
 7888SOL     OW35125   0.669   0.300   7.072 -0.0017 -0.0443  0.2901
 7888SOL    HW135126   0.636   0.210   7.064  1.3033 -0.4820 -0.1100
 7888SOL    HW235127   0.598   0.362   7.053 -3.0018 -3.0477  1.6182
 7889SOL     OW35128   1.910   3.264   6.210  0.4179  0.0168  0.1577
 7889SOL    HW135129   1.880   3.326   6.277 -0.0529  1.0333 -0.9899
 7889SOL    HW235130   1.980   3.315   6.168  1.1323 -1.5700 -0.5682
 7890SOL     OW35131   0.185   3.757   8.044 -0.1282 -0.4717  0.3520
 7890SOL    HW135132   0.276   3.726   8.041  0.1487  0.4252 -0.1972
 7890SOL    HW235133   0.195   3.814   8.121  0.6125  2.5033 -1.9873
 7891SOL     OW35134   4.316   3.436   1.078  0.3619 -0.0147  0.0848
 7891SOL    HW135135   4.407   3.441   1.109 -0.0337  0.9400  1.0994
 7891SOL    HW235136   4.298   3.342   1.070  0.0988  0.0902 -0.5504
 7892SOL     OW35137   3.773   2.925  14.354 -0.1055 -0.7897 -0.9713
 7892SOL    HW135138   3.770   2.996  14.290  1.7417  0.0715 -0.0941
 7892SOL    HW235139   3.781   2.843  14.305  1.9650 -0.6828 -0.7937
 7893SOL     OW35140   1.917   0.550   4.212 -0.3566 -0.4204  0.5314
 7893SOL    HW135141   1.840   0.493   4.208 -0.7275 -0.0694  2.5286
 7893SOL    HW235142   1.963   0.507   4.284 -1.1964  0.3802  1.5551
 7894SOL     OW35143   0.894   2.258  15.471  0.0098 -0.0345  0.4943
 7894SOL    HW135144   0.902   2.303  15.387 -0.1051  0.4567  0.7494
 7894SOL    HW235145   0.845   2.181  15.441 -0.3822 -0.4682  2.2206
 7895SOL     OW35146   2.686   2.796   6.545  0.9612  0.0114 -1.0354
 7895SOL    HW135147   2.754   2.739   6.509  1.1983 -0.7809  0.6475
 7895SOL    HW235148   2.687   2.862   6.475  1.1111  0.7612 -0.3255
 7896SOL     OW35149   2.240   2.333  12.874  1.0323 -0.1330 -0.0607
 7896SOL    HW135150   2.249   2.237  12.875  1.3587 -0.0828  2.3532
 7896SOL    HW235151   2.217   2.356  12.784  2.0115  0.5490 -0.1373
 7897SOL     OW35152   3.649   0.709   9.527  0.7429  0.0129 -0.0793
 7897SOL    HW135153   3.693   0.777   9.579  0.8804  1.3488 -1.9655
 7897SOL    HW235154   3.594   0.759   9.467 -1.2229 -0.2086  1.5353
 7898SOL     OW35155   0.538   3.030   2.303  0.5801 -0.4086 -0.9365
 7898SOL    HW135156   0.588   3.027   2.385 -0.0572  0.7184 -0.5076
 7898SOL    HW235157   0.596   3.081   2.247  1.4748  1.0932  1.3405
 7899SOL     OW35158   0.174   2.021   8.421 -0.1876 -0.0135 -0.1982
 7899SOL    HW135159   0.239   2.007   8.353  0.2349  2.3088 -0.2641
 7899SOL    HW235160   0.218   2.023   8.506  1.7874 -0.5892 -1.2115
 7900SOL     OW35161   2.328   2.365   3.273  0.3060 -0.2579 -0.5954
 7900SOL    HW135162   2.312   2.314   3.352  0.0846 -1.5660 -1.4675
 7900SOL    HW235163   2.372   2.436   3.320 -1.4453  1.0631 -0.9638
 7901SOL     OW35164   0.119   4.259   4.021  0.5764  0.7153 -0.2043
 7901SOL    HW135165   0.024   4.265   4.010  0.2504 -4.3459 -0.0135
 7901SOL    HW235166   0.151   4.263   3.931  0.5419 -0.1882 -0.2510
 7902SOL     OW35167   1.088   3.099  11.205 -0.0785 -0.7549 -0.1798
 7902SOL    HW135168   1.141   3.133  11.277 -1.3449 -0.2935  0.5390
 7902SOL    HW235169   1.081   3.009  11.236 -0.6518 -1.0149 -1.0684
 7903SOL     OW35170   3.834   0.097   6.348 -0.4256  0.0384  0.0682
 7903SOL    HW135171   3.874   0.171   6.301  2.1891 -0.9248  0.7447
 7903SOL    HW235172   3.881   0.027   6.303  1.2030 -0.4979  2.6031
 7904SOL     OW35173   3.555   1.692   5.812  0.7327 -0.1052  0.3676
 7904SOL    HW135174   3.463   1.683   5.789  0.4382 -0.7833  1.8119
 7904SOL    HW235175   3.594   1.751   5.748  0.3687  0.4244  0.6393
 7905SOL     OW35176   0.889   3.978   9.144 -0.1591  0.6097 -0.7324
 7905SOL    HW135177   0.817   4.036   9.124 -1.3150  0.2163  2.2325
 7905SOL    HW235178   0.935   4.030   9.210  0.8610 -0.3409 -0.6884
 7906SOL     OW35179   1.500   2.668   4.827 -0.2259 -0.2838  0.4307
 7906SOL    HW135180   1.578   2.659   4.773  0.3776  1.2511  1.0541
 7906SOL    HW235181   1.453   2.586   4.809  0.6616 -0.7564  0.2936
 7907SOL     OW35182   0.645   1.456  12.534 -0.1261 -0.5185  0.2348
 7907SOL    HW135183   0.568   1.399  12.536 -1.3037  1.1250  2.5696
 7907SOL    HW235184   0.629   1.511  12.458  2.1159 -1.9659 -1.2817
 7908SOL     OW35185   4.587   1.277   0.854  0.0229  0.1492  0.0156
 7908SOL    HW135186   4.571   1.193   0.812 -0.4590  1.2060 -1.9329
 7908SOL    HW235187   4.570   1.245   0.943 -0.0904  0.6753  0.1870
 7909SOL     OW35188   2.729   1.604  13.540  0.4725 -0.0352  0.4627
 7909SOL    HW135189   2.687   1.523  13.570 -2.2580  0.3506 -2.3330
 7909SOL    HW235190   2.821   1.579  13.533  0.8398  1.2765  0.6355
 7910SOL     OW35191   0.293   3.124  14.290  0.2332 -0.2586  1.0093
 7910SOL    HW135192   0.360   3.104  14.355  0.7859  1.4707  0.9729
 7910SOL    HW235193   0.348   3.175  14.230  0.5949  0.2847  1.8058
 7911SOL     OW35194   3.818   3.943   6.071  0.0803 -0.7073  0.2493
 7911SOL    HW135195   3.749   3.889   6.110  0.0505  0.4207  1.7468
 7911SOL    HW235196   3.848   4.004   6.137 -2.5390  1.6358 -0.7375
 7912SOL     OW35197   0.722   1.667   4.890 -0.1398 -0.1436  0.3033
 7912SOL    HW135198   0.633   1.632   4.889 -0.0618 -0.2986 -0.8805
 7912SOL    HW235199   0.721   1.730   4.963  0.7429  0.0874  0.1161
 7913SOL     OW35200   0.734   2.584   3.957 -0.3943 -0.5792 -0.0291
 7913SOL    HW135201   0.741   2.605   3.864  0.8320  1.7644  0.6035
 7913SOL    HW235202   0.684   2.502   3.955  0.4918 -1.1273  0.0953
 7914SOL     OW35203   3.181   0.645   4.440 -0.0656 -0.3793 -0.5416
 7914SOL    HW135204   3.213   0.583   4.507 -1.5812  0.4616  0.9742
 7914SOL    HW235205   3.152   0.712   4.502  0.4412 -0.1619 -0.5410
 7915SOL     OW35206   0.219   3.378  10.915 -0.2248  0.6597  0.1804
 7915SOL    HW135207   0.130   3.353  10.893 -0.2635  0.7548  0.2293
 7915SOL    HW235208   0.229   3.440  10.843 -0.1441  0.5776  0.1199
 7916SOL     OW35209   3.395   2.169   1.876 -0.4379 -0.3308  0.1688
 7916SOL    HW135210   3.468   2.108   1.864  1.0334  1.3805  0.3833
 7916SOL    HW235211   3.320   2.110   1.879 -2.1673  1.9861  1.6998
 7917SOL     OW35212   3.450   2.770   1.874  0.1240  0.2043  0.3347
 7917SOL    HW135213   3.394   2.840   1.840 -1.3947 -0.6107  1.1647
 7917SOL    HW235214   3.388   2.699   1.857 -1.5918  1.7337  0.1680
 7918SOL     OW35215   1.025   2.707  11.958 -0.1888 -0.8368  0.0085
 7918SOL    HW135216   1.070   2.773  12.011  0.4370 -0.6314 -0.7834
 7918SOL    HW235217   0.979   2.758  11.892 -0.0727 -1.7678 -0.8026
 7919SOL     OW35218   0.897   0.135  17.325 -0.1364 -0.2546  0.0117
 7919SOL    HW135219   0.866   0.220  17.358  3.1963  0.5459  1.0452
 7919SOL    HW235220   0.894   0.160  17.233  1.1654 -2.9236 -0.7595
 7920SOL     OW35221   1.155   4.074  11.638 -0.0378  0.7299 -0.8303
 7920SOL    HW135222   1.183   4.135  11.706 -0.4929 -0.4016  0.3592
 7920SOL    HW235223   1.073   4.122  11.624  0.6758  2.8948  2.5237
 7921SOL     OW35224   2.746   0.201  10.701 -0.2137 -0.0123 -0.2255
 7921SOL    HW135225   2.829   0.237  10.668  0.4110  1.2409  2.6643
 7921SOL    HW235226   2.761   0.107  10.702  2.3503  0.3867  0.3888
 7922SOL     OW35227   4.459   1.222   8.274 -0.0068 -0.1568  0.1628
 7922SOL    HW135228   4.463   1.314   8.301  1.8121 -0.1409 -0.1729
 7922SOL    HW235229   4.458   1.175   8.357  1.5628  1.7635  1.2706
 7923SOL     OW35230   0.288   2.940   5.373 -0.0364  0.1995 -0.3944
 7923SOL    HW135231   0.268   3.032   5.386  2.3378  0.8740 -1.4507
 7923SOL    HW235232   0.371   2.925   5.419 -0.1379 -2.0550 -0.9400
 7924SOL     OW35233   1.774   0.923  15.394 -0.0523  0.5382  0.1675
 7924SOL    HW135234   1.683   0.929  15.363  0.0834  0.9876 -0.1480
 7924SOL    HW235235   1.784   0.996  15.454 -0.1589 -0.1793  1.0616
 7925SOL     OW35236   0.462   0.717   2.613 -0.0668  0.4584 -0.0396
 7925SOL    HW135237   0.465   0.772   2.691  0.7080  1.5425 -0.8340
 7925SOL    HW235238   0.501   0.773   2.546 -0.7140  0.7112 -0.2080
 7926SOL     OW35239   0.504   1.746   5.149 -0.1186 -0.0470 -0.7609
 7926SOL    HW135240   0.467   1.659   5.155  0.8805 -0.3253  1.4514
 7926SOL    HW235241   0.585   1.730   5.197 -0.5801  0.4171  0.1701
 7927SOL     OW35242   2.003   0.376   6.643 -0.3529  0.3667 -0.3795
 7927SOL    HW135243   1.946   0.316   6.595  0.5664 -1.4947  0.8593
 7927SOL    HW235244   2.059   0.312   6.687 -0.0278  1.7752  1.2119
 7928SOL     OW35245   0.677   1.927  12.820 -0.1800  0.2326  0.1584
 7928SOL    HW135246   0.636   1.918  12.906  1.3822 -0.9967  0.7617
 7928SOL    HW235247   0.632   1.857  12.773 -3.2555 -0.5668  4.2837
 7929SOL     OW35248   2.977   1.095   9.280  0.1359  0.2248 -0.0248
 7929SOL    HW135249   2.922   1.083   9.358 -0.3307 -1.9901 -0.6963
 7929SOL    HW235250   3.051   1.135   9.325 -0.2338 -0.4762  1.2430
 7930SOL     OW35251   1.821   0.126   4.522 -0.5410  0.1788  0.7934
 7930SOL    HW135252   1.876   0.169   4.587  1.5533  0.0805 -0.9351
 7930SOL    HW235253   1.745   0.110   4.579 -2.7485 -1.3465 -2.6275
 7931SOL     OW35254   4.318   4.684   3.894 -0.0416 -0.1241 -0.1715
 7931SOL    HW135255   4.317   4.607   3.951 -1.2594  0.0631  0.0529
 7931SOL    HW235256   4.383   4.657   3.829 -0.8388  2.3759 -2.0215
 7932SOL     OW35257   3.780   3.191  10.527 -0.2815 -0.9459 -0.4875
 7932SOL    HW135258   3.834   3.228  10.457 -1.2933 -1.4387 -1.5427
 7932SOL    HW235259   3.697   3.239  10.517  0.4309  0.1796 -0.9525
 7933SOL     OW35260   3.810   2.534   4.932 -0.4910  0.5475  0.2259
 7933SOL    HW135261   3.875   2.472   4.965  0.4563  0.9531 -0.9044
 7933SOL    HW235262   3.762   2.565   5.010 -1.0856  1.1325 -0.3709
 7934SOL     OW35263   0.175   1.431   8.912 -0.2526  0.1809  0.4092
 7934SOL    HW135264   0.217   1.357   8.868  1.5526  1.8625 -0.6395
 7934SOL    HW235265   0.246   1.469   8.963 -1.2932  1.9178  0.5582
 7935SOL     OW35266   3.915   4.305   5.060  1.0251  0.4096  0.6416
 7935SOL    HW135267   4.007   4.304   5.085  0.4147 -0.8410  2.7790
 7935SOL    HW235268   3.911   4.229   5.002 -1.0180 -0.4894  1.9584
 7936SOL     OW35269   2.264   4.432   3.565  0.5271  0.3599 -0.0847
 7936SOL    HW135270   2.226   4.346   3.544 -2.2059  1.5542 -0.0742
 7936SOL    HW235271   2.241   4.480   3.485 -1.5720 -1.9928 -0.9118
 7937SOL     OW35272   1.580   0.773  12.842 -0.7561  0.1803  0.8427
 7937SOL    HW135273   1.586   0.864  12.815  0.2783  0.2971  1.4849
 7937SOL    HW235274   1.501   0.746  12.794 -1.0964  2.3755  0.1580
 7938SOL     OW35275   4.259   2.913  10.146 -0.1524  0.4873 -0.1162
 7938SOL    HW135276   4.320   2.985  10.164  1.3126 -0.5124 -1.1300
 7938SOL    HW235277   4.193   2.942  10.084 -0.9625  2.2486  1.5707
 7939SOL     OW35278   1.788   4.662   4.055  0.2281 -0.6488 -0.7576
 7939SOL    HW135279   1.760   4.610   3.980 -2.6572 -0.3625  0.1383
 7939SOL    HW235280   1.851   4.609   4.104  2.2292  0.9061 -1.6716
 7940SOL     OW35281   0.223   4.038  10.084  0.0699 -0.2338 -0.1532
 7940SOL    HW135282   0.259   3.963  10.038  0.7160 -1.2501  1.9911
 7940SOL    HW235283   0.141   4.050  10.036  0.1696  1.2565  0.0569
 7941SOL     OW35284   3.252   0.566   3.473 -0.2329 -0.3746  0.7579
 7941SOL    HW135285   3.253   0.660   3.454  1.7396 -0.1440  2.0083
 7941SOL    HW235286   3.295   0.521   3.401  1.5530  0.1489  1.5091
 7942SOL     OW35287   4.076   2.778   4.559 -0.3927 -0.3915 -0.0093
 7942SOL    HW135288   3.998   2.741   4.600  0.8065  0.8993  3.4058
 7942SOL    HW235289   4.020   2.823   4.495  0.1200  1.7759  1.0790
 7943SOL     OW35290   4.404   1.559   6.978 -0.1942  0.0119  0.0573
 7943SOL    HW135291   4.386   1.638   7.029  2.7462  0.1272  0.9149
 7943SOL    HW235292   4.492   1.584   6.949 -0.2150 -0.1692 -0.1570
 7944SOL     OW35293   2.216   2.563  15.205  0.1726  0.2448  0.0458
 7944SOL    HW135294   2.156   2.542  15.134 -1.6811  0.4610  1.5471
 7944SOL    HW235295   2.259   2.642  15.173 -1.6255  0.8122 -0.9459
 7945SOL     OW35296   2.062   1.251  13.271 -0.0460  0.1293 -0.0332
 7945SOL    HW135297   2.120   1.202  13.213 -1.0696  0.1397 -1.0744
 7945SOL    HW235298   2.116   1.296  13.336 -0.0007 -0.8640  0.6144
 7946SOL     OW35299   3.953   1.946   5.811 -0.3518 -0.4711  0.9927
 7946SOL    HW135300   3.988   2.009   5.874  0.4318  3.0771 -2.9605
 7946SOL    HW235301   3.939   2.001   5.733  1.0230 -1.0196  0.3725
 7947SOL     OW35302   3.165   1.607   2.804 -0.6247 -0.1500 -0.1160
 7947SOL    HW135303   3.231   1.549   2.840  0.4896  0.0253 -1.8510
 7947SOL    HW235304   3.211   1.690   2.792  0.4309 -0.4256  2.1210
 7948SOL     OW35305   1.544   4.271   7.411  0.7703  0.2097  0.1444
 7948SOL    HW135306   1.470   4.325   7.380  1.2348 -0.4668 -2.1958
 7948SOL    HW235307   1.504   4.200   7.460  0.2861  1.7750  2.0175
 7949SOL     OW35308   2.819   1.327   4.952  0.3990 -0.2445 -0.2544
 7949SOL    HW135309   2.725   1.337   4.933  0.2400  0.8334  1.1147
 7949SOL    HW235310   2.830   1.343   5.046 -1.8797 -2.7162  0.4330
 7950SOL     OW35311   1.197   3.117   6.167  0.4940  0.3185  0.6353
 7950SOL    HW135312   1.258   3.074   6.227  0.2474 -2.5458 -1.1788
 7950SOL    HW235313   1.226   3.076   6.086 -2.7632  0.6265 -0.6847
 7951SOL     OW35314   2.428   3.972   5.485 -0.8901  0.5684 -0.3183
 7951SOL    HW135315   2.420   4.023   5.566  1.9865  0.3028  0.1358
 7951SOL    HW235316   2.514   3.935   5.501 -0.3491  1.0774 -2.0371
 7952SOL     OW35317   4.043   3.862   1.648 -0.2792 -0.2709 -0.6418
 7952SOL    HW135318   4.107   3.874   1.719 -1.6018  1.6939  0.2330
 7952SOL    HW235319   3.960   3.865   1.696  0.2751 -3.2789  0.4962
 7953SOL     OW35320   2.366   0.709   6.855 -0.2332 -0.1481  0.3865
 7953SOL    HW135321   2.359   0.687   6.762 -0.5411 -0.6009  0.5209
 7953SOL    HW235322   2.453   0.750   6.861  0.9689 -2.5716 -0.5481
 7954SOL     OW35323   3.865   4.421   6.460 -0.2950  0.1515  0.2467
 7954SOL    HW135324   3.946   4.451   6.419 -0.8020  2.0651  0.6623
 7954SOL    HW235325   3.901   4.352   6.517  0.6195  1.0517  0.7422
 7955SOL     OW35326   2.463   2.119   8.096 -0.7438  0.4355 -0.3476
 7955SOL    HW135327   2.492   2.035   8.060  1.1940 -0.0864  2.5292
 7955SOL    HW235328   2.380   2.093   8.137  1.0256  0.9152  3.4417
 7956SOL     OW35329   4.132   2.631   2.012  0.1813 -0.1664 -0.1799
 7956SOL    HW135330   4.147   2.542   2.043  0.0505  0.1293  0.7391
 7956SOL    HW235331   4.203   2.646   1.949 -0.6912  1.2029 -0.8490
 7957SOL     OW35332   1.866   0.386  15.665 -0.0886  0.2772  0.0616
 7957SOL    HW135333   1.907   0.472  15.675 -3.8676  2.2761 -1.7486
 7957SOL    HW235334   1.923   0.350  15.598  0.6378  1.1627  0.1999
 7958SOL     OW35335   2.530   4.181   6.738  0.5522  0.0055 -0.8364
 7958SOL    HW135336   2.554   4.101   6.784 -0.2815 -0.5066 -1.2837
 7958SOL    HW235337   2.468   4.204   6.808  0.8397 -0.0523 -0.5612
 7959SOL     OW35338   3.363   2.176  17.196 -0.3160  0.1026 -0.4647
 7959SOL    HW135339   3.361   2.129  17.280 -0.9762  0.6013 -0.1995
 7959SOL    HW235340   3.330   2.261  17.226 -0.9510 -0.2997 -0.0133
 7960SOL     OW35341   0.712   4.502  15.277 -0.1133 -0.2701 -0.0261
 7960SOL    HW135342   0.707   4.409  15.255  0.7810 -0.1932 -0.5173
 7960SOL    HW235343   0.795   4.505  15.323  1.1143 -0.0145 -2.2757
 7961SOL     OW35344   3.349   1.322  10.923  0.0571 -0.2403  0.1232
 7961SOL    HW135345   3.362   1.383  10.850  0.8551  0.1430  0.5866
 7961SOL    HW235346   3.425   1.328  10.982  0.5862  0.4479 -0.6295
 7962SOL     OW35347   4.617   3.709   0.961  0.2403 -0.0715  0.7073
 7962SOL    HW135348   4.614   3.780   0.897 -1.0130 -0.8315 -0.0782
 7962SOL    HW235349   4.702   3.673   0.936  0.3286  2.3769 -2.5763
 7963SOL     OW35350   3.444   2.564   2.185  0.2070 -0.0468  0.0718
 7963SOL    HW135351   3.538   2.545   2.191  0.0138  0.0638  3.2642
 7963SOL    HW235352   3.446   2.659   2.195 -1.3789  0.1728 -1.7810
 7964SOL     OW35353   0.907   1.496   2.496  0.0985 -0.8606  0.4761
 7964SOL    HW135354   1.003   1.495   2.502  0.2067  1.8652 -0.6693
 7964SOL    HW235355   0.887   1.589   2.497 -2.0186 -1.3082 -0.1073
 7965SOL     OW35356   1.726   0.724   7.240  0.1765 -0.0335  0.2633
 7965SOL    HW135357   1.660   0.764   7.297 -0.5795 -0.7973 -0.0716
 7965SOL    HW235358   1.772   0.651   7.281 -1.4477 -0.2862  1.6173
 7966SOL     OW35359   4.504   3.768  15.757  0.4558  0.4708 -0.3293
 7966SOL    HW135360   4.541   3.757  15.669  0.2965 -1.7951 -0.0998
 7966SOL    HW235361   4.541   3.855  15.771 -0.3780  0.7607  0.0802
 7967SOL     OW35362   2.558   3.421   8.175  0.0209  0.4020  0.3877
 7967SOL    HW135363   2.593   3.510   8.166 -1.1341  0.7740 -0.4843
 7967SOL    HW235364   2.549   3.428   8.270 -0.5042  0.9163  0.3025
 7968SOL     OW35365   1.332   1.062   8.471 -0.1107  0.2323 -0.8787
 7968SOL    HW135366   1.252   1.114   8.477 -0.3193 -0.2701  0.8048
 7968SOL    HW235367   1.375   1.096   8.550  0.4070 -3.8539  0.6163
 7969SOL     OW35368   2.209   0.568  14.338 -0.0306  0.2904 -0.7770
 7969SOL    HW135369   2.211   0.542  14.430  1.2057  0.6031 -0.7182
 7969SOL    HW235370   2.150   0.506  14.293 -0.0853  0.4910 -0.9824
 7970SOL     OW35371   2.289   4.715  12.212  0.1831  0.0291 -0.9707
 7970SOL    HW135372   2.244   0.058  12.162  0.6642  0.7674 -0.3987
 7970SOL    HW235373   2.367   0.042  12.230 -0.6268  0.3653  1.5685
 7971SOL     OW35374   3.177   2.671  15.964 -0.3078 -0.1249 -0.1380
 7971SOL    HW135375   3.254   2.710  15.924 -1.2479  1.9697  0.0351
 7971SOL    HW235376   3.153   2.742  16.024 -0.4965 -2.2173  2.2614
 7972SOL     OW35377   1.826   2.124   5.673 -0.2238  0.0831  0.0150
 7972SOL    HW135378   1.775   2.129   5.593  0.1508  0.0599 -0.2262
 7972SOL    HW235379   1.912   2.144   5.637 -0.0386 -0.2845  0.2527
 7973SOL     OW35380   2.364   3.335   0.557  0.5390  0.4481  0.3353
 7973SOL    HW135381   2.307   3.275   0.510  2.1596 -1.8031  1.2100
 7973SOL    HW235382   2.382   3.407   0.497 -2.1977  1.2674  0.5310
 7974SOL     OW35383   0.067   0.686   3.288 -0.4813 -0.0478  0.0887
 7974SOL    HW135384   0.050   0.762   3.233 -1.1061 -2.0139 -2.4202
 7974SOL    HW235385   0.134   0.709   3.352 -0.5626 -0.9185  0.4870
 7975SOL     OW35386   1.762   3.869  17.622  0.5249  0.0277 -0.4067
 7975SOL    HW135387   1.727   3.936  17.565  0.3720 -0.0085 -0.3547
 7975SOL    HW235388   1.732   3.792  17.574 -3.2292  1.0875  0.2774
 7976SOL     OW35389   1.052   1.374   6.360 -0.2599 -0.1245 -0.2781
 7976SOL    HW135390   1.094   1.303   6.409  2.0582  1.4169 -0.0542
 7976SOL    HW235391   1.053   1.449   6.419 -0.6815  0.5929 -1.1712
 7977SOL     OW35392   3.086   0.260  16.299 -0.1458  0.1820  0.1523
 7977SOL    HW135393   3.028   0.185  16.291  0.4111 -0.1768 -0.5891
 7977SOL    HW235394   3.151   0.230  16.235 -0.5113 -1.3472  0.5056
 7978SOL     OW35395   2.761   0.566  10.192 -0.1056  0.0670  0.2895
 7978SOL    HW135396   2.751   0.476  10.223 -1.1785  0.8535  2.2223
 7978SOL    HW235397   2.855   0.582  10.200 -0.6070  1.8369  2.3931
 7979SOL     OW35398   2.610   4.617  16.497 -0.0297  0.1435  0.0463
 7979SOL    HW135399   2.613   4.605  16.592  1.8921 -2.3921 -0.3261
 7979SOL    HW235400   2.520   4.649  16.493  0.4210  1.4239  0.1972
 7980SOL     OW35401   3.117   3.204  16.674 -0.0636 -0.5955 -0.5197
 7980SOL    HW135402   3.114   3.204  16.579  2.5363  2.5487 -0.6149
 7980SOL    HW235403   3.029   3.172  16.693 -0.9411  0.4901 -2.8350
 7981SOL     OW35404   3.488   0.266   7.606 -0.3318  0.5913 -0.0526
 7981SOL    HW135405   3.473   0.174   7.584 -0.4225  0.8251 -0.9514
 7981SOL    HW235406   3.400   0.301   7.617 -0.8765 -0.2628 -1.8035
 7982SOL     OW35407   1.838   2.741   5.707  0.2107 -0.3112 -0.4177
 7982SOL    HW135408   1.811   2.784   5.626  0.1752  0.1499 -0.1627
 7982SOL    HW235409   1.826   2.648   5.686 -2.8737 -0.7086  3.1537
 7983SOL     OW35410   2.053   0.342  14.528 -0.6007  0.3911  0.5231
 7983SOL    HW135411   2.002   0.345  14.447  1.6996 -1.2324 -0.9732
 7983SOL    HW235412   1.980   0.358  14.589 -1.0502 -2.6675  0.7685
 7984SOL     OW35413   0.962   2.368   2.645  0.3225 -0.4702 -0.0828
 7984SOL    HW135414   0.945   2.276   2.623  0.0081 -0.4783  0.2023
 7984SOL    HW235415   0.983   2.413   2.563 -0.4138 -0.6796 -0.3848
 7985SOL     OW35416   4.318   2.451   6.940 -0.2114  0.4197  0.2056
 7985SOL    HW135417   4.345   2.423   6.852 -0.4365 -0.2926  0.3628
 7985SOL    HW235418   4.312   2.365   6.981 -3.0441  0.2137 -0.6291
 7986SOL     OW35419   2.074   2.759  14.704  0.4829 -0.0203  0.4401
 7986SOL    HW135420   1.983   2.744  14.730  0.8775 -0.9205  1.3086
 7986SOL    HW235421   2.062   2.767  14.610 -0.4126 -1.9455  0.3890
 7987SOL     OW35422   0.679   1.991  13.098  0.3571  0.3225 -1.1021
 7987SOL    HW135423   0.633   2.066  13.134 -0.0914 -0.9744  1.0000
 7987SOL    HW235424   0.763   2.005  13.142 -0.2934  0.9248 -0.0564
 7988SOL     OW35425   4.507   3.397   2.687  0.3096 -0.3455  0.5569
 7988SOL    HW135426   4.548   3.444   2.759  0.2146  0.8656 -0.1720
 7988SOL    HW235427   4.463   3.322   2.728 -0.8234  0.1140  0.2008
 7989SOL     OW35428   1.141   2.266   2.283 -0.4476  0.0135 -0.2116
 7989SOL    HW135429   1.052   2.300   2.273 -0.9252 -0.9366  0.7906
 7989SOL    HW235430   1.172   2.287   2.195 -0.7073 -0.1402 -0.3380
 7990SOL     OW35431   3.849   0.003   8.102 -0.5614 -0.1604 -0.4687
 7990SOL    HW135432   3.861   0.097   8.089 -2.4486  0.1768  0.3519
 7990SOL    HW235433   3.898   4.710   8.181 -1.2990 -1.4220 -0.3098
 7991SOL     OW35434   3.275   4.386   3.831  0.2069  0.2573 -0.3866
 7991SOL    HW135435   3.368   4.364   3.833  0.5358  1.7726  1.0835
 7991SOL    HW235436   3.273   4.413   3.739  1.6281  1.4048 -0.0852
 7992SOL     OW35437   3.726   1.148  12.490  0.8122  0.2147 -0.4008
 7992SOL    HW135438   3.778   1.108  12.420 -1.0914 -1.4426 -0.8562
 7992SOL    HW235439   3.795   1.199  12.530  0.1660  1.9902 -1.5478
 7993SOL     OW35440   2.011   4.395   6.310  0.7377  0.0099 -0.4431
 7993SOL    HW135441   2.040   4.444   6.233  1.6329 -2.1104 -1.4704
 7993SOL    HW235442   1.987   4.310   6.271  1.6667 -0.5298  0.1531
 7994SOL     OW35443   3.375   3.654   7.796  0.3876  0.0184 -0.3156
 7994SOL    HW135444   3.442   3.693   7.739  0.9567 -0.1285  0.2482
 7994SOL    HW235445   3.428   3.600   7.855 -1.5866  0.5271  1.9458
 7995SOL     OW35446   2.572   0.404  15.125 -0.9947 -0.3892  0.2885
 7995SOL    HW135447   2.552   0.342  15.055  0.0479  0.7876 -1.0433
 7995SOL    HW235448   2.641   0.360  15.175 -1.6011 -1.0867  0.5009
 7996SOL     OW35449   2.771   0.828   6.249  0.0709  0.2957 -0.4067
 7996SOL    HW135450   2.846   0.769   6.253 -0.7681 -0.8560 -1.8393
 7996SOL    HW235451   2.758   0.861   6.338 -3.0307 -2.4523  0.1648
 7997SOL     OW35452   0.359   2.621   6.159 -0.1985 -0.5534 -0.6202
 7997SOL    HW135453   0.419   2.687   6.194  1.3361 -0.9816 -2.3953
 7997SOL    HW235454   0.408   2.571   6.094  1.3264 -2.6923  2.1877
 7998SOL     OW35455   3.214   2.817   2.680  0.1941  0.2725 -0.1585
 7998SOL    HW135456   3.137   2.770   2.712  0.9395 -0.0367  1.1912
 7998SOL    HW235457   3.188   2.909   2.672 -1.0085 -0.0084  0.4181
 7999SOL     OW35458   2.529   2.756   7.121 -0.2516  0.4704  0.2608
 7999SOL    HW135459   2.437   2.781   7.109 -0.5226 -0.5852  0.1893
 7999SOL    HW235460   2.558   2.828   7.177 -0.1103  3.2059 -3.2560
 8000SOL     OW35461   0.686   2.380   4.372  0.3718 -0.2531 -0.1569
 8000SOL    HW135462   0.673   2.320   4.445  1.6192  1.2732  1.3074
 8000SOL    HW235463   0.753   2.328   4.326  0.4833 -0.8332  0.6608
 8001SOL     OW35464   1.665   1.394   5.339  0.2235  0.2103 -0.1209
 8001SOL    HW135465   1.662   1.306   5.301  2.1114 -1.4532  3.5712
 8001SOL    HW235466   1.687   1.368   5.428 -0.3226  1.2057  0.3042
 8002SOL     OW35467   1.215   0.656   8.642  0.6013 -0.3416  0.1324
 8002SOL    HW135468   1.257   0.626   8.722 -2.2738 -0.4486  1.6226
 8002SOL    HW235469   1.158   0.581   8.623  0.0738 -0.0744  0.6452
 8003SOL     OW35470   1.371   3.833   2.742  0.4684  0.4193  0.3737
 8003SOL    HW135471   1.383   3.859   2.833 -1.1724  3.0085 -0.1571
 8003SOL    HW235472   1.283   3.863   2.721  1.2417  2.3079 -0.1533
 8004SOL     OW35473   0.923   2.376   5.565 -0.4624 -0.0660 -0.0135
 8004SOL    HW135474   0.831   2.397   5.580 -0.1355  0.3699  1.3884
 8004SOL    HW235475   0.957   2.464   5.581 -2.3090  0.6710 -0.0789
 8005SOL     OW35476   3.184   4.404   6.401  0.4177 -0.1565  0.1730
 8005SOL    HW135477   3.212   4.316   6.425 -0.5296 -0.2131  1.1116
 8005SOL    HW235478   3.092   4.386   6.382  0.6628 -0.5304 -0.6653
 8006SOL     OW35479   4.541   0.360   7.097 -0.1089  0.6962  0.3035
 8006SOL    HW135480   4.487   0.392   7.169 -1.7545  1.5044 -1.2879
 8006SOL    HW235481   4.468   0.347   7.036 -0.3997  0.6758  0.6497
 8007SOL     OW35482   1.656   2.837   5.498  0.3500 -0.1841  0.2288
 8007SOL    HW135483   1.628   2.752   5.463  1.4069  0.4690 -2.2263
 8007SOL    HW235484   1.640   2.887   5.418  0.8210  1.5181  1.2173
 8008SOL     OW35485   2.429   3.327   6.074 -0.4784 -0.6308  0.1052
 8008SOL    HW135486   2.396   3.237   6.066 -1.4807 -0.2732  0.2275
 8008SOL    HW235487   2.524   3.317   6.069 -0.4304 -1.3030  2.2639
 8009SOL     OW35488   0.974   4.150   4.357 -0.2569  0.2596  0.0959
 8009SOL    HW135489   0.914   4.079   4.333  0.0895 -0.2891  0.8617
 8009SOL    HW235490   0.942   4.209   4.288  1.4275  2.0894  0.8879
 8010SOL     OW35491   1.367   1.415   1.875 -0.3547  0.1573  0.5273
 8010SOL    HW135492   1.376   1.330   1.831 -1.7915  0.0499  0.4379
 8010SOL    HW235493   1.359   1.382   1.965  0.3842 -2.3609 -0.3238
 8011SOL     OW35494   3.263   4.005   7.708 -0.3338  0.3190 -0.3367
 8011SOL    HW135495   3.191   4.068   7.702 -0.1560  0.4210 -1.3761
 8011SOL    HW235496   3.228   3.947   7.776 -1.0437 -0.8640 -1.7007
 8012SOL     OW35497   2.843   4.187  16.858 -0.5696 -0.0213 -0.6429
 8012SOL    HW135498   2.898   4.217  16.785 -0.0859  4.2186  1.4530
 8012SOL    HW235499   2.785   4.119  16.825  0.3043 -0.9731 -0.2139
 8013SOL     OW35500   2.397   2.810   3.457  0.1499  0.1900 -0.0349
 8013SOL    HW135501   2.367   2.901   3.466 -2.8390 -0.9937  2.1553
 8013SOL    HW235502   2.488   2.814   3.486  0.0884  0.1379  0.1679
 8014SOL     OW35503   4.160   0.940  14.359  0.2935 -0.1814 -0.3083
 8014SOL    HW135504   4.205   1.004  14.413 -0.4110  0.5093 -0.5396
 8014SOL    HW235505   4.107   0.890  14.421 -1.2180 -0.4741 -1.8230
 8015SOL     OW35506   3.734   3.560   4.677 -0.5828 -0.2422  0.0498
 8015SOL    HW135507   3.662   3.499   4.659 -0.9243 -0.4657  2.1091
 8015SOL    HW235508   3.745   3.608   4.595  0.0449  1.1137  0.9404
 8016SOL     OW35509   3.541   3.486   4.067 -0.6541 -0.0944  0.3254
 8016SOL    HW135510   3.612   3.461   4.125  0.8788 -0.3244 -1.6753
 8016SOL    HW235511   3.570   3.574   4.044 -1.5727 -0.3825 -1.8839
 8017SOL     OW35512   0.596   3.919   4.880  0.1685 -0.2242  0.6558
 8017SOL    HW135513   0.516   3.920   4.827 -0.2961  1.4759  1.4102
 8017SOL    HW235514   0.557   3.917   4.967  0.7517 -0.8354  0.9041
 8018SOL     OW35515   0.913   2.273   8.924  0.3123 -0.2604 -0.4843
 8018SOL    HW135516   0.960   2.252   8.843  2.3652 -0.1135  0.6814
 8018SOL    HW235517   0.878   2.187   8.944  1.7140 -0.9486 -1.0341
 8019SOL     OW35518   0.804   3.967   4.286  0.5369 -0.1536 -0.2296
 8019SOL    HW135519   0.784   3.932   4.199  0.2323 -1.1545  0.2371
 8019SOL    HW235520   0.714   3.974   4.318  0.5627 -0.8397  0.0112
 8020SOL     OW35521   2.454   4.165  17.458 -0.4924  0.4016  0.5219
 8020SOL    HW135522   2.460   4.174  17.553  0.6610  0.1522  0.4795
 8020SOL    HW235523   2.390   4.233  17.436  0.2712  0.3137 -2.0442
 8021SOL     OW35524   0.085   0.912   6.663  0.1569 -0.6064  0.4398
 8021SOL    HW135525   0.088   0.923   6.758 -2.3405 -1.3671  0.5990
 8021SOL    HW235526   0.016   0.976   6.645  0.2719 -0.6600 -0.2218
 8022SOL     OW35527   3.554   2.447   6.072  0.3974  0.0987 -0.3448
 8022SOL    HW135528   3.474   2.470   6.120 -0.9703 -0.3379 -2.3806
 8022SOL    HW235529   3.523   2.368   6.027  4.8310 -1.1541 -1.2004
 8023SOL     OW35530   4.030   0.372   9.553  0.3215 -0.1306 -0.5555
 8023SOL    HW135531   3.984   0.456   9.554 -0.2416 -0.4508  0.7434
 8023SOL    HW235532   4.017   0.348   9.645  1.6712 -0.5324 -0.4690
 8024SOL     OW35533   0.768   3.356  17.366  0.0082 -0.0402  0.3423
 8024SOL    HW135534   0.808   3.288  17.311  2.9376  1.7462  0.2736
 8024SOL    HW235535   0.788   3.327  17.455 -1.1549  1.5521  1.1252
 8025SOL     OW35536   3.380   1.731   8.366 -0.0985 -0.4828  0.3199
 8025SOL    HW135537   3.295   1.687   8.361 -0.4437  0.1554  0.5648
 8025SOL    HW235538   3.414   1.666   8.427 -0.5415  0.8321  1.9694
 8026SOL     OW35539   2.190   0.057  16.583  0.2803  0.0929  0.0401
 8026SOL    HW135540   2.263   0.054  16.520  1.1639  0.3230  1.0529
 8026SOL    HW235541   2.125   0.121  16.554 -2.0419 -0.9052  3.1735
 8027SOL     OW35542   3.759   0.473   3.386  0.3832  0.1214 -0.3015
 8027SOL    HW135543   3.835   0.527   3.370 -1.3953  2.3173 -1.2948
 8027SOL    HW235544   3.715   0.467   3.301 -0.9038  1.9763  0.2301
 8028SOL     OW35545   1.695   4.122   6.440  0.7693  0.4783  0.1202
 8028SOL    HW135546   1.612   4.096   6.480  0.8522 -2.1540 -1.4336
 8028SOL    HW235547   1.676   4.092   6.351  1.2395 -0.0667  0.2080
 8029SOL     OW35548   0.775   4.368   4.283 -0.1013 -0.4693  0.1957
 8029SOL    HW135549   0.688   4.361   4.322 -0.2777 -0.0799 -0.1280
 8029SOL    HW235550   0.758   4.330   4.196 -1.4999  0.2911  0.1381
 8030SOL     OW35551   1.367   3.992   8.744  0.1415 -0.5438  0.1204
 8030SOL    HW135552   1.392   4.029   8.828 -1.2479 -1.9289  1.1522
 8030SOL    HW235553   1.393   3.900   8.750  0.4447 -0.4480  0.2416
 8031SOL     OW35554   1.590   0.959  14.938 -0.4030  0.1392  0.2007
 8031SOL    HW135555   1.552   0.871  14.941 -0.0533 -0.1273 -3.0670
 8031SOL    HW235556   1.520   1.010  14.895 -0.1801 -0.1840 -0.5554
 8032SOL     OW35557   0.456   0.380   5.332  0.3411  0.1479  0.1540
 8032SOL    HW135558   0.448   0.461   5.382 -1.5798  0.9486 -1.4668
 8032SOL    HW235559   0.551   0.390   5.328  0.3013  0.1367 -0.7250
 8033SOL     OW35560   4.268   4.594   6.572  0.2079  0.3016 -0.6237
 8033SOL    HW135561   4.223   4.525   6.622 -0.3732  1.0885 -0.0668
 8033SOL    HW235562   4.340   4.542   6.536  0.6588  0.5781 -0.1218
 8034SOL     OW35563   2.368   1.136   3.592 -0.4030  0.3530  0.2971
 8034SOL    HW135564   2.413   1.199   3.537  0.2580 -0.6045 -0.2572
 8034SOL    HW235565   2.438   1.082   3.630 -1.0878 -1.4949 -1.0461
 8035SOL     OW35566   1.460   1.523   7.673  0.0489 -0.0814  0.1598
 8035SOL    HW135567   1.440   1.576   7.596 -2.7808 -0.4189  0.6724
 8035SOL    HW235568   1.529   1.461   7.649 -0.6009 -0.6009 -0.3461
 8036SOL     OW35569   3.575   0.075  14.455 -0.5321 -0.3561  0.3048
 8036SOL    HW135570   3.498   0.126  14.432 -0.1227  0.4652  0.7276
 8036SOL    HW235571   3.538   4.713  14.461  1.0896 -1.0986 -0.5301
 8037SOL     OW35572   3.205   0.910   8.548  0.2644  0.0154  0.4177
 8037SOL    HW135573   3.255   0.987   8.574 -0.5417  0.1256  1.6617
 8037SOL    HW235574   3.131   0.907   8.609  1.4950  0.3421  1.9294
 8038SOL     OW35575   4.297   2.988   4.484  0.2912 -0.1163 -0.3647
 8038SOL    HW135576   4.224   2.934   4.514  0.0260  0.1161 -0.5954
 8038SOL    HW235577   4.302   2.962   4.392 -3.5470  0.6815 -0.7981
 8039SOL     OW35578   1.114   0.208   9.245 -0.3296 -0.3682 -0.0800
 8039SOL    HW135579   1.121   0.115   9.267  1.6773  0.1748  1.5651
 8039SOL    HW235580   1.058   0.242   9.315  1.5026  1.2359  0.6059
 8040SOL     OW35581   2.439   3.295  17.096 -0.4020  0.3443 -0.1203
 8040SOL    HW135582   2.443   3.390  17.114  1.0618 -0.3358  3.2294
 8040SOL    HW235583   2.397   3.279  17.012 -2.7792 -1.5174  1.4126
 8041SOL     OW35584   3.001   0.843  10.524 -0.4619 -0.4338  0.3379
 8041SOL    HW135585   3.060   0.805  10.588 -1.4905 -0.7526  1.1022
 8041SOL    HW235586   2.976   0.914  10.583  0.0269 -0.9114  1.1082
 8042SOL     OW35587   0.166   1.511  11.205  0.4786 -0.0160 -0.0979
 8042SOL    HW135588   0.164   1.457  11.284  2.3133 -3.9768 -2.7805
 8042SOL    HW235589   0.251   1.554  11.214  0.8752 -0.9107  0.4240
 8043SOL     OW35590   0.633   3.200  11.756 -0.2025  0.8252 -0.6691
 8043SOL    HW135591   0.651   3.171  11.666 -1.6289  2.1673 -1.3709
 8043SOL    HW235592   0.606   3.291  11.741  0.0057  1.1551  0.9223
 8044SOL     OW35593   4.391   3.158   1.047  0.2298  0.5983 -0.2281
 8044SOL    HW135594   4.472   3.106   1.044 -0.1019  0.1737 -2.0355
 8044SOL    HW235595   4.408   3.211   0.969  0.2298  1.6420  0.4774
 8045SOL     OW35596   4.441   2.837   2.811 -0.3106  0.2127  0.1183
 8045SOL    HW135597   4.465   2.798   2.895  2.9906  1.2958 -0.3251
 8045SOL    HW235598   4.405   2.776   2.747 -0.9131  2.3780 -1.6072
 8046SOL     OW35599   3.824   2.705  12.253  0.3886 -0.1713  0.0977
 8046SOL    HW135600   3.915   2.680  12.237  0.8648 -0.0429  2.6055
 8046SOL    HW235601   3.784   2.620  12.240 -0.2097  0.1858 -0.3870
 8047SOL     OW35602   1.712   3.278  10.711  0.2755  0.3232  0.4888
 8047SOL    HW135603   1.658   3.204  10.684  1.7472 -1.2224  1.7570
 8047SOL    HW235604   1.718   3.316  10.623 -1.3202  0.9837  0.6694
 8048SOL     OW35605   2.712   4.155   6.508 -0.0073  0.3155  0.0172
 8048SOL    HW135606   2.666   4.205   6.441 -0.9726  2.1911  2.0896
 8048SOL    HW235607   2.654   4.151   6.584 -0.1243 -2.7267 -0.2539
 8049SOL     OW35608   3.842   0.528   0.818  0.5947  0.1360 -0.6234
 8049SOL    HW135609   3.888   0.449   0.793  3.8512  1.6397  0.7035
 8049SOL    HW235610   3.889   0.604   0.783  1.1147  0.1114  0.0491
 8050SOL     OW35611   2.033   2.126   2.012 -0.3926 -0.2382  0.6305
 8050SOL    HW135612   2.121   2.149   1.981 -0.8110  1.4404  0.7016
 8050SOL    HW235613   2.002   2.214   2.033 -0.7830 -0.1144 -0.5106
 8051SOL     OW35614   0.110   4.127   6.090  0.2942 -0.8264  0.1744
 8051SOL    HW135615   0.185   4.081   6.128  0.4034  0.5067  1.5971
 8051SOL    HW235616   0.075   4.179   6.163 -3.2231  0.9550 -2.7876
 8052SOL     OW35617   3.375   3.071   4.148 -0.1309 -0.0893  0.0067
 8052SOL    HW135618   3.333   3.000   4.100  2.2014 -2.5376  1.6077
 8052SOL    HW235619   3.296   3.125   4.156 -0.7309 -0.6773 -1.9310
 8053SOL     OW35620   1.580   1.114  13.849  0.6832  0.5689  0.0756
 8053SOL    HW135621   1.540   1.075  13.771 -0.4331  2.3148 -0.2310
 8053SOL    HW235622   1.640   1.042  13.869  2.0050  0.9071 -2.7524
 8054SOL     OW35623   0.847   0.729   6.112 -0.5565 -0.1921 -0.3056
 8054SOL    HW135624   0.761   0.693   6.136 -0.3691 -0.3166  0.1818
 8054SOL    HW235625   0.909   0.659   6.129  1.0320  1.9164  2.6945
 8055SOL     OW35626   1.749   0.060   8.036 -0.3167 -0.5423 -0.4194
 8055SOL    HW135627   1.791   4.714   7.988  0.0440 -0.1392 -0.7074
 8055SOL    HW235628   1.730   0.026   8.123  0.4620  0.6576  0.2233
 8056SOL     OW35629   4.099   2.116   5.109 -0.3487 -0.5514  0.0573
 8056SOL    HW135630   4.060   2.075   5.031 -1.5072 -1.1886  0.9572
 8056SOL    HW235631   4.028   2.127   5.172  0.3607  0.8834  0.6038
 8057SOL     OW35632   0.094   2.678  14.371 -0.4574 -1.1537 -0.4101
 8057SOL    HW135633   0.073   2.607  14.431  0.0258 -2.5148 -1.8726
 8057SOL    HW235634   0.163   2.642  14.315  1.3827 -0.3428  1.3116
 8058SOL     OW35635   1.617   0.703   5.175 -0.0559  0.5636 -0.2522
 8058SOL    HW135636   1.616   0.733   5.266 -1.6211 -0.3831  0.0485
 8058SOL    HW235637   1.522   0.700   5.163 -0.1210  0.7130  0.2251
 8059SOL     OW35638   0.877   3.605   8.200  0.3008  0.5113  0.5123
 8059SOL    HW135639   0.969   3.628   8.214  0.1473  0.4375  1.5954
 8059SOL    HW235640   0.850   3.696   8.195 -0.4720  0.1563 -1.8427
 8060SOL     OW35641   1.105   2.779   0.602  0.1966  0.1286 -0.3279
 8060SOL    HW135642   1.077   2.717   0.669 -1.0477 -0.1879 -1.1399
 8060SOL    HW235643   1.199   2.796   0.611  0.0551  1.9238 -2.1643
 8061SOL     OW35644   2.799   2.267   5.485 -0.7633 -0.4692  0.1577
 8061SOL    HW135645   2.892   2.285   5.471 -0.7522 -1.2267 -0.7850
 8061SOL    HW235646   2.766   2.294   5.400  0.2991 -0.2154 -0.1778
 8062SOL     OW35647   0.613   0.117  17.252  0.1502 -0.7468 -0.1432
 8062SOL    HW135648   0.597   0.202  17.212 -2.6300 -0.4230  1.6349
 8062SOL    HW235649   0.528   0.077  17.240 -0.7346  0.3650  2.3367
 8063SOL     OW35650   0.004   3.334   2.534  0.1513  0.1865 -0.0965
 8063SOL    HW135651   4.671   3.365   2.603  1.5916  0.1528  1.1500
 8063SOL    HW235652   0.031   3.244   2.551 -2.4595 -0.8905 -1.6430
 8064SOL     OW35653   1.618   2.856   7.575  0.1963  0.0496 -0.0084
 8064SOL    HW135654   1.602   2.809   7.493  0.0005  0.1083 -0.0040
 8064SOL    HW235655   1.682   2.794   7.609  1.4230  1.5526  0.4189
 8065SOL     OW35656   3.892   1.840  12.783 -0.5779 -0.4681  0.8634
 8065SOL    HW135657   3.838   1.907  12.743  0.9085  1.1818  1.6059
 8065SOL    HW235658   3.969   1.892  12.807  0.9877 -2.2669 -0.1939
 8066SOL     OW35659   3.340   1.252   1.730  0.0371 -0.6049 -0.5090
 8066SOL    HW135660   3.309   1.222   1.645 -2.0621 -3.2533  1.1551
 8066SOL    HW235661   3.343   1.171   1.781  0.9839  0.3276  0.9168
 8067SOL     OW35662   2.465   2.292   3.906  0.2562  0.2167 -0.2763
 8067SOL    HW135663   2.469   2.250   3.992 -1.3716 -0.3589 -0.4787
 8067SOL    HW235664   2.528   2.237   3.860 -0.7329 -1.9705  0.9836
 8068SOL     OW35665   1.756   2.578   9.553  0.4782 -0.2491 -0.1976
 8068SOL    HW135666   1.838   2.554   9.511 -0.4310 -1.5902 -1.2053
 8068SOL    HW235667   1.700   2.583   9.476 -1.0698  0.6231  0.9754
 8069SOL     OW35668   0.534   0.978   4.339  0.0300  0.4078  0.3380
 8069SOL    HW135669   0.612   0.958   4.391 -1.1329 -3.7925  0.4095
 8069SOL    HW235670   0.559   1.065   4.306 -3.5159  1.4373  0.4382
 8070SOL     OW35671   3.048   3.963  16.043  0.7859 -0.2261 -0.2834
 8070SOL    HW135672   3.111   4.032  16.062  0.5323 -0.4470  1.3417
 8070SOL    HW235673   3.013   4.002  15.963  0.0719  0.8857  0.5813
 8071SOL     OW35674   1.206   0.554   7.458  0.0123  0.2067 -0.4122
 8071SOL    HW135675   1.203   0.467   7.419 -0.5462 -0.1454  0.4045
 8071SOL    HW235676   1.290   0.591   7.432  1.2922 -1.1447  1.7910
 8072SOL     OW35677   1.084   2.185   6.946  0.5361  0.2986  0.5103
 8072SOL    HW135678   1.154   2.120   6.944 -0.9888 -1.3140 -1.4058
 8072SOL    HW235679   1.118   2.240   6.876 -0.4389 -0.5135 -0.6209
 8073SOL     OW35680   0.313   1.204   2.151 -0.2087  0.1229 -0.0777
 8073SOL    HW135681   0.377   1.261   2.109 -0.0224  1.2676  1.7534
 8073SOL    HW235682   0.304   1.146   2.075  0.6851 -0.1898  0.0553
 8074SOL     OW35683   4.448   0.493   8.332  0.2161 -0.6474 -0.0212
 8074SOL    HW135684   4.447   0.533   8.419 -0.2896 -2.3793  0.7758
 8074SOL    HW235685   4.357   0.478   8.307  0.4688 -1.2220 -0.6136
 8075SOL     OW35686   4.049   0.417   1.485 -0.1389 -0.4097  0.0832
 8075SOL    HW135687   3.987   0.471   1.436  1.7586  0.6669 -1.1256
 8075SOL    HW235688   4.020   0.426   1.576 -0.5777  1.7477 -0.2878
 8076SOL     OW35689   4.712   2.982  12.762  0.3067 -0.2367 -0.0633
 8076SOL    HW135690   4.647   2.965  12.830 -0.1933  1.6897 -0.0522
 8076SOL    HW235691   0.049   3.034  12.814 -0.7534 -1.3784  2.3582
 8077SOL     OW35692   0.982   2.969   2.808  0.0509 -0.4856 -0.2302
 8077SOL    HW135693   1.007   3.045   2.860  0.1583 -0.5979 -0.1177
 8077SOL    HW235694   0.888   2.955   2.811  0.0856 -1.0067 -1.5366
 8078SOL     OW35695   4.533   1.321  15.622  0.6642 -0.2397 -1.0348
 8078SOL    HW135696   4.596   1.273  15.568  1.3114  2.7120 -2.9520
 8078SOL    HW235697   4.494   1.375  15.553  1.3994  1.5746 -0.0473
 8079SOL     OW35698   3.039   2.475   6.565  0.5049 -0.0606 -0.6533
 8079SOL    HW135699   2.981   2.402   6.583  1.9206 -1.4755 -1.8530
 8079SOL    HW235700   3.095   2.438   6.497  1.3583  0.7438 -0.3923
 8080SOL     OW35701   0.641   0.448   2.567  0.1382  1.0772  0.0332
 8080SOL    HW135702   0.657   0.519   2.505  1.4150 -1.0587 -2.1052
 8080SOL    HW235703   0.705   0.451   2.638  0.4488  0.5784 -0.2233
 8081SOL     OW35704   4.463   0.068  13.649 -0.2356 -0.0852  0.3895
 8081SOL    HW135705   4.514   0.146  13.670 -0.1219  0.7724 -3.0921
 8081SOL    HW235706   4.521   4.720  13.668  0.2872  0.4826  1.0218
 8082SOL     OW35707   3.950   2.337   2.464 -0.2124  0.1332  0.4526
 8082SOL    HW135708   4.019   2.403   2.469 -0.0504  0.1351 -2.0259
 8082SOL    HW235709   3.998   2.256   2.453 -0.2887  0.4427 -2.1089
 8083SOL     OW35710   2.748   3.435   9.043  0.3035 -0.0892 -0.2770
 8083SOL    HW135711   2.653   3.428   9.054  0.4871 -3.4881 -0.8479
 8083SOL    HW235712   2.781   3.357   9.088  0.3922 -1.5193 -2.8231
 8084SOL     OW35713   0.825   1.449  16.190  0.4198  0.3578 -0.7725
 8084SOL    HW135714   0.758   1.516  16.207 -1.0420 -1.1522 -0.5400
 8084SOL    HW235715   0.793   1.430  16.102  3.1210 -0.8750 -1.4737
 8085SOL     OW35716   1.084   3.308   9.677 -0.1765  0.7497  0.1159
 8085SOL    HW135717   1.064   3.224   9.637 -1.2852 -0.0315  2.2899
 8085SOL    HW235718   1.152   3.341   9.618  0.2984 -1.9408 -0.8492
 8086SOL     OW35719   1.390   3.738   5.061 -0.0266  0.7112  0.0911
 8086SOL    HW135720   1.296   3.723   5.059  0.5706 -2.9357  0.0914
 8086SOL    HW235721   1.411   3.765   4.972  0.1626 -0.3527 -0.1783
 8087SOL     OW35722   0.335   1.990  16.305 -0.6905 -0.2069 -0.0557
 8087SOL    HW135723   0.303   2.080  16.307 -3.0879 -1.0656  0.3515
 8087SOL    HW235724   0.254   1.941  16.321 -1.9949  0.8984 -3.2257
 8088SOL     OW35725   4.644   3.339  13.367 -0.5850 -0.2157 -0.4980
 8088SOL    HW135726   4.708   3.397  13.327  0.1931  0.0066  1.0628
 8088SOL    HW235727   4.643   3.269  13.302 -2.2817 -0.3959 -0.2658
 8089SOL     OW35728   3.791   1.738   8.163 -0.0508 -0.2120 -0.9701
 8089SOL    HW135729   3.879   1.773   8.182 -0.3286 -1.2622  2.1361
 8089SOL    HW235730   3.804   1.647   8.137 -0.8294 -0.7665  0.6290
 8090SOL     OW35731   2.296   0.543   9.405 -0.2868  0.1097 -0.3156
 8090SOL    HW135732   2.286   0.599   9.328 -0.6512  1.0988  0.4536
 8090SOL    HW235733   2.210   0.503   9.393 -0.4628  0.1198  0.9359
 8091SOL     OW35734   0.603   1.593   7.046 -0.2771 -0.1470  0.1566
 8091SOL    HW135735   0.534   1.642   7.093 -0.8654  1.0459 -1.9590
 8091SOL    HW235736   0.603   1.515   7.101  1.8244  0.4233  0.9493
 8092SOL     OW35737   4.296   2.857   7.065 -0.2387  0.2177  0.4530
 8092SOL    HW135738   4.370   2.801   7.088  2.0450  2.0921 -2.3424
 8092SOL    HW235739   4.267   2.819   6.982  0.4166  1.4297 -0.3399
 8093SOL     OW35740   3.404   4.058   7.276 -0.2974 -0.0211 -0.2996
 8093SOL    HW135741   3.462   4.050   7.351 -0.9474  2.3795  0.4566
 8093SOL    HW235742   3.352   4.129   7.314 -0.9086 -0.6814  0.1046
 8094SOL     OW35743   2.586   1.534   4.220  1.1594  0.0651 -0.3112
 8094SOL    HW135744   2.496   1.517   4.247  0.6619  0.9512 -1.4412
 8094SOL    HW235745   2.569   1.605   4.159  0.0554 -0.2743 -0.4000
 8095SOL     OW35746   3.845   2.745   6.703 -0.2438  0.0409 -0.3354
 8095SOL    HW135747   3.905   2.716   6.772 -0.4563  2.0059  0.6978
 8095SOL    HW235748   3.813   2.664   6.664  2.2019 -0.6864 -0.8318
 8096SOL     OW35749   3.672   4.393   4.822  0.2152 -0.0281 -0.3786
 8096SOL    HW135750   3.577   4.398   4.820  0.0319 -2.3017  1.5843
 8096SOL    HW235751   3.686   4.407   4.916  1.3789  1.7698 -0.8162
 8097SOL     OW35752   0.603   1.156   2.029 -0.1871  0.3917 -0.3716
 8097SOL    HW135753   0.599   1.251   2.044  1.7561  0.8052 -2.5510
 8097SOL    HW235754   0.682   1.128   2.073 -0.5010  0.9208  0.5301
 8098SOL     OW35755   1.807   0.991   5.737 -0.1607  0.6476 -0.3230
 8098SOL    HW135756   1.763   0.925   5.789  0.1821  0.0164 -0.8268
 8098SOL    HW235757   1.773   1.071   5.777 -0.4277  0.5434 -0.3397
 8099SOL     OW35758   4.005   0.788   2.855  0.8555 -0.3895  0.2146
 8099SOL    HW135759   3.960   0.723   2.802  0.8168  1.9285 -2.5974
 8099SOL    HW235760   3.930   0.843   2.879  0.3811 -1.1077  0.3777
 8100SOL     OW35761   2.783   1.842  14.777  0.1064  0.2575  0.0431
 8100SOL    HW135762   2.850   1.792  14.732 -2.8157 -2.3508 -1.3807
 8100SOL    HW235763   2.711   1.817  14.718 -0.3914  0.9838  0.3403
 8101SOL     OW35764   3.492   3.883   4.801  0.0344  0.2644 -0.3574
 8101SOL    HW135765   3.524   3.938   4.872  0.0104  0.9322 -0.8643
 8101SOL    HW235766   3.531   3.799   4.824 -0.7438 -0.0610 -0.2078
 8102SOL     OW35767   3.613   3.255  12.691  0.0809 -0.4200  0.1265
 8102SOL    HW135768   3.702   3.222  12.707  0.3286 -0.4391 -1.3431
 8102SOL    HW235769   3.619   3.273  12.597 -1.1526 -1.1735 -0.0894
 8103SOL     OW35770   3.476   1.895   3.728  0.4579 -0.1237 -0.3071
 8103SOL    HW135771   3.524   1.814   3.709 -0.9456 -1.2218  0.8847
 8103SOL    HW235772   3.543   1.962   3.741 -1.2404  1.6168 -0.5229
 8104SOL     OW35773   2.053   2.390  17.076 -0.1722 -0.8691  0.6050
 8104SOL    HW135774   2.066   2.424  16.988 -1.5149 -1.1498  0.3008
 8104SOL    HW235775   2.128   2.437  17.113 -0.4268  0.3071 -0.3803
 8105SOL     OW35776   1.946   2.411   9.115 -0.1546  0.0117  0.0406
 8105SOL    HW135777   1.973   2.503   9.124  1.1814 -0.4085  0.3348
 8105SOL    HW235778   1.912   2.422   9.026  0.3414  3.0160  0.2301
 8106SOL     OW35779   2.218   2.517   7.374  0.0762  0.2449 -0.6886
 8106SOL    HW135780   2.240   2.536   7.465 -0.6396 -0.9267 -0.2764
 8106SOL    HW235781   2.163   2.593   7.355 -0.3086 -0.1644 -1.1808
 8107SOL     OW35782   4.160   4.318   5.197  0.1839 -0.4880 -0.2373
 8107SOL    HW135783   4.229   4.351   5.254  0.2314 -0.5676 -0.2485
 8107SOL    HW235784   4.134   4.238   5.242 -1.4948  0.0588 -0.2201
 8108SOL     OW35785   0.272   2.743   7.378 -0.4729  0.4907  0.6386
 8108SOL    HW135786   0.315   2.659   7.389  1.1058  1.4199  1.5211
 8108SOL    HW235787   0.240   2.753   7.468  1.6560  0.9566  1.3329
 8109SOL     OW35788   2.749   4.080  12.194 -0.7842  0.0201  0.0438
 8109SOL    HW135789   2.696   4.016  12.243  0.4287 -0.0321  1.2679
 8109SOL    HW235790   2.833   4.053  12.231  0.5721  0.9832 -2.3676
 8110SOL     OW35791   1.310   1.961   6.630  0.5236 -0.1665  0.2925
 8110SOL    HW135792   1.351   1.877   6.607  0.6806 -0.0112  0.0052
 8110SOL    HW235793   1.222   1.947   6.597  0.8234  2.4960 -1.5989
 8111SOL     OW35794   2.356   3.839   6.093 -0.1388 -0.1655 -0.0979
 8111SOL    HW135795   2.375   3.817   6.184 -0.0684 -1.6887 -0.4784
 8111SOL    HW235796   2.353   3.751   6.055 -2.2890 -1.5980  3.4406
 8112SOL     OW35797   4.403   0.531   9.016 -1.1763  0.0158 -0.2412
 8112SOL    HW135798   4.447   0.495   8.939  1.1170 -0.1579  1.1485
 8112SOL    HW235799   4.484   0.555   9.061 -1.7852  0.1666  0.7877
 8113SOL     OW35800   0.833   4.644  15.920 -0.6284  0.0799  0.2057
 8113SOL    HW135801   0.858   4.587  15.992  1.1998  0.5758 -0.0280
 8113SOL    HW235802   0.861   0.003  15.956 -2.2545  0.8861 -0.4237
 8114SOL     OW35803   4.600   4.278   9.089 -0.5482 -0.6095  0.0058
 8114SOL    HW135804   4.605   4.205   9.028  1.3722 -1.5599  1.2932
 8114SOL    HW235805   4.692   4.299   9.074 -0.8685  0.5770 -0.2981
 8115SOL     OW35806   2.561   2.416   5.566 -0.0167  0.0157  0.0117
 8115SOL    HW135807   2.643   2.421   5.516 -0.5287 -0.9073 -0.9303
 8115SOL    HW235808   2.511   2.469   5.504 -1.4209 -0.8700  0.3988
 8116SOL     OW35809   4.135   3.081   6.665  0.2957  0.2144 -0.3081
 8116SOL    HW135810   4.230   3.086   6.657  0.4228  1.1838  1.7761
 8116SOL    HW235811   4.108   3.009   6.608  0.4366 -0.5661  0.6142
 8117SOL     OW35812   3.253   2.884  10.329  0.5798 -0.0906 -0.2876
 8117SOL    HW135813   3.333   2.927  10.360  0.1510  0.7601 -0.3496
 8117SOL    HW235814   3.269   2.865  10.237 -1.0009  1.3723 -0.8691
 8118SOL     OW35815   3.559   1.357   3.992  0.2411  0.3614 -0.5143
 8118SOL    HW135816   3.560   1.402   4.076 -0.0673 -2.7420  1.1423
 8118SOL    HW235817   3.651   1.334   3.979 -0.4777 -2.6102 -0.3152
 8119SOL     OW35818   3.359   3.738   3.735 -0.2653 -0.0153 -0.4139
 8119SOL    HW135819   3.273   3.734   3.778  0.7093  0.6852  1.6293
 8119SOL    HW235820   3.407   3.795   3.796 -0.3110 -1.1022  0.6301
 8120SOL     OW35821   3.069   3.820  16.409  0.0701 -0.1798  1.0471
 8120SOL    HW135822   3.085   3.895  16.466  2.4080 -0.7582  1.1706
 8120SOL    HW235823   3.140   3.760  16.428  0.1281 -0.6089 -0.5028
 8121SOL     OW35824   3.221   2.065   7.229 -1.0070 -0.0030 -0.1997
 8121SOL    HW135825   3.273   2.100   7.157 -1.3912 -2.0549 -1.4787
 8121SOL    HW235826   3.194   2.148   7.267  4.1788  1.5387  0.0414
 8122SOL     OW35827   1.577   2.091   7.634 -0.0218 -0.2241 -0.3771
 8122SOL    HW135828   1.489   2.112   7.666 -0.3975 -0.4703 -1.2463
 8122SOL    HW235829   1.631   2.136   7.698 -1.0824 -2.4736  2.1227
 8123SOL     OW35830   3.438   4.138  15.164  0.2328 -0.6610  0.6118
 8123SOL    HW135831   3.485   4.105  15.241 -0.2533 -1.1638  0.6882
 8123SOL    HW235832   3.514   4.159  15.108 -1.0618  2.0043 -0.1472
 8124SOL     OW35833   3.631   1.422  15.368 -0.2402  0.0558  0.6764
 8124SOL    HW135834   3.544   1.382  15.369  0.9882 -2.6888 -1.2433
 8124SOL    HW235835   3.615   1.509  15.332  1.8664  0.4981  0.8235
 8125SOL     OW35836   2.547   2.943   6.776  0.2911  0.0770  0.1017
 8125SOL    HW135837   2.613   2.913   6.713 -1.1974  1.0146 -1.9236
 8125SOL    HW235838   2.470   2.921   6.724  0.8412  1.2444 -1.2390
 8126SOL     OW35839   3.489   1.854   6.913 -0.1272  0.5741 -0.5426
 8126SOL    HW135840   3.499   1.917   6.985 -1.7602 -3.3416  3.1281
 8126SOL    HW235841   3.396   1.865   6.896  0.1484  1.8096 -1.2334
 8127SOL     OW35842   1.317   3.448   4.004 -0.0802  0.0874  0.3091
 8127SOL    HW135843   1.312   3.499   4.085  3.4907 -0.2659  0.7477
 8127SOL    HW235844   1.230   3.411   3.985  0.0279  0.6418 -1.1917
 8128SOL     OW35845   1.501   2.927   8.186  0.1938  0.0300 -0.1774
 8128SOL    HW135846   1.580   2.883   8.155 -0.2626 -1.1734  0.3892
 8128SOL    HW235847   1.458   2.956   8.105  0.1413  0.1128 -0.1190
 8129SOL     OW35848   1.701   0.641   5.656  0.3254  0.4658  0.2168
 8129SOL    HW135849   1.702   0.696   5.734 -2.0828 -0.5610  0.9691
 8129SOL    HW235850   1.686   0.703   5.585 -2.6335  2.1364  2.3276
 8130SOL     OW35851   3.321   0.362   9.251  0.0963  0.3790  0.6796
 8130SOL    HW135852   3.254   0.317   9.199 -0.5351  1.2276  0.7448
 8130SOL    HW235853   3.333   0.316   9.334  1.3278  1.5806  1.1641
 8131SOL     OW35854   4.602   3.771  10.598  0.4025 -0.0920 -0.0885
 8131SOL    HW135855   4.579   3.777  10.691 -1.4127  0.4573 -0.5746
 8131SOL    HW235856   4.681   3.825  10.591  1.0310 -1.1667 -1.2105
 8132SOL     OW35857   0.584   3.165  13.150  0.1589  0.0587  0.0727
 8132SOL    HW135858   0.518   3.161  13.220 -0.3750  0.4643 -0.4065
 8132SOL    HW235859   0.629   3.239  13.190 -1.0011 -1.3431  4.0794
 8133SOL     OW35860   2.462   3.687   2.688  0.6153 -0.0571  0.1836
 8133SOL    HW135861   2.505   3.771   2.703  1.3192 -0.1440 -1.4050
 8133SOL    HW235862   2.397   3.679   2.758  2.4110  0.6072  1.9010
 8134SOL     OW35863   3.156   3.615  15.285 -0.0283  0.2100 -0.1771
 8134SOL    HW135864   3.167   3.662  15.203 -1.0865  0.7919  0.0170
 8134SOL    HW235865   3.160   3.521  15.267  0.2373  0.1465  0.2083
 8135SOL     OW35866   2.754   1.055   9.017  0.6086  0.4005 -0.7550
 8135SOL    HW135867   2.693   1.128   9.006  1.1598  1.0703  0.7746
 8135SOL    HW235868   2.722   0.986   8.957  2.2097 -0.2420 -0.8636
 8136SOL     OW35869   4.445   1.541  17.429  0.2325  0.4676 -0.0077
 8136SOL    HW135870   4.516   1.506  17.375 -0.4361  0.5343 -0.9422
 8136SOL    HW235871   4.395   1.464  17.454 -1.1531  1.7663  1.2416
 8137SOL     OW35872   4.536   3.382  12.362  0.1974  0.1004  0.7867
 8137SOL    HW135873   4.575   3.323  12.297 -2.9862 -2.6554  1.3515
 8137SOL    HW235874   4.448   3.343  12.360  0.6829 -1.0260  1.5360
 8138SOL     OW35875   0.864   1.316   8.576  0.0174 -0.0663  0.1199
 8138SOL    HW135876   0.903   1.229   8.582  0.0644 -0.0130  0.5756
 8138SOL    HW235877   0.866   1.335   8.669  1.6814 -0.0548  0.0737
 8139SOL     OW35878   1.494   0.006  17.004  0.3224 -0.0376  0.1588
 8139SOL    HW135879   1.575   4.706  17.049 -0.0706 -1.7544 -0.1349
 8139SOL    HW235880   1.431   4.688  17.061 -1.2968 -0.7169 -2.1460
 8140SOL     OW35881   0.903   3.998   6.342  0.4725 -0.1643 -0.0404
 8140SOL    HW135882   0.878   3.934   6.409  0.6762  0.1606  0.3500
 8140SOL    HW235883   0.998   3.987   6.334  0.2718 -0.3127 -2.2279
 8141SOL     OW35884   3.421   0.641   7.543  0.0754 -0.0586  0.7677
 8141SOL    HW135885   3.422   0.590   7.461  1.3238 -0.4873  1.0388
 8141SOL    HW235886   3.328   0.647   7.562 -0.6686 -0.6056 -2.6551
 8142SOL     OW35887   3.853   1.248   6.431 -0.6378 -0.4690 -0.0127
 8142SOL    HW135888   3.772   1.268   6.479 -0.8206  0.5567 -0.7487
 8142SOL    HW235889   3.918   1.269   6.497 -0.1913 -2.5193  0.2097
 8143SOL     OW35890   1.276   4.204  15.085 -0.0097 -0.2720  0.1907
 8143SOL    HW135891   1.339   4.212  15.013  0.3988 -0.4095  0.5352
 8143SOL    HW235892   1.224   4.127  15.063 -0.7472 -0.3790  2.3118
 8144SOL     OW35893   1.519   0.275  10.619 -0.2910  0.2325  0.0085
 8144SOL    HW135894   1.516   0.370  10.606 -2.3215  0.0240 -1.0091
 8144SOL    HW235895   1.460   0.253  10.691 -2.3100  0.2969 -1.6204
 8145SOL     OW35896   3.988   0.454   5.734 -0.4930  0.0824 -0.4592
 8145SOL    HW135897   4.009   0.547   5.743 -0.2619  0.0548 -0.7199
 8145SOL    HW235898   3.922   0.451   5.665 -0.9960 -2.6273  0.1184
 8146SOL     OW35899   2.700   2.552   3.600 -0.3865  0.2184 -0.0091
 8146SOL    HW135900   2.681   2.643   3.579  1.5784  0.9101  1.1433
 8146SOL    HW235901   2.653   2.546   3.684  1.2847 -0.8084  0.8632
 8147SOL     OW35902   3.055   3.579  12.995  0.2334 -0.8726 -0.3237
 8147SOL    HW135903   3.144   3.556  12.966  0.7118  2.1411 -1.2345
 8147SOL    HW235904   3.074   3.648  13.059 -0.3219 -2.3351  1.3827
 8148SOL     OW35905   0.795   1.456   5.395 -0.0667 -0.4066  0.0904
 8148SOL    HW135906   0.809   1.364   5.414 -1.8196 -0.7488 -0.2331
 8148SOL    HW235907   0.865   1.504   5.439 -0.1402 -0.2643  0.0543
 8149SOL     OW35908   2.392   0.048  17.000  0.3660  0.2227 -0.2835
 8149SOL    HW135909   2.359   0.004  16.922 -0.3233 -3.4768  2.1278
 8149SOL    HW235910   2.475   0.088  16.973  1.1716 -0.7328  0.7837
 8150SOL     OW35911   2.213   3.293  11.931 -0.2158 -0.1436 -0.0177
 8150SOL    HW135912   2.131   3.264  11.889  0.2740 -2.4932  0.6433
 8150SOL    HW235913   2.254   3.353  11.869 -1.6650 -0.1556 -0.9983
 8151SOL     OW35914   2.260   1.103  10.039  0.3069 -0.4385 -0.0665
 8151SOL    HW135915   2.353   1.123  10.048 -0.1684  1.4669  0.6739
 8151SOL    HW235916   2.258   1.057   9.955  2.0746 -0.4475 -0.0983
 8152SOL     OW35917   4.421   1.552  10.105  0.2886 -0.5632  0.2955
 8152SOL    HW135918   4.329   1.554  10.077 -0.2969 -1.0581  2.2296
 8152SOL    HW235919   4.445   1.464  10.077 -1.3464 -0.8730 -0.1248
 8153SOL     OW35920   1.847   2.018   4.579 -0.0644 -0.0308 -0.0420
 8153SOL    HW135921   1.819   2.052   4.664 -0.6318 -1.0954  0.1964
 8153SOL    HW235922   1.911   2.083   4.552  1.2322 -0.6446  1.4989
 8154SOL     OW35923   2.203   2.253   1.825  0.3516 -0.0872 -0.7191
 8154SOL    HW135924   2.114   2.262   1.792  0.7007 -2.8463 -2.4048
 8154SOL    HW235925   2.251   2.312   1.767  1.3678 -2.1265 -1.9619
 8155SOL     OW35926   3.113   3.763   4.350  0.7311 -0.6236 -0.2412
 8155SOL    HW135927   3.186   3.817   4.380  2.9211 -0.0704 -6.5772
 8155SOL    HW235928   3.060   3.763   4.429  0.3023  1.4684 -0.5057
 8156SOL     OW35929   4.541   0.825   8.605  0.0067  0.5957 -0.7706
 8156SOL    HW135930   4.630   0.790   8.602 -0.4288 -0.8291  3.0776
 8156SOL    HW235931   4.523   0.814   8.699  0.9181 -1.9460 -0.8891
 8157SOL     OW35932   1.015   4.039  16.745 -0.0193  0.3068 -0.3586
 8157SOL    HW135933   0.927   4.001  16.739 -1.0420  2.1835  2.6898
 8157SOL    HW235934   1.035   4.017  16.836  0.7620  1.3544 -0.2791
 8158SOL     OW35935   2.773   2.427   3.935 -0.3570 -0.1813  0.1036
 8158SOL    HW135936   2.856   2.447   3.892 -1.3245  1.6144 -0.9628
 8158SOL    HW235937   2.720   2.400   3.860  1.5858  0.3376 -1.4500
 8159SOL     OW35938   0.070   3.310  17.508 -0.7203  0.3140 -0.1533
 8159SOL    HW135939   0.002   3.288  17.571  0.3108 -0.2282  0.7538
 8159SOL    HW235940   0.139   3.276  17.564  0.6590 -2.6421 -3.6418
 8160SOL     OW35941   0.564   3.256   0.859  0.3318  0.1763  0.4810
 8160SOL    HW135942   0.643   3.211   0.891  0.1718 -0.9037 -0.6548
 8160SOL    HW235943   0.550   3.207   0.778  1.7181  2.2933 -1.0449
 8161SOL     OW35944   0.053   2.695   2.851  0.1331  0.1280  0.6459
 8161SOL    HW135945   4.691   2.662   2.868 -0.3624  0.4229 -1.3091
 8161SOL    HW235946   0.078   2.628   2.786  0.6140 -2.5111  3.5524
 8162SOL     OW35947   1.100   3.303   3.918  0.0786  0.5003 -0.4882
 8162SOL    HW135948   1.082   3.300   3.824  1.7310 -0.0226 -0.7914
 8162SOL    HW235949   1.054   3.227   3.953  1.2592 -0.1027 -0.2351
 8163SOL     OW35950   0.262   3.306  15.894 -0.6214  0.2958  0.7805
 8163SOL    HW135951   0.174   3.335  15.869 -0.4054 -1.6306 -2.2745
 8163SOL    HW235952   0.308   3.389  15.903 -0.0733  0.0525  0.1819
 8164SOL     OW35953   2.062   2.948   3.000  0.2070 -0.4957  0.9355
 8164SOL    HW135954   2.076   2.934   2.906  1.9106  0.4806  1.0337
 8164SOL    HW235955   2.026   3.037   2.995  1.6563 -0.0130 -1.1238
 8165SOL     OW35956   4.179   2.456   7.499  0.2926 -0.1468  0.4207
 8165SOL    HW135957   4.208   2.387   7.559  0.8895  0.0077  0.3054
 8165SOL    HW235958   4.087   2.468   7.523 -0.2597  0.3049 -1.9654
 8166SOL     OW35959   4.271   4.180  11.273 -0.3589 -0.3405 -0.2467
 8166SOL    HW135960   4.310   4.267  11.272  1.2995 -1.0289  2.1794
 8166SOL    HW235961   4.183   4.206  11.247 -0.2932  2.5579  2.4031
 8167SOL     OW35962   1.112   3.302   3.610 -0.3341 -0.0981  0.2983
 8167SOL    HW135963   1.187   3.357   3.586  0.9537 -0.5357  3.3553
 8167SOL    HW235964   1.110   3.240   3.537 -0.7684 -0.3617  0.5362
 8168SOL     OW35965   2.906   0.039   4.147 -0.0177 -0.4164  0.5685
 8168SOL    HW135966   2.981   0.064   4.094  0.8028 -2.8607  0.5838
 8168SOL    HW235967   2.934   0.053   4.237  0.1609 -0.5007  0.5264
 8169SOL     OW35968   0.989   3.958  14.190  0.3220 -0.1176 -0.2904
 8169SOL    HW135969   0.959   4.009  14.266  0.8123  0.4455 -0.4710
 8169SOL    HW235970   1.053   4.018  14.152  0.0439  1.5146  1.8262
 8170SOL     OW35971   1.617   4.076   4.678 -0.1048 -0.1349 -0.2476
 8170SOL    HW135972   1.710   4.093   4.660 -0.1754  0.6044  0.0549
 8170SOL    HW235973   1.592   4.159   4.719 -1.2952  0.1798 -1.6147
 8171SOL     OW35974   0.054   4.396   0.006  0.2280 -0.0117 -0.7033
 8171SOL    HW135975   0.003   4.316   0.013 -0.0523  0.1652 -0.7307
 8171SOL    HW235976   0.141   4.357  17.701 -0.4107 -1.9258  1.8489
 8172SOL     OW35977   1.674   0.395   5.430 -0.1819  0.3313 -0.4094
 8172SOL    HW135978   1.739   0.450   5.474 -0.1408 -1.1155  1.3683
 8172SOL    HW235979   1.649   0.329   5.495 -3.8993  0.9738 -1.1719
 8173SOL     OW35980   4.093   1.901   3.042  0.0279 -0.1930  0.6296
 8173SOL    HW135981   4.018   1.915   3.100  1.5308  0.5909  2.4167
 8173SOL    HW235982   4.102   1.806   3.054  0.7593 -0.0324  1.3917
 8174SOL     OW35983   1.017   1.996  10.815  0.2798 -0.2667 -0.2502
 8174SOL    HW135984   1.030   1.984  10.909  0.5369  1.9231 -0.0110
 8174SOL    HW235985   1.021   2.092  10.814 -1.4446 -0.1972 -1.2162
 8175SOL     OW35986   3.463   2.889   3.484  0.1171  0.2653  0.3251
 8175SOL    HW135987   3.396   2.902   3.551  1.3395  2.4511  1.0974
 8175SOL    HW235988   3.435   2.801   3.458  2.8467 -0.8600  1.2267
 8176SOL     OW35989   4.164   4.658   4.288  0.8414 -0.8033  0.3625
 8176SOL    HW135990   4.162   0.023   4.257 -2.2312 -0.7604  0.7249
 8176SOL    HW235991   4.177   4.657   4.383  5.1714  2.8663 -0.1655
 8177SOL     OW35992   0.791   2.547   6.091 -0.1502  0.3457 -0.4541
 8177SOL    HW135993   0.881   2.549   6.122  0.0537  1.2983 -1.0968
 8177SOL    HW235994   0.794   2.539   5.996 -1.7478 -2.0964 -0.2932
 8178SOL     OW35995   2.333   2.628   8.564  0.0430 -0.0434  1.5666
 8178SOL    HW135996   2.354   2.720   8.576  2.8496 -0.5877  0.8413
 8178SOL    HW235997   2.340   2.628   8.469 -0.4406  1.8472  1.5451
 8179SOL     OW35998   2.699   2.070   5.886  0.3180 -0.0869 -0.3498
 8179SOL    HW135999   2.785   2.033   5.908  0.1135 -0.6608 -0.4952
 8179SOL    HW236000   2.676   2.114   5.968  0.5274  0.1788 -0.4348
 8180SOL     OW36001   0.738   1.903   5.055  0.3407 -0.6021  0.0759
 8180SOL    HW136002   0.768   1.848   5.127  0.7384 -0.1683  0.2387
 8180SOL    HW236003   0.704   1.979   5.102 -0.2933 -0.7933 -0.0651
 8181SOL     OW36004   0.650   3.863  10.593  0.1902  0.3385 -0.4160
 8181SOL    HW136005   0.667   3.772  10.618  1.9646  1.5623  2.8800
 8181SOL    HW236006   0.708   3.906  10.657 -1.3027  1.3113  0.2773
 8182SOL     OW36007   0.758   2.419   1.126  0.5560 -0.0007  0.4869
 8182SOL    HW136008   0.765   2.408   1.221 -0.1746 -1.5784  0.3519
 8182SOL    HW236009   0.730   2.510   1.123 -2.2834 -0.8843  0.8446
 8183SOL     OW36010   3.557   0.972   9.888 -0.3656  0.2035  0.2065
 8183SOL    HW136011   3.550   0.976   9.984  2.2396 -3.2442  0.5450
 8183SOL    HW236012   3.502   1.046   9.861  0.2964  0.3975 -0.5920
 8184SOL     OW36013   0.544   1.447  12.980  0.9374  0.1991  0.3975
 8184SOL    HW136014   0.584   1.534  12.986  2.8283 -0.6172 -0.1874
 8184SOL    HW236015   0.456   1.476  12.955  0.7155 -0.1118  0.8240
 8185SOL     OW36016   3.865   3.772   6.393 -0.5426 -0.7429 -0.0132
 8185SOL    HW136017   3.830   3.688   6.423  2.8410 -2.5275 -0.9896
 8185SOL    HW236018   3.903   3.809   6.472 -0.9825  1.5705 -0.8910
 8186SOL     OW36019   4.363   4.650   7.565  0.2119 -0.0384  0.0128
 8186SOL    HW136020   4.349   4.565   7.607  1.1107 -1.1759 -1.9839
 8186SOL    HW236021   4.303   4.665   7.492  1.7091 -2.1218 -1.6332
 8187SOL     OW36022   2.794   1.699   8.843 -0.2554 -0.0010 -0.0845
 8187SOL    HW136023   2.867   1.759   8.857  1.6918 -1.8764 -2.2265
 8187SOL    HW236024   2.847   1.622   8.820 -1.4088 -1.6659  2.7667
 8188SOL     OW36025   0.528   3.324   6.541  0.2543 -0.0643  0.0442
 8188SOL    HW136026   0.482   3.260   6.595  1.4043 -0.2325  0.8174
 8188SOL    HW236027   0.550   3.276   6.462  1.9570  1.9619 -0.7214
 8189SOL     OW36028   4.083   1.655   8.079  0.4224 -0.9390  0.1317
 8189SOL    HW136029   4.062   1.629   7.989  2.7169  2.0827 -1.2896
 8189SOL    HW236030   4.101   1.568   8.113 -2.0735 -0.7461  1.9108
 8190SOL     OW36031   2.247   2.686  11.975  0.4120  0.0329 -0.8288
 8190SOL    HW136032   2.263   2.765  12.027 -1.7346  0.1090 -0.2724
 8190SOL    HW236033   2.152   2.691  11.967  0.2487 -0.6697  0.5415
 8191SOL     OW36034   1.907   4.125   8.933  0.3712 -0.0491 -0.1742
 8191SOL    HW136035   1.964   4.057   8.968 -0.1744 -0.6537 -0.4602
 8191SOL    HW236036   1.966   4.199   8.946  0.2584  0.0935 -0.4778
 8192SOL     OW36037   4.571   0.992   5.886 -0.1647  0.4847  0.4276
 8192SOL    HW136038   4.567   1.083   5.915 -0.4710  0.6627 -0.1695
 8192SOL    HW236039   4.500   0.986   5.822  1.1305  1.0952 -1.0773
 8193SOL     OW36040   0.507   2.234   4.879  0.3066  0.3202 -0.2104
 8193SOL    HW136041   0.560   2.177   4.935 -0.9500 -0.4196  0.2360
 8193SOL    HW236042   0.552   2.212   4.798 -1.2377 -3.7037  0.0150
 8194SOL     OW36043   2.412   4.352   5.440  0.7293 -0.4850 -0.3476
 8194SOL    HW136044   2.473   4.417   5.475  0.8033 -1.2286  0.8928
 8194SOL    HW236045   2.461   4.276   5.473  0.0610 -0.7948 -0.0584
 8195SOL     OW36046   2.858   1.954   9.019 -0.2781 -0.6198 -0.0818
 8195SOL    HW136047   2.811   1.956   8.936 -0.5074 -0.6509  0.0493
 8195SOL    HW236048   2.943   1.912   9.001  1.2682  1.5980  2.1284
 8196SOL     OW36049   1.681   0.189  13.776 -0.0078 -0.3711 -0.4994
 8196SOL    HW136050   1.593   0.184  13.739  0.1043 -2.3114 -0.5379
 8196SOL    HW236051   1.650   0.195  13.867  0.8103  0.9188 -0.3091
 8197SOL     OW36052   1.483   4.463   6.932 -0.2105  0.3759 -0.4356
 8197SOL    HW136053   1.430   4.438   7.007 -0.4513 -0.4932 -0.9014
 8197SOL    HW236054   1.469   4.558   6.938 -1.3487 -0.0373  3.1043
 8198SOL     OW36055   1.095   3.579  12.068 -0.7891 -0.1289 -0.4632
 8198SOL    HW136056   1.068   3.522  11.996  1.3945 -1.6144 -0.0970
 8198SOL    HW236057   1.166   3.526  12.105 -2.3676 -1.5961  0.4890
 8199SOL     OW36058   1.620   3.635   3.809  0.5811 -0.6531  0.2088
 8199SOL    HW136059   1.615   3.691   3.887  2.9693 -0.6202  0.3449
 8199SOL    HW236060   1.710   3.606   3.824  0.8790  0.1359 -0.0715
 8200SOL     OW36061   0.520   2.593   4.972  1.1260 -0.2281 -0.2371
 8200SOL    HW136062   0.611   2.598   4.941  0.9992 -1.8945 -0.9021
 8200SOL    HW236063   0.500   2.511   4.927 -0.4982 -1.6151  3.0114
 8201SOL     OW36064   3.639   3.112   5.543  0.1601  0.1413 -0.0849
 8201SOL    HW136065   3.652   3.036   5.600  0.9951 -0.4696 -1.0868
 8201SOL    HW236066   3.664   3.077   5.457 -0.3423  1.0235 -0.5996
 8202SOL     OW36067   3.540   2.117  12.545  0.6040 -0.0579 -0.2503
 8202SOL    HW136068   3.464   2.060  12.531  0.1691  0.4648 -0.0083
 8202SOL    HW236069   3.511   2.166  12.622 -1.2493 -2.9579  0.9034
 8203SOL     OW36070   4.694   1.316   0.539 -0.3035 -0.1275  0.1931
 8203SOL    HW136071   4.606   1.282   0.527 -0.4571  0.5087 -0.5046
 8203SOL    HW236072   0.017   1.236   0.560  0.7271  1.1074  2.5951
 8204SOL     OW36073   1.784   2.793   8.811 -0.1469 -0.0059 -0.0288
 8204SOL    HW136074   1.858   2.854   8.817  0.9785 -1.1625 -2.4513
 8204SOL    HW236075   1.818   2.721   8.760 -0.9525  0.6703 -1.5202
 8205SOL     OW36076   1.330   3.248   8.939 -0.0529  0.3152  0.0277
 8205SOL    HW136077   1.323   3.338   8.909  1.6194 -0.2016 -1.9296
 8205SOL    HW236078   1.239   3.220   8.934  0.0213  0.2516 -1.0513
 8206SOL     OW36079   2.959   4.637  10.184 -0.1436  0.1467  0.6065
 8206SOL    HW136080   3.034   4.576  10.187 -1.1971 -1.0552  2.4633
 8206SOL    HW236081   2.927   4.625  10.095  0.7273  0.5445  0.2311
 8207SOL     OW36082   2.030   3.129   8.401 -0.4649 -0.3099  0.4978
 8207SOL    HW136083   2.081   3.070   8.456  0.4291  0.2935  0.3192
 8207SOL    HW236084   2.039   3.212   8.447  1.7873 -0.6991  0.7835
 8208SOL     OW36085   1.915   4.036   8.330 -0.0707  0.3451 -0.1822
 8208SOL    HW136086   1.862   4.063   8.404  0.1685  1.5544 -0.4388
 8208SOL    HW236087   2.008   4.054   8.345 -0.5463  0.2888  2.7533
 8209SOL     OW36088   0.485   2.842  12.589 -0.2342  0.0318 -0.5654
 8209SOL    HW136089   0.463   2.817  12.499 -1.6680 -2.0071  0.3719
 8209SOL    HW236090   0.416   2.906  12.604  0.9574  0.5632  2.7393
 8210SOL     OW36091   1.399   1.031   9.466 -0.0698  0.2162 -0.0996
 8210SOL    HW136092   1.449   1.103   9.429  0.3199 -0.0234 -0.0426
 8210SOL    HW236093   1.315   1.077   9.463  1.0173  2.1323 -0.9614
 8211SOL     OW36094   2.140   1.184   4.081  0.1695 -0.0102 -0.1440
 8211SOL    HW136095   2.095   1.149   4.004 -0.4423  1.4582 -0.4726
 8211SOL    HW236096   2.070   1.232   4.126  0.1247 -1.2266  1.0803
 8212SOL     OW36097   0.259   3.485   9.005 -0.2737 -0.2149 -0.2979
 8212SOL    HW136098   0.241   3.401   8.963 -0.0362  0.6537 -2.1279
 8212SOL    HW236099   0.272   3.459   9.096 -0.4835  2.0923  0.3906
 8213SOL     OW36100   2.740   4.476   8.680 -0.2507 -0.2185 -0.4376
 8213SOL    HW136101   2.739   4.410   8.749  0.0977  1.1416  0.8699
 8213SOL    HW236102   2.799   4.544   8.712 -0.1037 -1.3895  1.7843
 8214SOL     OW36103   1.214   3.990  12.121 -0.2349 -0.1192  0.0864
 8214SOL    HW136104   1.262   4.057  12.169  0.6010  1.3447 -2.7778
 8214SOL    HW236105   1.289   3.947  12.082 -1.2733 -1.5162 -0.3696
 8215SOL     OW36106   0.028   1.481   6.084  0.2381  0.1952  0.0892
 8215SOL    HW136107   0.020   1.388   6.063 -1.1704 -0.4141  3.3120
 8215SOL    HW236108   0.004   1.487   6.176 -0.0454  0.4890 -0.0034
 8216SOL     OW36109   3.916   4.673   0.253 -0.0768 -0.0110 -0.1390
 8216SOL    HW136110   3.973   4.648   0.180 -0.6976  0.8851 -0.9419
 8216SOL    HW236111   3.977   0.005   0.299 -0.0245  0.1893 -0.4611
 8217SOL     OW36112   3.051   3.440   5.108 -0.1793 -1.1087 -0.4173
 8217SOL    HW136113   3.132   3.397   5.080  0.3070 -1.0797  0.9434
 8217SOL    HW236114   3.068   3.449   5.202 -0.5915  1.7126 -0.5925
 8218SOL     OW36115   1.206   0.039   6.059 -0.4736  0.2409 -0.6639
 8218SOL    HW136116   1.241   4.704   6.125  0.2477  1.0807 -0.2747
 8218SOL    HW236117   1.199   4.705   5.985 -0.7339 -0.2891 -0.2082
 8219SOL     OW36118   3.825   0.311   3.943  0.6044  0.0556 -0.4483
 8219SOL    HW136119   3.787   0.392   3.909 -2.2145  0.0639  2.6741
 8219SOL    HW236120   3.918   0.330   3.953  0.7331 -0.6949 -0.2287
 8220SOL     OW36121   1.394   3.462  11.851 -0.3369 -0.2166 -0.2277
 8220SOL    HW136122   1.359   3.538  11.804  0.2461 -0.0357 -0.3627
 8220SOL    HW236123   1.375   3.470  11.944  0.8797  1.8702 -0.1643
 8221SOL     OW36124   0.377   1.239  14.949  0.3147  0.1739 -0.0091
 8221SOL    HW136125   0.451   1.290  14.916  0.0624  0.8611  0.5059
 8221SOL    HW236126   0.325   1.213  14.872 -0.3503 -0.0178  0.5043
 8222SOL     OW36127   0.873   3.704  14.802  0.1875 -0.6982 -0.1794
 8222SOL    HW136128   0.941   3.648  14.764  0.6627  0.9088 -1.6644
 8222SOL    HW236129   0.894   3.788  14.762  2.0209  0.1558  2.6365
 8223SOL     OW36130   1.878   0.729   2.468  0.3018  0.1239  0.2988
 8223SOL    HW136131   1.869   0.822   2.491 -1.1869 -0.3952  1.8439
 8223SOL    HW236132   1.791   0.692   2.486 -0.3857  1.3390 -0.5441
 8224SOL     OW36133   1.732   2.703  14.412  0.4515  0.6351 -0.2373
 8224SOL    HW136134   1.682   2.692  14.331 -1.1034  0.9660  0.6772
 8224SOL    HW236135   1.657   2.722  14.468 -0.4215  0.2890 -1.2964
 8225SOL     OW36136   2.776   2.135   6.960 -0.5155  0.3630 -0.0200
 8225SOL    HW136137   2.715   2.186   7.014 -1.5454  0.1654 -0.9975
 8225SOL    HW236138   2.784   2.060   7.019  2.1076  1.5059  1.0531
 8226SOL     OW36139   0.750   3.803  16.238  0.5379  0.1150  0.1226
 8226SOL    HW136140   0.682   3.868  16.258  1.3806  1.4793 -1.4455
 8226SOL    HW236141   0.770   3.771  16.326  1.4169 -3.5689 -1.3982
 8227SOL     OW36142   3.587   1.772   4.593  1.3489 -0.0393  0.1779
 8227SOL    HW136143   3.620   1.842   4.650 -1.4458  3.5468 -2.6246
 8227SOL    HW236144   3.492   1.784   4.598  1.5363  1.5214 -0.1541
 8228SOL     OW36145   3.028   3.705  16.146  0.0212 -0.3605  0.1248
 8228SOL    HW136146   3.046   3.781  16.090 -0.6240 -0.1060  0.2595
 8228SOL    HW236147   3.031   3.748  16.232 -1.9749  0.0859 -0.0264
 8229SOL     OW36148   1.181   4.460   5.522  0.2478 -0.3666  0.1891
 8229SOL    HW136149   1.164   4.389   5.460 -1.1193 -0.6930  0.9425
 8229SOL    HW236150   1.265   4.430   5.557  0.6242  1.9757  1.3088
 8230SOL     OW36151   3.106   2.741  16.840  0.1982 -0.5939 -0.0328
 8230SOL    HW136152   3.017   2.709  16.856 -0.1806  0.1962 -0.5198
 8230SOL    HW236153   3.155   2.675  16.889  0.9628 -1.2555 -1.6994
 8231SOL     OW36154   2.523   1.453  17.052  0.2943  0.4417  0.5663
 8231SOL    HW136155   2.544   1.455  17.146  1.4115  1.6878  0.2842
 8231SOL    HW236156   2.570   1.527  17.014  0.9463 -0.1629  0.1671
 8232SOL     OW36157   3.156   1.702   3.762  0.1958  0.4899  0.0310
 8232SOL    HW136158   3.213   1.625   3.771 -1.1869 -0.3683  1.6465
 8232SOL    HW236159   3.135   1.716   3.854  4.2002 -0.6017  1.1216
 8233SOL     OW36160   0.004   4.375   6.832 -0.6864  0.1842  0.0922
 8233SOL    HW136161   0.079   4.324   6.801 -0.2575 -1.0028  3.1659
 8233SOL    HW236162   0.025   4.467   6.816 -0.8285  0.1018 -0.5783
 8234SOL     OW36163   3.148   4.599   3.936 -0.0492 -1.0905  0.4941
 8234SOL    HW136164   3.193   4.523   3.900  0.8579  0.3019 -1.2509
 8234SOL    HW236165   3.188   4.600   4.023 -2.4922  2.5635  1.5637
 8235SOL     OW36166   3.014   0.160  15.623 -0.4810 -0.2163 -0.1146
 8235SOL    HW136167   3.039   0.096  15.557  3.2604 -0.2859  1.3066
 8235SOL    HW236168   2.938   0.196  15.579  0.2491  0.0273 -1.1687
 8236SOL     OW36169   0.725   2.319   0.065  0.1732 -0.1699 -0.4858
 8236SOL    HW136170   0.702   2.230   0.037 -3.1497  1.2510 -2.2251
 8236SOL    HW236171   0.819   2.304   0.079  0.6480  0.9636 -2.4545
 8237SOL     OW36172   3.979   2.133  11.333 -0.7046 -0.5990  0.0111
 8237SOL    HW136173   3.982   2.143  11.428  1.0544 -0.3743 -0.0691
 8237SOL    HW236174   4.000   2.225  11.317 -0.4501 -0.3573  1.7224
 8238SOL     OW36175   0.438   1.783  15.450 -0.2975 -0.4542  0.4730
 8238SOL    HW136176   0.440   1.708  15.391  0.9815  0.0778 -0.1757
 8238SOL    HW236177   0.344   1.793  15.467 -0.2337  1.5132 -0.3376
 8239SOL     OW36178   4.289   3.441   3.701  0.0189 -0.0026 -0.1509
 8239SOL    HW136179   4.272   3.416   3.610  1.6569 -1.5631 -0.0229
 8239SOL    HW236180   4.306   3.534   3.687 -0.1779 -0.1402 -1.2758
 8240SOL     OW36181   1.008   4.616   9.099  0.2280  0.5882  0.4851
 8240SOL    HW136182   0.921   4.649   9.121  0.2303  0.8855  0.0686
 8240SOL    HW236183   0.998   4.532   9.055 -0.7964  0.4308  1.0181
 8241SOL     OW36184   0.859   0.492  12.488 -0.0275 -0.2276  0.8220
 8241SOL    HW136185   0.827   0.525  12.404 -0.8060 -0.5035  1.0039
 8241SOL    HW236186   0.776   0.495  12.535 -1.1094  2.4036 -1.2912
 8242SOL     OW36187   4.360   1.315  11.006 -0.4765  0.4288  0.0889
 8242SOL    HW136188   4.388   1.391  10.955  0.5926 -0.8829 -1.2986
 8242SOL    HW236189   4.313   1.364  11.073 -0.9745 -1.3841  1.0505
 8243SOL     OW36190   3.829   3.865   5.318  0.3817 -0.3592 -0.6447
 8243SOL    HW136191   3.865   3.833   5.236  1.2079 -1.2506  0.0729
 8243SOL    HW236192   3.850   3.793   5.378 -0.3248  0.9571  1.2105
 8244SOL     OW36193   3.191   4.217  15.752 -0.7269  0.4301 -0.0195
 8244SOL    HW136194   3.271   4.255  15.715 -1.7685  2.2169 -0.4296
 8244SOL    HW236195   3.159   4.166  15.678  3.2691 -2.0995 -0.0321
 8245SOL     OW36196   2.883   4.338   9.997  0.0336 -0.6582 -0.1082
 8245SOL    HW136197   2.806   4.282   9.999 -0.0532 -0.4586  1.7404
 8245SOL    HW236198   2.871   4.386   9.915 -2.0315 -0.6378  0.2057
 8246SOL     OW36199   2.985   1.068   5.844 -0.3452  0.7870 -0.4872
 8246SOL    HW136200   2.979   0.973   5.857 -2.0815  0.7471 -1.7365
 8246SOL    HW236201   2.899   1.102   5.869 -0.5746  0.0806 -0.3171
 8247SOL     OW36202   0.059   0.769  12.089 -0.0627  0.0932 -0.0015
 8247SOL    HW136203   0.021   0.690  12.050  1.2775 -1.0024  0.9767
 8247SOL    HW236204   4.711   0.828  12.068 -0.1250 -0.7769 -2.2931
 8248SOL     OW36205   3.043   0.412   9.349 -0.1507 -0.2158 -0.2751
 8248SOL    HW136206   3.075   0.468   9.279  0.1341  0.3884  0.3365
 8248SOL    HW236207   3.127   0.386   9.386 -1.5844 -3.2792  0.8247
 8249SOL     OW36208   2.371   0.483  15.800 -0.3311 -0.1227  0.0685
 8249SOL    HW136209   2.433   0.479  15.727 -0.3525  0.6822  0.0082
 8249SOL    HW236210   2.359   0.578  15.808  0.0810 -0.0838  0.1886
 8250SOL     OW36211   3.756   0.973   8.446  0.3872  0.2130  0.4802
 8250SOL    HW136212   3.840   0.938   8.476  1.0473  0.1926 -1.4440
 8250SOL    HW236213   3.761   0.962   8.351  2.3622 -3.0829  0.9597
 8251SOL     OW36214   2.983   1.364  10.243 -0.2653 -0.3623  0.5203
 8251SOL    HW136215   2.961   1.442  10.193  0.5226  0.6113  1.6875
 8251SOL    HW236216   3.065   1.391  10.285  0.0298  0.3586 -0.5327
 8252SOL     OW36217   2.981   4.165   4.007 -0.0265 -0.4134  0.2404
 8252SOL    HW136218   2.953   4.101   4.072  0.1453 -1.1665 -0.4365
 8252SOL    HW236219   3.002   4.235   4.069 -0.8533 -0.0781  0.1462
 8253SOL     OW36220   1.774   3.182   8.193  0.2122 -0.0426  0.4355
 8253SOL    HW136221   1.835   3.252   8.220 -0.6384 -0.0598  2.3769
 8253SOL    HW236222   1.758   3.213   8.103  1.8362 -1.6102 -0.4128
 8254SOL     OW36223   1.432   1.302   9.295 -0.4534  0.2928  0.4890
 8254SOL    HW136224   1.373   1.376   9.308  0.8474  1.3279  0.5366
 8254SOL    HW236225   1.486   1.311   9.374 -0.5106 -0.9618  0.6689
 8255SOL     OW36226   2.138   2.363   7.147  0.1962 -0.2867 -0.0622
 8255SOL    HW136227   2.061   2.341   7.199 -0.4148  0.3955 -0.6773
 8255SOL    HW236228   2.190   2.405   7.216  0.5592 -2.1909  0.8062
 8256SOL     OW36229   3.193   1.083  17.406 -0.6449 -0.3987 -0.1777
 8256SOL    HW136230   3.150   1.118  17.327 -2.4689  0.3097  1.1220
 8256SOL    HW236231   3.261   1.025  17.373  0.3648  0.7108 -0.0636
 8257SOL     OW36232   1.118   2.997   9.593  0.5433  0.3820 -0.2500
 8257SOL    HW136233   1.033   2.953   9.587  1.2455 -1.0647  0.3222
 8257SOL    HW236234   1.168   2.948   9.658  0.4759  1.1585  0.3842
 8258SOL     OW36235   1.545   3.768   5.457 -0.1644 -0.1815  0.2258
 8258SOL    HW136236   1.629   3.781   5.500  0.5712  1.5407 -1.7187
 8258SOL    HW236237   1.581   3.725   5.379  2.7799 -0.0395  1.5171
 8259SOL     OW36238   1.417   1.161   8.730  0.3610 -0.3485 -0.1134
 8259SOL    HW136239   1.482   1.230   8.744  0.7270 -0.6346 -0.3965
 8259SOL    HW236240   1.334   1.205   8.750 -1.2346 -2.6600 -1.6496
 8260SOL     OW36241   1.645   3.260   1.250  0.5244 -0.1774  0.4466
 8260SOL    HW136242   1.646   3.199   1.176  0.2113  0.2258  0.1021
 8260SOL    HW236243   1.559   3.301   1.238 -0.8150 -2.8504  1.0580
 8261SOL     OW36244   3.197   1.816   3.179 -0.4740  0.4818  0.1380
 8261SOL    HW136245   3.152   1.877   3.238  0.7875  0.2458  1.3534
 8261SOL    HW236246   3.140   1.790   3.106 -2.5088 -1.8258  2.5140
 8262SOL     OW36247   1.445   2.965  11.339  0.2982  0.1426 -0.6449
 8262SOL    HW136248   1.411   2.930  11.257 -1.7952 -0.1948  0.3894
 8262SOL    HW236249   1.367   3.012  11.367 -0.0742 -1.3051  0.7604
 8263SOL     OW36250   0.712   3.362   7.906 -0.0592 -0.4857 -0.0278
 8263SOL    HW136251   0.677   3.285   7.862 -1.0497 -0.7967  1.2930
 8263SOL    HW236252   0.788   3.383   7.850  1.8024 -1.3202  2.1719
 8264SOL     OW36253   3.908   3.249   1.077 -0.2789 -0.2236 -0.1248
 8264SOL    HW136254   3.948   3.162   1.087 -1.4627 -1.1484 -3.4870
 8264SOL    HW236255   3.954   3.300   1.144 -0.3100  2.5935 -2.2951
 8265SOL     OW36256   0.218   2.724   3.179  0.1135  0.2290 -0.2824
 8265SOL    HW136257   0.259   2.781   3.245  1.4893 -0.5445 -0.4715
 8265SOL    HW236258   0.211   2.782   3.103 -1.3433 -0.8300 -0.9443
 8266SOL     OW36259   2.111   0.882  10.184 -0.2782  0.5538 -0.6445
 8266SOL    HW136260   2.178   0.827  10.224 -2.1404 -0.4253  1.1997
 8266SOL    HW236261   2.160   0.948  10.136  1.2454  1.2528  1.9101
 8267SOL     OW36262   0.842   4.565   7.446  0.0959  0.2837 -0.7193
 8267SOL    HW136263   0.825   4.658   7.461  2.3834  0.3919  1.1403
 8267SOL    HW236264   0.808   4.551   7.358  0.8851 -2.3063 -0.6026
 8268SOL     OW36265   3.875   0.589   9.414 -0.0072 -0.2987  0.7361
 8268SOL    HW136266   3.800   0.639   9.446 -0.3927 -0.6931  0.4431
 8268SOL    HW236267   3.832   0.511   9.380 -1.5018  1.4099 -1.3105
 8269SOL     OW36268   2.462   3.143   5.816 -0.4642  0.8194  0.5170
 8269SOL    HW136269   2.543   3.180   5.782 -1.7018  2.2870 -0.8483
 8269SOL    HW236270   2.392   3.207   5.799 -0.8060 -0.5043 -3.1537
 8270SOL     OW36271   2.164   4.212   5.524  0.6820 -0.4286 -0.0875
 8270SOL    HW136272   2.227   4.284   5.519  0.2513  0.1577  2.7928
 8270SOL    HW236273   2.189   4.166   5.605 -1.8634  0.5188  1.2490
 8271SOL     OW36274   0.370   2.364  17.432  0.2186  0.1647  0.0864
 8271SOL    HW136275   0.461   2.347  17.409 -0.4126 -2.8500 -0.1968
 8271SOL    HW236276   0.358   2.310  17.510  0.0521 -0.7012 -0.5482
 8272SOL     OW36277   4.093   4.484  16.071  0.5675  0.1330  0.0706
 8272SOL    HW136278   4.044   4.434  16.136 -1.3321  0.2491 -1.3009
 8272SOL    HW236279   4.028   4.540  16.030 -0.1432 -0.7398  0.0099
 8273SOL     OW36280   0.060   3.628   8.918 -0.1061  0.6987  0.1782
 8273SOL    HW136281   0.017   3.661   8.996  1.1234  0.6330  0.8930
 8273SOL    HW236282   0.137   3.583   8.953 -0.2605  0.6906  0.5040
 8274SOL     OW36283   0.800   1.669   6.173 -0.2472  0.6027 -0.2020
 8274SOL    HW136284   0.704   1.663   6.167 -0.3349  2.2261 -0.1904
 8274SOL    HW236285   0.805   1.764   6.165  0.8404  0.4502 -1.3043
 8275SOL     OW36286   3.773   4.329   6.174  0.6854  0.1314  1.0462
 8275SOL    HW136287   3.746   4.250   6.221 -0.7437 -0.7986 -1.3098
 8275SOL    HW236288   3.759   4.397   6.239  3.6590  0.5096  1.2961
 8276SOL     OW36289   0.100   0.097   2.850  0.2822  0.2009  0.1371
 8276SOL    HW136290   0.104   0.142   2.765  0.4603 -1.7181 -0.8689
 8276SOL    HW236291   0.024   0.138   2.892 -0.1921 -0.3378 -0.1971
 8277SOL     OW36292   4.405   4.286   3.763 -0.0305  0.6997 -1.0770
 8277SOL    HW136293   4.374   4.331   3.842  1.0183  2.1389 -1.4915
 8277SOL    HW236294   4.497   4.264   3.775 -0.1203  0.1030 -1.4766
 8278SOL     OW36295   1.752   2.636   3.304  0.2082 -0.4545 -0.0530
 8278SOL    HW136296   1.839   2.673   3.286 -0.3914  2.1078  2.3531
 8278SOL    HW236297   1.691   2.682   3.246 -0.1096 -1.0793 -0.2064
 8279SOL     OW36298   0.557   0.886   5.728  0.0322  0.4199 -0.4030
 8279SOL    HW136299   0.612   0.916   5.800  0.6694  2.5936 -1.8054
 8279SOL    HW236300   0.536   0.797   5.756 -1.5122  0.4391 -1.4802
 8280SOL     OW36301   3.134   3.705   7.462  0.1781 -0.5031  0.1317
 8280SOL    HW136302   3.167   3.771   7.402  0.8033  0.4155  1.4757
 8280SOL    HW236303   3.090   3.649   7.398 -0.7300 -0.7102  0.9302
 8281SOL     OW36304   2.464   2.583  12.105  0.6178  0.0550 -0.3018
 8281SOL    HW136305   2.404   2.599  12.033  0.1903  1.9509  0.4741
 8281SOL    HW236306   2.518   2.663  12.107  0.6341  0.0401 -0.1391
 8282SOL     OW36307   1.065   3.680   5.943  0.1857  0.3672 -0.4807
 8282SOL    HW136308   1.103   3.738   6.008  0.6953 -0.5152 -0.0002
 8282SOL    HW236309   1.033   3.608   5.997  0.0659 -0.6025 -1.8512
 8283SOL     OW36310   1.319   3.779   0.965  0.3388 -0.3136 -0.2000
 8283SOL    HW136311   1.272   3.839   1.022 -0.9634 -1.0420 -0.5153
 8283SOL    HW236312   1.251   3.740   0.910 -1.4806  0.5007  1.4936
 8284SOL     OW36313   1.384   1.345  15.793 -0.1183 -0.2801  0.3092
 8284SOL    HW136314   1.421   1.431  15.810  0.2411 -0.1324 -1.2462
 8284SOL    HW236315   1.345   1.357  15.706  0.0589  2.7196  0.6620
 8285SOL     OW36316   4.364   0.516   6.602 -0.5433 -0.1902 -0.9508
 8285SOL    HW136317   4.435   0.557   6.653  0.6682 -0.8444 -2.1200
 8285SOL    HW236318   4.292   0.531   6.663 -0.2993 -2.6065 -0.0680
 8286SOL     OW36319   4.464   0.205   2.727  0.2139  0.2552  0.4032
 8286SOL    HW136320   4.513   0.125   2.750 -1.0389 -0.6445 -0.0430
 8286SOL    HW236321   4.392   0.168   2.676  1.7637 -0.4455 -1.3009
 8287SOL     OW36322   3.946   4.068   8.338 -0.9186  0.0794 -0.1126
 8287SOL    HW136323   4.042   4.064   8.333 -0.8559 -2.9798  3.0491
 8287SOL    HW236324   3.921   3.988   8.292 -1.3248  0.1552 -0.0226
 8288SOL     OW36325   2.541   3.322   2.183  0.0094 -0.3758  0.3106
 8288SOL    HW136326   2.459   3.354   2.147 -0.2489 -0.6469  0.6567
 8288SOL    HW236327   2.519   3.328   2.276  2.0670  1.2485  0.7004
 8289SOL     OW36328   0.131   0.610   5.391 -0.4034 -0.0727  0.2840
 8289SOL    HW136329   0.217   0.569   5.385 -0.3301  0.0825  0.2805
 8289SOL    HW236330   0.121   0.632   5.483 -1.3951 -0.9682  0.3968
 8290SOL     OW36331   0.306   3.122  10.694 -0.1933 -0.0653  0.1454
 8290SOL    HW136332   0.332   3.211  10.670 -1.5495  0.2946  0.0135
 8290SOL    HW236333   0.354   3.086  10.620 -0.3042  1.3831 -0.6319
 8291SOL     OW36334   4.643   3.860   5.672 -0.2355  0.8206  0.1782
 8291SOL    HW136335   4.666   3.923   5.740 -1.0800  0.7966  0.4812
 8291SOL    HW236336   0.000   3.839   5.629 -0.6702 -2.4571  0.9482
 8292SOL     OW36337   4.138   0.494   9.845 -0.0555 -0.2402  0.2114
 8292SOL    HW136338   4.080   0.465   9.916 -1.4809  1.1559 -0.3731
 8292SOL    HW236339   4.201   0.423   9.835  0.1036  0.0391 -0.8082
 8293SOL     OW36340   3.556   4.271  14.477  0.8601 -0.5486 -0.2509
 8293SOL    HW136341   3.584   4.241  14.564  0.9905  0.0737 -0.0764
 8293SOL    HW236342   3.584   4.202  14.417 -0.6858 -0.2494 -1.3053
 8294SOL     OW36343   4.143   1.445  16.955 -0.5324 -0.5569  0.2511
 8294SOL    HW136344   4.188   1.506  17.014 -0.4509 -1.9298  1.5815
 8294SOL    HW236345   4.129   1.369  17.010  1.4880 -0.6713  0.5880
 8295SOL     OW36346   3.084   3.194   2.094 -0.9770 -0.3023  0.0626
 8295SOL    HW136347   3.150   3.127   2.114  0.4603  1.1261  0.0496
 8295SOL    HW236348   3.129   3.271   2.128 -1.7156  0.4438 -0.6545
 8296SOL     OW36349   0.800   3.629   5.183 -0.3139  0.4453  0.3111
 8296SOL    HW136350   0.714   3.607   5.218 -0.6274  3.4878  1.4919
 8296SOL    HW236351   0.797   3.587   5.097  1.5048 -0.2386  0.5869
 8297SOL     OW36352   3.041   2.609  12.248 -0.5329  0.0176 -0.1164
 8297SOL    HW136353   3.122   2.658  12.253 -1.1354  1.2552 -2.1604
 8297SOL    HW236354   3.047   2.562  12.165  1.8994 -1.9159  1.1781
 8298SOL     OW36355   4.529   2.837  10.187  0.3216  0.1252 -0.4756
 8298SOL    HW136356   4.535   2.861  10.279  0.7642  0.2168 -0.5281
 8298SOL    HW236357   4.433   2.832  10.182  0.2611  0.5250  0.2544
 8299SOL     OW36358   2.723   1.706   6.820 -0.3619  0.8711 -0.4351
 8299SOL    HW136359   2.696   1.797   6.829 -1.6700  0.3128  1.3763
 8299SOL    HW236360   2.647   1.674   6.772 -1.4193  0.9800  1.1815
 8300SOL     OW36361   4.233   0.733   9.215 -0.4592  0.0084  0.1315
 8300SOL    HW136362   4.145   0.743   9.251 -0.0750  0.6905  0.8765
 8300SOL    HW236363   4.261   0.644   9.237 -0.8367  0.0303  0.6927
 8301SOL     OW36364   1.753   4.593   4.369 -0.3521  0.1728  0.5140
 8301SOL    HW136365   1.724   4.651   4.440  0.6273  1.2072  0.0663
 8301SOL    HW236366   1.680   4.606   4.309  1.7734 -1.3331 -2.4140
 8302SOL     OW36367   2.211   2.063   5.300  0.3180 -0.1410  0.4947
 8302SOL    HW136368   2.179   2.059   5.210  0.9922  0.4264  0.2301
 8302SOL    HW236369   2.306   2.067   5.296  0.3743 -0.4977  1.4950
 8303SOL     OW36370   0.894   2.438   8.244 -0.2733  0.2726 -0.0035
 8303SOL    HW136371   0.916   2.529   8.268 -2.2512  1.1940 -1.6933
 8303SOL    HW236372   0.810   2.432   8.289 -0.3610  0.9668 -0.0623
 8304SOL     OW36373   2.494   2.628   1.967  0.2451 -0.0204 -0.7337
 8304SOL    HW136374   2.422   2.667   2.017 -1.0133 -4.0098  0.5686
 8304SOL    HW236375   2.478   2.680   1.889  1.6678  2.1271  0.4097
 8305SOL     OW36376   2.892   4.381   7.905 -0.1147 -0.3712  0.0254
 8305SOL    HW136377   2.818   4.437   7.881  1.3904  1.8265  0.4962
 8305SOL    HW236378   2.858   4.292   7.892  0.8627 -0.6037 -0.8951
 8306SOL     OW36379   3.910   2.668  12.951 -0.2656 -0.1002 -0.1523
 8306SOL    HW136380   3.860   2.586  12.940  1.9832 -1.3357 -1.1452
 8306SOL    HW236381   3.916   2.689  12.858  1.0691 -0.3992 -0.1232
 8307SOL     OW36382   4.619   2.599  13.580 -0.5139  0.0545 -0.1278
 8307SOL    HW136383   4.630   2.504  13.581 -0.4957  0.0652  0.5341
 8307SOL    HW236384   4.634   2.611  13.486 -0.3811  1.8492  0.1212
 8308SOL     OW36385   1.800   3.810   4.796  0.3474  0.3839 -0.7317
 8308SOL    HW136386   1.832   3.893   4.831 -1.5914  1.4251 -1.4317
 8308SOL    HW236387   1.887   3.771   4.800 -0.3228 -0.8803  1.2620
 8309SOL     OW36388   2.160   1.189   7.939 -0.0767 -0.0043 -0.3594
 8309SOL    HW136389   2.103   1.250   7.987  1.7615  0.3066  1.4294
 8309SOL    HW236390   2.220   1.254   7.903 -0.5732 -0.4449 -1.9634
 8310SOL     OW36391   3.441   0.554  11.559 -0.9114 -0.7737 -0.2332
 8310SOL    HW136392   3.520   0.501  11.559  0.1269  0.7759 -0.8741
 8310SOL    HW236393   3.472   0.644  11.548 -1.0872 -0.9692 -2.3245
 8311SOL     OW36394   4.351   3.418  16.901 -0.1754  0.4900  0.2579
 8311SOL    HW136395   4.377   3.361  16.829  2.2653  0.1366  1.4082
 8311SOL    HW236396   4.432   3.431  16.951  0.8481  3.0891 -2.0502
 8312SOL     OW36397   1.252   3.545   4.266  0.0499 -0.4155 -0.5295
 8312SOL    HW136398   1.270   3.639   4.265  0.8406 -0.6012 -2.1556
 8312SOL    HW236399   1.292   3.533   4.352  0.9992 -0.0437 -0.9204
 8313SOL     OW36400   2.544   1.320   3.503 -0.6765  0.0139 -0.2738
 8313SOL    HW136401   2.640   1.316   3.502 -0.6079  1.3413  1.3335
 8313SOL    HW236402   2.521   1.396   3.556  0.2339  0.4114 -0.4530
 8314SOL     OW36403   3.691   2.658   5.971 -0.1861  0.2015  0.3930
 8314SOL    HW136404   3.666   2.567   5.990 -0.9672  0.1963 -0.6711
 8314SOL    HW236405   3.694   2.702   6.056 -0.5777  1.7019 -0.3786
 8315SOL     OW36406   1.090   1.534   8.250 -0.1872 -0.1356  0.6848
 8315SOL    HW136407   1.124   1.611   8.204  0.0325 -0.0610  0.9723
 8315SOL    HW236408   1.173   1.492   8.271  1.5025  2.1159 -1.3731
 8316SOL     OW36409   1.827   0.230   7.147 -0.3678  0.2863  0.3436
 8316SOL    HW136410   1.773   0.272   7.079 -1.0672 -1.1400  0.0167
 8316SOL    HW236411   1.906   0.221   7.094  0.3977 -1.5886  1.8219
 8317SOL     OW36412   3.463   1.578   8.577 -0.3845 -0.5730 -0.7112
 8317SOL    HW136413   3.518   1.504   8.550  0.4826 -0.4291  0.6483
 8317SOL    HW236414   3.506   1.603   8.659 -1.5436 -2.4928  0.4784
 8318SOL     OW36415   3.865   1.313   4.471 -0.4750 -0.2811  0.0073
 8318SOL    HW136416   3.914   1.259   4.410  1.0549  0.7401  0.3186
 8318SOL    HW236417   3.936   1.373   4.494 -1.6091  0.3277  1.9048
 8319SOL     OW36418   2.163   3.016   9.037 -0.1893  0.0189 -0.2218
 8319SOL    HW136419   2.185   3.104   9.006  1.8316 -1.3575 -2.6503
 8319SOL    HW236420   2.208   2.954   8.980 -0.0280  1.0884 -1.2517
 8320SOL     OW36421   2.246   4.514   4.318  0.0175 -0.2239 -0.0845
 8320SOL    HW136422   2.211   4.599   4.291 -0.7093  0.0711  1.8272
 8320SOL    HW236423   2.211   4.457   4.249  0.0126 -0.1827 -0.1159
 8321SOL     OW36424   2.664   3.547  10.805 -0.2156 -0.0713 -0.0049
 8321SOL    HW136425   2.721   3.599  10.748  0.5944  0.5973  1.4174
 8321SOL    HW236426   2.720   3.471  10.824  0.3793  0.6084  0.9808
 8322SOL     OW36427   4.468   0.858   4.740  0.1937  1.0419 -0.0833
 8322SOL    HW136428   4.394   0.895   4.692  1.0354  2.8910  0.0091
 8322SOL    HW236429   4.422   0.795   4.795  1.4472  0.5738  0.4457
 8323SOL     OW36430   1.100   1.844   0.397  0.1137  0.2245  0.1552
 8323SOL    HW136431   1.121   1.793   0.476 -1.8628  0.2557  0.7025
 8323SOL    HW236432   1.176   1.829   0.341 -0.6421  0.6022 -0.9695
 8324SOL     OW36433   4.188   0.782   3.118 -0.1701  0.0998 -0.1187
 8324SOL    HW136434   4.154   0.861   3.160  0.2568 -0.4131  1.1817
 8324SOL    HW236435   4.111   0.726   3.120 -0.2914  0.3194  1.1835
 8325SOL     OW36436   4.033   3.963  16.728  0.9422  0.0513  0.2921
 8325SOL    HW136437   4.100   3.983  16.793  1.8162 -1.3643 -0.1631
 8325SOL    HW236438   4.080   3.993  16.650  1.3580  0.5309  0.7332
 8326SOL     OW36439   1.600   3.109   7.457  0.4479 -0.1662 -0.2863
 8326SOL    HW136440   1.513   3.142   7.479 -0.1249 -0.6048 -1.9395
 8326SOL    HW236441   1.610   3.041   7.524 -0.0014 -0.4110 -0.4662
 8327SOL     OW36442   1.295   1.794   2.492  0.3482  0.6698 -0.1935
 8327SOL    HW136443   1.281   1.855   2.565 -1.2499 -0.0429  0.0984
 8327SOL    HW236444   1.268   1.842   2.414  2.8426 -0.6029 -1.8594
 8328SOL     OW36445   0.466   4.508  10.923  0.2414  0.0717  0.1073
 8328SOL    HW136446   0.489   4.594  10.958 -0.9296  1.3666 -2.3036
 8328SOL    HW236447   0.476   4.447  10.996  1.1391  1.3208  1.0302
 8329SOL     OW36448   1.634   3.083   6.251  0.0925 -0.0536  0.3432
 8329SOL    HW136449   1.611   3.020   6.183 -3.3363  2.2794 -0.6567
 8329SOL    HW236450   1.727   3.092   6.230  0.4372  1.0491  2.2775
 8330SOL     OW36451   2.715   3.675   7.141  0.1897 -0.1393 -0.7890
 8330SOL    HW136452   2.646   3.691   7.076  2.2063 -0.9412 -3.1229
 8330SOL    HW236453   2.669   3.609   7.193  1.3665  0.2705  0.7518
 8331SOL     OW36454   4.681   4.022   5.896  0.3582  0.1355  0.4782
 8331SOL    HW136455   4.593   4.008   5.931  0.3004  0.7785  0.5952
 8331SOL    HW236456   0.016   4.039   5.968  1.1896  0.5514 -0.3201
 8332SOL     OW36457   2.459   2.776   5.280  0.1367  0.1370  0.3982
 8332SOL    HW136458   2.505   2.857   5.302  1.1006 -0.8640  2.1039
 8332SOL    HW236459   2.465   2.784   5.185 -0.9852 -1.0398  0.2220
 8333SOL     OW36460   4.137   4.340  14.501 -0.5089 -0.7743 -0.3905
 8333SOL    HW136461   4.087   4.420  14.514 -0.2725 -1.1537  2.8646
 8333SOL    HW236462   4.104   4.321  14.413 -0.3144  2.0267 -1.0746
 8334SOL     OW36463   0.472   2.394   2.540 -0.8536  0.5522  0.3713
 8334SOL    HW136464   0.540   2.340   2.500  0.6463  1.6655  1.3919
 8334SOL    HW236465   0.453   2.338   2.615  0.2242 -0.9088 -0.4504
 8335SOL     OW36466   0.336   1.752  16.495 -0.1597 -0.8527  0.8076
 8335SOL    HW136467   0.294   1.674  16.529 -2.1707 -0.0882  0.0605
 8335SOL    HW236468   0.422   1.711  16.480  0.0270  0.4199 -1.7555
 8336SOL     OW36469   0.553   2.693   4.193  0.0855  0.0119  0.8518
 8336SOL    HW136470   0.599   2.692   4.109 -0.6818  0.6896  0.4274
 8336SOL    HW236471   0.524   2.784   4.189 -0.2310 -0.1040  0.4860
 8337SOL     OW36472   3.641   0.854   1.112 -0.0823 -0.0952 -0.3254
 8337SOL    HW136473   3.642   0.775   1.059 -1.5213 -0.2636 -0.0991
 8337SOL    HW236474   3.687   0.919   1.058  0.4685  1.2570  1.7591
 8338SOL     OW36475   1.079   3.581   6.356 -0.2412  0.0327  0.1992
 8338SOL    HW136476   1.072   3.608   6.448  3.0534 -2.3047  1.1408
 8338SOL    HW236477   1.141   3.508   6.360  0.1848  0.5237  2.9009
 8339SOL     OW36478   2.894   4.120   3.151 -0.7190  0.0280  0.2928
 8339SOL    HW136479   2.813   4.169   3.166 -0.8057  0.2708 -1.0394
 8339SOL    HW236480   2.957   4.181   3.189 -2.1703  0.6232  1.7880
 8340SOL     OW36481   3.929   4.345   5.556 -0.6577  0.1006 -0.1275
 8340SOL    HW136482   3.932   4.435   5.591 -1.4013  0.1420 -0.1709
 8340SOL    HW236483   3.855   4.301   5.598 -1.8782  0.7399 -1.6273
 8341SOL     OW36484   1.829   4.644   3.223  0.0169  0.1782 -0.3869
 8341SOL    HW136485   1.798   0.002   3.259 -0.2450  0.1575 -0.5672
 8341SOL    HW236486   1.748   4.610   3.186 -1.0923  0.4669  1.7988
 8342SOL     OW36487   3.739   1.200   2.081  0.0878 -0.4069 -0.5651
 8342SOL    HW136488   3.760   1.293   2.078  0.9265 -0.5778  0.1701
 8342SOL    HW236489   3.829   1.167   2.085  0.3818  0.4799 -0.0653
 8343SOL     OW36490   2.591   0.133   8.336  0.8907  0.2862  0.1994
 8343SOL    HW136491   2.588   0.087   8.252 -3.0832  0.9923 -0.0765
 8343SOL    HW236492   2.632   0.064   8.387  0.5860 -2.0861 -2.7798
 8344SOL     OW36493   0.084   2.013   4.474  0.1585 -0.0303  0.1875
 8344SOL    HW136494   0.014   2.079   4.476  0.3693  0.1946  0.2299
 8344SOL    HW236495   0.150   2.075   4.505  0.6369  0.2694 -1.4162
 8345SOL     OW36496   0.960   3.295   7.787  0.0604  0.1479  0.2002
 8345SOL    HW136497   0.999   3.210   7.768 -2.0025 -0.8704  0.4805
 8345SOL    HW236498   0.963   3.293   7.883 -0.4597  1.5403  0.2466
 8346SOL     OW36499   2.033   1.112   9.086  0.1785  0.6410 -0.4504
 8346SOL    HW136500   2.068   1.195   9.120  1.8413  0.1752 -1.0171
 8346SOL    HW236501   1.939   1.120   9.100  0.1399  1.1869 -1.0033
 8347SOL     OW36502   3.394   2.520  14.010  0.8128  0.3183 -0.7099
 8347SOL    HW136503   3.311   2.496  14.051  1.1380 -1.5778 -1.1567
 8347SOL    HW236504   3.424   2.569  14.086  2.8586 -0.9098 -0.7323
 8348SOL     OW36505   3.019   3.477   4.534 -0.2220 -1.2176 -0.4287
 8348SOL    HW136506   2.965   3.449   4.609 -0.1146 -1.1329 -0.3200
 8348SOL    HW236507   3.070   3.536   4.590 -0.7230 -0.1084 -1.1446
 8349SOL     OW36508   4.037   4.719   3.129  0.3504 -0.0211  0.0673
 8349SOL    HW136509   4.096   4.655   3.088  0.9725  0.6964 -0.1440
 8349SOL    HW236510   4.096   0.066   3.107  0.5907 -0.3010 -0.2219
 8350SOL     OW36511   1.326   0.433   9.236  0.1422 -0.6056 -0.4374
 8350SOL    HW136512   1.379   0.379   9.178  1.1819 -1.8474  1.6736
 8350SOL    HW236513   1.244   0.387   9.221 -0.1041  0.3628 -2.0911
 8351SOL     OW36514   4.437   1.064   8.551 -0.2684  0.0944  0.0751
 8351SOL    HW136515   4.483   0.987   8.584  0.3440  1.1091  1.6002
 8351SOL    HW236516   4.433   1.121   8.628 -0.2802 -1.5059  1.2703
 8352SOL     OW36517   3.190   3.491   3.219  0.0926  0.2459 -0.0275
 8352SOL    HW136518   3.178   3.542   3.139  0.6648  1.2394  0.5172
 8352SOL    HW236519   3.185   3.564   3.280  2.5605  0.7948 -0.4620
 8353SOL     OW36520   2.103   0.624   6.457  0.4592 -0.4083 -0.1460
 8353SOL    HW136521   2.070   0.555   6.514 -1.9611  1.1641  0.3500
 8353SOL    HW236522   2.194   0.641   6.483 -0.1700 -0.8889  2.3923
 8354SOL     OW36523   4.477   3.612   7.264  1.2836 -0.3740 -0.0849
 8354SOL    HW136524   4.459   3.552   7.191 -0.8048 -0.2378  0.3021
 8354SOL    HW236525   4.398   3.600   7.317  1.2625 -1.4611 -0.3558
 8355SOL     OW36526   2.593   2.783   4.524 -0.5888 -0.4865  0.0368
 8355SOL    HW136527   2.673   2.734   4.546  0.4745  1.3731  0.3405
 8355SOL    HW236528   2.532   2.709   4.524  0.2818 -1.2194  0.0347
 8356SOL     OW36529   2.818   3.355   5.070 -0.3121  0.7520  0.6286
 8356SOL    HW136530   2.767   3.437   5.064 -1.6436 -0.1224  0.0147
 8356SOL    HW236531   2.902   3.398   5.080 -0.6034  1.3035  0.7320
 8357SOL     OW36532   4.700   2.702   2.117  0.3092  0.0494  0.1061
 8357SOL    HW136533   0.018   2.620   2.093 -1.0678 -1.0225  1.2601
 8357SOL    HW236534   4.723   2.754   2.040 -1.0784  2.9159  1.6421
 8358SOL     OW36535   1.229   0.101   8.748 -0.3931 -0.6657  0.1725
 8358SOL    HW136536   1.164   0.105   8.818 -1.8932 -1.2817 -1.1819
 8358SOL    HW236537   1.252   0.192   8.730  0.9274 -1.3990 -1.8427
 8359SOL     OW36538   2.608   3.214   2.888  0.3245 -0.2924 -0.0178
 8359SOL    HW136539   2.619   3.309   2.884 -0.8190 -0.0861  1.6386
 8359SOL    HW236540   2.513   3.219   2.886  0.3956  0.9191 -0.4056
 8360SOL     OW36541   0.910   1.402  12.558 -0.4501  0.0875 -0.1927
 8360SOL    HW136542   0.900   1.340  12.486 -2.3037 -1.6097  1.5243
 8360SOL    HW236543   0.821   1.435  12.563 -1.7756 -3.1101 -2.5064
 8361SOL     OW36544   2.224   4.163   3.503  0.8331 -0.1599 -0.2810
 8361SOL    HW136545   2.164   4.091   3.524 -0.0017  1.5069  3.1105
 8361SOL    HW236546   2.189   4.196   3.421  1.3262  0.0151 -0.4155
 8362SOL     OW36547   2.700   0.390   1.725 -0.5541 -0.3713  0.6731
 8362SOL    HW136548   2.780   0.341   1.746  0.5423  0.5643 -1.2200
 8362SOL    HW236549   2.639   0.348   1.784  1.2306 -2.2342  1.2192
 8363SOL     OW36550   3.559   4.128  17.043 -0.1481  0.8619  0.4649
 8363SOL    HW136551   3.578   4.152  16.952  3.1504  1.7598  1.3735
 8363SOL    HW236552   3.581   4.206  17.095  1.2363  1.0783 -0.4440
 8364SOL     OW36553   0.785   1.676   5.240  0.5967  0.9784 -0.4210
 8364SOL    HW136554   0.771   1.589   5.279  0.1281 -0.4337 -3.6936
 8364SOL    HW236555   0.853   1.715   5.295  0.7558 -0.2779  0.2746
 8365SOL     OW36556   0.780   4.156   5.141 -0.2655  0.1202  0.0684
 8365SOL    HW136557   0.769   4.250   5.130  3.2852  0.3627 -1.2913
 8365SOL    HW236558   0.700   4.127   5.185  0.4669 -0.7747  0.8087
 8366SOL     OW36559   2.292   0.493   4.919  0.0453  0.5075 -0.3881
 8366SOL    HW136560   2.240   0.413   4.912  1.2077 -0.4190  1.4808
 8366SOL    HW236561   2.265   0.516   5.008 -2.8040 -2.2173 -0.5502
 8367SOL     OW36562   1.385   2.936   0.315 -0.1550 -0.0773 -0.1634
 8367SOL    HW136563   1.447   2.953   0.244  2.2818 -1.7491  1.5468
 8367SOL    HW236564   1.392   3.020   0.360  1.7971  0.1945 -0.9704
 8368SOL     OW36565   1.210   0.539   1.278 -0.5680 -0.4040 -0.6650
 8368SOL    HW136566   1.148   0.475   1.244 -0.0235 -1.3499  0.1390
 8368SOL    HW236567   1.278   0.480   1.309 -1.6792 -1.6755 -0.6337
 8369SOL     OW36568   0.852   3.066   5.647 -0.1833  0.0174 -0.7550
 8369SOL    HW136569   0.817   3.005   5.711 -0.6912  1.5106  0.3699
 8369SOL    HW236570   0.795   3.137   5.673  1.3717  0.9939 -0.0123
 8370SOL     OW36571   2.556   1.927   7.377 -0.1975 -0.5901 -0.0841
 8370SOL    HW136572   2.512   1.863   7.433  1.6227 -1.8933 -0.1282
 8370SOL    HW236573   2.486   1.990   7.358  1.8617  1.9363  0.7578
 8371SOL     OW36574   0.781   0.581   6.776 -0.4711 -0.5317  0.0342
 8371SOL    HW136575   0.710   0.522   6.749 -0.7509 -0.4470  0.5879
 8371SOL    HW236576   0.823   0.524   6.840 -0.7045  0.8846  1.4451
 8372SOL     OW36577   1.022   0.743   7.358  0.1366 -0.3383 -0.1369
 8372SOL    HW136578   0.971   0.719   7.281  1.6992 -0.8585 -1.0114
 8372SOL    HW236579   1.083   0.669   7.360  0.0284 -0.3986  1.2051
 8373SOL     OW36580   0.019   1.009   4.220 -0.0276  0.3386  0.1921
 8373SOL    HW136581   0.100   1.049   4.251 -0.0538  0.0157  0.6872
 8373SOL    HW236582   4.704   0.972   4.299 -0.4787 -0.1110 -0.2531
 8374SOL     OW36583   0.587   4.435  14.976 -0.2826 -0.4389  0.0878
 8374SOL    HW136584   0.572   4.520  14.933  0.5834 -1.3304 -1.9822
 8374SOL    HW236585   0.516   4.387  14.933 -1.1607 -0.2767  1.3483
 8375SOL     OW36586   0.022   1.913   7.018 -0.1771 -0.6917  0.7559
 8375SOL    HW136587   0.016   2.008   7.012 -0.7078 -0.8986 -1.7155
 8375SOL    HW236588   0.112   1.918   7.048 -0.2394 -0.5163  0.9162
 8376SOL     OW36589   3.558   0.950   5.109 -0.2216  0.4199  1.1660
 8376SOL    HW136590   3.481   0.921   5.157  0.3924  2.4666  3.3622
 8376SOL    HW236591   3.550   1.045   5.096  4.5961  0.7188  0.5004
 8377SOL     OW36592   0.043   0.476   7.156 -0.0862  0.1165  0.2529
 8377SOL    HW136593   4.683   0.435   7.139  0.4327 -0.4637 -1.0017
 8377SOL    HW236594   0.030   0.542   7.224  0.8074  0.3947  0.1450
 8378SOL     OW36595   4.680   3.327   3.127 -0.1142  0.0892 -0.2135
 8378SOL    HW136596   0.047   3.310   3.110  0.6556  0.7523  3.1822
 8378SOL    HW236597   4.676   3.325   3.223 -0.4528 -1.5177 -0.2457
 8379SOL     OW36598   0.104   1.253  15.687  0.1667  0.1895  0.4563
 8379SOL    HW136599   0.146   1.330  15.725  1.4572 -0.4557  0.3754
 8379SOL    HW236600   0.098   1.288  15.598  0.7089 -1.3768 -0.1987
 8380SOL     OW36601   0.521   4.014   5.674 -0.3529  0.2246  0.0553
 8380SOL    HW136602   0.610   4.047   5.666  0.0300 -0.9125 -0.3484
 8380SOL    HW236603   0.532   3.979   5.762  2.1984  0.1426 -0.3189
 8381SOL     OW36604   4.378   4.049   4.261  0.0026 -0.3245  0.3373
 8381SOL    HW136605   4.383   4.015   4.172  0.9885  0.7979 -0.0264
 8381SOL    HW236606   4.282   4.048   4.262 -0.0176  0.4952 -1.2395
 8382SOL     OW36607   2.100   4.362   7.722 -0.0287 -0.5916 -0.5097
 8382SOL    HW136608   2.087   4.309   7.800 -0.7973  1.9780  1.1210
 8382SOL    HW236609   2.087   4.449   7.761  0.1186 -0.1326 -1.4918
 8383SOL     OW36610   0.585   4.559   0.958 -0.0961 -0.4251  0.1493
 8383SOL    HW136611   0.545   4.608   0.886 -0.2362  0.6418  0.9591
 8383SOL    HW236612   0.617   4.634   1.007 -1.6178  0.1759  0.1989
 8384SOL     OW36613   4.269   0.319   7.799 -0.3410 -0.4724  0.3054
 8384SOL    HW136614   4.264   0.369   7.881 -1.5968  0.6886 -0.4731
 8384SOL    HW236615   4.362   0.294   7.799  1.1886  5.2114  1.6198
 8385SOL     OW36616   4.468   4.563  13.415 -0.1685  0.3479  0.2930
 8385SOL    HW136617   4.420   4.646  13.406  0.0373  0.7181  2.5864
 8385SOL    HW236618   4.417   4.534  13.490 -0.4665 -1.4023 -0.5822
 8386SOL     OW36619   1.158   1.564   5.784 -0.5709 -0.4721  0.3489
 8386SOL    HW136620   1.103   1.559   5.862 -0.7563  1.9554  0.3722
 8386SOL    HW236621   1.233   1.617   5.811 -0.1238 -0.9514  0.0485
 8387SOL     OW36622   0.891   2.740   0.115 -0.7089 -0.1566  0.0356
 8387SOL    HW136623   0.980   2.777   0.118  0.0125 -1.9803  1.2400
 8387SOL    HW236624   0.832   2.808   0.081  0.6450  1.3142  0.6086
 8388SOL     OW36625   1.879   2.288   7.273  0.0184  0.2880  0.1148
 8388SOL    HW136626   1.800   2.282   7.220  0.2235 -1.3237 -0.0179
 8388SOL    HW236627   1.907   2.197   7.261  2.6668  1.4720 -2.7050
 8389SOL     OW36628   4.244   0.890   5.955 -0.7925 -0.6751 -0.6564
 8389SOL    HW136629   4.304   0.860   6.023 -1.6642 -2.9501 -0.8874
 8389SOL    HW236630   4.277   0.852   5.873  1.3385 -0.0236 -0.1061
 8390SOL     OW36631   1.225   4.196  17.360  0.3431 -0.3348  0.6956
 8390SOL    HW136632   1.161   4.267  17.353  0.6850 -0.1416 -0.4474
 8390SOL    HW236633   1.170   4.124  17.330 -0.0631 -1.0561  3.2052
 8391SOL     OW36634   1.925   2.901  15.148  0.1801 -0.1141  0.1006
 8391SOL    HW136635   2.017   2.877  15.137  0.2768  0.0315  0.5823
 8391SOL    HW236636   1.920   2.988  15.107 -1.1482  0.4096  1.3687
 8392SOL     OW36637   3.438   0.727  12.212  0.5419 -0.1614 -0.1201
 8392SOL    HW136638   3.362   0.781  12.189  1.4094  0.4466 -1.5372
 8392SOL    HW236639   3.395   0.643  12.231  0.4319  0.4283  2.1452
 8393SOL     OW36640   1.179   2.480   9.691 -0.8827  0.6475  0.3402
 8393SOL    HW136641   1.104   2.447   9.641 -1.0282  1.8202 -0.2064
 8393SOL    HW236642   1.154   2.572   9.702  1.1206  1.1405  0.7968
 8394SOL     OW36643   3.462   4.398   7.069  0.3971 -0.1268 -0.0446
 8394SOL    HW136644   3.432   4.324   7.016 -0.8730  0.8124 -0.6173
 8394SOL    HW236645   3.486   4.459   7.000 -0.0702  0.8412  0.6618
 8395SOL     OW36646   2.163   3.170   6.390  0.0186  0.4604  1.0272
 8395SOL    HW136647   2.079   3.139   6.357  1.4293 -0.6153 -1.5489
 8395SOL    HW236648   2.211   3.158   6.308 -0.7296  1.8622  0.3917
 8396SOL     OW36649   2.660   0.759  11.898  0.1591  0.6708 -0.1253
 8396SOL    HW136650   2.581   0.768  11.952  0.6350 -0.2971  0.7337
 8396SOL    HW236651   2.631   0.685  11.845 -0.8210  0.8236  0.1963
 8397SOL     OW36652   2.529   1.088  16.668 -0.4669  0.1456  0.2942
 8397SOL    HW136653   2.550   0.996  16.654  1.4294  0.2028  2.8761
 8397SOL    HW236654   2.565   1.098  16.756 -0.0548 -0.9175  0.2511
 8398SOL     OW36655   1.036   0.426  10.623  0.1453  0.4170  0.2097
 8398SOL    HW136656   1.072   0.514  10.612  0.6110  0.3655  1.2722
 8398SOL    HW236657   1.103   0.370  10.585  0.9752  0.9305  0.9073
 8399SOL     OW36658   3.370   2.919  14.381 -0.0361 -0.0691  0.5829
 8399SOL    HW136659   3.427   2.978  14.429  0.7865 -2.0886  2.0760
 8399SOL    HW236660   3.412   2.835  14.397 -1.7777 -1.3840 -1.8618
 8400SOL     OW36661   1.867   2.388   2.737 -0.2437  0.0137 -0.4918
 8400SOL    HW136662   1.882   2.467   2.684  0.9281  0.0449 -0.1019
 8400SOL    HW236663   1.799   2.362   2.675 -1.6722  1.3885  0.4918
 8401SOL     OW36664   3.273   1.437   0.858 -0.3392  0.1559  0.2074
 8401SOL    HW136665   3.256   1.531   0.855  0.4637  0.2392 -2.4545
 8401SOL    HW236666   3.186   1.406   0.881 -0.5802  1.8533  1.5528
 8402SOL     OW36667   2.516   3.114   4.788 -0.0648 -0.7187 -0.2744
 8402SOL    HW136668   2.579   3.044   4.766  1.2044  0.8337 -1.6283
 8402SOL    HW236669   2.574   3.162   4.847 -1.5991 -2.0578  2.2829
 8403SOL     OW36670   4.301   4.298  14.970  0.0550  0.1037  0.1525
 8403SOL    HW136671   4.376   4.349  14.939 -0.4187 -0.3601 -1.7563
 8403SOL    HW236672   4.233   4.348  14.924 -1.3291 -1.3948  0.5677
 8404SOL     OW36673   0.904   3.038   5.389 -0.2504  0.5031  0.0586
 8404SOL    HW136674   0.885   3.043   5.482 -0.2265  1.6711  0.0094
 8404SOL    HW236675   0.867   3.122   5.361  0.0508  0.2866 -0.9865
 8405SOL     OW36676   2.269   4.644   0.702  0.2538 -0.5905  0.2076
 8405SOL    HW136677   2.302   4.584   0.770 -0.7264  0.2612  1.4234
 8405SOL    HW236678   2.337   4.636   0.634  1.9664  4.3278  1.3632
 8406SOL     OW36679   4.075   3.383   8.606  0.2709 -0.6039  0.5971
 8406SOL    HW136680   4.076   3.327   8.528 -1.9762  1.4080 -0.8573
 8406SOL    HW236681   4.116   3.314   8.659  0.3037 -0.7601  0.3691
 8407SOL     OW36682   4.536   1.202  13.905  0.2650 -0.3698 -0.0023
 8407SOL    HW136683   4.485   1.173  13.828  2.1788  1.4607 -1.9386
 8407SOL    HW236684   4.564   1.290  13.882  0.2712 -1.1843 -3.1359
 8408SOL     OW36685   2.201   2.464   0.870  0.1310  0.2823  0.4436
 8408SOL    HW136686   2.208   2.524   0.796  1.3332 -1.8970 -1.1936
 8408SOL    HW236687   2.109   2.479   0.892 -0.0198  0.5808 -0.3701
 8409SOL     OW36688   4.687   0.050   7.783  0.3166  0.0919  0.1191
 8409SOL    HW136689   4.599   0.028   7.811 -0.1759  0.1293 -1.3986
 8409SOL    HW236690   0.001   4.691   7.759  0.2367 -0.0394  0.4562
 8410SOL     OW36691   0.394   1.684   7.167 -0.3644  0.0403 -0.5307
 8410SOL    HW136692   0.333   1.757   7.165  0.4418  0.7114 -0.6044
 8410SOL    HW236693   0.370   1.640   7.248 -0.2847  1.9365  0.5141
 8411SOL     OW36694   3.326   3.157  13.660  0.8549 -0.5368  0.0364
 8411SOL    HW136695   3.302   3.161  13.753 -0.4364  1.3438 -0.3701
 8411SOL    HW236696   3.278   3.229  13.619 -0.4876 -0.0848  2.3849
 8412SOL     OW36697   2.070   1.870   7.449 -0.2076 -0.1084 -0.5685
 8412SOL    HW136698   2.060   1.963   7.470  0.8245 -0.2553  0.6089
 8412SOL    HW236699   2.133   1.879   7.378  1.8358 -2.4018  0.9318
 8413SOL     OW36700   4.232   2.047   8.430 -0.1131 -0.2604  0.8226
 8413SOL    HW136701   4.222   1.968   8.483 -0.2674 -1.5333 -1.1083
 8413SOL    HW236702   4.303   2.017   8.373 -1.6427 -4.0190  0.8930
 8414SOL     OW36703   1.474   0.247   9.848 -0.1481 -0.2265 -0.6175
 8414SOL    HW136704   1.559   0.209   9.869  1.0311  1.4000 -2.4745
 8414SOL    HW236705   1.428   0.208   9.923 -0.5554 -0.1671 -0.8326
 8415SOL     OW36706   3.708   2.802   1.773  0.5354  0.0365  0.3450
 8415SOL    HW136707   3.753   2.758   1.845 -3.7963 -1.0242  2.4131
 8415SOL    HW236708   3.618   2.770   1.786  0.5609 -0.7380 -1.2738
 8416SOL     OW36709   0.880   2.018   3.774  0.5968 -0.3044  0.3026
 8416SOL    HW136710   0.867   2.026   3.680 -1.8280 -1.7843  0.5210
 8416SOL    HW236711   0.920   2.104   3.786 -3.1651  1.0145  3.5779
 8417SOL     OW36712   3.082   0.613  12.497 -1.0428  0.2385 -0.1309
 8417SOL    HW136713   3.052   0.634  12.585  0.1804 -0.3807  0.4339
 8417SOL    HW236714   3.031   0.679  12.450 -1.3212  0.2153  0.1408
 8418SOL     OW36715   2.633   2.637   8.880 -0.0752  0.7950 -0.0046
 8418SOL    HW136716   2.621   2.542   8.875  2.4758  0.4768  0.0972
 8418SOL    HW236717   2.580   2.667   8.806  1.2271 -0.6191 -1.5019
 8419SOL     OW36718   0.326   1.138  15.185  0.1518  0.3478  0.2017
 8419SOL    HW136719   0.336   1.158  15.092  1.1101 -1.8611 -0.1736
 8419SOL    HW236720   0.283   1.053  15.190 -0.1864  0.6639  2.7797
 8420SOL     OW36721   2.059   1.593   2.187  0.0940  0.0599 -0.0959
 8420SOL    HW136722   2.124   1.548   2.132 -0.2318  0.2679 -0.6457
 8420SOL    HW236723   2.053   1.533   2.262  3.1929 -0.6563 -0.3873
 8421SOL     OW36724   3.698   0.300   1.247 -0.1347  0.5627  0.4038
 8421SOL    HW136725   3.688   0.306   1.152  1.1675  1.6005  0.3350
 8421SOL    HW236726   3.608   0.310   1.277 -0.5909  0.1110 -0.8343
 8422SOL     OW36727   3.168   0.482   5.168 -0.6382 -0.1273  0.6193
 8422SOL    HW136728   3.250   0.478   5.217 -0.0512  3.0455 -0.1424
 8422SOL    HW236729   3.138   0.391   5.177  1.5334 -0.7987  1.0781
 8423SOL     OW36730   3.608   0.251   8.737 -0.3017 -0.3617  0.0079
 8423SOL    HW136731   3.583   0.258   8.645  1.2789  1.8071 -0.2514
 8423SOL    HW236732   3.628   0.341   8.763  0.4861 -0.0487 -1.7244
 8424SOL     OW36733   0.435   1.877   4.145 -0.0428 -0.1306  0.0325
 8424SOL    HW136734   0.420   1.784   4.126  0.0408  0.1111 -1.1705
 8424SOL    HW236735   0.531   1.871   4.148 -0.0341 -1.1977 -2.0773
 8425SOL     OW36736   0.232   1.897   6.473  0.1493  0.0044  0.1363
 8425SOL    HW136737   0.272   1.982   6.491  2.2303 -1.0383  0.5348
 8425SOL    HW236738   0.277   1.875   6.391 -1.3986 -2.1769 -0.1259
 8426SOL     OW36739   0.528   0.867   1.974 -0.6922 -1.1124  0.0943
 8426SOL    HW136740   0.589   0.907   2.036 -0.4871  0.6385 -1.2441
 8426SOL    HW236741   0.587   0.821   1.916 -1.2033 -0.0664 -1.2511
 8427SOL     OW36742   3.162   2.916   8.988  0.2095 -0.7408  0.2328
 8427SOL    HW136743   3.226   2.847   8.968  0.3357  0.7059 -4.2588
 8427SOL    HW236744   3.125   2.924   8.900 -0.4474 -2.4237  0.3486
 8428SOL     OW36745   1.169   2.362   8.158  0.5920 -0.0114  0.4243
 8428SOL    HW136746   1.205   2.437   8.205  1.9541 -0.5111  0.1743
 8428SOL    HW236747   1.088   2.398   8.122  0.8067 -0.4740 -0.5198
 8429SOL     OW36748   1.455   0.463   3.441 -0.2779  0.1505  0.2436
 8429SOL    HW136749   1.450   0.549   3.483  2.2619  0.4546 -0.0291
 8429SOL    HW236750   1.536   0.429   3.480  0.3300  1.2250 -0.0979
 8430SOL     OW36751   2.092   0.547   7.183 -0.2369 -0.6412 -0.1585
 8430SOL    HW136752   2.110   0.613   7.116 -1.2338  1.6854  1.8879
 8430SOL    HW236753   2.139   0.589   7.255 -0.8099 -1.6805  0.8212
 8431SOL     OW36754   3.062   2.850   8.332 -0.0906 -0.6903 -0.4484
 8431SOL    HW136755   3.027   2.768   8.297 -1.5822 -0.5562  0.7358
 8431SOL    HW236756   2.986   2.886   8.377  1.5178  1.4493  0.5239
 8432SOL     OW36757   1.862   4.702   4.936 -0.1381 -0.1293 -0.1822
 8432SOL    HW136758   1.861   4.607   4.929  1.1251  0.0088 -2.1956
 8432SOL    HW236759   1.906   4.714   5.021  0.5980  1.0533 -0.7288
 8433SOL     OW36760   1.126   3.862   8.039  0.5504  0.3094  0.0124
 8433SOL    HW136761   1.154   3.807   7.965 -1.8207 -0.5423 -0.2558
 8433SOL    HW236762   1.039   3.885   8.007  0.0236 -3.1709 -1.0450
 8434SOL     OW36763   0.721   2.552   7.864 -0.5270 -0.1101  1.0407
 8434SOL    HW136764   0.641   2.548   7.811 -0.1055  4.6821  0.0069
 8434SOL    HW236765   0.725   2.648   7.871 -1.6065  0.0489 -0.4095
 8435SOL     OW36766   2.356   0.541  11.524  0.3530 -0.1445 -0.0141
 8435SOL    HW136767   2.308   0.577  11.599 -0.1452  1.7743 -1.2498
 8435SOL    HW236768   2.318   0.454  11.525 -0.7358  0.3585  2.3776
 8436SOL     OW36769   1.271   0.988   8.891 -0.6436  0.3971 -0.0476
 8436SOL    HW136770   1.335   1.016   8.825 -2.0008  1.7836 -0.7846
 8436SOL    HW236771   1.281   1.035   8.974  0.3098 -1.5706  0.9498
 8437SOL     OW36772   4.244   4.045   1.526  0.0091 -0.1594  0.1159
 8437SOL    HW136773   4.280   4.077   1.609  1.0431  0.7164 -0.6627
 8437SOL    HW236774   4.161   4.003   1.548 -1.0410  0.4932 -2.6077
 8438SOL     OW36775   1.073   2.725   5.307  0.3821  0.8127  0.5134
 8438SOL    HW136776   1.098   2.757   5.394  0.7220  4.1753 -0.8127
 8438SOL    HW236777   1.042   2.807   5.267  0.0892 -0.8387 -2.6630
 8439SOL     OW36778   1.720   3.976   2.542 -0.6468  0.2428  0.4376
 8439SOL    HW136779   1.753   3.887   2.527 -1.7916 -0.2624  0.9418
 8439SOL    HW236780   1.732   4.005   2.451 -2.4104  2.9718  1.0885
 8440SOL     OW36781   0.191   3.160   7.678  0.3488  0.1032  0.2485
 8440SOL    HW136782   0.215   3.217   7.605 -0.1463 -2.0944 -1.6316
 8440SOL    HW236783   0.119   3.116   7.633  1.5185 -0.4907 -1.0355
 8441SOL     OW36784   3.361   1.880   4.400 -0.7090  0.1837  0.0441
 8441SOL    HW136785   3.287   1.827   4.370  1.1192 -1.6689 -1.2249
 8441SOL    HW236786   3.404   1.907   4.318  0.4019 -1.5733  0.0503
 8442SOL     OW36787   4.448   0.522  12.353 -0.7832  0.1535  0.6372
 8442SOL    HW136788   4.381   0.565  12.300  0.1745 -1.0410 -1.5655
 8442SOL    HW236789   4.469   0.593  12.414  0.2923  2.2871 -2.1767
 8443SOL     OW36790   2.085   0.120   9.084 -0.7367  0.0448  0.4356
 8443SOL    HW136791   2.146   0.180   9.042  1.1796 -2.8489 -0.9074
 8443SOL    HW236792   2.004   0.170   9.094  0.7849  2.7629 -0.8214
 8444SOL     OW36793   3.441   1.864   9.025 -0.1920 -0.3807 -0.2633
 8444SOL    HW136794   3.351   1.887   9.048  0.3978  0.1441  1.5700
 8444SOL    HW236795   3.487   1.878   9.108 -0.1394 -1.6952 -0.0796
 8445SOL     OW36796   1.785   4.593  10.509  0.1213 -0.4155 -0.2274
 8445SOL    HW136797   1.857   4.655  10.522 -1.4230  0.9911  1.8178
 8445SOL    HW236798   1.733   4.635  10.578  0.4488 -0.4992  0.0714
 8446SOL     OW36799   3.460   2.662   8.138 -0.2639 -0.7252  0.9023
 8446SOL    HW136800   3.450   2.580   8.090 -3.2031 -0.4676  1.1147
 8446SOL    HW236801   3.374   2.665   8.178 -0.3307  1.6229  0.5415
 8447SOL     OW36802   1.791   1.314   4.437 -0.0124 -0.1185  0.0272
 8447SOL    HW136803   1.846   1.281   4.507  0.5780 -0.7907 -0.7621
 8447SOL    HW236804   1.707   1.328   4.481 -0.6244  0.7200 -1.3748
 8448SOL     OW36805   4.169   0.282   2.578  0.4892  0.4333 -0.2496
 8448SOL    HW136806   4.246   0.308   2.528  1.8563 -4.4860 -0.6668
 8448SOL    HW236807   4.132   0.228   2.509 -1.0648  0.1119  0.8378
 8449SOL     OW36808   4.179   3.724   4.002 -0.0967  0.0378  0.1411
 8449SOL    HW136809   4.146   3.647   4.048  1.7051 -1.1013 -0.5112
 8449SOL    HW236810   4.270   3.730   4.028  0.7632 -0.3060 -2.7264
 8450SOL     OW36811   2.742   1.267  12.396  0.1431  0.1569 -0.1256
 8450SOL    HW136812   2.662   1.307  12.431 -0.1509 -1.6170  1.2624
 8450SOL    HW236813   2.763   1.213  12.472  0.5240 -1.2687 -1.2354
 8451SOL     OW36814   3.232   1.489   5.394 -0.2677 -0.4067 -0.4007
 8451SOL    HW136815   3.142   1.516   5.412 -0.1554 -0.1977 -0.1548
 8451SOL    HW236816   3.224   1.408   5.344 -0.4887 -0.1049 -0.8514
 8452SOL     OW36817   1.272   4.267   3.788  0.1099  0.2384 -0.0694
 8452SOL    HW136818   1.276   4.221   3.703 -2.4494  0.1214 -0.1305
 8452SOL    HW236819   1.367   4.279   3.795  0.1595  0.7980 -1.7165
 8453SOL     OW36820   1.739   3.552   7.499  0.2629  0.1853 -0.1882
 8453SOL    HW136821   1.834   3.550   7.505  0.2837  2.5454  0.2702
 8453SOL    HW236822   1.724   3.636   7.455 -1.0788  0.9268  1.6881
 8454SOL     OW36823   3.676   3.347   0.646 -0.5696 -0.0075  0.4994
 8454SOL    HW136824   3.703   3.258   0.620 -1.9808 -0.5206  0.8272
 8454SOL    HW236825   3.686   3.341   0.741  1.6585 -2.0786  0.1574
 8455SOL     OW36826   0.979   1.926  16.639 -0.8873 -0.5375  0.3476
 8455SOL    HW136827   1.056   1.879  16.608  0.1067  0.8400  0.7337
 8455SOL    HW236828   0.996   1.922  16.733  3.1382 -0.4434 -0.3894
 8456SOL     OW36829   1.343   1.111  11.537  0.0182  0.3162  0.0611
 8456SOL    HW136830   1.296   1.172  11.479  0.7021 -0.7279 -1.5760
 8456SOL    HW236831   1.428   1.120  11.495 -0.5714  1.4075 -0.9018
 8457SOL     OW36832   3.539   2.756   3.969 -0.0947  0.7939  0.2385
 8457SOL    HW136833   3.588   2.706   3.903 -0.8203  1.0373 -0.4706
 8457SOL    HW236834   3.451   2.761   3.933 -0.4133  0.2279  0.9402
 8458SOL     OW36835   1.953   3.769  10.407 -0.0439 -0.1270  0.3932
 8458SOL    HW136836   1.905   3.851  10.401 -0.4578 -0.3373  0.8259
 8458SOL    HW236837   1.909   3.728  10.481 -1.2897 -0.2915 -0.4316
 8459SOL     OW36838   4.022   3.233   2.727 -0.3128 -0.1639  0.0842
 8459SOL    HW136839   4.031   3.322   2.691 -0.5510  0.7722  2.3572
 8459SOL    HW236840   4.007   3.191   2.642  0.8699 -0.1471 -0.1332
 8460SOL     OW36841   2.481   0.526   2.219 -0.1265 -0.5697 -0.5123
 8460SOL    HW136842   2.409   0.587   2.204  1.1291  0.9758 -0.2450
 8460SOL    HW236843   2.551   0.559   2.163 -1.1023 -1.0717 -2.0346
 8461SOL     OW36844   0.119   3.159   2.851 -0.0415  0.2254 -0.2528
 8461SOL    HW136845   0.049   3.112   2.897 -0.6669  0.4660 -0.9472
 8461SOL    HW236846   0.176   3.157   2.928 -1.8670 -0.3588  1.0929
 8462SOL     OW36847   2.766   1.295   9.847  0.4248  0.3325 -0.4411
 8462SOL    HW136848   2.801   1.210   9.875 -1.1653 -1.0823 -2.7755
 8462SOL    HW236849   2.847   1.338   9.875 -0.1661  0.4306  1.1198
 8463SOL     OW36850   1.480   4.409   6.170 -0.0187 -0.4789 -0.0942
 8463SOL    HW136851   1.458   4.394   6.262 -0.2165 -0.1162 -0.0837
 8463SOL    HW236852   1.497   4.503   6.163 -1.1327 -0.3804 -1.6646
 8464SOL     OW36853   0.993   0.039   8.475 -0.2094 -0.0066  0.1492
 8464SOL    HW136854   0.922   0.039   8.539  0.9957  1.7507  1.4995
 8464SOL    HW236855   0.961   0.118   8.431  0.7352 -0.4846 -1.4086
 8465SOL     OW36856   1.648   4.009   3.815 -0.2214  0.7965 -0.0390
 8465SOL    HW136857   1.735   3.996   3.855 -0.3203 -0.7732 -0.3109
 8465SOL    HW236858   1.595   3.979   3.889  0.4505  0.7151  0.4107
 8466SOL     OW36859   0.405   1.411   3.556  0.1899 -0.2600  0.4267
 8466SOL    HW136860   0.423   1.427   3.464  0.8741  0.4641  0.6881
 8466SOL    HW236861   0.377   1.320   3.547  0.8208 -0.5017  0.8732
 8467SOL     OW36862   3.055   4.136   4.590 -0.6013  0.1500  0.2257
 8467SOL    HW136863   3.051   4.136   4.495  1.0920  0.0163  0.1473
 8467SOL    HW236864   3.122   4.070   4.609  0.8010  0.7600 -2.6910
 8468SOL     OW36865   2.198   3.593   3.296  0.5953 -0.1434 -0.0089
 8468SOL    HW136866   2.263   3.522   3.304  0.9940  0.4504  2.1385
 8468SOL    HW236867   2.175   3.597   3.204 -2.0233 -2.1195  0.5528
 8469SOL     OW36868   2.942   0.089   0.578  0.2559 -0.1224 -1.2343
 8469SOL    HW136869   3.001   0.079   0.653 -1.5329 -1.7880 -0.0609
 8469SOL    HW236870   3.005   0.048   0.517  1.1230  1.3183 -1.3157
 8470SOL     OW36871   0.293   3.443  11.405 -0.0083 -0.3710  0.5789
 8470SOL    HW136872   0.221   3.416  11.461  0.0632 -2.1288 -0.1624
 8470SOL    HW236873   0.257   3.425  11.318 -0.8353  3.3763  0.1506
 8471SOL     OW36874   0.229   3.193   3.147 -0.1720  0.0549  0.0108
 8471SOL    HW136875   0.174   3.161   3.219  1.1258 -0.2313  0.8855
 8471SOL    HW236876   0.316   3.156   3.165 -1.0981 -1.2898  1.8009
 8472SOL     OW36877   1.213   1.951   5.231  0.7915  0.0126  0.4089
 8472SOL    HW136878   1.252   1.962   5.318  0.2276  4.0033  0.1376
 8472SOL    HW236879   1.204   1.856   5.229  1.8223 -0.0546 -0.9903
 8473SOL     OW36880   3.168   3.006  16.905  0.2594 -0.3642 -0.3637
 8473SOL    HW136881   3.192   3.027  16.814  1.2920  0.3621  0.0653
 8473SOL    HW236882   3.108   2.934  16.887 -2.2051  1.4876  0.5233
 8474SOL     OW36883   2.631   1.938   4.255 -0.3855  0.3955 -0.1660
 8474SOL    HW136884   2.652   1.924   4.347 -0.1497  1.2706 -0.0859
 8474SOL    HW236885   2.713   1.934   4.206 -0.0647  0.4085  0.3726
 8475SOL     OW36886   3.380   0.602   1.422 -0.3511 -0.1110 -0.4262
 8475SOL    HW136887   3.381   0.562   1.335  0.7791 -0.6794 -0.1471
 8475SOL    HW236888   3.346   0.689   1.402 -1.6054 -0.8167 -1.3913
 8476SOL     OW36889   2.537   0.535   4.804 -0.0164  0.1771  0.0522
 8476SOL    HW136890   2.560   0.618   4.847  2.2210 -0.8115  0.7694
 8476SOL    HW236891   2.446   0.526   4.832  0.2163  2.0000  1.4457
 8477SOL     OW36892   2.775   0.379   3.382 -0.1673 -0.1419 -0.3744
 8477SOL    HW136893   2.859   0.398   3.339  0.4186  0.9076  1.2373
 8477SOL    HW236894   2.805   0.341   3.465  0.0353 -1.9563 -1.2857
 8478SOL     OW36895   2.224   1.111   3.184 -0.3073 -0.0321  0.0385
 8478SOL    HW136896   2.152   1.174   3.178  0.2451  0.5999  0.0854
 8478SOL    HW236897   2.167   1.034   3.184  0.9941 -0.9983  0.8854
 8479SOL     OW36898   1.839   4.725  16.734 -0.1387 -0.5942 -0.5920
 8479SOL    HW136899   1.787   0.052  16.796  0.6854 -1.3769  0.7684
 8479SOL    HW236900   1.919   4.706  16.783  1.5655 -0.1225 -3.2007
 8480SOL     OW36901   2.912   1.420  12.706  0.2957 -0.2340  0.0963
 8480SOL    HW136902   2.877   1.331  12.712 -0.0814 -0.1740 -1.3831
 8480SOL    HW236903   2.938   1.444  12.795  3.1517  1.8693 -1.3091
 8481SOL     OW36904   2.120   2.624   6.989  0.2991 -0.0785  0.0656
 8481SOL    HW136905   2.064   2.588   6.921 -0.2115  0.9572 -0.0707
 8481SOL    HW236906   2.094   2.563   7.058  1.3826 -1.3873 -0.6930
 8482SOL     OW36907   0.943   3.354  13.122  0.1823  0.3464 -0.2608
 8482SOL    HW136908   0.987   3.293  13.181 -1.6488 -0.9389 -0.2370
 8482SOL    HW236909   0.943   3.304  13.041  1.6319 -0.0143 -0.0386
 8483SOL     OW36910   3.644   3.646  10.393  0.2464 -0.0990 -0.1049
 8483SOL    HW136911   3.666   3.740  10.397 -1.6332  0.3361 -0.0174
 8483SOL    HW236912   3.724   3.599  10.417 -0.5978 -1.3114  0.2915
 8484SOL     OW36913   4.423   0.002   7.809  0.2484 -0.0975 -0.5585
 8484SOL    HW136914   4.381   0.012   7.724 -1.6089 -2.9948  0.0122
 8484SOL    HW236915   4.400   4.635   7.816 -1.6979  0.3905 -0.5176
 8485SOL     OW36916   2.711   3.196   5.625 -0.2392 -0.3084  0.4037
 8485SOL    HW136917   2.774   3.268   5.617 -0.4327 -0.2494 -0.5350
 8485SOL    HW236918   2.770   3.127   5.597  0.3587  0.8261 -1.1178
 8486SOL     OW36919   1.724   0.030   2.910 -0.5580  0.0568 -0.1223
 8486SOL    HW136920   1.747   4.674   2.864  0.2872 -0.6495  1.5763
 8486SOL    HW236921   1.808   0.072   2.925 -0.9919  1.2394 -0.9910
 8487SOL     OW36922   1.961   1.470   5.507 -0.5175 -0.1311  0.3621
 8487SOL    HW136923   1.924   1.525   5.438  0.8558 -1.2023 -1.2305
 8487SOL    HW236924   1.942   1.527   5.581 -1.0289 -0.1184  0.2231
 8488SOL     OW36925   0.268   3.027   6.665 -0.6270  0.5993 -0.1251
 8488SOL    HW136926   0.267   3.115   6.703 -0.1038  0.7963 -0.5478
 8488SOL    HW236927   0.189   3.032   6.611  2.0276 -2.3763 -4.3254
 8489SOL     OW36928   2.934   3.491   3.458  0.3564  0.0646  0.2030
 8489SOL    HW136929   2.978   3.423   3.508 -1.4358 -0.5482  0.9376
 8489SOL    HW236930   3.009   3.545   3.433  0.9043 -0.9159 -0.2656
 8490SOL     OW36931   2.523   0.476   6.379  0.4971  0.6112 -0.7236
 8490SOL    HW136932   2.450   0.434   6.333 -0.3411  0.3558  0.8066
 8490SOL    HW236933   2.595   0.414   6.388 -0.1818 -0.2923 -1.3845
 8491SOL     OW36934   4.329   3.232   3.162  0.1932  0.2615  0.0961
 8491SOL    HW136935   4.280   3.291   3.104  0.5113  0.1278 -0.3125
 8491SOL    HW236936   4.421   3.233   3.132  1.3744  1.0952  3.7622
 8492SOL     OW36937   1.052   0.593   9.662 -0.3100  0.0123  0.8718
 8492SOL    HW136938   1.135   0.617   9.704  0.8431 -0.7330 -1.0044
 8492SOL    HW236939   1.048   0.499   9.674  1.5961 -0.4971 -2.4008
 8493SOL     OW36940   4.237   3.089   8.040 -0.7605  0.3141  0.0329
 8493SOL    HW136941   4.150   3.054   8.058  0.2818 -1.2685  2.0831
 8493SOL    HW236942   4.292   3.011   8.051 -0.1712  0.3677 -2.4698
 8494SOL     OW36943   4.433   2.633   8.378 -0.5271  0.5657 -0.4372
 8494SOL    HW136944   4.454   2.726   8.373  2.8144 -0.2081 -1.0793
 8494SOL    HW236945   4.340   2.640   8.398 -0.5225 -1.2984  0.2210
 8495SOL     OW36946   1.610   1.153   5.006 -0.3107 -0.5290 -0.2238
 8495SOL    HW136947   1.618   1.123   4.916  0.0639 -0.4712 -0.2110
 8495SOL    HW236948   1.629   1.246   4.997  2.0834 -1.0361 -0.4659
 8496SOL     OW36949   1.889   1.939   8.906 -0.1677  0.5780  0.8605
 8496SOL    HW136950   1.951   2.011   8.894 -0.8681  0.8528 -1.1378
 8496SOL    HW236951   1.947   1.867   8.881 -1.8936 -0.4105 -0.3157
 8497SOL     OW36952   4.583   3.863   2.110  0.0267  0.0601 -0.0413
 8497SOL    HW136953   4.592   3.790   2.172 -3.1432 -2.2207 -2.2904
 8497SOL    HW236954   4.506   3.900   2.153  0.1457 -0.5054  0.6709
 8498SOL     OW36955   2.499   4.055   4.114 -0.0362 -0.4228  0.2899
 8498SOL    HW136956   2.530   4.146   4.109  4.3676 -1.8308  1.6804
 8498SOL    HW236957   2.570   4.012   4.066  0.5672  0.0713  0.7414
 8499SOL     OW36958   2.972   0.409   2.516 -0.3129  0.5949 -0.3093
 8499SOL    HW136959   2.948   0.388   2.606  3.5704  1.5165  0.9730
 8499SOL    HW236960   3.068   0.415   2.521 -0.2990  0.8965 -0.9017
 8500SOL     OW36961   4.693   4.336   3.729 -0.3109  0.2591 -0.1317
 8500SOL    HW136962   4.696   4.327   3.634 -1.8343 -0.3279 -0.1297
 8500SOL    HW236963   4.708   4.245   3.753 -0.2975 -0.2738 -2.1700
 8501SOL     OW36964   4.469   2.924  12.906 -0.2646  0.4976  0.1791
 8501SOL    HW136965   4.402   2.856  12.912  0.1179  0.2220  1.2715
 8501SOL    HW236966   4.425   2.978  12.841  0.4383 -1.1046 -1.6630
 8502SOL     OW36967   1.958   0.621   1.018 -0.1510  0.1110  0.2921
 8502SOL    HW136968   1.933   0.578   0.936 -0.4456 -1.1691  1.0637
 8502SOL    HW236969   1.991   0.702   0.978  0.1382  0.3933  1.0924
 8503SOL     OW36970   0.107   1.242   5.258  0.0097 -0.5124  0.1792
 8503SOL    HW136971   0.195   1.246   5.220 -0.4208  2.0484 -0.5372
 8503SOL    HW236972   0.127   1.236   5.352 -1.2103 -0.4389  0.4454
 8504SOL     OW36973   0.788   0.711  12.820  0.3620  0.0693  0.3162
 8504SOL    HW136974   0.790   0.806  12.804 -0.9901 -0.1209 -0.9948
 8504SOL    HW236975   0.720   0.678  12.761  1.0191 -1.8851  0.6685
 8505SOL     OW36976   2.679   4.511  14.748  0.0517  0.0253  0.1632
 8505SOL    HW136977   2.653   4.602  14.733 -1.4955 -0.5808 -0.8541
 8505SOL    HW236978   2.622   4.464  14.687  0.5031 -0.8627  0.4291
 8506SOL     OW36979   0.454   2.107   7.799 -0.1386 -0.1245 -0.0097
 8506SOL    HW136980   0.434   2.165   7.873 -1.8302 -0.9874  0.2026
 8506SOL    HW236981   0.536   2.070   7.832  0.3757  0.7603 -0.2842
 8507SOL     OW36982   1.040   0.493   5.363  0.3290 -0.4516 -0.1548
 8507SOL    HW136983   0.971   0.552   5.335  0.7161 -0.5581 -1.3371
 8507SOL    HW236984   1.011   0.442   5.438 -0.8777 -1.0885 -1.0553
 8508SOL     OW36985   1.907   0.631   5.360 -0.0232  0.2926 -0.3653
 8508SOL    HW136986   1.939   0.691   5.427 -0.2443  0.3480 -0.3078
 8508SOL    HW236987   1.865   0.692   5.300  0.3709 -0.1184 -1.0542
 8509SOL     OW36988   2.432   4.598   8.209  0.1087  0.0214 -0.0785
 8509SOL    HW136989   2.417   4.519   8.156  2.3401  0.3999 -1.2697
 8509SOL    HW236990   2.416   4.675   8.156  0.1666 -0.7227 -1.1829
 8510SOL     OW36991   4.162   4.287   3.948  0.3574 -0.1696 -0.6840
 8510SOL    HW136992   4.195   4.341   4.020 -1.4076 -0.0885  0.0714
 8510SOL    HW236993   4.076   4.267   3.987  0.7097 -0.4408 -0.0490
 8511SOL     OW36994   4.398   1.602  13.771 -0.2231  0.0843 -0.0509
 8511SOL    HW136995   4.385   1.648  13.854 -0.6823  1.5498 -0.9300
 8511SOL    HW236996   4.318   1.611  13.719  1.0240 -1.2907 -2.2016
 8512SOL     OW36997   4.571   2.276   6.187  0.2268 -0.1537 -0.0177
 8512SOL    HW136998   4.629   2.328   6.131  1.2130 -0.3124  0.8654
 8512SOL    HW236999   4.594   2.321   6.268  1.5499  3.0584 -2.1530
 8513SOL     OW37000   2.906   3.073   6.653  0.2945 -0.1152  0.1532
 8513SOL    HW137001   2.945   3.150   6.613 -1.0903  0.2454 -0.5049
 8513SOL    HW237002   2.831   3.058   6.595  0.6258 -2.1122  0.2201
 8514SOL     OW37003   3.350   0.949   6.054 -0.2850 -0.4869  0.4893
 8514SOL    HW137004   3.386   0.935   5.967 -1.5063  0.7103 -0.2159
 8514SOL    HW237005   3.422   0.912   6.105 -1.3965  0.7908  3.0326
 8515SOL     OW37006   1.224   1.336   8.816 -0.9359  0.0763 -0.7647
 8515SOL    HW137007   1.234   1.415   8.869  0.3756 -2.7619  3.2567
 8515SOL    HW237008   1.148   1.292   8.853 -0.0907 -2.0897 -1.5553
 8516SOL     OW37009   4.299   4.189   2.789  0.5302 -0.3888  0.8599
 8516SOL    HW137010   4.349   4.167   2.710  0.8832 -1.2594  1.3238
 8516SOL    HW237011   4.367   4.188   2.856  2.9247 -3.1112 -1.6128
 8517SOL     OW37012   4.079   1.458  14.835 -0.1098  0.0433 -0.3370
 8517SOL    HW137013   3.992   1.450  14.874  0.3247  1.7400  0.9802
 8517SOL    HW237014   4.107   1.370  14.810 -1.2958 -0.1445 -0.9797
 8518SOL     OW37015   2.620   3.439  14.339 -0.9512 -0.0169 -0.1182
 8518SOL    HW137016   2.553   3.370  14.337 -1.2092  0.2692 -1.2833
 8518SOL    HW237017   2.604   3.472  14.427  2.1671  0.1814  0.3770
 8519SOL     OW37018   1.860   3.128   7.759  0.0304  0.0118  0.5822
 8519SOL    HW137019   1.816   3.112   7.675  2.6656 -2.0822 -0.3792
 8519SOL    HW237020   1.953   3.140   7.741  0.1400 -0.4720  0.8392
 8520SOL     OW37021   2.418   3.429   3.386  0.5309 -0.1625  0.4061
 8520SOL    HW137022   2.507   3.431   3.353  0.3673  1.7271  0.0745
 8520SOL    HW237023   2.381   3.354   3.340 -1.2317  0.0325  1.4773
 8521SOL     OW37024   3.210   2.422  17.240  1.0700  0.2846  0.1759
 8521SOL    HW137025   3.144   2.430  17.171  1.3866  2.4806  0.1412
 8521SOL    HW237026   3.208   2.510  17.278 -2.1704  0.3530 -0.1741
 8522SOL     OW37027   0.143   3.452  11.176  0.0497 -0.3753 -0.1749
 8522SOL    HW137028   0.194   3.422  11.101  0.5126  1.3919 -0.5551
 8522SOL    HW237029   0.148   3.367  11.219 -0.8679 -0.5954 -0.4982
 8523SOL     OW37030   3.528   2.369  14.350 -0.7539 -0.5073 -0.7443
 8523SOL    HW137031   3.533   2.273  14.351  1.2830 -0.3843  0.5070
 8523SOL    HW237032   3.440   2.385  14.383 -0.3196  1.4064 -0.5247
 8524SOL     OW37033   3.630   4.536   3.156 -0.3612  0.1109 -0.1402
 8524SOL    HW137034   3.676   4.581   3.227  0.7654 -3.4824  1.4343
 8524SOL    HW237035   3.688   4.460   3.151 -0.9211 -0.5363  3.0776
 8525SOL     OW37036   2.360   2.322   2.670 -0.0162 -0.0111 -0.3206
 8525SOL    HW137037   2.343   2.315   2.576  1.2011 -2.2872 -0.3659
 8525SOL    HW237038   2.450   2.297   2.686 -0.1587 -0.0150  0.4503
 8526SOL     OW37039   3.944   3.343   6.233 -0.2235 -0.4589 -0.0075
 8526SOL    HW137040   3.911   3.292   6.308 -0.1142 -2.5433 -1.3836
 8526SOL    HW237041   3.958   3.285   6.158  0.4334 -1.3966  0.8329
 8527SOL     OW37042   0.905   2.735  12.827 -0.5321 -0.1306  0.2857
 8527SOL    HW137043   0.889   2.812  12.773  2.3395  1.5468  1.7609
 8527SOL    HW237044   0.816   2.707  12.848 -0.8024  0.0168 -0.6892
 8528SOL     OW37045   2.257   4.445  12.200 -0.2318  0.2692  0.3383
 8528SOL    HW137046   2.334   4.417  12.250 -0.2872 -0.8080 -0.1843
 8528SOL    HW237047   2.271   4.540  12.197  3.1620 -0.2918 -2.6463
 8529SOL     OW37048   3.036   2.731  13.949  0.6436 -0.2513 -0.6755
 8529SOL    HW137049   3.040   2.736  14.044  0.8697  1.5855 -0.7809
 8529SOL    HW237050   2.946   2.756  13.927  0.9700  1.5571  0.0154
 8530SOL     OW37051   0.712   4.557   4.572  0.0221 -0.2037  0.2305
 8530SOL    HW137052   0.711   4.505   4.652  0.6634 -0.2436  0.2130
 8530SOL    HW237053   0.801   4.531   4.546 -0.2707 -0.4509 -0.5346
 8531SOL     OW37054   3.701   1.965   1.953 -0.1422  0.1726  0.4724
 8531SOL    HW137055   3.701   1.994   2.044 -0.6107 -0.0206  0.5332
 8531SOL    HW237056   3.738   1.879   1.973  0.4927  0.4093  0.3130
 8532SOL     OW37057   3.390   2.899   7.162 -0.6765 -0.1625  0.2077
 8532SOL    HW137058   3.356   2.817   7.199  0.9625 -1.0797 -0.3277
 8532SOL    HW237059   3.368   2.889   7.070 -0.0712  1.2124 -0.0935
 8533SOL     OW37060   0.403   3.891  16.159  0.0592 -0.2721  0.0646
 8533SOL    HW137061   0.423   3.967  16.104  2.1862 -1.2592 -0.5130
 8533SOL    HW237062   0.310   3.906  16.174  0.6550  1.6150  1.8790
 8534SOL     OW37063   0.508   4.525   6.241  0.2156 -0.1201 -0.2569
 8534SOL    HW137064   0.552   4.595   6.289  0.2250 -0.1066 -0.2849
 8534SOL    HW237065   0.476   4.570   6.163  0.1177  1.5940  0.7732
 8535SOL     OW37066   0.794   3.534  17.073 -0.2024  0.5234 -0.3360
 8535SOL    HW137067   0.752   3.571  16.995  0.1862 -0.8744 -1.2121
 8535SOL    HW237068   0.785   3.440  17.063  2.1675 -0.0174  2.5748
 8536SOL     OW37069   4.637   1.985   9.993  0.5600  0.5197 -0.6419
 8536SOL    HW137070   4.553   1.951  10.021  0.9584  0.3725  0.3814
 8536SOL    HW237071   4.691   1.973  10.072 -1.2963 -0.8368  0.4143
 8537SOL     OW37072   2.503   2.019   2.209 -0.2787  0.9410 -0.0652
 8537SOL    HW137073   2.499   2.043   2.116  0.8930 -0.4472 -0.4711
 8537SOL    HW237074   2.411   2.013   2.233  0.0390 -2.0693  0.3808
 8538SOL     OW37075   3.095   2.735  16.566 -0.2478  0.4725 -0.4389
 8538SOL    HW137076   3.123   2.745  16.657 -0.3418 -2.3809 -0.0831
 8538SOL    HW237077   3.007   2.773  16.563 -0.1860  0.7856  1.5747
 8539SOL     OW37078   0.109   2.530   4.839  0.2942 -0.1742  0.0329
 8539SOL    HW137079   0.049   2.548   4.767  3.8858  1.9319 -2.4324
 8539SOL    HW237080   0.099   2.621   4.867  0.0971  0.0689 -0.8353
 8540SOL     OW37081   0.810   0.540  11.211  0.4372 -0.4614 -0.2565
 8540SOL    HW137082   0.792   0.484  11.287 -0.4485 -0.9483 -0.8226
 8540SOL    HW237083   0.853   0.466  11.168 -0.4220 -1.7691  1.1258
 8541SOL     OW37084   0.551   3.762   6.106  0.2100  0.0810 -0.4751
 8541SOL    HW137085   0.610   3.703   6.059 -1.0536 -0.1475 -1.8008
 8541SOL    HW237086   0.601   3.844   6.100 -1.4190  1.1746  1.0181
 8542SOL     OW37087   3.353   0.618   9.148  0.0816  0.0664  0.4363
 8542SOL    HW137088   3.328   0.532   9.184 -1.5858  0.6023  0.5912
 8542SOL    HW237089   3.270   0.639   9.104 -1.3106 -0.8732  2.5868
 8543SOL     OW37090   3.762   2.403   6.268  0.6492 -0.2575  0.2654
 8543SOL    HW137091   3.850   2.382   6.237 -0.6743 -3.0994 -1.6547
 8543SOL    HW237092   3.733   2.467   6.203 -0.9696  0.1202  1.3730
 8544SOL     OW37093   2.381   1.206   2.971 -0.5447 -0.9119  0.5193
 8544SOL    HW137094   2.451   1.243   3.025 -0.2910 -0.3584 -0.1836
 8544SOL    HW237095   2.323   1.172   3.039  0.3638 -0.1209  1.6956
 8545SOL     OW37096   4.617   4.665   3.479  0.8159 -0.2517  0.2324
 8545SOL    HW137097   4.708   4.689   3.459  0.5451  0.2210 -0.4355
 8545SOL    HW237098   4.598   4.600   3.412 -0.8705 -1.1095  1.5420
 8546SOL     OW37099   0.285   3.766  16.543 -0.2513 -0.3425 -0.4579
 8546SOL    HW137100   0.324   3.838  16.494  0.4979  0.5143  1.3926
 8546SOL    HW237101   0.348   3.696  16.531  0.0281 -0.3266  0.9162
 8547SOL     OW37102   1.647   4.224   8.957  0.6194  0.2975  0.2140
 8547SOL    HW137103   1.726   4.170   8.960  0.3455 -0.1192 -0.0589
 8547SOL    HW237104   1.692   4.308   8.966 -1.3502  1.3696  0.1658
 8548SOL     OW37105   2.751   2.534   7.971 -0.7309  0.0845  0.0123
 8548SOL    HW137106   2.701   2.608   7.937 -2.6005 -1.4241 -0.4866
 8548SOL    HW237107   2.688   2.464   7.953 -1.1776  1.0954 -2.3783
 8549SOL     OW37108   2.981   2.614   2.781 -0.3759  0.3434 -0.1562
 8549SOL    HW137109   2.986   2.562   2.861 -0.0448  0.2938 -0.2108
 8549SOL    HW237110   3.004   2.546   2.718 -0.2736  1.0136 -0.8443
 8550SOL     OW37111   1.324   1.780   7.734 -0.7196  0.3743 -0.0115
 8550SOL    HW137112   1.350   1.870   7.715 -0.3972 -0.2900 -2.7821
 8550SOL    HW237113   1.407   1.737   7.711 -0.8198 -0.2281  0.7593
 8551SOL     OW37114   2.555   0.716   9.185 -0.2865 -0.0884  0.1683
 8551SOL    HW137115   2.526   0.694   9.097 -0.2046  3.7472 -0.8069
 8551SOL    HW237116   2.471   0.713   9.232 -1.1145 -1.6239 -1.4166
 8552SOL     OW37117   3.892   3.351   1.523  0.1058 -0.5055 -0.1003
 8552SOL    HW137118   3.909   3.404   1.600 -1.4668 -1.9246  1.2056
 8552SOL    HW237119   3.927   3.266   1.548 -0.9580 -1.4706 -1.8892
 8553SOL     OW37120   3.013   2.516  17.088 -0.3375  0.1297 -0.3512
 8553SOL    HW137121   2.973   2.519  17.001 -1.3384 -0.0421  0.1085
 8553SOL    HW237122   2.958   2.577  17.138 -0.2930  1.1464 -1.5319
 8554SOL     OW37123   2.356   4.655  11.505  0.1796 -0.0902  0.8067
 8554SOL    HW137124   2.397   4.717  11.565  1.2646  2.4075 -2.4961
 8554SOL    HW237125   2.434   4.640  11.453 -2.0809 -1.1316 -2.2830
 8555SOL     OW37126   1.651   0.121   4.799  0.0896  0.3895 -0.5753
 8555SOL    HW137127   1.598   0.152   4.872 -0.5509 -2.7936  0.3304
 8555SOL    HW237128   1.723   0.072   4.840 -1.0026 -1.1624 -0.5036
 8556SOL     OW37129   1.090   0.162   8.954 -0.5005  0.2670 -0.0408
 8556SOL    HW137130   0.998   0.143   8.937 -0.9456  0.4964  2.0998
 8556SOL    HW237131   1.090   0.226   9.025 -1.7109 -2.4660  2.4171
 8557SOL     OW37132   1.202   2.780   2.980 -0.5964 -0.2468  0.0659
 8557SOL    HW137133   1.151   2.808   2.904 -1.8815  1.7213  1.6345
 8557SOL    HW237134   1.249   2.707   2.941  1.7827  0.5883  1.3787
 8558SOL     OW37135   3.002   3.686  13.986 -0.2684 -0.5504  0.1996
 8558SOL    HW137136   3.033   3.770  13.952  0.3941 -1.2379 -0.9159
 8558SOL    HW237137   3.001   3.629  13.909 -2.8374  0.8179 -0.8014
 8559SOL     OW37138   0.303   3.401   8.707 -0.1946  0.2068  0.4997
 8559SOL    HW137139   0.251   3.341   8.762  0.3131 -0.0618  0.6896
 8559SOL    HW237140   0.364   3.438   8.771  0.0344  0.8812 -0.1082
 8560SOL     OW37141   2.098   3.623   6.123  0.7702  0.3493  0.0999
 8560SOL    HW137142   2.169   3.575   6.165 -0.6707 -3.8109 -2.2517
 8560SOL    HW237143   2.063   3.561   6.059 -1.2022  0.9545  0.5869
 8561SOL     OW37144   2.111   1.526   7.537  0.5212  0.4412  0.5850
 8561SOL    HW137145   2.106   1.621   7.545  2.2423  0.3412  3.0049
 8561SOL    HW237146   2.032   1.502   7.488  1.5002  1.1460 -1.3733
 8562SOL     OW37147   3.112   1.444   1.774 -0.7572 -0.3452  0.2292
 8562SOL    HW137148   3.159   1.525   1.795 -1.4360  0.1116 -0.0035
 8562SOL    HW237149   3.174   1.372   1.785  0.4884  0.8805  1.1365
 8563SOL     OW37150   1.378   1.890   3.312  0.2734 -0.0934  0.4120
 8563SOL    HW137151   1.470   1.918   3.320  0.1192  1.3590 -2.6004
 8563SOL    HW237152   1.382   1.799   3.341 -1.7081 -0.3295 -0.0957
 8564SOL     OW37153   4.705   3.804   3.172  0.7723  0.0125  0.6862
 8564SOL    HW137154   4.650   3.731   3.145 -0.4852  1.7937 -1.5401
 8564SOL    HW237155   4.645   3.878   3.171 -0.5024 -1.0408  0.0126
 8565SOL     OW37156   4.054   4.061  15.595 -0.1979  0.2912 -0.4987
 8565SOL    HW137157   4.076   4.151  15.572 -0.5757 -0.1150 -2.4369
 8565SOL    HW237158   4.119   4.024  15.655 -1.8793  0.4993  1.4268
 8566SOL     OW37159   1.189   4.058   1.303 -0.0768 -0.7060  0.5264
 8566SOL    HW137160   1.111   4.048   1.358  0.3371  0.2670  1.2890
 8566SOL    HW237161   1.170   3.982   1.248 -0.5123  0.6914 -1.2546
 8567SOL     OW37162   2.619   1.362   6.038 -0.1357 -0.1039 -0.7484
 8567SOL    HW137163   2.576   1.314   6.108  0.2832  0.5117 -0.0648
 8567SOL    HW237164   2.692   1.390   6.094 -0.2156  3.4992 -2.4354
 8568SOL     OW37165   4.628   4.371   2.365 -0.3981  0.0251 -0.1156
 8568SOL    HW137166   4.698   4.372   2.430 -0.1681  1.3974 -0.3751
 8568SOL    HW237167   4.612   4.464   2.380  1.0116  0.0278  1.4285
 8569SOL     OW37168   1.705   0.424  14.309  0.2150  0.5114 -0.1524
 8569SOL    HW137169   1.670   0.473  14.235 -0.7996 -0.5331 -0.3710
 8569SOL    HW237170   1.743   0.487  14.370 -1.6212 -0.7338  2.3054
 8570SOL     OW37171   1.717   0.995   4.401  0.0539 -0.3056  0.3031
 8570SOL    HW137172   1.627   0.987   4.370  0.1600 -3.1399  0.6839
 8570SOL    HW237173   1.742   1.076   4.358  0.7793  0.2740  1.8138
 8571SOL     OW37174   1.873   0.990  10.189 -0.4010 -0.4727 -0.3901
 8571SOL    HW137175   1.945   0.930  10.209  0.2833  0.3670 -0.3546
 8571SOL    HW237176   1.909   1.068  10.232  0.9597 -1.5601  0.4661
 8572SOL     OW37177   2.545   3.732   2.414  0.0282  0.3208  0.0364
 8572SOL    HW137178   2.497   3.707   2.493  0.7127  2.3076  1.0866
 8572SOL    HW237179   2.544   3.827   2.423 -1.4113  0.2383  0.7361
 8573SOL     OW37180   2.452   0.868   5.390  0.0792  0.0546  0.0823
 8573SOL    HW137181   2.451   0.806   5.463 -0.8715  0.9167  0.7858
 8573SOL    HW237182   2.398   0.942   5.418  0.0277  0.0883 -0.1051
 8574SOL     OW37183   3.421   1.140  13.962 -0.3692 -0.3570 -0.3850
 8574SOL    HW137184   3.426   1.230  13.996 -0.9885 -0.4832  0.0326
 8574SOL    HW237185   3.333   1.132  13.926 -0.4265  0.7220 -0.4928
 8575SOL     OW37186   0.153   3.318   6.384  0.0988  0.1486  0.4324
 8575SOL    HW137187   0.103   3.303   6.303  0.5891 -1.4473  0.4227
 8575SOL    HW237188   0.245   3.323   6.357  0.2090  2.4576  1.2296
 8576SOL     OW37189   3.155   0.327   2.077  0.2457 -0.1920 -0.0353
 8576SOL    HW137190   3.142   0.247   2.127  0.0628  0.8954  1.6458
 8576SOL    HW237191   3.249   0.342   2.061  0.6284  0.4272  2.8666
 8577SOL     OW37192   4.402   2.286  10.771  0.4680 -0.3951  0.0599
 8577SOL    HW137193   4.433   2.337  10.695  1.1294 -0.4235  0.3143
 8577SOL    HW237194   4.463   2.214  10.756  0.8275  0.3580 -2.0969
 8578SOL     OW37195   4.182   3.887   3.597 -0.3427  0.4847 -0.0957
 8578SOL    HW137196   4.137   3.972   3.600 -1.5135 -0.0502 -2.6581
 8578SOL    HW237197   4.158   3.858   3.509 -1.1037 -0.1015  0.3063
 8579SOL     OW37198   3.785   2.835   7.674  0.0031 -0.3161 -0.1603
 8579SOL    HW137199   3.801   2.918   7.631 -3.9853 -1.2806 -3.4828
 8579SOL    HW237200   3.745   2.870   7.754  0.8205 -0.6252  0.3875
 8580SOL     OW37201   4.446   3.875   7.123  0.3365 -0.0283  0.2126
 8580SOL    HW137202   4.362   3.829   7.117  2.2907 -3.5018 -1.1794
 8580SOL    HW237203   4.506   3.803   7.144 -1.0205 -1.2467 -0.0466
 8581SOL     OW37204   0.732   2.758  12.393 -0.2562  0.3221 -0.3712
 8581SOL    HW137205   0.763   2.671  12.415  1.0052  1.3350  1.9100
 8581SOL    HW237206   0.646   2.743  12.355 -0.8849  1.4298  0.6181
 8582SOL     OW37207   1.611   2.713   8.354 -0.0938  0.0695  0.2233
 8582SOL    HW137208   1.541   2.753   8.405 -0.0092  0.2154  0.2233
 8582SOL    HW237209   1.679   2.778   8.342  0.9591 -1.1309 -0.3427
 8583SOL     OW37210   2.430   0.048  17.650  0.3100  0.0454 -0.5514
 8583SOL    HW137211   2.354   0.082  17.697  1.0936  0.0107  0.7440
 8583SOL    HW237212   2.428   0.083  17.561 -2.0438  0.1313 -0.4728
 8584SOL     OW37213   2.143   2.659   4.532  0.4433  0.2062  0.4561
 8584SOL    HW137214   2.094   2.676   4.612  0.1713 -1.0797  0.5599
 8584SOL    HW237215   2.154   2.750   4.504  2.7259 -0.2531 -0.1698
 8585SOL     OW37216   1.254   2.848   7.433  0.5616  0.8475  0.3800
 8585SOL    HW137217   1.177   2.792   7.423  1.0795  0.2232 -0.1045
 8585SOL    HW237218   1.247   2.888   7.520  0.9400  0.5442  0.5519
 8586SOL     OW37219   2.134   1.601  14.663 -0.3569  0.4208  0.1046
 8586SOL    HW137220   2.171   1.661  14.729  1.6013  0.8593 -1.3834
 8586SOL    HW237221   2.083   1.541  14.717  1.6381 -2.3744 -1.1357
 8587SOL     OW37222   0.994   4.582  13.787  0.0076 -0.0294 -0.3426
 8587SOL    HW137223   0.941   4.565  13.709 -0.2165  0.8610 -0.3817
 8587SOL    HW237224   1.002   4.492  13.819  3.0338  0.1117 -0.7321
 8588SOL     OW37225   1.265   0.135   4.792  0.3562 -0.0619 -0.1472
 8588SOL    HW137226   1.175   0.165   4.786  0.3171 -0.5898 -2.1524
 8588SOL    HW237227   1.254   0.068   4.860 -2.0572  3.3972  2.8269
 8589SOL     OW37228   0.257   3.373   3.764  0.2906  0.2037  0.1505
 8589SOL    HW137229   0.194   3.328   3.820 -0.1237  2.1483  1.2592
 8589SOL    HW237230   0.266   3.320   3.685  0.0197  1.1491 -0.5295
 8590SOL     OW37231   4.340   0.383   4.877  0.3234 -0.2047 -0.7840
 8590SOL    HW137232   4.280   0.412   4.946  1.5175  0.6045 -0.0821
 8590SOL    HW237233   4.411   0.354   4.934 -0.4156 -1.0050 -0.2715
 8591SOL     OW37234   1.082   1.933   5.915  0.5915 -0.3460  0.2447
 8591SOL    HW137235   1.081   1.898   6.004  0.3276 -0.5441  0.1643
 8591SOL    HW237236   1.170   1.914   5.884  1.1194  0.7125  1.1026
 8592SOL     OW37237   3.984   2.919   8.366 -0.8344  0.4192 -0.3137
 8592SOL    HW137238   3.898   2.878   8.353  0.5058 -1.9677 -1.8147
 8592SOL    HW237239   3.996   2.942   8.458 -2.2662 -0.0220 -0.0231
 8593SOL     OW37240   4.013   4.339   1.363  0.1649 -0.5274  0.0098
 8593SOL    HW137241   4.003   4.424   1.406  1.3006 -0.2684 -0.2264
 8593SOL    HW237242   3.980   4.366   1.277  0.6767  0.7443  0.2076
 8594SOL     OW37243   3.695   1.502   9.324 -0.1924  0.0950  0.4970
 8594SOL    HW137244   3.617   1.509   9.270 -0.5227 -2.5957  0.5988
 8594SOL    HW237245   3.665   1.439   9.389  0.4926  0.6615  1.3565
 8595SOL     OW37246   3.201   0.526  12.214 -0.7769 -0.5025  0.3579
 8595SOL    HW137247   3.208   0.549  12.307 -0.6362 -1.0167  0.4721
 8595SOL    HW237248   3.118   0.571  12.196 -0.7180  0.0978  1.5762
 8596SOL     OW37249   3.922   3.694  11.495 -0.2379  0.1965  0.4730
 8596SOL    HW137250   3.867   3.769  11.518  5.6799  3.3856  4.2949
 8596SOL    HW237251   3.872   3.649  11.427  1.2310  1.6292 -1.5936
 8597SOL     OW37252   2.964   0.165   5.533  1.0562  0.1966  0.2002
 8597SOL    HW137253   2.935   0.204   5.616 -2.5950  0.5005 -1.2229
 8597SOL    HW237254   3.053   0.131   5.541  0.5854 -1.3117 -1.0456
 8598SOL     OW37255   0.112   2.911   8.655 -0.1031  0.1610  0.3262
 8598SOL    HW137256   0.121   2.988   8.598 -3.6168 -1.0406 -1.8422
 8598SOL    HW237257   0.182   2.859   8.614 -1.9757 -1.9191 -0.1961
 8599SOL     OW37258   1.954   2.561   0.924 -0.3045 -0.3952 -0.1469
 8599SOL    HW137259   1.987   2.631   0.981  0.9467 -0.3162 -0.9789
 8599SOL    HW237260   1.859   2.575   0.920  0.1189  1.9687 -1.8054
 8600SOL     OW37261   2.485   3.036   2.669  0.6947  0.1213  0.4565
 8600SOL    HW137262   2.570   3.024   2.625  1.2555  2.1925  0.9480
 8600SOL    HW237263   2.498   3.070   2.757  1.0246  1.7379 -0.2112
 8601SOL     OW37264   3.276   3.371   3.768 -0.3974 -0.3922  0.1247
 8601SOL    HW137265   3.371   3.364   3.759 -0.2144  0.2113  1.5114
 8601SOL    HW237266   3.258   3.370   3.862  0.4042  1.0515  0.2796
 8602SOL     OW37267   2.715   1.496  10.469 -0.3622  0.1657 -0.4549
 8602SOL    HW137268   2.738   1.577  10.514 -0.0947 -0.1817  0.0373
 8602SOL    HW237269   2.632   1.472  10.511 -0.9698  0.6038 -1.3891
 8603SOL     OW37270   0.418   0.324   2.427  0.1064 -0.4357  0.5310
 8603SOL    HW137271   0.349   0.390   2.416 -2.1101 -3.2293 -2.5362
 8603SOL    HW237272   0.485   0.366   2.480 -0.1599  0.2059  0.3578
 8604SOL     OW37273   0.858   0.449   5.964  0.3690 -0.2121 -0.2828
 8604SOL    HW137274   0.921   0.382   5.935 -0.3564 -0.7004 -0.7515
 8604SOL    HW237275   0.908   0.486   6.037  1.4517 -2.4951  0.1457
 8605SOL     OW37276   4.414   2.560  16.646  1.2433 -0.4935 -0.6270
 8605SOL    HW137277   4.494   2.599  16.610  0.4007  1.2808 -0.5558
 8605SOL    HW237278   4.448   2.523  16.728 -2.1888  1.2212  1.5338
 8606SOL     OW37279   1.812   4.290   3.311 -0.3754 -0.0432  0.3186
 8606SOL    HW137280   1.908   4.295   3.312 -0.3420 -0.1859 -1.8811
 8606SOL    HW237281   1.798   4.333   3.227 -3.2603 -0.9147  0.3499
 8607SOL     OW37282   1.785   2.126   4.820 -0.2710 -0.1424  0.0935
 8607SOL    HW137283   1.723   2.067   4.863  1.9891 -1.5572  1.4138
 8607SOL    HW237284   1.738   2.208   4.836 -0.3050 -0.2220  0.4168
 8608SOL     OW37285   4.022   3.949   6.822 -0.0491 -0.4038  0.6026
 8608SOL    HW137286   4.056   3.860   6.833  1.1850 -0.0306 -0.1212
 8608SOL    HW237287   4.045   3.994   6.903 -0.3678  1.2264 -0.2208
 8609SOL     OW37288   2.629   1.484   9.091  0.4476  0.2056 -0.1463
 8609SOL    HW137289   2.704   1.430   9.119 -1.4200 -1.6344  1.2870
 8609SOL    HW237290   2.588   1.493   9.176  0.2071 -2.1906 -0.0025
 8610SOL     OW37291   0.651   4.685  13.393 -0.3429 -0.5990 -0.6492
 8610SOL    HW137292   0.646   0.011  13.313 -0.0032 -1.8685 -1.4840
 8610SOL    HW237293   0.676   0.019  13.463 -3.3348  0.8566 -0.8263
 8611SOL     OW37294   1.041   3.775  17.331  0.0802  0.0346 -0.1078
 8611SOL    HW137295   1.110   3.708  17.340 -1.0250 -0.8691  1.7224
 8611SOL    HW237296   0.965   3.733  17.371  0.3941  0.3947  0.8658
 8612SOL     OW37297   3.298   3.689  16.521 -0.1730  0.8133  0.0695
 8612SOL    HW137298   3.276   3.712  16.612  0.1901  0.2201  0.3099
 8612SOL    HW237299   3.359   3.617  16.535  1.7535  2.3799 -0.3436
 8613SOL     OW37300   0.615   4.067  14.510  0.1648  0.3549  0.2415
 8613SOL    HW137301   0.571   3.992  14.470 -0.6682  0.1600  1.5221
 8613SOL    HW237302   0.559   4.144  14.516 -1.0084 -0.5195  0.4106
 8614SOL     OW37303   3.663   3.061   8.475 -0.1310  0.2736  0.4872
 8614SOL    HW137304   3.750   3.097   8.495 -0.3559  1.1072 -0.0477
 8614SOL    HW237305   3.614   3.141   8.494  1.2450  1.6518 -1.7474
 8615SOL     OW37306   4.040   4.314  10.628 -0.0159  0.1844  0.1664
 8615SOL    HW137307   4.034   4.295  10.535  2.6100 -1.6064  0.3611
 8615SOL    HW237308   3.966   4.372  10.644 -0.8071 -1.8148  3.7667
 8616SOL     OW37309   3.443   0.324   5.057  0.0871 -0.2257  0.8534
 8616SOL    HW137310   3.440   0.419   5.050 -1.8516 -0.3048  0.5820
 8616SOL    HW237311   3.511   0.304   4.992  1.6277  1.3149  1.9995
 8617SOL     OW37312   1.885   1.664   9.391  0.7440  0.4600  0.4195
 8617SOL    HW137313   1.905   1.738   9.334 -2.8626  0.5377 -0.7961
 8617SOL    HW237314   1.798   1.638   9.360  0.2496  1.2931  1.0903
 8618SOL     OW37315   3.768   0.213   6.634 -0.1588 -0.0490  0.0018
 8618SOL    HW137316   3.834   0.157   6.593  0.0685  0.0390  0.2428
 8618SOL    HW237317   3.832   0.283   6.644 -0.1655 -0.0895  0.3492
 8619SOL     OW37318   3.294   4.647  13.923  0.1983  0.1655 -0.4065
 8619SOL    HW137319   3.369   4.618  13.872  0.5993 -0.4367  0.5221
 8619SOL    HW237320   3.258   4.715  13.867  0.7509 -2.0310 -3.4123
 8620SOL     OW37321   3.419   0.670   5.989  0.0742 -0.1574 -1.1262
 8620SOL    HW137322   3.485   0.688   6.056 -0.1111 -2.5597 -0.2967
 8620SOL    HW237323   3.345   0.689   6.046  0.2361  0.0362 -0.9812
 8621SOL     OW37324   0.104   1.506   0.926 -0.1056 -0.1528 -0.4000
 8621SOL    HW137325   0.125   1.480   1.016  0.3078 -0.9479 -0.7267
 8621SOL    HW237326   0.107   1.601   0.938  3.0229 -0.5001  1.5278
 8622SOL     OW37327   1.713   1.576   7.115  0.7353  0.0546 -0.0723
 8622SOL    HW137328   1.802   1.579   7.150  0.6347  0.2653  0.1672
 8622SOL    HW237329   1.730   1.598   7.023  1.0357 -2.3533 -0.5868
 8623SOL     OW37330   0.996   2.242   9.932 -0.0450 -0.3428  0.4808
 8623SOL    HW137331   1.029   2.259   9.844 -1.1648 -1.6433 -0.1863
 8623SOL    HW237332   1.018   2.149   9.936 -0.3257 -0.4012  0.6099
 8624SOL     OW37333   4.418   0.303  17.497 -0.1961 -0.1715 -0.1938
 8624SOL    HW137334   4.479   0.252  17.443 -0.7268 -1.2199  0.1880
 8624SOL    HW237335   4.339   0.305  17.444 -0.2626 -2.1723 -0.1734
 8625SOL     OW37336   4.363   4.098   5.714 -0.3348  0.5625  0.4525
 8625SOL    HW137337   4.366   4.031   5.783 -0.5303 -0.1277 -0.2042
 8625SOL    HW237338   4.285   4.149   5.738  0.4229  1.9970 -0.2076
 8626SOL     OW37339   2.081   2.669   1.767 -0.3653 -0.1629  0.0870
 8626SOL    HW137340   2.126   2.717   1.698  0.1773  0.1183  0.6317
 8626SOL    HW237341   2.022   2.610   1.720  0.4604 -0.0223 -1.1301
 8627SOL     OW37342   2.106   3.948  10.585 -0.2787  0.0902  0.4836
 8627SOL    HW137343   2.027   3.961  10.638 -0.4545 -1.4122  0.5801
 8627SOL    HW237344   2.067   3.905  10.509  0.7488 -1.4321  0.8210
 8628SOL     OW37345   4.087   0.726   6.752 -0.0096  0.4117 -0.0654
 8628SOL    HW137346   4.162   0.784   6.765 -0.2478  0.5395  0.7736
 8628SOL    HW237347   4.080   0.717   6.657 -1.4209 -1.2289  0.1963
 8629SOL     OW37348   4.246   1.787   5.970  0.0429 -0.0839  0.9188
 8629SOL    HW137349   4.294   1.712   5.935 -1.8014 -1.1667  0.7052
 8629SOL    HW237350   4.306   1.811   6.041  0.8441 -1.8010  0.8111
 8630SOL     OW37351   0.713   0.950  16.832 -0.3632 -0.6357  0.1097
 8630SOL    HW137352   0.786   0.901  16.794 -0.3764  0.0140 -0.7413
 8630SOL    HW237353   0.678   0.988  16.752  1.2092 -0.6760 -0.5977
 8631SOL     OW37354   3.230   3.926   4.679 -0.2016  0.7574 -0.6982
 8631SOL    HW137355   3.313   3.939   4.633  0.8084  0.2201  0.9626
 8631SOL    HW237356   3.263   3.928   4.769 -2.0872  1.9366 -0.0485
 8632SOL     OW37357   2.268   0.764   9.100  0.6783 -0.0230  0.0961
 8632SOL    HW137358   2.193   0.807   9.060 -0.1689 -0.7462  0.8914
 8632SOL    HW237359   2.237   0.673   9.099  2.6975 -0.6619 -2.7046
 8633SOL     OW37360   1.870   0.173   5.341  0.1685  0.7464  0.0980
 8633SOL    HW137361   1.887   0.151   5.433 -0.3604  0.8911  0.2311
 8633SOL    HW237362   1.797   0.115   5.322  1.4182 -1.2542  1.4107
 8634SOL     OW37363   2.518   1.636   6.649  0.5628  0.2336 -0.3176
 8634SOL    HW137364   2.541   1.700   6.582 -0.2673  1.1751  0.2977
 8634SOL    HW237365   2.496   1.556   6.602 -0.5023  0.9473 -1.0350
 8635SOL     OW37366   0.868   2.106  16.495  0.3433  0.0801  0.7052
 8635SOL    HW137367   0.936   2.143  16.439 -0.2641 -0.4794 -0.4050
 8635SOL    HW237368   0.916   2.034  16.535  1.0924  1.7642  2.7930
 8636SOL     OW37369   4.437   2.720  13.981  0.6512 -0.0438  0.1559
 8636SOL    HW137370   4.386   2.792  13.944 -1.4506 -2.3515 -1.4253
 8636SOL    HW237371   4.514   2.761  14.020  0.8363  0.3744 -0.6440
 8637SOL     OW37372   3.845   1.079   1.367  0.6014  0.2029  0.4677
 8637SOL    HW137373   3.852   0.999   1.314 -1.9043  0.2415  0.0895
 8637SOL    HW237374   3.908   1.140   1.328  1.6381 -1.2075 -0.0803
 8638SOL     OW37375   0.427   2.234   2.766 -0.1907 -1.0625 -0.4575
 8638SOL    HW137376   0.408   2.143   2.792  0.2685 -0.9505  0.2785
 8638SOL    HW237377   0.359   2.284   2.812 -0.4082 -1.2044 -0.6267
 8639SOL     OW37378   1.465   0.834   7.934 -0.8063 -0.3654 -0.6588
 8639SOL    HW137379   1.493   0.873   8.017 -4.2565  0.7853 -0.0317
 8639SOL    HW237380   1.393   0.891   7.908 -1.9896 -1.3759  0.4274
 8640SOL     OW37381   4.184   3.516  16.331 -0.1612 -0.6538 -0.3579
 8640SOL    HW137382   4.155   3.544  16.418 -0.3225  4.1799 -1.9732
 8640SOL    HW237383   4.266   3.471  16.351 -0.4485 -0.9654  0.1244
 8641SOL     OW37384   2.400   2.857   6.473 -0.2763  0.2710  0.3940
 8641SOL    HW137385   2.325   2.848   6.413 -0.6525  0.4579  0.8395
 8641SOL    HW237386   2.478   2.845   6.418 -0.2795  0.1541  0.4145
 8642SOL     OW37387   4.460   3.749  11.361  0.0017 -0.2745  0.8212
 8642SOL    HW137388   4.486   3.733  11.452 -1.9200  0.4669  1.4902
 8642SOL    HW237389   4.479   3.843  11.360  1.7707 -0.6313  1.8113
 8643SOL     OW37390   3.617   3.655   4.903 -0.3963 -0.3758 -0.6398
 8643SOL    HW137391   3.683   3.618   4.962 -1.5061  1.2897  1.6519
 8643SOL    HW237392   3.643   3.632   4.814  1.2885 -0.4962 -0.1091
 8644SOL     OW37393   0.954   0.663   7.083  0.5853 -0.5306  0.3236
 8644SOL    HW137394   0.920   0.583   7.042 -0.6431  1.3510 -2.3700
 8644SOL    HW237395   0.994   0.711   7.010  0.9783  3.8287  3.3692
 8645SOL     OW37396   2.047   1.386   5.816 -0.5168 -0.5061  0.0021
 8645SOL    HW137397   1.993   1.324   5.766 -0.3956 -1.4213  1.0051
 8645SOL    HW237398   2.122   1.393   5.758 -1.7752  0.7116 -1.4772
 8646SOL     OW37399   0.090   3.255   8.614  0.4522  0.4941  0.0675
 8646SOL    HW137400   0.165   3.315   8.619  0.1359  1.1035 -2.2868
 8646SOL    HW237401   0.036   3.284   8.688  0.6511 -0.7365  0.6943
 8647SOL     OW37402   4.222   1.439  11.250  0.0294 -0.2718 -0.1867
 8647SOL    HW137403   4.211   1.532  11.271  1.5972 -0.5120  1.6519
 8647SOL    HW237404   4.157   1.432  11.180 -0.8180  0.3211  0.5497
 8648SOL     OW37405   1.294   2.422  13.911  0.0279  0.0493  0.0279
 8648SOL    HW137406   1.282   2.482  13.984 -0.7540 -2.3948  1.8772
 8648SOL    HW237407   1.204   2.397  13.894 -0.3891  1.5370  0.0582
 8649SOL     OW37408   3.387   0.851  11.275 -0.0237 -0.0084  0.1798
 8649SOL    HW137409   3.346   0.852  11.362  1.0508 -2.2075  0.7291
 8649SOL    HW237410   3.387   0.945  11.260 -0.3604 -0.1283 -0.5564
 8650SOL     OW37411   3.314   0.113  15.533 -0.6306  0.1203 -0.5445
 8650SOL    HW137412   3.367   0.160  15.598  1.0411 -0.7810 -1.2637
 8650SOL    HW237413   3.312   0.179  15.464 -1.4314  1.7066  1.0183
 8651SOL     OW37414   3.924   3.036   3.098  0.3044 -0.6080 -0.2718
 8651SOL    HW137415   3.935   3.131   3.096  2.3148 -0.8500 -0.2462
 8651SOL    HW237416   3.829   3.030   3.091  0.3101 -2.3823  1.2316
 8652SOL     OW37417   1.586   1.691  13.806  0.2041 -0.6781 -0.1707
 8652SOL    HW137418   1.501   1.734  13.813  1.3482  1.5195  0.0128
 8652SOL    HW237419   1.565   1.600  13.827 -1.5051 -0.0473  0.8303
 8653SOL     OW37420   0.019   0.137   9.255  0.6431  0.3084  0.1348
 8653SOL    HW137421   4.696   0.140   9.173 -0.4842  1.0580  0.8323
 8653SOL    HW237422   4.714   0.053   9.289  0.2904  0.7599  0.9304
 8654SOL     OW37423   1.896   1.595   4.414  0.1326 -0.4065 -0.4181
 8654SOL    HW137424   1.971   1.574   4.471 -0.7566  0.6777  1.1557
 8654SOL    HW237425   1.864   1.510   4.387  2.3997 -1.6301  0.6883
 8655SOL     OW37426   2.412   3.621  10.982 -0.1975  0.0280 -0.0066
 8655SOL    HW137427   2.454   3.676  11.047 -0.0055  0.3127 -0.3728
 8655SOL    HW237428   2.467   3.634  10.905  1.6572  0.1766  1.3582
 8656SOL     OW37429   2.427   1.256  13.667  0.1220  0.4657 -0.1763
 8656SOL    HW137430   2.507   1.273  13.619  1.0979 -1.4604  0.7724
 8656SOL    HW237431   2.440   1.293  13.754  1.7950 -0.7587  0.0915
 8657SOL     OW37432   0.788   1.653   5.816 -0.0919 -0.2790 -0.1679
 8657SOL    HW137433   0.769   1.568   5.777  1.7600 -0.4209 -0.7819
 8657SOL    HW237434   0.852   1.627   5.882 -0.6513 -0.0697  0.4524
 8658SOL     OW37435   3.894   2.453   0.963  0.4358 -1.0838  0.0959
 8658SOL    HW137436   3.864   2.448   0.872 -0.0642  0.3167  0.1810
 8658SOL    HW237437   3.934   2.366   0.957  0.5848 -1.0702  0.9781
 8659SOL     OW37438   2.774   1.695   1.292  0.0798 -0.1756  0.0561
 8659SOL    HW137439   2.764   1.611   1.249  1.8931 -0.3914  0.0756
 8659SOL    HW237440   2.869   1.708   1.293 -0.0074  0.4747  0.3792
 8660SOL     OW37441   3.160   4.081  15.490  0.6296 -0.3582 -0.4224
 8660SOL    HW137442   3.117   4.050  15.410  0.2352  0.0537 -0.3712
 8660SOL    HW237443   3.211   4.154  15.453 -0.0566 -0.0806 -0.8219
 8661SOL     OW37444   2.625   4.658   1.225  0.7797 -0.7581  0.0467
 8661SOL    HW137445   2.563   4.588   1.245 -2.3425  1.9467  0.0897
 8661SOL    HW237446   2.639   4.685   1.316  2.7952 -1.1369 -0.1556
 8662SOL     OW37447   4.507   3.640   6.644  0.0405  0.7101 -0.2395
 8662SOL    HW137448   4.565   3.568   6.618 -0.3072  1.0281 -1.9183
 8662SOL    HW237449   4.490   3.625   6.737  0.2046  0.1038 -0.3082
 8663SOL     OW37450   4.366   0.286   6.893  0.2911  0.0464 -0.0059
 8663SOL    HW137451   4.338   0.217   6.834  1.3831  0.6484 -1.2244
 8663SOL    HW237452   4.312   0.364   6.879 -0.3252 -0.1097  1.4815
 8664SOL     OW37453   1.169   1.916   8.351  0.5637 -0.6614  0.3950
 8664SOL    HW137454   1.108   1.919   8.278  1.0826 -0.3751 -0.0215
 8664SOL    HW237455   1.183   2.006   8.381  0.4850 -0.4249 -0.2824
 8665SOL     OW37456   0.904   2.386   6.619  0.6062  0.2678  0.0648
 8665SOL    HW137457   0.864   2.470   6.593  0.5554  0.3594  0.4451
 8665SOL    HW237458   0.842   2.348   6.681 -1.6731  1.4082 -1.4942
 8666SOL     OW37459   0.691   0.546  15.445 -0.3506  0.2019 -0.0431
 8666SOL    HW137460   0.692   0.599  15.365 -0.2281 -0.5242 -0.5227
 8666SOL    HW237461   0.621   0.589  15.495  1.4577  0.1723  2.5169
 8667SOL     OW37462   4.557   1.162   3.054 -0.1611 -0.5973  0.5355
 8667SOL    HW137463   4.642   1.202   3.074 -0.3326  1.1205 -2.1018
 8667SOL    HW237464   4.509   1.233   3.010  1.2030 -0.0621 -0.0719
 8668SOL     OW37465   3.337   0.599   4.187  0.2853 -0.4541 -0.2125
 8668SOL    HW137466   3.295   0.564   4.266 -1.1076  0.9712 -0.3187
 8668SOL    HW237467   3.427   0.569   4.195 -0.0279 -1.1137  0.8981
 8669SOL     OW37468   1.635   1.551   9.117 -0.0279  0.5734 -0.1358
 8669SOL    HW137469   1.716   1.600   9.104  0.1384  0.4397  0.4042
 8669SOL    HW237470   1.631   1.550   9.213  0.7449 -1.2646 -0.1269
 8670SOL     OW37471   4.608   2.372  11.710 -0.8592  0.6047 -0.0144
 8670SOL    HW137472   4.655   2.433  11.653 -0.4587  1.1621  0.9098
 8670SOL    HW237473   4.525   2.359  11.665  0.1829 -1.9892 -1.1736
 8671SOL     OW37474   4.031   0.603   8.866  0.2491  0.1094  0.1235
 8671SOL    HW137475   3.958   0.659   8.892 -0.2022 -0.6240  0.4200
 8671SOL    HW237476   3.996   0.532   8.919  1.6724  0.0707  1.0109
 8672SOL     OW37477   0.957   0.575   4.858  0.7556  0.5208  0.2456
 8672SOL    HW137478   0.900   0.512   4.815 -0.5829 -0.7088  3.7675
 8672SOL    HW237479   1.004   0.516   4.917 -1.1911 -0.6396  0.6270
 8673SOL     OW37480   3.465   2.412   4.384 -0.7755  0.0765 -0.2259
 8673SOL    HW137481   3.444   2.347   4.317 -1.5485  2.8747 -2.7007
 8673SOL    HW237482   3.546   2.374   4.418  0.1012  1.9514 -0.2006
 8674SOL     OW37483   4.442   2.646   2.577 -0.5708  0.2925  0.2149
 8674SOL    HW137484   4.372   2.651   2.512  0.4319 -0.2139 -0.9042
 8674SOL    HW237485   4.513   2.696   2.536  0.0560  0.6977  1.8100
 8675SOL     OW37486   4.132   2.868   7.859 -0.1223 -0.4363  0.7933
 8675SOL    HW137487   4.126   2.774   7.875 -0.9225 -0.0365  2.8511
 8675SOL    HW237488   4.214   2.876   7.811  0.3569 -4.1452  0.9692
 8676SOL     OW37489   2.574   2.022  17.667  1.3059  0.4823 -0.6076
 8676SOL    HW137490   2.657   2.063  17.690  0.8920 -2.0925  5.4081
 8676SOL    HW237491   2.593   1.928  17.673  0.2351  0.3285  0.5309
 8677SOL     OW37492   4.667   4.005  15.665  0.3852 -0.0764 -0.4258
 8677SOL    HW137493   4.718   4.039  15.591  1.8894  0.2146  0.7448
 8677SOL    HW237494   4.685   4.075  15.728 -3.1456  1.7581 -1.4121
 8678SOL     OW37495   0.633   0.679   5.368 -0.1560  0.0713 -0.0162
 8678SOL    HW137496   0.580   0.744   5.323  0.8676  0.6830 -0.3480
 8678SOL    HW237497   0.717   0.689   5.324 -0.5681  2.2539 -0.3178
 8679SOL     OW37498   0.333   2.149   6.573 -0.0683 -0.2785  0.5164
 8679SOL    HW137499   0.390   2.209   6.525 -0.3547 -0.3261  0.1227
 8679SOL    HW237500   0.385   2.128   6.651  0.1069  0.7995  0.6932
 8680SOL     OW37501   3.334   1.613  10.848  0.4274 -0.3457 -0.8029
 8680SOL    HW137502   3.245   1.610  10.886  0.7447 -0.8079 -0.0944
 8680SOL    HW237503   3.325   1.707  10.830 -2.1570 -0.6406 -1.0483
 8681SOL     OW37504   4.139   1.491  17.323 -0.6885 -0.2286  0.2910
 8681SOL    HW137505   4.137   1.399  17.347  1.5012 -0.6858 -1.3248
 8681SOL    HW237506   4.045   1.510  17.326 -0.9039 -0.8473 -2.7397
 8682SOL     OW37507   0.370   2.496   7.440  0.4364 -0.4579 -0.6244
 8682SOL    HW137508   0.284   2.470   7.473  0.1052 -0.2729 -1.3377
 8682SOL    HW237509   0.414   2.418   7.475  0.5888 -0.5551 -1.0386
 8683SOL     OW37510   2.649   0.894  12.533  0.5835 -0.0550 -0.4597
 8683SOL    HW137511   2.678   0.925  12.619 -1.0101  1.0421 -0.3045
 8683SOL    HW237512   2.564   0.938  12.536  0.5323 -0.1156 -1.0817
 8684SOL     OW37513   2.966   3.870   8.220  0.0019  0.1681  0.2449
 8684SOL    HW137514   3.001   3.783   8.203 -0.3944 -0.0103  0.3446
 8684SOL    HW237515   2.948   3.860   8.314  0.6357  2.3140  0.5850
 8685SOL     OW37516   1.549   2.318   5.344 -0.0741  0.0863 -0.6225
 8685SOL    HW137517   1.617   2.364   5.294  1.8621 -1.5652  0.5415
 8685SOL    HW237518   1.595   2.255   5.399 -1.4302 -1.6027 -1.4059
 8686SOL     OW37519   3.570   1.106   1.882  0.3685 -0.0529  0.2102
 8686SOL    HW137520   3.597   1.135   1.969  0.3570 -1.0332  0.5429
 8686SOL    HW237521   3.556   1.012   1.896 -1.2171  0.4777  2.0844
 8687SOL     OW37522   0.503   2.380   3.016  0.3939 -0.0072 -0.6647
 8687SOL    HW137523   0.559   2.328   3.074 -2.1654 -0.1428  1.6819
 8687SOL    HW237524   0.506   2.341   2.929 -1.3348 -0.8822 -0.3306
 8688SOL     OW37525   1.101   2.938  16.574 -0.3838  0.4576  0.1284
 8688SOL    HW137526   1.065   2.921  16.487  0.1161  0.7614 -0.1407
 8688SOL    HW237527   1.184   2.889  16.573  0.5108  1.9597  0.8845
 8689SOL     OW37528   0.473   3.003   8.465  0.3943 -0.2521 -0.2139
 8689SOL    HW137529   0.399   3.064   8.470  0.3845 -0.1191 -1.8363
 8689SOL    HW237530   0.547   3.060   8.443  0.3937 -0.0590  0.2972
 8690SOL     OW37531   2.006   4.481  13.721  0.0272 -0.0364 -0.0032
 8690SOL    HW137532   1.936   4.533  13.761 -1.5872 -2.3950  0.2666
 8690SOL    HW237533   1.969   4.440  13.642 -1.5695  0.0650  0.6830
 8691SOL     OW37534   2.696   1.937   5.482 -0.0605 -0.9168 -0.7302
 8691SOL    HW137535   2.757   1.995   5.435  0.8693 -1.5198 -0.2803
 8691SOL    HW237536   2.627   2.002   5.494 -0.6708 -2.0795  2.1284
 8692SOL     OW37537   0.577   0.344   3.191 -0.0936 -0.3271  0.9951
 8692SOL    HW137538   0.548   0.383   3.108 -0.2166  1.9609  2.1009
 8692SOL    HW237539   0.576   0.251   3.169  0.5780 -0.8328  3.1580
 8693SOL     OW37540   3.740   4.687   4.334 -0.7575  0.4616  0.0648
 8693SOL    HW137541   3.645   4.699   4.328 -0.8380 -0.6919 -1.1307
 8693SOL    HW237542   3.758   0.007   4.252  1.5314  0.5953  0.6467
 8694SOL     OW37543   3.575   1.210   7.319  0.5305  0.5933  0.0313
 8694SOL    HW137544   3.485   1.180   7.332  1.4053 -1.6539  0.8258
 8694SOL    HW237545   3.582   1.218   7.224  1.0813  1.6668  0.1641
 8695SOL     OW37546   3.032   2.446   8.667 -0.2245  0.2332 -1.0402
 8695SOL    HW137547   3.084   2.526   8.653  1.4441 -0.4148  1.4648
 8695SOL    HW237548   3.035   2.427   8.760  1.7102 -0.9506 -1.3561
 8696SOL     OW37549   0.487   1.230   0.489 -0.6084  0.0356 -0.1432
 8696SOL    HW137550   0.558   1.292   0.508  1.5771 -2.9350  1.4282
 8696SOL    HW237551   0.457   1.206   0.577  0.0964  2.6202  0.8125
 8697SOL     OW37552   2.462   0.167   3.660  0.2102  0.6550  0.3819
 8697SOL    HW137553   2.458   0.261   3.679 -1.6026  0.3937  1.2619
 8697SOL    HW237554   2.406   0.164   3.583  0.2941  1.0326  0.3051
 8698SOL     OW37555   2.240   1.480   7.796 -0.1761  0.5008 -0.2804
 8698SOL    HW137556   2.325   1.491   7.751  0.9949  0.5106  1.9543
 8698SOL    HW237557   2.196   1.427   7.730  1.5645  0.3011 -1.2832
 8699SOL     OW37558   0.315   3.003   1.404 -0.1259 -0.1046 -0.5272
 8699SOL    HW137559   0.387   2.964   1.454 -0.9962 -0.5901  0.3332
 8699SOL    HW237560   0.295   2.938   1.338 -0.0183 -0.5314 -0.1425
 8700SOL     OW37561   3.878   0.873  13.336  0.4913  0.2258  0.5249
 8700SOL    HW137562   3.916   0.961  13.346 -1.0052  0.7737  1.4625
 8700SOL    HW237563   3.917   0.837  13.256 -1.1979 -1.4915  0.4930
 8701SOL     OW37564   1.302   2.395   7.204 -0.0605 -0.0181 -0.4144
 8701SOL    HW137565   1.240   2.428   7.269  1.6201 -1.1319  1.7386
 8701SOL    HW237566   1.368   2.353   7.260 -1.0907  0.4263  1.1386
 8702SOL     OW37567   4.667   3.593  10.921  0.3611  0.4386  0.1369
 8702SOL    HW137568   4.713   3.593  10.837  0.3683  1.3382  0.1355
 8702SOL    HW237569   4.610   3.666  10.896 -0.6555 -0.6409 -0.6812
 8703SOL     OW37570   1.492   2.201  15.543  0.4377 -0.1948 -0.2524
 8703SOL    HW137571   1.426   2.142  15.507 -1.0140  0.6629  1.0513
 8703SOL    HW237572   1.528   2.250  15.469 -0.7054  2.7986  1.1994
 8704SOL     OW37573   1.713   2.730   0.203 -0.2228  0.3069 -0.4436
 8704SOL    HW137574   1.624   2.726   0.168 -0.8003  0.8909  0.9656
 8704SOL    HW237575   1.695   2.720   0.296  1.5112  1.6252  0.0215
 8705SOL     OW37576   2.486   4.014   4.783  0.3062 -0.3426 -0.2815
 8705SOL    HW137577   2.423   4.086   4.790 -0.3620 -0.8892 -0.6001
 8705SOL    HW237578   2.570   4.054   4.762 -0.1676  2.2433  2.8664
 8706SOL     OW37579   3.346   2.706  11.891 -0.5106 -0.0115 -0.3214
 8706SOL    HW137580   3.356   2.632  11.831  0.7285 -0.7172  0.7424
 8706SOL    HW237581   3.256   2.683  11.914 -0.0110 -0.8471  0.7924
 8707SOL     OW37582   4.653   3.214   6.745  0.0052  0.0846  0.1589
 8707SOL    HW137583   4.697   3.164   6.813 -0.8475  0.3122  0.8711
 8707SOL    HW237584   4.687   3.166   6.669  1.3026  0.1366  0.7130
 8708SOL     OW37585   2.316   3.460   8.849 -0.1679  0.0440  0.2875
 8708SOL    HW137586   2.242   3.471   8.789 -0.3349  0.5137  0.5754
 8708SOL    HW237587   2.327   3.549   8.884 -1.5009 -0.1874  1.3040
 8709SOL     OW37588   1.588   2.003   6.752 -0.0287  0.1671 -0.3387
 8709SOL    HW137589   1.667   2.005   6.805  0.8815 -2.5620 -1.6123
 8709SOL    HW237590   1.535   1.935   6.793  2.7847 -0.9534  1.3796
 8710SOL     OW37591   3.479   3.651   1.297 -0.0499  0.3014 -0.0841
 8710SOL    HW137592   3.392   3.632   1.332  0.2899 -1.7622 -0.3954
 8710SOL    HW237593   3.529   3.672   1.376 -0.5481 -0.6210  0.4683
 8711SOL     OW37594   0.145   0.389   2.105  0.0656 -0.1782  0.0009
 8711SOL    HW137595   0.234   0.419   2.122 -0.4902  0.9864  0.8271
 8711SOL    HW237596   0.155   0.295   2.119 -1.4784 -0.2205  0.7954
 8712SOL     OW37597   0.887   4.398   5.479 -0.2815  0.2132  0.0367
 8712SOL    HW137598   0.807   4.403   5.428 -0.4640 -1.1452  0.1940
 8712SOL    HW237599   0.943   4.460   5.432  1.3012 -1.2808 -0.0459
 8713SOL     OW37600   2.396   0.074   8.879 -0.3792 -0.0153 -0.4873
 8713SOL    HW137601   2.339   4.723   8.889  0.4758 -0.5787  0.1540
 8713SOL    HW237602   2.450   0.047   8.805  0.9215  0.0939  0.4163
 8714SOL     OW37603   4.476   2.722  12.039  0.2213 -0.1079  0.3651
 8714SOL    HW137604   4.561   2.736  11.997  0.4788 -0.6804  0.6993
 8714SOL    HW237605   4.436   2.686  11.959 -0.9794  1.4903  0.2495
 8715SOL     OW37606   3.296   4.707  13.424  0.2771 -0.3255  0.2699
 8715SOL    HW137607   3.326   4.620  13.449  1.0344 -0.6933 -1.8697
 8715SOL    HW237608   3.348   4.709  13.343  0.2650 -2.4083  0.2162
 8716SOL     OW37609   0.383   1.790  16.857  0.1625 -0.2244  0.3687
 8716SOL    HW137610   0.366   1.698  16.835  0.6119  0.0072 -0.9380
 8716SOL    HW237611   0.471   1.794  16.893  0.1597 -0.7560  0.4295
 8717SOL     OW37612   2.350   2.879   8.880  0.0841 -0.1876  0.0547
 8717SOL    HW137613   2.401   2.940   8.826 -0.4365  0.5251  0.3734
 8717SOL    HW237614   2.414   2.853   8.947  1.2254  0.6469 -0.7146
 8718SOL     OW37615   0.515   3.429   9.427  0.6970 -0.0099 -0.0666
 8718SOL    HW137616   0.610   3.422   9.435  0.5489 -0.3437  1.2899
 8718SOL    HW237617   0.493   3.477   9.506 -0.3871 -0.1386 -0.2901
 8719SOL     OW37618   3.702   0.353   9.769  0.3236 -0.2707 -0.2301
 8719SOL    HW137619   3.649   0.402   9.832  1.4715 -1.3380  1.5676
 8719SOL    HW237620   3.744   0.429   9.730  1.0506 -0.4447  0.2160
 8720SOL     OW37621   3.040   4.303  14.972  0.0304  0.0078 -0.0692
 8720SOL    HW137622   2.994   4.260  14.900 -0.6190 -0.9072  0.8965
 8720SOL    HW237623   3.104   4.234  14.990 -0.5596 -0.6740 -0.5769
 8721SOL     OW37624   3.212   3.050   1.610 -0.1586 -0.0906 -0.6121
 8721SOL    HW137625   3.135   2.994   1.598  0.3568 -1.4979  2.5613
 8721SOL    HW237626   3.238   3.036   1.701 -0.6607 -1.2264 -0.6474
 8722SOL     OW37627   2.139   1.604   8.019 -0.1576  0.0745 -0.1699
 8722SOL    HW137628   2.222   1.623   8.063 -0.1511 -1.5688  0.5397
 8722SOL    HW237629   2.183   1.560   7.947 -0.6824 -0.4076 -0.1953
 8723SOL     OW37630   4.313   3.664   8.914 -0.4183 -0.6483  0.5512
 8723SOL    HW137631   4.355   3.665   8.828 -2.5036 -1.3789 -0.4752
 8723SOL    HW237632   4.333   3.574   8.940 -0.8065 -1.2085 -1.0822
 8724SOL     OW37633   4.636   4.246  17.364 -0.7979  0.5527 -0.3968
 8724SOL    HW137634   4.560   4.264  17.420  0.1357  1.5389  0.5754
 8724SOL    HW237635   4.680   4.193  17.431  0.7983  1.2235 -0.9162
 8725SOL     OW37636   3.895   2.214  16.096  0.5208 -0.1569 -0.8380
 8725SOL    HW137637   3.833   2.198  16.168  2.8746 -0.7269  1.0454
 8725SOL    HW237638   3.952   2.280  16.133 -1.8913  1.6348 -0.2961
 8726SOL     OW37639   0.601   1.865   7.566  0.5158  0.4387 -0.6114
 8726SOL    HW137640   0.634   1.797   7.507 -1.2288 -1.1745  0.2866
 8726SOL    HW237641   0.575   1.812   7.642  1.8523 -0.9644 -1.1207
 8727SOL     OW37642   1.370   1.627  13.465  0.7150  0.0438 -0.9218
 8727SOL    HW137643   1.403   1.682  13.535  1.8278 -0.1507 -1.2982
 8727SOL    HW237644   1.346   1.551  13.519 -1.1265 -0.1859 -2.0631
 8728SOL     OW37645   3.973   3.295   9.402  0.1419  0.3252 -0.2931
 8728SOL    HW137646   4.052   3.343   9.378 -0.0021  0.0272 -1.3650
 8728SOL    HW237647   3.976   3.282   9.497  1.9870  2.6368 -0.0420
 8729SOL     OW37648   3.854   0.689   6.143 -0.1872  0.0808  0.0145
 8729SOL    HW137649   3.909   0.758   6.106  0.6588 -0.0598  0.9947
 8729SOL    HW237650   3.892   0.611   6.103 -0.1721  0.6245 -1.0259
 8730SOL     OW37651   4.166   2.760  16.752  0.0085 -0.4593  0.1726
 8730SOL    HW137652   4.121   2.757  16.836  1.1209 -0.8014  0.7452
 8730SOL    HW237653   4.205   2.674  16.742 -2.4505 -1.5483  0.0354
 8731SOL     OW37654   2.834   3.840  11.394  0.0893 -0.6776  0.4145
 8731SOL    HW137655   2.787   3.807  11.318  2.1287 -0.0610 -1.1277
 8731SOL    HW237656   2.781   3.910  11.432  1.0847  0.2326  0.1251
 8732SOL     OW37657   2.845   2.240  10.471 -0.4149  0.1124 -0.1740
 8732SOL    HW137658   2.893   2.265  10.550 -1.5243 -1.1685  0.8931
 8732SOL    HW237659   2.833   2.324  10.425 -0.1854  3.0938  5.2837
 8733SOL     OW37660   0.300   2.216   7.319 -0.2450 -0.2120 -0.0440
 8733SOL    HW137661   0.315   2.208   7.414  1.7754  0.0228 -0.3663
 8733SOL    HW237662   0.372   2.268   7.285  0.1221 -0.9212 -0.3545
 8734SOL     OW37663   2.394   3.740   5.674  0.2209 -0.7692 -0.0683
 8734SOL    HW137664   2.361   3.814   5.623 -0.5382 -0.0396  1.4840
 8734SOL    HW237665   2.388   3.680   5.600  0.5579 -0.4322 -0.3691
 8735SOL     OW37666   2.833   0.058  17.612 -0.2084  0.0494  0.1624
 8735SOL    HW137667   2.908   0.076  17.669  0.4731 -2.1589 -0.0405
 8735SOL    HW237668   2.763   0.108  17.654 -0.5216 -1.2957  1.2486
 8736SOL     OW37669   4.202   4.715   5.858  0.5260  0.2728  0.3102
 8736SOL    HW137670   4.224   0.065   5.912  0.6094  0.1930  0.3897
 8736SOL    HW237671   4.196   0.032   5.773 -0.1890  0.6240  0.5354
 8737SOL     OW37672   3.952   0.466  11.620 -0.1059  0.0109 -0.1253
 8737SOL    HW137673   3.910   0.408  11.556 -0.2798  1.9328 -1.7482
 8737SOL    HW237674   4.044   0.449  11.600 -0.5862 -1.8863 -0.7363
 8738SOL     OW37675   1.042   3.665   5.465 -0.1487  0.2921  0.1712
 8738SOL    HW137676   1.131   3.636   5.484 -0.6172 -1.5775 -0.4894
 8738SOL    HW237677   1.025   3.613   5.386 -0.2540  1.4379 -0.5649
 8739SOL     OW37678   2.485   0.983   5.901 -0.1881  0.1797  0.1341
 8739SOL    HW137679   2.458   0.921   5.969  0.0100 -0.8067 -0.6866
 8739SOL    HW237680   2.483   0.914   5.835  1.1106 -0.9190  1.2434
 8740SOL     OW37681   2.557   2.986   6.029  0.3816 -0.2496  0.1112
 8740SOL    HW137682   2.607   3.066   6.042  1.2635 -0.5875 -1.2134
 8740SOL    HW237683   2.527   2.988   5.938  2.3428 -2.6296 -0.5747
 8741SOL     OW37684   0.159   4.681   3.091 -0.7193  0.4059  0.4826
 8741SOL    HW137685   0.166   0.011   3.013 -1.5142 -0.3897 -0.1518
 8741SOL    HW237686   0.064   4.669   3.091 -0.6733 -0.0710 -3.4793
 8742SOL     OW37687   3.233   3.983   0.736 -0.1921 -0.1019 -0.2140
 8742SOL    HW137688   3.158   3.988   0.795  0.0675  1.7574 -0.0333
 8742SOL    HW237689   3.256   3.893   0.757 -0.7397 -0.2164 -0.1049
 8743SOL     OW37690   4.051   3.131   3.737 -0.2606 -0.3479  0.3612
 8743SOL    HW137691   4.021   3.222   3.740 -2.6045 -1.0859 -0.7400
 8743SOL    HW237692   4.028   3.113   3.645 -3.7110 -1.4398  1.4318
 8744SOL     OW37693   3.597   1.920   3.159 -0.7075 -0.5388 -0.3401
 8744SOL    HW137694   3.531   1.935   3.228  0.4481  0.5427  0.5292
 8744SOL    HW237695   3.598   1.826   3.141 -1.1214 -0.2313 -1.9211
 8745SOL     OW37696   0.576   4.706  15.803 -0.3701 -0.3265  0.5497
 8745SOL    HW137697   0.654   4.652  15.808  0.6597  1.1256  0.3296
 8745SOL    HW237698   0.561   0.003  15.895 -2.1197 -0.0933  0.2129
 8746SOL     OW37699   3.689   0.311  10.164  0.0010 -0.5292 -0.5807
 8746SOL    HW137700   3.691   0.405  10.184  0.9554 -0.9375  1.2927
 8746SOL    HW237701   3.605   0.301  10.119 -0.3465  0.7444 -0.2165
 8747SOL     OW37702   2.212   1.328   6.261 -0.1034 -0.1249 -0.3938
 8747SOL    HW137703   2.211   1.280   6.178  0.3924  1.7011 -1.4694
 8747SOL    HW237704   2.149   1.395   6.234  1.9301  2.0233  0.1645
 8748SOL     OW37705   1.824   0.421   5.786 -0.0693 -0.1020  0.3114
 8748SOL    HW137706   1.749   0.472   5.755  0.5883 -0.0675 -1.2535
 8748SOL    HW237707   1.895   0.434   5.722  0.6746  1.7011  1.4915
 8749SOL     OW37708   0.653   4.683   2.391 -0.3539 -0.2257 -0.2092
 8749SOL    HW137709   0.624   4.670   2.300 -1.0704 -1.5954  0.2163
 8749SOL    HW237710   0.689   0.046   2.390 -0.3099 -0.2313  0.8190
 8750SOL     OW37711   0.064   1.324   2.162  0.3219  0.1314 -0.6516
 8750SOL    HW137712   0.017   1.291   2.239 -0.4710  1.5803 -0.5124
 8750SOL    HW237713   0.133   1.258   2.172  0.3215  0.6109  2.4002
 8751SOL     OW37714   0.128   0.748   8.102  0.0834 -0.1646 -0.1926
 8751SOL    HW137715   0.140   0.751   8.007  2.3259  0.2625  0.1190
 8751SOL    HW237716   0.036   0.722   8.108  0.1664 -0.4340 -0.0665
 8752SOL     OW37717   0.446   2.240   9.030 -0.4160  0.3865  0.6999
 8752SOL    HW137718   0.505   2.193   8.970 -1.2884 -0.8425  0.8043
 8752SOL    HW237719   0.467   2.332   9.018 -0.5928  0.5043  1.3131
 8753SOL     OW37720   1.181   0.673   3.850  0.6794 -0.2971  0.4556
 8753SOL    HW137721   1.244   0.716   3.792  0.0118  0.6013  0.3890
 8753SOL    HW237722   1.099   0.713   3.819  1.6294  1.3932  0.1450
 8754SOL     OW37723   3.048   2.649   0.001  0.2967 -0.0457 -0.2328
 8754SOL    HW137724   3.124   2.610   0.046  1.5273 -0.2365 -2.4479
 8754SOL    HW237725   3.057   2.737   0.038  1.6233  0.9835 -3.0351
 8755SOL     OW37726   0.516   4.616   2.127 -0.2690  0.2615  0.5730
 8755SOL    HW137727   0.427   4.587   2.106  1.1951 -3.9075  0.1983
 8755SOL    HW237728   0.516   4.705   2.093  0.8049  0.4053  0.9414
 8756SOL     OW37729   2.513   3.675  11.550  0.0381 -0.7089 -0.0776
 8756SOL    HW137730   2.438   3.732  11.534  0.2647 -0.0542  1.1303
 8756SOL    HW237731   2.556   3.669  11.465  0.1080 -0.2910 -0.0720
 8757SOL     OW37732   2.871   2.638  17.502  0.5523  0.2521 -0.3815
 8757SOL    HW137733   2.810   2.675  17.566  1.3127  1.2237 -0.2205
 8757SOL    HW237734   2.945   2.632  17.562  0.4156 -2.0113 -0.4401
 8758SOL     OW37735   2.277   3.517   1.061  0.4175 -0.4163  0.5478
 8758SOL    HW137736   2.287   3.584   0.993  0.7410  0.0582  1.0662
 8758SOL    HW237737   2.333   3.551   1.130  0.0379 -0.9011  1.1020
 8759SOL     OW37738   1.658   3.472   4.559 -0.7329 -0.5375 -0.9536
 8759SOL    HW137739   1.649   3.492   4.652 -0.9823 -1.7061 -0.7324
 8759SOL    HW237740   1.693   3.559   4.539  0.0270 -0.4870  0.6177
 8760SOL     OW37741   4.162   1.794  16.066  0.1480  0.3835  0.2669
 8760SOL    HW137742   4.183   1.795  15.972  0.1203  1.2422  0.2637
 8760SOL    HW237743   4.083   1.845  16.084 -0.1533  0.4417 -1.2511
 8761SOL     OW37744   2.771   3.244   7.789  0.1478 -0.2888 -0.1681
 8761SOL    HW137745   2.773   3.198   7.872  0.3872 -1.6580 -0.9397
 8761SOL    HW237746   2.741   3.333   7.809  0.3088 -0.2065 -0.2890
 8762SOL     OW37747   4.015   0.030   3.551 -0.0761 -0.0617 -0.1117
 8762SOL    HW137748   4.028   0.020   3.645 -1.9737  1.9796  0.3680
 8762SOL    HW237749   3.983   0.120   3.550  1.1386  0.3309 -3.3968
 8763SOL     OW37750   2.941   0.914   3.667 -0.2447 -0.0873  0.3220
 8763SOL    HW137751   2.940   1.010   3.666 -0.7695 -0.1026 -2.8751
 8763SOL    HW237752   2.864   0.904   3.724  0.6910 -0.1780  1.5611
 8764SOL     OW37753   4.083   3.949   7.717  0.2280 -0.2680 -0.7112
 8764SOL    HW137754   4.066   4.040   7.690  0.0741  0.4084  1.6351
 8764SOL    HW237755   4.172   3.934   7.686  1.4768  2.1388  1.6450
 8765SOL     OW37756   0.946   2.915  12.260 -0.0779  0.3287 -0.5429
 8765SOL    HW137757   0.881   2.978  12.294  0.8613  0.9417  0.1140
 8765SOL    HW237758   0.908   2.834  12.294  1.0726  0.2057  0.4304
 8766SOL     OW37759   2.209   1.796   8.314 -0.5926 -0.5041  0.1648
 8766SOL    HW137760   2.132   1.742   8.333  1.7352 -3.8812  0.1179
 8766SOL    HW237761   2.252   1.742   8.247 -1.3996  0.8014 -1.4034
 8767SOL     OW37762   2.405   1.561   2.815  0.4738  0.2027  0.5970
 8767SOL    HW137763   2.410   1.653   2.787 -0.7228  0.2893  0.6649
 8767SOL    HW237764   2.483   1.532   2.769 -0.0821  0.6435 -0.6240
 8768SOL     OW37765   3.303   0.392   7.945 -0.1297 -0.4159 -0.1347
 8768SOL    HW137766   3.228   0.452   7.951  0.1013 -0.0961 -0.4292
 8768SOL    HW237767   3.254   0.311   7.931  1.0568 -1.0002 -0.9739
 8769SOL     OW37768   0.259   4.298   3.773 -0.3703  0.1137  0.2356
 8769SOL    HW137769   0.270   4.308   3.678  1.4714 -0.6191  0.3698
 8769SOL    HW237770   0.344   4.324   3.809  0.0171 -2.8522  1.4739
 8770SOL     OW37771   3.817   1.522   6.939  0.3868  0.1255  0.2002
 8770SOL    HW137772   3.785   1.542   6.851  0.3568  0.4379  0.2843
 8770SOL    HW237773   3.754   1.579   6.981 -1.1069  0.5346 -2.6165
 8771SOL     OW37774   0.671   4.221   2.450  0.3000  0.4077 -0.0492
 8771SOL    HW137775   0.633   4.215   2.362 -0.3358  1.1720  0.1656
 8771SOL    HW237776   0.602   4.174   2.496  0.1532  0.2202 -0.4547
 8772SOL     OW37777   1.444   1.913   2.283  1.3325 -0.1050 -0.2206
 8772SOL    HW137778   1.485   1.853   2.345 -0.8272 -1.0531  0.2769
 8772SOL    HW237779   1.458   2.002   2.315  0.5296  0.5148 -1.5750
 8773SOL     OW37780   3.178   4.612   3.364  0.5009 -0.6502  0.2599
 8773SOL    HW137781   3.114   4.679   3.388  1.6765  0.0238  1.4945
 8773SOL    HW237782   3.182   4.564   3.447 -0.2957  2.0572  1.8591
 8774SOL     OW37783   0.722   0.524   1.805 -0.5067 -0.4509  0.0150
 8774SOL    HW137784   0.696   0.466   1.734 -1.0529 -1.1762  0.8116
 8774SOL    HW237785   0.693   0.479   1.885 -0.5037  0.3850  0.4820
 8775SOL     OW37786   2.104   3.300  17.083 -0.2390  0.3973 -0.2154
 8775SOL    HW137787   2.027   3.347  17.050  0.2318  1.7260  0.5883
 8775SOL    HW237788   2.179   3.345  17.045  2.2991 -3.5312  0.1978
 8776SOL     OW37789   3.951   2.651   2.237  0.1808  0.4519 -0.3055
 8776SOL    HW137790   4.023   2.604   2.279  0.5302  0.6653 -0.6610
 8776SOL    HW237791   3.992   2.737   2.221 -1.9566  1.6209  0.5688
 8777SOL     OW37792   0.306   4.010  10.379  0.1636 -0.1816 -0.0452
 8777SOL    HW137793   0.395   3.977  10.363 -0.0825  0.0384 -1.8665
 8777SOL    HW237794   0.277   4.051  10.298 -0.3276  0.5940  0.5301
 8778SOL     OW37795   2.735   2.988   4.690 -0.1798 -0.3967  0.1361
 8778SOL    HW137796   2.767   2.947   4.609 -0.8300 -0.1816 -0.2317
 8778SOL    HW237797   2.811   2.990   4.748 -1.2406  1.2532  1.4672
 8779SOL     OW37798   0.872   3.660   8.908  0.4265  0.5187  0.0573
 8779SOL    HW137799   0.893   3.659   9.001  0.1864 -0.7989  0.1004
 8779SOL    HW237800   0.952   3.633   8.863  1.5705  4.4229 -0.2747
 8780SOL     OW37801   0.639   4.184   4.094 -0.0659  0.0903 -0.0113
 8780SOL    HW137802   0.669   4.095   4.074 -2.6515 -0.8176  0.2301
 8780SOL    HW237803   0.558   4.174   4.143 -0.7278  0.3106 -1.0711
 8781SOL     OW37804   2.937   2.676  12.719 -0.2147  0.0814  0.2298
 8781SOL    HW137805   2.941   2.624  12.639 -1.0633  1.5708 -0.7967
 8781SOL    HW237806   2.924   2.759  12.673 -0.9319 -0.3705 -0.3857
 8782SOL     OW37807   3.703   2.026   2.946  0.5379  0.1182 -0.3618
 8782SOL    HW137808   3.650   2.095   2.907 -0.5273 -0.3488  0.2677
 8782SOL    HW237809   3.643   1.978   3.003  1.5023  1.2131  1.5670
 8783SOL     OW37810   2.043   0.816  14.299  0.3336  0.3785  0.3722
 8783SOL    HW137811   2.033   0.860  14.384 -3.0159 -0.8324  0.5965
 8783SOL    HW237812   2.093   0.737  14.321 -2.2858 -0.8101  2.0196
 8784SOL     OW37813   1.579   2.130   2.445 -0.0687  0.0789 -0.1963
 8784SOL    HW137814   1.571   2.045   2.488  0.0317  0.4957  0.6396
 8784SOL    HW237815   1.673   2.118   2.434 -0.2124 -0.1222 -1.1899
 8785SOL     OW37816   4.675   0.953   7.565  0.4188 -0.6721 -0.2396
 8785SOL    HW137817   4.672   0.981   7.657  1.5045  0.5712 -0.5653
 8785SOL    HW237818   4.626   0.872   7.572  0.7475 -0.9414 -1.1144
 8786SOL     OW37819   3.221   0.989   9.905  0.3260  0.0028  0.6940
 8786SOL    HW137820   3.262   1.051   9.966  1.3205  0.6406 -0.6212
 8786SOL    HW237821   3.216   0.912   9.961 -0.6367 -0.4891 -0.0620
 8787SOL     OW37822   3.433   1.273   2.571 -0.0690 -0.1568  0.6400
 8787SOL    HW137823   3.491   1.198   2.583  0.5467  0.4497  1.4518
 8787SOL    HW237824   3.377   1.254   2.646  0.2398  1.4739  1.3009
 8788SOL     OW37825   2.259   3.088   6.132 -0.1728  0.1721 -0.0301
 8788SOL    HW137826   2.296   3.001   6.119  1.7317  0.7507  1.4685
 8788SOL    HW237827   2.206   3.105   6.054  3.3152 -2.4490 -2.9674
 8789SOL     OW37828   4.543   2.980   2.240  0.0963  0.0447 -0.7569
 8789SOL    HW137829   4.483   2.915   2.206  1.3744 -1.8920  0.6668
 8789SOL    HW237830   4.497   2.990   2.324 -0.7905  1.3533 -1.4041
 8790SOL     OW37831   0.991   2.675   7.397 -0.3578 -0.2836 -0.1842
 8790SOL    HW137832   0.912   2.628   7.372 -0.5969  2.0500 -3.9213
 8790SOL    HW237833   1.049   2.614   7.442  0.8511  0.4141 -0.7716
 8791SOL     OW37834   2.833   0.273   8.333 -0.2516 -0.8934  0.2084
 8791SOL    HW137835   2.839   0.228   8.248 -2.4935  0.4599 -0.6786
 8791SOL    HW237836   2.741   0.249   8.349 -0.9377  0.9188 -1.0610
 8792SOL     OW37837   0.925   0.852   3.805  0.4867  0.1293 -0.4202
 8792SOL    HW137838   0.962   0.878   3.890  1.4974 -0.1121 -0.7887
 8792SOL    HW237839   0.832   0.875   3.808  0.2746 -1.2010  3.0396
 8793SOL     OW37840   1.707   1.539  15.715  0.7942 -0.2478  0.3790
 8793SOL    HW137841   1.683   1.536  15.623  0.2886 -2.6689  0.5802
 8793SOL    HW237842   1.621   1.556  15.755 -0.3356 -0.1167 -2.1517
 8794SOL     OW37843   4.052   1.733  16.737  0.4053  0.0742 -0.2686
 8794SOL    HW137844   3.964   1.761  16.763 -0.3340 -3.2471  0.8286
 8794SOL    HW237845   4.102   1.766  16.812 -3.5320  1.2829  1.8205
 8795SOL     OW37846   3.998   1.169   7.287  0.0695 -0.0206  0.5832
 8795SOL    HW137847   4.002   1.262   7.309 -0.6443 -0.3408  2.0611
 8795SOL    HW237848   4.073   1.135   7.336  0.1438  0.9422  1.1242
 8796SOL     OW37849   2.149   2.077   8.616 -0.3293  0.6953  0.2330
 8796SOL    HW137850   2.113   1.988   8.625 -0.5648  0.6318 -1.4124
 8796SOL    HW237851   2.240   2.060   8.590  0.2089  2.1132  1.2300
 8797SOL     OW37852   1.758   1.267   5.760  0.9458 -0.1521 -0.3349
 8797SOL    HW137853   1.681   1.243   5.709  0.0171  1.1686  0.4363
 8797SOL    HW237854   1.721   1.273   5.849 -0.1225  2.4358 -0.9555
 8798SOL     OW37855   0.966   1.278   3.509  0.1509  0.4027  0.3797
 8798SOL    HW137856   0.993   1.268   3.600 -0.4139  0.3814  0.5433
 8798SOL    HW237857   0.974   1.372   3.495  0.9162  0.2520 -0.1923
 8799SOL     OW37858   0.028   3.423   7.363 -0.1085 -0.2115  0.1131
 8799SOL    HW137859   4.677   3.459   7.319 -0.2796  2.1034  2.3160
 8799SOL    HW237860   0.008   3.428   7.456 -1.5252 -1.9433 -0.0914
 8800SOL     OW37861   1.656   4.697   8.280 -0.4145 -0.1913 -0.3477
 8800SOL    HW137862   1.605   4.621   8.252 -1.1266 -0.4021  1.5156
 8800SOL    HW237863   1.599   4.718   8.354  1.0724  1.1215  0.4106
 8801SOL     OW37864   3.944   2.660   5.236 -0.2795  0.1448  0.0810
 8801SOL    HW137865   3.955   2.579   5.287 -0.8628  0.5994  0.9351
 8801SOL    HW237866   3.852   2.684   5.239 -0.9874 -2.7935  2.2192
 8802SOL     OW37867   2.007   1.125  10.442 -0.4040  0.0490  0.0292
 8802SOL    HW137868   1.989   1.123  10.536 -0.4250  0.5835  0.0344
 8802SOL    HW237869   2.103   1.122  10.438 -0.3644  0.7647  0.4444
 8803SOL     OW37870   2.061   0.282   4.973 -0.0620 -0.1964 -0.3537
 8803SOL    HW137871   2.046   0.234   5.054 -1.4421 -1.1355 -1.1668
 8803SOL    HW237872   2.010   0.359   4.997 -0.3464  0.4828 -3.0312
 8804SOL     OW37873   0.762   2.057   9.948  0.0286 -0.5438  0.5869
 8804SOL    HW137874   0.779   2.042   9.855 -0.9687  2.6725 -0.1114
 8804SOL    HW237875   0.840   2.107   9.974 -3.1966  3.3250  2.8311
 8805SOL     OW37876   1.083   0.106   3.831 -0.2087  0.5081  0.0535
 8805SOL    HW137877   1.077   0.177   3.895 -0.7908 -0.7586  1.4119
 8805SOL    HW237878   1.007   0.135   3.781  0.7188  0.2151 -1.5143
 8806SOL     OW37879   1.133   4.114   5.843  0.0831 -0.1340 -0.8854
 8806SOL    HW137880   1.097   4.114   5.931  2.2421  1.6391  0.0000
 8806SOL    HW237881   1.064   4.158   5.794  1.3702  1.8172 -0.9589
 8807SOL     OW37882   1.921   3.182   4.231  0.3395  0.4166  0.6087
 8807SOL    HW137883   2.005   3.156   4.194 -0.5101  2.0642 -2.4391
 8807SOL    HW237884   1.913   3.275   4.209  1.9422  0.9140  2.1234
 8808SOL     OW37885   2.862   3.068  15.660  0.2950 -0.0344 -0.1988
 8808SOL    HW137886   2.832   3.159  15.659 -0.6267 -0.3513 -2.2049
 8808SOL    HW237887   2.787   3.010  15.673  0.0213  0.0833 -1.2495
 8809SOL     OW37888   1.443   0.575   8.537 -0.0702 -0.1697  0.8663
 8809SOL    HW137889   1.370   0.620   8.579 -1.4624 -2.1595  0.5504
 8809SOL    HW237890   1.493   0.654   8.515 -0.2056  0.7746  3.9801
 8810SOL     OW37891   3.960   0.873   5.964  0.0538  0.0324  0.3681
 8810SOL    HW137892   4.054   0.889   5.960 -0.0184  0.5920  0.8858
 8810SOL    HW237893   3.924   0.954   5.928 -2.3236 -1.2502 -0.1055
 8811SOL     OW37894   2.703   0.075   4.742 -0.7433  0.0715 -0.1262
 8811SOL    HW137895   2.709   0.168   4.762 -3.7342  0.0942  0.5565
 8811SOL    HW237896   2.787   0.059   4.699 -0.8037 -4.8141  1.5871
 8812SOL     OW37897   2.953   1.460   3.734  0.3256  0.0518  0.3621
 8812SOL    HW137898   2.902   1.541   3.740 -0.6520 -0.8638  4.1440
 8812SOL    HW237899   3.018   1.479   3.666 -1.5870 -0.5137 -1.6081
 8813SOL     OW37900   0.699   4.712  16.831  0.4039 -0.1401 -0.4239
 8813SOL    HW137901   0.659   4.668  16.756  0.6069 -0.8407 -0.1249
 8813SOL    HW237902   0.790   4.683  16.825  0.6286  0.6131 -0.6756
 8814SOL     OW37903   2.231   0.862   8.785  0.3133  0.0756 -0.1011
 8814SOL    HW137904   2.304   0.873   8.846  0.7995  0.5960 -0.7637
 8814SOL    HW237905   2.257   0.781   8.741 -1.0620 -0.5428  0.2340
 8815SOL     OW37906   3.170   2.556  13.052  0.3038  0.2115 -0.1957
 8815SOL    HW137907   3.201   2.609  13.125 -0.0938 -0.1689  0.2472
 8815SOL    HW237908   3.083   2.595  13.049  1.1190  1.8305 -2.5386
 8816SOL     OW37909   0.778   2.888   5.834 -0.1376 -0.7514 -0.0515
 8816SOL    HW137910   0.707   2.878   5.898  0.5120  1.3194  0.9749
 8816SOL    HW237911   0.777   2.803   5.790 -1.2433 -0.1555 -1.1640
 8817SOL     OW37912   4.247   3.652   2.847 -0.0650  0.0618  0.3775
 8817SOL    HW137913   4.313   3.713   2.815 -0.1886  0.8306  1.5646
 8817SOL    HW237914   4.169   3.692   2.807 -1.0695 -1.9672  0.3265
 8818SOL     OW37915   4.041   0.699  12.816 -0.7279 -0.2605  0.3690
 8818SOL    HW137916   4.051   0.778  12.764  0.1200 -0.6075  0.0029
 8818SOL    HW237917   4.132   0.683  12.841 -1.0099 -0.1782  1.4250
 8819SOL     OW37918   3.115   0.638   0.993  0.6231 -0.5347  0.0804
 8819SOL    HW137919   3.058   0.562   0.987  0.2663 -0.1936 -0.8418
 8819SOL    HW237920   3.170   0.607   0.921 -0.4113  1.7989 -1.7289
 8820SOL     OW37921   4.596   3.261  11.554 -0.6488  0.1378 -0.0581
 8820SOL    HW137922   4.503   3.271  11.575 -0.7356  0.6558 -0.7208
 8820SOL    HW237923   4.588   3.284  11.462  0.9034 -0.1837 -0.2735
 8821SOL     OW37924   1.016   0.529   6.206 -0.6886 -0.1311 -0.3841
 8821SOL    HW137925   1.108   0.551   6.220 -0.5664 -1.3814  0.7818
 8821SOL    HW237926   1.015   0.441   6.242  1.0265 -0.4657 -1.1524
 8822SOL     OW37927   1.694   4.040   6.871  0.5314  0.5551  0.5804
 8822SOL    HW137928   1.622   3.981   6.847 -0.1827  1.8433 -0.4007
 8822SOL    HW237929   1.676   4.044   6.965  0.2618 -1.2146  0.6076
 8823SOL     OW37930   0.760   0.526   3.514 -0.2208  0.6919  0.0342
 8823SOL    HW137931   0.757   0.432   3.533 -1.3105  0.9946  1.3506
 8823SOL    HW237932   0.705   0.569   3.580  0.1484 -2.1049  2.1631
 8824SOL     OW37933   1.399   1.577   4.233  0.4106 -0.6236  0.5497
 8824SOL    HW137934   1.481   1.625   4.234 -1.1002  1.9415  0.5899
 8824SOL    HW237935   1.345   1.613   4.162  0.4659  0.6574  1.1677
 8825SOL     OW37936   4.646   1.794   6.657  0.3131  0.4106 -0.5595
 8825SOL    HW137937   4.592   1.738   6.602  0.9475 -0.0600 -0.6957
 8825SOL    HW237938   4.636   1.755   6.744  1.2043  2.8298  0.6349
 8826SOL     OW37939   0.997   3.039  12.602  0.1405 -0.3652  0.1989
 8826SOL    HW137940   1.058   3.011  12.670 -1.0567 -2.5227  0.3968
 8826SOL    HW237941   0.909   3.015  12.631  0.0425  0.7933  0.8833
 8827SOL     OW37942   1.754   3.985   2.809  0.2063 -0.1485 -0.0125
 8827SOL    HW137943   1.750   3.988   2.714 -0.5156  0.5551  0.0361
 8827SOL    HW237944   1.686   4.050   2.829  2.1060  0.9697  2.8248
 8828SOL     OW37945   0.315   4.126  13.832 -0.3588 -0.2997 -0.0586
 8828SOL    HW137946   0.402   4.140  13.868 -1.0071 -1.3295  1.9043
 8828SOL    HW237947   0.339   4.060  13.767  1.8007 -0.1082  0.5506
 8829SOL     OW37948   4.078   3.469   4.418  0.3152  0.0157 -0.2419
 8829SOL    HW137949   4.152   3.455   4.477 -0.9645  0.4965  1.4816
 8829SOL    HW237950   4.078   3.397   4.356 -1.3709 -1.0709  1.0205
 8830SOL     OW37951   1.341   2.459   1.651 -0.3632 -0.2199  0.3464
 8830SOL    HW137952   1.292   2.477   1.731  2.7624  1.6574  1.8690
 8830SOL    HW237953   1.382   2.545   1.641 -1.4997  0.2154 -0.4700
 8831SOL     OW37954   0.603   2.088   6.083 -0.0828  0.0224 -0.0994
 8831SOL    HW137955   0.530   2.068   6.024 -0.8100 -0.0024  0.8002
 8831SOL    HW237956   0.604   2.184   6.088 -0.4472 -0.0785  2.0320
 8832SOL     OW37957   4.000   0.879   5.333  0.3409  0.0396 -0.3315
 8832SOL    HW137958   4.006   0.973   5.350  3.1601 -0.3101  0.5562
 8832SOL    HW237959   3.966   0.884   5.244  2.4739 -1.7694 -1.2685
 8833SOL     OW37960   0.414   1.454   1.743 -0.1209  1.1388 -0.5545
 8833SOL    HW137961   0.506   1.445   1.768  0.1000 -2.4003 -2.5843
 8833SOL    HW237962   0.403   1.373   1.694  1.0411  0.6112  0.0446
 8834SOL     OW37963   4.594   3.669  16.412 -0.2748 -0.2697 -0.2381
 8834SOL    HW137964   4.628   3.758  16.410  0.2032 -0.4400  0.1775
 8834SOL    HW237965   4.550   3.660  16.496 -1.7485 -0.6378 -1.0646
 8835SOL     OW37966   0.830   2.625   5.787  0.0458 -0.6192 -0.4957
 8835SOL    HW137967   0.908   2.619   5.732  0.8879 -0.9215  0.7223
 8835SOL    HW237968   0.767   2.578   5.732 -0.8790  0.6429 -0.5038
 8836SOL     OW37969   3.296   4.617  15.074 -0.1413  0.4078 -0.3990
 8836SOL    HW137970   3.369   4.557  15.088 -0.6216 -0.2476 -0.6871
 8836SOL    HW237971   3.289   4.619  14.978 -0.0765  2.8908 -0.3655
 8837SOL     OW37972   2.077   0.100   3.429 -0.2398  0.1352  0.2376
 8837SOL    HW137973   2.150   0.159   3.410 -1.3183  1.9946  1.9245
 8837SOL    HW237974   2.035   0.150   3.499 -0.8065  1.6675 -1.1918
 8838SOL     OW37975   1.378   4.515   7.445 -0.0712  0.1057 -0.3343
 8838SOL    HW137976   1.346   4.463   7.518  5.0845  1.2287  2.7012
 8838SOL    HW237977   1.327   4.595   7.444  1.7566  1.2541 -1.3880
 8839SOL     OW37978   3.207   4.321   8.193  0.0505  0.4399  0.1233
 8839SOL    HW137979   3.262   4.368   8.256  1.8844 -0.9984 -0.4323
 8839SOL    HW237980   3.275   4.276   8.144 -0.2284 -0.7110  0.8111
 8840SOL     OW37981   3.733   1.423   1.588  0.2573  0.1629  0.1982
 8840SOL    HW137982   3.712   1.426   1.495 -0.6590  3.0037  0.4977
 8840SOL    HW237983   3.781   1.503   1.611  1.3732 -0.7845  1.1900
 8841SOL     OW37984   3.518   4.681   1.977  0.0064  0.2884 -0.2302
 8841SOL    HW137985   3.498   4.637   2.060 -0.4789 -0.5349 -0.7790
 8841SOL    HW237986   3.525   4.609   1.914  0.6035  0.1671 -0.0304
 8842SOL     OW37987   2.228   1.377  13.492 -0.4293 -0.1952  0.4664
 8842SOL    HW137988   2.150   1.363  13.546 -1.0502 -2.0503 -0.9227
 8842SOL    HW237989   2.297   1.327  13.537  0.1607  1.1432  1.0547
 8843SOL     OW37990   1.367   3.439   4.506  0.1140  0.2059  0.4537
 8843SOL    HW137991   1.459   3.464   4.500 -0.4967  2.4739  0.4352
 8843SOL    HW237992   1.362   3.459   4.600 -1.1198 -2.6625  0.9901
 8844SOL     OW37993   0.600   2.075   8.858 -0.2648  0.0914  0.1978
 8844SOL    HW137994   0.666   2.121   8.807  0.6471  1.3601  2.5063
 8844SOL    HW237995   0.644   1.995   8.887  1.1646  0.3211 -1.3703
 8845SOL     OW37996   1.028   0.856  15.023  0.0685 -0.4418  0.3593
 8845SOL    HW137997   1.081   0.925  15.063 -1.3134  0.9355 -0.1611
 8845SOL    HW237998   1.027   0.887  14.932  1.1749  0.4469  0.6567
 8846SOL     OW37999   0.844   4.419   7.919  0.1921  0.1205  0.1521
 8846SOL    HW138000   0.813   4.508   7.905 -0.4605 -0.1275  0.0326
 8846SOL    HW238001   0.905   4.413   7.846 -2.5498  0.7367 -2.1959
 8847SOL     OW38002   3.529   4.581   5.113 -0.1366  0.2403  0.7309
 8847SOL    HW138003   3.462   4.649   5.107 -2.0617 -1.8811 -1.4444
 8847SOL    HW238004   3.494   4.524   5.045  0.7324  0.8597 -0.2408
 8848SOL     OW38005   2.684   3.472  10.437  0.4520  0.0151  0.5632
 8848SOL    HW138006   2.724   3.471  10.524 -1.6466  0.4765  1.5471
 8848SOL    HW238007   2.619   3.542  10.434  0.8495  0.4187  1.2303
 8849SOL     OW38008   1.838   4.619   6.739  0.2227 -0.1714  0.4634
 8849SOL    HW138009   1.797   4.574   6.812  1.5280  0.4095  1.5793
 8849SOL    HW238010   1.921   4.571   6.732  0.5572  0.2232  1.5991
 8850SOL     OW38011   4.720   2.066   5.056  0.1978  0.2008  0.3262
 8850SOL    HW138012   0.069   2.122   5.081  1.0913 -1.8915  2.3870
 8850SOL    HW238013   4.706   2.067   4.962  1.0368 -0.2736  0.2051
 8851SOL     OW38014   3.672   1.974   3.973 -0.5486 -0.0371  0.5704
 8851SOL    HW138015   3.709   1.888   3.990  0.9147  0.4344 -0.2713
 8851SOL    HW238016   3.708   1.990   3.886  1.6252 -0.8533  1.3219
 8852SOL     OW38017   2.353   0.323   0.128  0.1862  0.1341  0.2808
 8852SOL    HW138018   2.378   0.364   0.045  0.3604 -1.6799 -0.5624
 8852SOL    HW238019   2.265   0.294   0.105  0.2459 -0.4180  0.7521
 8853SOL     OW38020   3.523   2.202   9.061 -0.0115  0.0249  0.0526
 8853SOL    HW138021   3.616   2.205   9.038  0.4080  1.2976  1.8892
 8853SOL    HW238022   3.474   2.193   8.980 -0.5650 -1.4563  0.5507
 8854SOL     OW38023   2.098   2.180   3.993 -0.3953  0.1420  0.2418
 8854SOL    HW138024   2.064   2.256   4.041  0.0909 -1.9390  3.9153
 8854SOL    HW238025   2.130   2.118   4.059  0.7840  0.1694 -0.3137
 8855SOL     OW38026   3.439   1.200  13.423 -0.4364 -0.3908 -0.0948
 8855SOL    HW138027   3.413   1.176  13.512  1.8942 -0.1113  0.6533
 8855SOL    HW238028   3.507   1.136  13.402  2.1220  1.1117  3.6786
 8856SOL     OW38029   1.741   0.683   1.201 -0.0194 -0.2297 -0.1792
 8856SOL    HW138030   1.714   0.761   1.153  1.1967  0.1133 -0.3228
 8856SOL    HW238031   1.796   0.654   1.128  1.0767  0.1091  0.4976
 8857SOL     OW38032   4.022   4.430   2.400 -0.0049  0.2204 -0.4436
 8857SOL    HW138033   4.112   4.424   2.369 -0.3980 -0.3134 -1.4719
 8857SOL    HW238034   4.030   4.492   2.473  0.2857 -0.3172 -0.0184
 8858SOL     OW38035   1.288   4.472  13.993  0.2932 -0.3593 -0.5361
 8858SOL    HW138036   1.220   4.489  14.059  2.5108 -3.6879  2.5937
 8858SOL    HW238037   1.358   4.464  14.058 -1.5695 -1.1928  1.3576
 8859SOL     OW38038   4.397   2.060   3.714  0.1527  0.6503 -0.8611
 8859SOL    HW138039   4.460   2.050   3.786 -2.0096  1.9553  1.1792
 8859SOL    HW238040   4.439   2.129   3.663 -0.2131  0.5912 -1.2392
 8860SOL     OW38041   3.399   2.419   1.896 -0.3648  0.2022  0.0922
 8860SOL    HW138042   3.397   2.325   1.883  2.2479  0.3052 -0.9393
 8860SOL    HW238043   3.399   2.430   1.991 -0.5698 -1.4843  0.2856
 8861SOL     OW38044   0.188   3.843  11.451 -0.2157  0.4040  0.2488
 8861SOL    HW138045   0.113   3.796  11.414 -0.1686  0.2515  0.3456
 8861SOL    HW238046   0.254   3.776  11.466 -1.6773 -0.7635  1.4893
 8862SOL     OW38047   1.299   0.497   4.229 -0.4092  0.3192  0.3346
 8862SOL    HW138048   1.340   0.467   4.148 -1.0034 -0.9939  0.5190
 8862SOL    HW238049   1.305   0.418   4.283  2.3967  0.3269  0.0327
 8863SOL     OW38050   2.398   1.209  14.677  0.1509  0.2948  0.8172
 8863SOL    HW138051   2.393   1.116  14.652 -1.2432  0.7201 -0.4860
 8863SOL    HW238052   2.348   1.208  14.758  0.4186 -0.9290  0.9774
 8864SOL     OW38053   0.476   3.799   4.650  0.1555  0.1957  0.3472
 8864SOL    HW138054   0.393   3.753   4.636  0.8385 -0.4255 -1.6969
 8864SOL    HW238055   0.539   3.763   4.587  0.6453  2.0290 -0.2192
 8865SOL     OW38056   0.116   1.122   7.425  0.2725 -0.0156  0.1168
 8865SOL    HW138057   0.065   1.202   7.437  2.8058  1.7646 -0.9345
 8865SOL    HW238058   0.083   1.066   7.495 -0.5952  0.0474 -0.2348
 8866SOL     OW38059   3.587   3.808   6.199  0.3738  0.1163 -0.0711
 8866SOL    HW138060   3.535   3.752   6.142  1.2342 -1.3737  0.5993
 8866SOL    HW238061   3.656   3.746   6.222 -0.0157 -0.8311 -1.4868
 8867SOL     OW38062   2.267   1.829  14.288  0.3333  0.5116  0.4772
 8867SOL    HW138063   2.331   1.879  14.339  0.9499 -2.2853  2.4711
 8867SOL    HW238064   2.194   1.891  14.281  1.0189  1.4749  1.7767
 8868SOL     OW38065   3.909   1.559  14.464  0.3562 -0.3479  0.6034
 8868SOL    HW138066   3.880   1.487  14.408 -0.6773  1.0961 -0.7000
 8868SOL    HW238067   3.974   1.592  14.402 -1.8014 -0.3358 -1.6312
 8869SOL     OW38068   3.618   1.497   4.489  0.2613 -0.3134  0.7057
 8869SOL    HW138069   3.706   1.462   4.503 -0.3462 -2.2637 -0.2928
 8869SOL    HW238070   3.604   1.566   4.554 -1.4666 -1.3973  1.4939
 8870SOL     OW38071   1.165   2.668   3.977 -0.5519  0.0137 -0.2820
 8870SOL    HW138072   1.237   2.715   4.020  0.5416 -0.0734 -2.0087
 8870SOL    HW238073   1.100   2.738   3.988 -0.4227 -0.2725  2.1733
 8871SOL     OW38074   3.096   4.061   8.944  0.0479 -0.3974  0.4237
 8871SOL    HW138075   3.166   3.996   8.938 -0.4282 -0.8971  0.2894
 8871SOL    HW238076   3.031   4.003   8.983 -0.2180 -0.9777 -0.8766
 8872SOL     OW38077   3.914   4.419   4.117  0.1073 -0.0453 -0.1250
 8872SOL    HW138078   3.918   4.419   4.212 -0.4474 -1.0655 -0.1057
 8872SOL    HW238079   3.968   4.497   4.105 -0.1423  0.1678  0.1417
 8873SOL     OW38080   4.424   0.909   7.954  0.1751 -0.0176  0.2072
 8873SOL    HW138081   4.514   0.897   7.926 -0.1364  0.5173 -1.0155
 8873SOL    HW238082   4.369   0.872   7.885  0.3205  0.8737 -0.3824
 8874SOL     OW38083   0.662   0.395  14.420 -0.0651  0.0446  0.1257
 8874SOL    HW138084   0.597   0.463  14.402 -0.1972  0.6076  2.7874
 8874SOL    HW238085   0.670   0.395  14.515  0.2311 -0.0249  0.0990
 8875SOL     OW38086   3.584   0.318   7.864 -0.2685 -0.1365 -0.4143
 8875SOL    HW138087   3.492   0.334   7.885 -0.6916 -1.2883 -1.3752
 8875SOL    HW238088   3.578   0.292   7.772 -0.4031  0.6790 -0.6355
 8876SOL     OW38089   2.527   1.662   8.793 -0.1965 -0.2791  0.0310
 8876SOL    HW138090   2.616   1.695   8.803 -1.1491  2.3125 -0.0110
 8876SOL    HW238091   2.521   1.621   8.880 -0.7626  0.2020  0.2224
 8877SOL     OW38092   1.853   2.204   9.815  0.1339  0.2473  0.9705
 8877SOL    HW138093   1.845   2.123   9.765 -1.2921  0.5164  0.7588
 8877SOL    HW238094   1.911   2.267   9.772 -1.6552  0.1711 -1.5051
 8878SOL     OW38095   3.754   0.128   0.489 -0.3544  0.1307  0.0551
 8878SOL    HW138096   3.799   0.086   0.415 -1.6271  2.1935 -1.9107
 8878SOL    HW238097   3.687   0.181   0.445 -0.0766  1.3001  1.0506
 8879SOL     OW38098   0.783   0.894   5.536  0.6744  0.3821 -0.1779
 8879SOL    HW138099   0.698   0.909   5.578  0.2478 -0.9274 -0.5661
 8879SOL    HW238100   0.774   0.799   5.524  1.0231  0.4198 -0.7256
 8880SOL     OW38101   4.023   3.813   7.956  0.1989  0.1992 -0.7779
 8880SOL    HW138102   4.081   3.851   8.022  1.9293 -0.4331 -1.9207
 8880SOL    HW238103   4.039   3.870   7.880  0.5369 -1.5806 -2.0437
 8881SOL     OW38104   3.103   0.244   9.087  0.0438  0.2285  0.2174
 8881SOL    HW138105   3.068   0.195   9.162  2.1640  1.0176  1.7140
 8881SOL    HW238106   3.113   0.170   9.028 -2.5784  1.4872 -1.8059
 8882SOL     OW38107   1.918   1.174   8.424  0.0047 -0.4745 -0.1836
 8882SOL    HW138108   1.962   1.126   8.494 -0.4520 -0.2787  0.2319
 8882SOL    HW238109   1.960   1.122   8.356  0.5461 -0.8945  0.4752
 8883SOL     OW38110   3.082   1.488   0.497 -0.7837 -0.3049  0.6631
 8883SOL    HW138111   3.136   1.540   0.438  0.1017 -1.7120  0.2123
 8883SOL    HW238112   3.060   1.549   0.567  2.7095  1.7236  0.0330
 8884SOL     OW38113   0.884   3.496   3.462  0.4536  0.0171  0.4634
 8884SOL    HW138114   0.833   3.430   3.414  1.7660  0.2452 -1.2456
 8884SOL    HW238115   0.937   3.438   3.516  0.2864  0.5897  1.2400
 8885SOL     OW38116   2.745   0.440   7.807 -0.2937  0.0490 -0.2139
 8885SOL    HW138117   2.719   0.479   7.891  1.1919 -0.2110  0.3600
 8885SOL    HW238118   2.680   0.372   7.790  0.7554 -1.5231  2.1238
 8886SOL     OW38119   4.707   1.162  11.329  0.1365  0.0042  0.3477
 8886SOL    HW138120   0.053   1.145  11.268 -1.8206  0.2313 -1.9670
 8886SOL    HW238121   4.635   1.146  11.269 -0.1001 -2.5210  1.3062
 8887SOL     OW38122   1.453   3.067  17.038 -0.1575 -0.0421 -0.3794
 8887SOL    HW138123   1.416   2.982  17.063 -0.8145 -0.2370 -1.9610
 8887SOL    HW238124   1.372   3.112  17.012 -1.0073 -0.1256  2.1669
 8888SOL     OW38125   4.250   4.580   8.162 -0.3978  0.2761 -0.0690
 8888SOL    HW138126   4.202   4.510   8.206  0.0578 -0.0565 -0.0968
 8888SOL    HW238127   4.191   4.595   8.088  1.1195  1.3067 -1.0789
 8889SOL     OW38128   1.339   2.466  13.521 -0.1567 -0.3076  0.0619
 8889SOL    HW138129   1.378   2.510  13.596  0.0104 -0.1693 -0.1062
 8889SOL    HW238130   1.257   2.429  13.555  1.0231 -1.2691  1.8961
 8890SOL     OW38131   1.648   4.274   2.826  0.3059 -0.0097 -0.1278
 8890SOL    HW138132   1.593   4.268   2.904  0.4989 -0.6015 -0.0328
 8890SOL    HW238133   1.716   4.326   2.868  0.8421  0.5456 -1.7185
 8891SOL     OW38134   2.508   0.489  15.572  0.6739 -0.5376 -0.4292
 8891SOL    HW138135   2.600   0.477  15.596  0.2292 -0.1805  1.4949
 8891SOL    HW238136   2.513   0.581  15.547  1.5306 -0.2638  0.7187
 8892SOL     OW38137   0.720   3.443   9.187 -0.2468  0.6166 -0.3480
 8892SOL    HW138138   0.774   3.413   9.260 -3.1330  1.0708  1.9807
 8892SOL    HW238139   0.750   3.534   9.179  3.4290 -0.2669  3.2176
 8893SOL     OW38140   3.771   3.734  11.028  0.4036  0.2463 -0.4441
 8893SOL    HW138141   3.720   3.653  11.029  0.1686  0.4154  0.6732
 8893SOL    HW238142   3.765   3.755  10.935  0.7353 -0.4346 -0.6149
 8894SOL     OW38143   0.483   0.789   6.518 -0.3264  0.4592  0.4828
 8894SOL    HW138144   0.410   0.742   6.558  0.9299 -1.8551  0.0698
 8894SOL    HW238145   0.485   0.861   6.580 -1.4681  1.7207 -0.9368
 8895SOL     OW38146   2.593   3.975   7.255  0.0265  0.6031  0.3533
 8895SOL    HW138147   2.502   4.000   7.238  0.3389  1.6127  0.1610
 8895SOL    HW238148   2.592   3.909   7.325 -0.5831 -0.2983 -0.5061
 8896SOL     OW38149   1.671   3.415   5.065 -0.8411 -0.3762 -0.5844
 8896SOL    HW138150   1.746   3.473   5.080  0.1377 -2.0700  1.1101
 8896SOL    HW238151   1.713   3.338   5.027 -0.1432  0.7122 -2.0364
 8897SOL     OW38152   3.783   1.057   4.050  0.3774  0.1659  0.4940
 8897SOL    HW138153   3.732   0.984   4.085 -1.1871  0.4085 -1.2646
 8897SOL    HW238154   3.750   1.135   4.093  0.6694  1.7126 -2.0843
 8898SOL     OW38155   0.656   2.766  15.525  0.5004 -0.3446 -0.6298
 8898SOL    HW138156   0.628   2.674  15.532  0.6407 -0.3720 -0.4453
 8898SOL    HW238157   0.591   2.802  15.585 -0.0360  1.1049 -2.0692
 8899SOL     OW38158   3.726   4.097   5.203 -0.3713  0.1776 -0.2797
 8899SOL    HW138159   3.768   4.177   5.173 -0.1308 -0.8758 -2.7009
 8899SOL    HW238160   3.793   4.035   5.231 -0.4197  0.0713 -0.4006
 8900SOL     OW38161   0.600   3.728   2.786 -0.0915  0.0903 -0.1036
 8900SOL    HW138162   0.654   3.791   2.834 -1.6695  1.6039 -0.3377
 8900SOL    HW238163   0.628   3.736   2.695  0.3051 -2.1484 -0.1955
 8901SOL     OW38164   0.516   0.306   1.220  0.0043  0.1831 -0.3380
 8901SOL    HW138165   0.445   0.259   1.176 -0.1357  2.2222 -2.3221
 8901SOL    HW238166   0.490   0.398   1.220 -1.4723 -0.2412 -0.1253
 8902SOL     OW38167   4.489   4.453   4.304  0.0916 -0.3736  0.1243
 8902SOL    HW138168   4.516   4.542   4.283  3.1065 -1.8200 -2.2306
 8902SOL    HW238169   4.526   4.431   4.389  1.5855  0.4221 -0.3331
 8903SOL     OW38170   0.501   0.785  11.001 -0.3999 -0.0738  0.2274
 8903SOL    HW138171   0.505   0.693  11.026  3.0265 -0.0532 -0.2425
 8903SOL    HW238172   0.455   0.783  10.917  0.7287  0.7588 -0.4140
 8904SOL     OW38173   1.052   1.634   3.188  0.2469  0.3553 -0.2514
 8904SOL    HW138174   1.035   1.727   3.207 -2.2467 -0.5494  1.8710
 8904SOL    HW238175   1.023   1.625   3.097  1.7781 -1.8266 -0.5065
 8905SOL     OW38176   4.649   2.831   4.918 -0.5523  0.7325 -0.1637
 8905SOL    HW138177   4.721   2.819   4.856 -3.1086 -1.8042 -2.6907
 8905SOL    HW238178   4.700   2.840   4.998 -0.4963  0.3638 -0.1573
 8906SOL     OW38179   3.360   0.057   2.931 -0.3270  0.3594  0.1741
 8906SOL    HW138180   3.319   0.036   2.848  1.2340 -1.4992 -0.1345
 8906SOL    HW238181   3.286   0.108   2.965  0.0281  1.3575 -0.5517
 8907SOL     OW38182   4.034   4.572   5.242 -0.5726 -0.2953 -0.2122
 8907SOL    HW138183   3.939   4.576   5.231 -0.5642  1.9433  0.4793
 8907SOL    HW238184   4.058   4.490   5.199  2.6395  0.0695  0.9063
 8908SOL     OW38185   1.103   1.560   9.766  0.0374  0.2397  0.0895
 8908SOL    HW138186   1.125   1.653   9.757 -3.7275  1.2417  1.0484
 8908SOL    HW238187   1.084   1.556   9.860  2.0374  0.8152  0.5106
 8909SOL     OW38188   2.532   4.467  17.296 -0.1299 -0.0102 -0.0555
 8909SOL    HW138189   2.564   4.377  17.294 -1.3060 -0.4416  0.4393
 8909SOL    HW238190   2.502   4.467  17.205  0.8462  1.3522 -0.3834
 8910SOL     OW38191   1.465   3.031   2.720  0.1755  0.1113  0.3063
 8910SOL    HW138192   1.441   2.958   2.663 -0.9087  0.5120  0.2456
 8910SOL    HW238193   1.419   3.111   2.692 -0.2024 -0.3853 -0.4868
 8911SOL     OW38194   2.865   2.900   8.015  0.3142 -0.2897 -0.1369
 8911SOL    HW138195   2.790   2.891   7.955  0.5080 -1.4043 -0.2012
 8911SOL    HW238196   2.851   2.836   8.085  1.0682  1.2393  1.4084
 8912SOL     OW38197   4.398   3.981   1.134  0.7459  0.2650  0.1127
 8912SOL    HW138198   4.377   3.887   1.130  2.5781 -0.2293  1.8671
 8912SOL    HW238199   4.408   4.006   1.042  0.9894 -0.3544 -0.0270
 8913SOL     OW38200   0.008   4.304   5.571 -0.3801 -0.0958  0.1977
 8913SOL    HW138201   4.655   4.356   5.593 -1.7315 -1.6551 -0.9872
 8913SOL    HW238202   0.042   4.364   5.505 -1.0740  2.4862  2.1816
 8914SOL     OW38203   0.872   3.832   5.350  0.6245 -0.0708  0.2720
 8914SOL    HW138204   0.943   3.791   5.399  2.0713 -0.2351 -1.9628
 8914SOL    HW238205   0.856   3.765   5.284  2.7993 -0.1429 -0.1877
 8915SOL     OW38206   1.890   1.405   7.428 -0.7660 -0.3234  0.2087
 8915SOL    HW138207   1.836   1.452   7.492 -0.5499  0.5012 -0.2142
 8915SOL    HW238208   1.829   1.343   7.387 -1.5537  2.6707 -3.1253
 8916SOL     OW38209   4.620   0.346  15.274 -0.7670  0.2389 -0.4765
 8916SOL    HW138210   4.704   0.374  15.238 -1.3073 -0.0679 -1.9823
 8916SOL    HW238211   4.638   0.304  15.358 -1.9401  0.2491 -0.2202
 8917SOL     OW38212   0.561   4.705   3.230 -0.2662 -0.0836  0.4685
 8917SOL    HW138213   0.527   4.721   3.318 -0.2009  0.6016  0.3638
 8917SOL    HW238214   0.497   4.636   3.212 -1.5249  1.2080 -0.0020
 8918SOL     OW38215   1.669   0.360   6.950  0.0408  0.7120 -0.5329
 8918SOL    HW138216   1.640   0.367   6.859 -0.9845 -0.3601 -0.3029
 8918SOL    HW238217   1.655   0.449   6.983  1.8722  0.5383  0.6876
 8919SOL     OW38218   2.675   3.944   1.395  0.1257 -0.0982 -0.3916
 8919SOL    HW138219   2.727   3.868   1.369 -1.4620 -1.2871 -0.1109
 8919SOL    HW238220   2.622   3.951   1.316 -2.9064  0.2117  1.6988
 8920SOL     OW38221   0.247   3.235   3.528  0.2115 -0.6099 -0.1961
 8920SOL    HW138222   0.203   3.229   3.442  2.2686 -2.2325 -1.1182
 8920SOL    HW238223   0.320   3.177   3.511  1.1259  0.6192 -0.4698
 8921SOL     OW38224   1.306   4.252   7.591  0.1459 -0.2488 -0.5133
 8921SOL    HW138225   1.212   4.232   7.594  0.4457 -1.2418  2.6961
 8921SOL    HW238226   1.335   4.187   7.656 -2.0027 -1.5213 -0.8231
 8922SOL     OW38227   2.719   3.209   6.011  1.2737  0.0765 -0.1397
 8922SOL    HW138228   2.765   3.216   6.094 -0.2720 -0.4099  0.7586
 8922SOL    HW238229   2.789   3.178   5.953  1.8381  0.2668  0.4472
 8923SOL     OW38230   2.137   3.961   7.661  0.4169  0.1838 -0.1042
 8923SOL    HW138231   2.075   3.922   7.723  0.2717 -1.7151 -1.4418
 8923SOL    HW238232   2.216   3.976   7.713  1.2354 -0.1501 -1.2489
 8924SOL     OW38233   2.762   0.556  13.672 -0.0854  0.4466  0.5246
 8924SOL    HW138234   2.825   0.628  13.669  0.7763 -0.3207  0.2490
 8924SOL    HW238235   2.682   0.607  13.685 -0.1671  0.9506 -1.9380
 8925SOL     OW38236   0.628   1.970   3.438 -0.2924 -0.5923  0.2725
 8925SOL    HW138237   0.709   2.003   3.475  0.1772 -0.5916 -0.7424
 8925SOL    HW238238   0.595   1.930   3.519 -1.8733 -1.8475 -0.9739
 8926SOL     OW38239   0.766   0.626   2.376 -0.0166 -0.4485  0.1878
 8926SOL    HW138240   0.839   0.615   2.436 -0.4292  0.3847  0.8515
 8926SOL    HW238241   0.816   0.618   2.295 -1.1339 -2.3530 -0.3221
 8927SOL     OW38242   2.812   1.708   4.570  0.1514 -0.0264 -0.1978
 8927SOL    HW138243   2.793   1.627   4.617 -2.1127  0.4671 -0.2588
 8927SOL    HW238244   2.728   1.726   4.528 -1.0516 -0.0416  2.2013
 8928SOL     OW38245   2.410   3.313   6.756 -0.1488 -0.3091  0.1115
 8928SOL    HW138246   2.425   3.252   6.684  0.2353  0.5542 -0.5391
 8928SOL    HW238247   2.324   3.280   6.780 -0.3643 -0.4053 -0.8001
 8929SOL     OW38248   2.221   1.379   2.785 -0.0990 -0.5175  0.1424
 8929SOL    HW138249   2.279   1.306   2.803 -0.2519 -0.2774  1.6126
 8929SOL    HW238250   2.279   1.451   2.809 -1.5233  0.6830  0.0525
 8930SOL     OW38251   2.165   0.826  15.027  0.6243  0.3325 -0.4650
 8930SOL    HW138252   2.111   0.753  15.057  1.2564  0.0290 -0.0691
 8930SOL    HW238253   2.176   0.878  15.107  1.5221 -0.5374 -0.0161
 8931SOL     OW38254   4.325   2.181   4.619 -0.6154 -0.1046  0.0701
 8931SOL    HW138255   4.299   2.161   4.529  0.6427 -0.2085 -0.2698
 8931SOL    HW238256   4.312   2.099   4.667 -1.2979 -0.5640 -0.8858
 8932SOL     OW38257   2.968   3.836  13.523  0.0934 -0.0883  0.8853
 8932SOL    HW138258   3.061   3.843  13.504 -0.4063  0.1312 -1.4207
 8932SOL    HW238259   2.952   3.757  13.473  1.8856 -2.5869  4.2604
 8933SOL     OW38260   1.466   1.142   2.417  0.6459  0.3305 -0.8321
 8933SOL    HW138261   1.513   1.065   2.451 -0.6237 -0.6031 -1.1946
 8933SOL    HW238262   1.527   1.159   2.345 -1.2004 -1.1234 -2.7213
 8934SOL     OW38263   4.589   2.222   9.533 -0.0194 -0.2001  0.3737
 8934SOL    HW138264   4.586   2.236   9.628  2.7038 -2.7498  0.8152
 8934SOL    HW238265   4.580   2.128   9.523  1.6300 -0.4133  0.8301
 8935SOL     OW38266   0.387   0.343   5.037 -0.1786 -0.1718 -0.2517
 8935SOL    HW138267   0.398   0.433   5.009 -0.2458  0.1720  0.8307
 8935SOL    HW238268   0.373   0.353   5.131 -0.2591 -0.2503 -0.2547
 8936SOL     OW38269   2.343   0.059  15.180  0.1437 -0.1365 -0.9941
 8936SOL    HW138270   2.381   0.110  15.252 -0.4609 -0.7946 -0.2126
 8936SOL    HW238271   2.395   4.704  15.175  0.6991  0.3057 -2.3621
 8937SOL     OW38272   4.325   1.234   2.819  0.0453 -0.2581 -0.0465
 8937SOL    HW138273   4.297   1.148   2.851  0.4650 -0.7920 -1.1246
 8937SOL    HW238274   4.251   1.269   2.768  0.2713  2.8351  1.7610
 8938SOL     OW38275   3.835   0.082  17.129 -0.5833 -0.0658 -0.2649
 8938SOL    HW138276   3.755   0.044  17.093 -0.9532  1.4890 -1.0894
 8938SOL    HW238277   3.822   0.055  17.220 -0.9574  0.8602 -0.0532
 8939SOL     OW38278   2.894   0.635   2.755  0.5137  0.0504 -0.6982
 8939SOL    HW138279   2.845   0.581   2.816 -0.8772  1.5655 -0.4732
 8939SOL    HW238280   2.984   0.610   2.778  1.0547  0.2023 -2.6490
 8940SOL     OW38281   1.956   2.330   5.140  0.1195 -0.0706  0.0949
 8940SOL    HW138282   1.941   2.411   5.092 -0.2189  0.8528  1.7767
 8940SOL    HW238283   1.995   2.280   5.068 -1.8885 -0.5385 -0.6751
 8941SOL     OW38284   2.195   3.962   8.143  0.3099  0.0053  0.3237
 8941SOL    HW138285   2.225   4.029   8.081 -0.0396 -0.5817 -0.4892
 8941SOL    HW238286   2.100   3.957   8.129  0.5888 -2.5879 -0.5970
 8942SOL     OW38287   3.967   0.833  12.210 -0.1160  0.4860 -0.1750
 8942SOL    HW138288   4.036   0.875  12.158 -0.7388 -1.1851 -2.3497
 8942SOL    HW238289   3.952   0.892  12.283  0.2044  0.9315 -0.4680
 8943SOL     OW38290   0.612   2.012   4.440 -0.2309 -0.1871 -0.5964
 8943SOL    HW138291   0.667   1.974   4.371  1.0201  2.0567 -0.8460
 8943SOL    HW238292   0.572   1.939   4.487  1.0933  0.1683  1.0962
 8944SOL     OW38293   2.340   3.229   5.219 -0.2863  0.2510 -0.4803
 8944SOL    HW138294   2.359   3.145   5.178  1.3026  0.0429  0.7089
 8944SOL    HW238295   2.262   3.256   5.170 -0.7776  0.4542  0.4173
 8945SOL     OW38296   3.762   2.048  12.648  0.3071  0.2141 -0.3949
 8945SOL    HW138297   3.795   2.138  12.648 -0.8676  0.6422  2.2987
 8945SOL    HW238298   3.684   2.070  12.598 -0.7115  0.5748  1.3380
 8946SOL     OW38299   0.785   1.716   8.759  0.6215  0.0127 -0.1841
 8946SOL    HW138300   0.821   1.802   8.738  1.1488 -0.3788 -0.8642
 8946SOL    HW238301   0.695   1.730   8.728  1.6307  0.4768 -2.8962
 8947SOL     OW38302   4.206   1.212   9.408 -0.8714  0.2225 -0.1338
 8947SOL    HW138303   4.176   1.213   9.499 -0.4501  3.2253 -0.0191
 8947SOL    HW238304   4.260   1.133   9.413  1.7578  2.0508  0.0132
 8948SOL     OW38305   1.102   2.190  16.278 -0.3814 -0.3916  0.3680
 8948SOL    HW138306   1.179   2.175  16.223  0.1469 -0.2639  1.0782
 8948SOL    HW238307   1.085   2.274  16.235 -0.3531 -0.5543  0.0431
 8949SOL     OW38308   1.220   1.648   8.062  0.6639 -0.0614  0.1162
 8949SOL    HW138309   1.237   1.566   8.014  0.6544  0.1151 -0.1879
 8949SOL    HW238310   1.283   1.713   8.031 -2.1337  2.3576 -0.4454
 8950SOL     OW38311   3.257   0.852   1.335  0.0055 -0.0246  0.0357
 8950SOL    HW138312   3.230   0.878   1.423 -1.0933  3.5251 -1.3725
 8950SOL    HW238313   3.176   0.867   1.287 -0.1443  1.3753  0.7501
 8951SOL     OW38314   2.635   3.697  16.144  0.0096 -0.3792 -0.0099
 8951SOL    HW138315   2.665   3.674  16.056 -1.5371  0.3036 -0.7133
 8951SOL    HW238316   2.611   3.789  16.135  0.8637 -0.1188  0.4778
 8952SOL     OW38317   2.684   2.937   2.934  0.2201  0.5287  0.6298
 8952SOL    HW138318   2.670   3.031   2.931 -0.3750  0.4158 -0.5586
 8952SOL    HW238319   2.700   2.921   3.027  0.7853  1.7996  0.7456
 8953SOL     OW38320   1.918   2.366   3.724  0.2706 -0.4589  0.1153
 8953SOL    HW138321   1.854   2.436   3.740 -0.1913 -0.9573  0.4410
 8953SOL    HW238322   1.982   2.414   3.672  1.1279 -1.5912  0.1415
 8954SOL     OW38323   0.704   1.525   1.442 -0.2383  0.5811 -0.8732
 8954SOL    HW138324   0.764   1.580   1.493 -0.6904  0.1233  0.1512
 8954SOL    HW238325   0.639   1.513   1.512  1.7508 -2.1101  0.5078
 8955SOL     OW38326   2.921   0.846   0.859  0.1037 -0.3407 -0.1821
 8955SOL    HW138327   2.833   0.829   0.826 -0.7676 -0.4124  2.1900
 8955SOL    HW238328   2.958   0.759   0.852  1.0104 -0.1065  1.6110
 8956SOL     OW38329   3.375   0.654   2.707  0.1455 -0.2930  0.4848
 8956SOL    HW138330   3.367   0.743   2.672  0.0406 -1.1478 -1.6940
 8956SOL    HW238331   3.470   0.641   2.702  0.5091  2.4305  0.5318
 8957SOL     OW38332   1.508   3.571   3.120 -0.0997 -0.3764  0.0785
 8957SOL    HW138333   1.489   3.622   3.199  0.8084 -0.6287  0.4643
 8957SOL    HW238334   1.602   3.561   3.135 -0.3320 -1.2884  0.9625
 8958SOL     OW38335   0.670   0.986   1.652 -0.4870  0.1239 -0.5260
 8958SOL    HW138336   0.646   0.912   1.596 -0.9825 -0.6261  0.6869
 8958SOL    HW238337   0.686   0.942   1.735 -0.0089  3.1837  1.0071
 8959SOL     OW38338   2.939   4.267   6.036 -0.0699  0.2072  0.0849
 8959SOL    HW138339   2.927   4.305   6.123 -1.8885 -0.3502  0.0871
 8959SOL    HW238340   2.918   4.344   5.983  1.8206  0.7913  0.1790
 8960SOL     OW38341   2.526   2.534   3.788 -0.3660 -0.3290 -0.3012
 8960SOL    HW138342   2.507   2.456   3.840 -0.4846 -0.7427 -0.9663
 8960SOL    HW238343   2.448   2.589   3.797  0.4093  0.4038  1.9427
 8961SOL     OW38344   3.194   2.338   4.588 -0.0271 -0.5725 -0.3470
 8961SOL    HW138345   3.225   2.318   4.500 -0.5060  0.7102 -0.8073
 8961SOL    HW238346   3.248   2.408   4.626  1.5360 -2.2695  0.5419
 8962SOL     OW38347   1.707   2.052  10.953 -0.0154  0.0961  0.1135
 8962SOL    HW138348   1.667   2.048  10.867 -0.5425 -1.2055  0.4216
 8962SOL    HW238349   1.627   2.060  11.005 -1.1444  0.9485 -1.7757
 8963SOL     OW38350   2.092   1.754   5.886  0.2824 -0.4229 -1.0079
 8963SOL    HW138351   2.053   1.771   5.801  3.2853  0.8704 -2.1099
 8963SOL    HW238352   2.184   1.747   5.861  0.7814  0.9268  0.4506
 8964SOL     OW38353   4.525   4.220   7.862 -0.3947 -0.2163 -0.2681
 8964SOL    HW138354   4.530   4.198   7.955 -2.0885  0.7317  0.0645
 8964SOL    HW238355   4.579   4.161   7.810 -0.2309  1.0774 -1.5508
 8965SOL     OW38356   3.353   2.626   2.516 -0.4890 -0.4974  0.1750
 8965SOL    HW138357   3.328   2.711   2.552 -1.7516 -0.0628 -1.7049
 8965SOL    HW238358   3.349   2.572   2.594 -1.9080 -1.0981 -0.3199
 8966SOL     OW38359   3.566   2.138   0.875 -0.5704 -0.4993 -0.3174
 8966SOL    HW138360   3.478   2.155   0.841 -0.9845 -1.4411  0.2942
 8966SOL    HW238361   3.571   2.206   0.942  1.4595 -1.3336  0.3501
 8967SOL     OW38362   0.784   3.338   6.629 -0.0569  0.0605 -0.4304
 8967SOL    HW138363   0.837   3.417   6.641  0.1060 -0.1996  0.5929
 8967SOL    HW238364   0.713   3.366   6.572  0.5281  0.1716 -1.1047
 8968SOL     OW38365   2.170   0.069   6.123 -0.2697  0.2340  0.5501
 8968SOL    HW138366   2.259   0.100   6.108 -0.6603  0.5276 -1.0731
 8968SOL    HW238367   2.181   4.721   6.183 -2.4346 -0.4050  0.1778
 8969SOL     OW38368   4.303   1.138   5.897 -0.3866 -0.1020 -0.3906
 8969SOL    HW138369   4.282   1.047   5.918  2.0639 -0.3347  0.9663
 8969SOL    HW238370   4.250   1.147   5.817 -1.4216 -1.8504  0.1028
 8970SOL     OW38371   2.780   2.643   4.645 -0.1665 -0.2358  0.5334
 8970SOL    HW138372   2.847   2.675   4.586  0.0184 -0.4008  0.6536
 8970SOL    HW238373   2.823   2.563   4.676  0.6037  0.6545  1.7529
 8971SOL     OW38374   4.193   1.962   2.688  0.5915 -0.0698  0.0575
 8971SOL    HW138375   4.273   1.965   2.742  0.0409 -1.4140  0.9520
 8971SOL    HW238376   4.197   1.873   2.654 -2.4702  0.2893 -1.1725
 8972SOL     OW38377   0.315   1.035   1.848 -0.6239 -0.8499 -0.5886
 8972SOL    HW138378   0.262   0.982   1.907  0.0936  0.2757  1.0646
 8972SOL    HW238379   0.405   1.014   1.869 -1.1002  0.5763  2.9637
 8973SOL     OW38380   2.757   2.834  10.461  0.2254 -0.2131  0.0385
 8973SOL    HW138381   2.777   2.836  10.554 -0.5590 -0.6612  0.2121
 8973SOL    HW238382   2.837   2.815  10.411  0.5670 -2.3535  1.3810
 8974SOL     OW38383   1.040   3.093  16.087 -0.0667  0.2943 -0.0195
 8974SOL    HW138384   0.957   3.090  16.039 -0.6820  3.4082  0.8326
 8974SOL    HW238385   1.072   3.004  16.075 -1.2962 -0.4133  1.9089
 8975SOL     OW38386   2.845   2.123   6.545  0.3342  0.0472  0.2036
 8975SOL    HW138387   2.801   2.201   6.513 -1.0597 -0.8033  0.0329
 8975SOL    HW238388   2.785   2.090   6.612 -0.6784 -1.1833 -1.2838
 8976SOL     OW38389   1.431   0.280  14.236  0.2567 -0.5616  0.1480
 8976SOL    HW138390   1.359   0.339  14.209  1.5779  0.6653 -0.7220
 8976SOL    HW238391   1.511   0.332  14.235 -1.0265  1.4410  0.6592
 8977SOL     OW38392   0.573   2.212   3.274  0.1659 -0.1006 -0.5586
 8977SOL    HW138393   0.502   2.174   3.223 -0.6793  1.5505 -0.5973
 8977SOL    HW238394   0.603   2.125   3.303  0.9219  0.0358 -0.9377
 8978SOL     OW38395   3.139   3.589   6.205  0.2214  0.2497  0.2092
 8978SOL    HW138396   3.138   3.672   6.158 -0.9072  0.1021 -0.0107
 8978SOL    HW238397   3.044   3.579   6.210  0.2688 -0.5435 -0.4579
 8979SOL     OW38398   3.366   1.887   9.479  0.9932  0.6412 -0.2008
 8979SOL    HW138399   3.314   1.904   9.558 -0.0167 -0.7487 -0.5696
 8979SOL    HW238400   3.375   1.969   9.429 -2.3496  2.6019  2.3991
 8980SOL     OW38401   1.823   4.430   7.932  0.1141  0.3268  0.1509
 8980SOL    HW138402   1.763   4.357   7.945  0.5591 -0.1479 -0.4578
 8980SOL    HW238403   1.905   4.384   7.950  0.4490  1.3654  1.2795
 8981SOL     OW38404   4.012   3.332   4.100 -0.3106  0.2095 -0.1761
 8981SOL    HW138405   4.006   3.236   4.108  0.3589  0.3085  1.4933
 8981SOL    HW238406   4.099   3.336   4.059 -0.6424 -1.4532 -1.0565
 8982SOL     OW38407   0.647   0.754   7.252  0.0817  0.6989  0.3898
 8982SOL    HW138408   0.694   0.748   7.169 -0.5209  2.7024 -0.1051
 8982SOL    HW238409   0.696   0.820   7.301  1.3788 -0.2004  0.2969
 8983SOL     OW38410   2.281   2.347   6.483 -0.0901  0.0822 -0.1696
 8983SOL    HW138411   2.291   2.433   6.524  1.8572 -1.4604  2.5792
 8983SOL    HW238412   2.189   2.329   6.504 -0.0015  1.8422  1.7827
 8984SOL     OW38413   3.800   2.558  16.213 -0.6381 -0.5336  0.2320
 8984SOL    HW138414   3.735   2.615  16.255 -0.6512 -0.6317  0.3459
 8984SOL    HW238415   3.747   2.488  16.175 -2.9957  0.0797  2.3175
 8985SOL     OW38416   1.650   4.343   4.790 -0.0471  0.3345 -0.3913
 8985SOL    HW138417   1.659   4.307   4.878 -1.9445 -1.4812 -0.9323
 8985SOL    HW238418   1.723   4.404   4.800  1.9111 -2.4748  2.4705
 8986SOL     OW38419   1.346   1.175   7.291 -0.3450  0.3972  0.0525
 8986SOL    HW138420   1.344   1.251   7.233 -0.4741 -0.0489 -0.5279
 8986SOL    HW238421   1.252   1.177   7.311 -0.3632  0.2029 -0.0155
 8987SOL     OW38422   4.631   4.375   8.190  0.0627  0.0970  0.1528
 8987SOL    HW138423   4.547   4.402   8.226 -2.2598 -0.7890 -4.6650
 8987SOL    HW238424   4.625   4.281   8.176  1.8517  0.1364 -0.8913
 8988SOL     OW38425   0.482   0.607  14.405  0.2844 -0.4081 -0.6545
 8988SOL    HW138426   0.457   0.607  14.313 -1.1910  2.6302 -0.2780
 8988SOL    HW238427   0.494   0.700  14.425  2.3730 -1.0190  0.9618
 8989SOL     OW38428   0.040   4.364   4.771 -0.4385 -0.1356  0.1099
 8989SOL    HW138429   4.672   4.342   4.778 -0.8648  1.2608 -1.0874
 8989SOL    HW238430   0.080   4.318   4.844 -0.6447 -1.0247 -0.3411
 8990SOL     OW38431   3.494   0.186   3.588  0.3848  0.1209 -0.0482
 8990SOL    HW138432   3.508   0.162   3.497 -3.7259  0.2433 -0.7109
 8990SOL    HW238433   3.585   0.199   3.613  0.5652  1.3349 -1.3281
 8991SOL     OW38434   4.030   0.037   8.304  0.3078  0.5589 -0.0795
 8991SOL    HW138435   4.078   0.097   8.246 -1.0244  0.2851 -1.4921
 8991SOL    HW238436   4.010   0.096   8.377 -0.1378  0.4611 -0.1236
 8992SOL     OW38437   3.563   3.132  14.935 -0.0625  0.0608 -0.0936
 8992SOL    HW138438   3.527   3.062  14.880  0.1111  0.2493 -0.4407
 8992SOL    HW238439   3.625   3.081  14.987 -0.2189 -1.5825 -1.5081
 8993SOL     OW38440   2.093   1.196  16.026  0.3802 -0.4226 -0.0520
 8993SOL    HW138441   2.116   1.160  15.940  2.3885  1.6909 -0.3701
 8993SOL    HW238442   2.164   1.257  16.044 -0.6414  0.6786  0.2677
 8994SOL     OW38443   1.577   0.590  13.047  0.1546 -0.3281  0.9496
 8994SOL    HW138444   1.587   0.514  12.989  0.1816 -0.9984  1.8261
 8994SOL    HW238445   1.574   0.663  12.985  3.7336 -1.2010 -0.2495
 8995SOL     OW38446   4.468   3.244   0.767  0.3455 -0.0935 -0.6457
 8995SOL    HW138447   4.415   3.313   0.727  0.8594  0.3766 -0.5090
 8995SOL    HW238448   4.527   3.300   0.817 -1.9508  1.5510  0.1916
 8996SOL     OW38449   4.222   3.853   1.850  0.0443 -0.4782  0.2635
 8996SOL    HW138450   4.173   3.808   1.919 -1.7448 -0.2556 -0.8452
 8996SOL    HW238451   4.296   3.794   1.838  0.8750  0.5868  0.1815
 8997SOL     OW38452   2.280   1.479   1.955 -0.1006  0.1866  0.2985
 8997SOL    HW138453   2.320   1.403   1.913  0.0092 -0.3814  1.4494
 8997SOL    HW238454   2.206   1.502   1.899 -1.6418 -0.1962  2.1806
 8998SOL     OW38455   3.671   0.275   4.879  0.3560 -0.4933  1.0158
 8998SOL    HW138456   3.725   0.304   4.953  0.8880  0.1095  0.3964
 8998SOL    HW238457   3.735   0.222   4.832  1.7799  0.0098  2.3878
 8999SOL     OW38458   2.266   4.630   2.293 -0.1371 -0.4716  0.2185
 8999SOL    HW138459   2.183   4.660   2.329 -0.1761 -2.0869  1.4663
 8999SOL    HW238460   2.237   4.573   2.223  0.8503 -1.1007  0.3272
 9000SOL     OW38461   0.464   2.527   5.923 -0.0365 -0.4919  1.0028
 9000SOL    HW138462   0.385   2.531   5.869 -0.1601  2.3683  1.4357
 9000SOL    HW238463   0.496   2.444   5.886  0.5279  0.0198  0.3361
 9001SOL     OW38464   1.270   2.322  11.217  0.7358  0.3300 -0.0142
 9001SOL    HW138465   1.346   2.358  11.262 -0.1124  0.4755  1.3021
 9001SOL    HW238466   1.231   2.256  11.275  0.6503  0.5683  0.1972
 9002SOL     OW38467   0.334   2.694   8.005  0.5146  0.5917  0.1789
 9002SOL    HW138468   0.304   2.734   8.087 -0.1924  0.0604  0.1742
 9002SOL    HW238469   0.315   2.606   8.037  2.0594 -0.2745 -1.3677
 9003SOL     OW38470   3.033   0.876   1.184 -0.0208 -0.3783  0.0453
 9003SOL    HW138471   3.010   0.955   1.135 -1.7530 -2.5234 -2.6238
 9003SOL    HW238472   2.952   0.829   1.204 -0.8631  0.5187 -1.2340
 9004SOL     OW38473   4.283   1.322   4.954  0.3639  0.0269  0.1007
 9004SOL    HW138474   4.195   1.287   4.942  0.0841  0.7115  0.1605
 9004SOL    HW238475   4.328   1.298   4.873  2.7854  0.2633  1.3741
 9005SOL     OW38476   1.209   0.456   7.062 -0.2377  0.3332 -0.7933
 9005SOL    HW138477   1.173   0.544   7.070  2.3839  1.6180 -3.2133
 9005SOL    HW238478   1.188   0.428   6.973  0.9458 -0.9207 -0.6800
 9006SOL     OW38479   0.908   3.772  17.084  0.0717  0.3131  0.4190
 9006SOL    HW138480   0.899   3.678  17.102 -0.1647  0.1224 -0.7003
 9006SOL    HW238481   0.913   3.798  17.176  1.0930 -1.8562  1.0013
 9007SOL     OW38482   1.929   0.853   9.961 -0.1834  0.5945 -0.0187
 9007SOL    HW138483   1.940   0.927  10.021  3.0783  2.1055 -2.4368
 9007SOL    HW238484   2.018   0.820   9.953 -1.0171 -1.2565 -1.6112
 9008SOL     OW38485   1.852   1.525   0.960  0.0544 -0.1703  0.0997
 9008SOL    HW138486   1.864   1.558   0.871 -1.3857 -0.7812 -0.3175
 9008SOL    HW238487   1.905   1.445   0.963 -2.0447 -1.4611  3.1637
 9009SOL     OW38488   4.365   4.071   0.861  0.2035 -0.0947 -0.6688
 9009SOL    HW138489   4.280   4.102   0.829 -0.1293 -0.2687  0.0422
 9009SOL    HW238490   4.412   4.154   0.865  0.2612 -0.2288  1.7281
 9010SOL     OW38491   4.555   0.118   6.366 -0.1467  0.2225 -0.1383
 9010SOL    HW138492   4.604   0.199   6.350 -0.7889  0.4926 -0.7201
 9010SOL    HW238493   4.583   0.100   6.456 -0.4483 -1.5294 -0.3828
 9011SOL     OW38494   4.123   0.310   6.522  0.2755 -0.2377 -0.3185
 9011SOL    HW138495   4.136   0.330   6.615  1.6546 -1.5995 -0.2163
 9011SOL    HW238496   4.089   0.221   6.520  0.0375 -0.2083  2.2907
 9012SOL     OW38497   0.209   0.966   8.698 -0.8945 -0.1497  0.0364
 9012SOL    HW138498   0.187   0.883   8.656 -2.4724  0.0343  0.5085
 9012SOL    HW238499   0.146   1.030   8.666 -0.7431 -0.9894 -1.9215
 9013SOL     OW38500   1.797   2.168   5.302  0.2884 -0.1611  0.0937
 9013SOL    HW138501   1.866   2.158   5.367  0.0902 -2.9370 -0.1005
 9013SOL    HW238502   1.838   2.212   5.227  1.3849  0.1361  0.8759
 9014SOL     OW38503   1.310   3.675   5.601 -0.0692  0.2691 -0.7058
 9014SOL    HW138504   1.390   3.688   5.551  0.9811  1.1970  1.2443
 9014SOL    HW238505   1.289   3.767   5.613 -0.3480  0.0579  0.4088
 9015SOL     OW38506   1.275   3.089  16.264  0.1535 -0.0587 -0.5246
 9015SOL    HW138507   1.184   3.104  16.237 -0.1022 -1.0163 -0.1894
 9015SOL    HW238508   1.311   3.070  16.177 -1.7877 -0.5595 -1.2168
 9016SOL     OW38509   2.085   2.806  17.395 -0.8049  0.0009 -0.4753
 9016SOL    HW138510   2.143   2.818  17.320  2.3530  2.8390  2.3864
 9016SOL    HW238511   2.004   2.847  17.366 -2.0994 -0.3849  2.5805
 9017SOL     OW38512   4.418   1.848  10.091 -0.3357 -0.3058 -0.1842
 9017SOL    HW138513   4.325   1.854  10.114 -0.7305 -0.2346 -1.7919
 9017SOL    HW238514   4.420   1.752  10.086 -2.8091 -0.5202  2.6920
 9018SOL     OW38515   3.522   3.726  12.202 -0.1903  0.4875 -0.4196
 9018SOL    HW138516   3.580   3.797  12.174  1.2200 -0.6765 -0.4263
 9018SOL    HW238517   3.578   3.652  12.181 -0.5555 -0.3645  1.6067
 9019SOL     OW38518   0.256   1.291   4.479 -0.7293 -0.7676  0.3104
 9019SOL    HW138519   0.248   1.252   4.566  2.0732  2.4575  2.0119
 9019SOL    HW238520   0.185   1.355   4.478 -1.5771 -1.7251 -1.5931
 9020SOL     OW38521   0.308   0.181  15.672  0.1135  0.1333 -0.0213
 9020SOL    HW138522   0.229   0.234  15.674 -0.4610 -0.7304  0.3974
 9020SOL    HW238523   0.276   0.097  15.706  3.0821 -0.9762  0.0357
 9021SOL     OW38524   0.826   3.131   8.686 -0.6444  0.2614  0.3790
 9021SOL    HW138525   0.753   3.189   8.666 -2.1469 -1.4252  0.9496
 9021SOL    HW238526   0.903   3.184   8.665 -0.6313  0.2684  0.4419
 9022SOL     OW38527   4.710   0.898   1.769 -0.0387 -0.2659 -0.4767
 9022SOL    HW138528   0.007   0.877   1.679 -0.0553 -0.3653 -0.4579
 9022SOL    HW238529   4.644   0.966   1.757 -2.3948 -1.7646  3.7595
 9023SOL     OW38530   3.146   1.591   7.792  0.5094  0.0257  0.3778
 9023SOL    HW138531   3.185   1.669   7.832  1.5178 -0.7464  0.9152
 9023SOL    HW238532   3.117   1.616   7.705  0.8445 -4.5058 -1.0735
 9024SOL     OW38533   3.469   4.279   2.758  0.4127  0.1566  0.0774
 9024SOL    HW138534   3.541   4.243   2.810  1.4256  0.9082 -0.7927
 9024SOL    HW238535   3.412   4.321   2.822 -1.2131 -1.9706  0.0328
 9025SOL     OW38536   1.179   4.411   8.812 -0.4093  0.4508  0.8684
 9025SOL    HW138537   1.157   4.464   8.735  0.0720 -2.5058 -1.2763
 9025SOL    HW238538   1.137   4.330   8.782  1.8837 -0.9398  1.4594
 9026SOL     OW38539   1.989   3.374   8.177 -0.6988  0.2389  0.3066
 9026SOL    HW138540   2.002   3.393   8.084 -2.8095  0.9122  0.1544
 9026SOL    HW238541   2.079   3.349   8.197 -0.3902  1.6728  0.7503
 9027SOL     OW38542   2.122   4.257  11.315 -0.1780 -0.4793 -0.4119
 9027SOL    HW138543   2.173   4.178  11.334  0.9528  0.6761  1.2360
 9027SOL    HW238544   2.160   4.279  11.230 -2.0411  0.3663 -1.0192
 9028SOL     OW38545   4.356   0.539   7.240  0.3249  0.1809  0.2483
 9028SOL    HW138546   4.345   0.519   7.333 -1.8078 -0.2978 -0.1233
 9028SOL    HW238547   4.334   0.632   7.245  0.9549  0.2156  2.7996
 9029SOL     OW38548   0.493   0.042   7.503  0.0147  0.3494  0.0069
 9029SOL    HW138549   0.445   0.007   7.578 -2.4386 -0.2529 -1.8175
 9029SOL    HW238550   0.421   0.087   7.458 -0.2966 -0.4290 -0.2708
 9030SOL     OW38551   3.936   1.539   3.634  0.1232  0.0032  0.3494
 9030SOL    HW138552   3.982   1.618   3.663  2.0168 -1.3067  0.9542
 9030SOL    HW238553   3.913   1.572   3.547  0.8764  0.1681  0.2141
 9031SOL     OW38554   3.400   4.009   2.986 -1.2678 -0.0879 -0.3206
 9031SOL    HW138555   3.492   4.018   2.961 -0.9704 -2.8627 -0.2021
 9031SOL    HW238556   3.408   3.939   3.051  0.8294 -0.5644 -1.1059
 9032SOL     OW38557   0.608   0.420  17.214  0.1680 -0.0253 -0.8420
 9032SOL    HW138558   0.694   0.411  17.256  0.7601  0.5059 -1.9414
 9032SOL    HW238559   0.575   0.501  17.252 -0.3685  1.2226 -3.9263
 9033SOL     OW38560   4.051   3.697   3.785  0.2737 -0.2984  0.6462
 9033SOL    HW138561   4.115   3.681   3.716 -2.1436  1.1862 -1.9663
 9033SOL    HW238562   4.103   3.692   3.865  1.1213 -0.4380  0.0790
 9034SOL     OW38563   0.446   2.321   5.556 -0.2404 -0.2137  0.7658
 9034SOL    HW138564   0.440   2.347   5.464 -0.0013 -0.3125  0.7230
 9034SOL    HW238565   0.410   2.234   5.545  0.9487 -0.3244 -2.2224
 9035SOL     OW38566   1.945   0.671  15.086 -0.0910  0.0311  0.2534
 9035SOL    HW138567   1.916   0.675  15.177 -0.0766 -0.7055  0.2896
 9035SOL    HW238568   1.902   0.590  15.058  2.6386 -1.1791 -0.4691
 9036SOL     OW38569   1.545   1.994  15.997 -0.4894 -0.4764 -0.1222
 9036SOL    HW138570   1.577   2.083  16.014  2.1355 -1.0975 -1.8570
 9036SOL    HW238571   1.617   1.946  16.038  0.2255 -0.4571 -1.3417
 9037SOL     OW38572   2.668   2.862  16.945 -0.5811  0.0265 -0.2179
 9037SOL    HW138573   2.759   2.856  16.974 -1.7795  0.3537  3.5437
 9037SOL    HW238574   2.649   2.949  16.979 -1.6207 -1.3145  2.5985
 9038SOL     OW38575   2.781   4.071   4.280 -0.0527 -0.6530 -0.1917
 9038SOL    HW138576   2.731   4.040   4.355  0.6975 -0.3838  0.4179
 9038SOL    HW238577   2.810   3.988   4.240  3.2798  0.4850 -0.1890
 9039SOL     OW38578   1.781   3.926  11.298  0.2687 -0.0536  0.0398
 9039SOL    HW138579   1.769   3.865  11.225  0.5540 -2.1925  1.7737
 9039SOL    HW238580   1.689   3.952  11.304  0.9895  1.9999  2.2528
 9040SOL     OW38581   4.591   2.150   7.156  0.4960  0.0576  0.1765
 9040SOL    HW138582   4.671   2.196   7.182  0.5747  0.2130 -0.3243
 9040SOL    HW238583   4.586   2.149   7.060  0.8586 -0.3584  0.1630
 9041SOL     OW38584   1.333   0.908   7.027  0.2830 -0.1257  0.4455
 9041SOL    HW138585   1.305   0.899   7.118  0.6870  1.6589  0.7265
 9041SOL    HW238586   1.401   0.972   7.044  1.8203 -1.0596 -2.0894
 9042SOL     OW38587   2.440   0.152   7.641 -0.4068  0.0649  0.3538
 9042SOL    HW138588   2.487   0.182   7.563 -1.0102 -1.6841 -0.6787
 9042SOL    HW238589   2.429   0.232   7.693  2.3147  0.4788  0.3124
 9043SOL     OW38590   0.674   3.086   9.180 -0.2634 -0.0183 -0.2200
 9043SOL    HW138591   0.615   3.162   9.191  0.1484  0.6416 -2.4980
 9043SOL    HW238592   0.708   3.076   9.269 -0.0321 -1.0807 -0.4377
 9044SOL     OW38593   1.935   2.440   8.820  0.2629 -0.7799  0.1981
 9044SOL    HW138594   2.028   2.426   8.804  0.4902 -0.8959  1.6321
 9044SOL    HW238595   1.918   2.509   8.756  3.1950  0.1085  0.3953
 9045SOL     OW38596   0.168   2.687  11.981 -0.3203 -0.5509 -0.3170
 9045SOL    HW138597   0.090   2.738  11.962 -0.3263 -0.0776  0.9439
 9045SOL    HW238598   0.158   2.611  11.923 -0.5247  0.9114 -2.1793
 9046SOL     OW38599   0.165   0.132   8.575  0.4662  0.4107  0.1795
 9046SOL    HW138600   0.081   0.177   8.569  1.1570  1.9444  1.9333
 9046SOL    HW238601   0.184   0.113   8.483  0.2979 -1.4477  0.5258
 9047SOL     OW38602   4.599   2.438   5.043 -0.0205 -0.1342 -0.0187
 9047SOL    HW138603   4.548   2.372   4.995 -1.7717  1.2721 -0.0868
 9047SOL    HW238604   4.543   2.515   5.033 -2.4394 -1.6248  1.9578
 9048SOL     OW38605   1.860   1.050  13.289 -0.4955 -0.4890 -0.0323
 9048SOL    HW138606   1.844   1.140  13.261 -1.4375 -0.8796 -0.7287
 9048SOL    HW238607   1.942   1.072  13.335 -1.6169 -0.3905  1.9297
 9049SOL     OW38608   0.192   1.230  17.591  0.7498  0.0134 -0.0039
 9049SOL    HW138609   0.282   1.248  17.563  1.2734 -1.9325  0.3576
 9049SOL    HW238610   0.160   1.184  17.513  1.8723  0.9378 -1.0115
 9050SOL     OW38611   4.348   0.809  14.215  0.5327 -0.1776  0.3438
 9050SOL    HW138612   4.310   0.857  14.289 -1.5775  1.6353 -1.9334
 9050SOL    HW238613   4.356   0.879  14.150 -2.4435  1.6587  1.9662
 9051SOL     OW38614   1.076   3.150   8.276 -0.5617 -0.4183  0.1194
 9051SOL    HW138615   1.128   3.188   8.347  1.1505 -0.7300 -0.9719
 9051SOL    HW238616   1.024   3.081   8.316 -0.1854 -1.6585 -1.5436
 9052SOL     OW38617   1.584   0.652  12.468  0.4063 -0.3926  0.3635
 9052SOL    HW138618   1.656   0.618  12.521  0.7317 -1.6265 -0.8698
 9052SOL    HW238619   1.574   0.585  12.401 -0.5146 -0.7587  0.8722
 9053SOL     OW38620   4.700   0.504  12.253  0.1836 -0.0651 -0.2302
 9053SOL    HW138621   4.608   0.517  12.276  0.0240 -0.0166 -0.8839
 9053SOL    HW238622   0.001   0.451  12.328  1.9455  0.7828 -0.2459
 9054SOL     OW38623   3.270   2.354   3.923  0.0602 -0.6325 -0.5400
 9054SOL    HW138624   3.354   2.343   3.968 -0.3581 -0.9237  0.1871
 9054SOL    HW238625   3.259   2.272   3.875 -1.5581 -0.9341  0.3708
 9055SOL     OW38626   1.072   3.138   7.342 -0.0654  0.7425  0.1426
 9055SOL    HW138627   1.035   3.072   7.283  1.1484  0.5832 -0.4357
 9055SOL    HW238628   1.038   3.112   7.428  2.1107 -1.0210  0.4663
 9056SOL     OW38629   2.324   0.116   0.362 -0.0467  0.1003 -0.7770
 9056SOL    HW138630   2.372   0.174   0.303  0.5089 -1.9524 -2.3566
 9056SOL    HW238631   2.245   0.112   0.308 -1.3032  2.0231  0.8926
 9057SOL     OW38632   0.127   2.178  16.630  0.4993  0.2634  0.5906
 9057SOL    HW138633   0.183   2.102  16.647  2.2090  0.9896 -1.8861
 9057SOL    HW238634   0.050   2.154  16.682  0.7912 -0.8806  0.4885
 9058SOL     OW38635   1.591   3.131   7.092 -0.2170 -0.6474 -0.2734
 9058SOL    HW138636   1.543   3.144   7.173  0.2076  0.2935 -0.1773
 9058SOL    HW238637   1.612   3.038   7.103 -1.1674 -0.5586  2.2413
 9059SOL     OW38638   3.305   1.157   7.375  0.5833  0.6916 -0.5263
 9059SOL    HW138639   3.254   1.237   7.367 -1.5203 -0.7429 -1.5844
 9059SOL    HW238640   3.270   1.114   7.296  1.9658  1.2896 -1.4760
 9060SOL     OW38641   3.397   4.142   0.630  0.2057  0.1808  0.2378
 9060SOL    HW138642   3.334   4.084   0.673  0.3096  0.3114  0.5641
 9060SOL    HW238643   3.346   4.163   0.552 -0.7143 -2.5252  0.1042
 9061SOL     OW38644   3.356   1.843   2.936 -0.1322 -0.5338  0.4811
 9061SOL    HW138645   3.298   1.811   3.005 -0.5594  0.5287  0.6187
 9061SOL    HW238646   3.381   1.934   2.952  0.4439 -0.7540  0.8321
 9062SOL     OW38647   1.249   3.173  12.018 -0.0324  0.2543 -0.4777
 9062SOL    HW138648   1.312   3.215  11.960 -1.1360 -0.9200 -2.5193
 9062SOL    HW238649   1.274   3.212  12.102 -0.0769 -1.7996  0.5085
 9063SOL     OW38650   2.330   1.235   7.138 -0.4135  0.2934  0.3965
 9063SOL    HW138651   2.260   1.178   7.168  0.8247 -1.6235 -0.3664
 9063SOL    HW238652   2.288   1.314   7.174 -2.8686 -1.3324  1.0835
 9064SOL     OW38653   2.718   3.771   9.598 -0.0584  0.4001 -0.4676
 9064SOL    HW138654   2.690   3.856   9.565 -0.4375  0.6189  0.4228
 9064SOL    HW238655   2.789   3.743   9.540  0.5653  3.1445 -0.9961
 9065SOL     OW38656   1.228   1.325   9.649  0.0973 -0.0238 -0.3156
 9065SOL    HW138657   1.304   1.306   9.704 -0.5545  0.5095  0.7805
 9065SOL    HW238658   1.191   1.403   9.691 -0.2091 -1.0110  1.2442
 9066SOL     OW38659   2.850   0.402  13.896  0.0503  0.1952  0.3086
 9066SOL    HW138660   2.804   0.472  13.849  1.2903  2.2876  2.1886
 9066SOL    HW238661   2.924   0.455  13.927 -0.4285  0.2338  1.3968
 9067SOL     OW38662   1.807   2.268   4.245  0.0379  0.1056  0.2427
 9067SOL    HW138663   1.795   2.181   4.208 -0.9932  0.0427  0.7069
 9067SOL    HW238664   1.825   2.323   4.169 -2.3952  0.6342  0.0213
 9068SOL     OW38665   3.959   1.945  16.127 -0.3673  0.8352  0.3912
 9068SOL    HW138666   3.903   1.896  16.187 -0.7637  0.4659 -0.2689
 9068SOL    HW238667   3.922   2.030  16.105  0.7995  1.3576  0.4575
 9069SOL     OW38668   0.639   1.808  16.940  0.0871  0.7860  0.1772
 9069SOL    HW138669   0.674   1.837  16.856 -1.2629  1.2210 -0.2291
 9069SOL    HW238670   0.708   1.752  16.975 -0.1816 -0.0050 -0.5347
 9070SOL     OW38671   1.100   1.563  10.031  0.0202  0.3487  0.1921
 9070SOL    HW138672   1.047   1.643  10.032 -1.4062 -0.6243  1.5090
 9070SOL    HW238673   1.093   1.530  10.121 -1.6847  0.4264  0.0805
 9071SOL     OW38674   4.624   3.454   5.935  0.3354  0.6787 -0.0291
 9071SOL    HW138675   4.629   3.369   5.892  0.2406 -0.6855  2.6324
 9071SOL    HW238676   4.705   3.490   5.901  0.2264  0.7540 -0.2063
 9072SOL     OW38677   2.480   0.157   8.599 -0.0468 -0.3575  0.2556
 9072SOL    HW138678   2.511   0.068   8.614 -1.7686 -0.6825  1.9375
 9072SOL    HW238679   2.512   0.163   8.509 -2.2936  0.7819 -0.4695
 9073SOL     OW38680   0.365   4.537   5.972  0.3268  0.6952  0.2278
 9073SOL    HW138681   0.406   4.451   5.964  1.5458  1.2213  0.8067
 9073SOL    HW238682   0.287   4.508   6.021  0.2516  2.2913  1.0491
 9074SOL     OW38683   0.416   0.936   6.225  0.8295  0.6934 -0.6418
 9074SOL    HW138684   0.394   0.971   6.311  2.3772 -1.9774  0.8260
 9074SOL    HW238685   0.434   0.844   6.242 -2.0936 -0.1035 -1.8447
 9075SOL     OW38686   1.632   4.266   5.490  0.2979  0.2274 -0.2379
 9075SOL    HW138687   1.716   4.255   5.447  0.1968 -1.1926 -0.0586
 9075SOL    HW238688   1.595   4.183   5.460  1.1907 -0.5272  0.7863
 9076SOL     OW38689   1.959   3.882   4.536  0.1973  0.1359 -0.6817
 9076SOL    HW138690   1.927   3.968   4.562 -3.7438 -1.3614 -0.5220
 9076SOL    HW238691   2.036   3.880   4.593  0.1263  0.8727 -0.5606
 9077SOL     OW38692   4.271   0.390   7.470 -0.7321  0.2540 -0.3712
 9077SOL    HW138693   4.181   0.420   7.480 -0.3399  1.7626 -1.4136
 9077SOL    HW238694   4.306   0.384   7.559 -2.0244 -1.0552  0.0419
 9078SOL     OW38695   4.416   1.941   2.851  0.2446 -0.4479  0.7105
 9078SOL    HW138696   4.408   1.886   2.929 -2.5996 -2.2441 -0.8858
 9078SOL    HW238697   4.455   2.023   2.881 -0.4760 -0.0858  0.6462
 9079SOL     OW38698   0.563   3.665   6.542  0.6022 -0.2256 -0.3108
 9079SOL    HW138699   0.634   3.617   6.500  0.8233 -0.1033 -0.0802
 9079SOL    HW238700   0.612   3.726   6.596  1.9381 -1.6587  0.1013
 9080SOL     OW38701   3.378   0.767   8.734  0.1585 -0.4382 -0.0371
 9080SOL    HW138702   3.306   0.816   8.695  0.2206 -1.1173 -1.0197
 9080SOL    HW238703   3.339   0.692   8.777  1.9238 -0.1589  2.0922
 9081SOL     OW38704   2.016   3.781   6.619 -0.2668 -0.4451  0.4664
 9081SOL    HW138705   1.998   3.739   6.535 -3.4691  1.0773  0.4105
 9081SOL    HW238706   2.008   3.871   6.589  0.4060 -0.9714 -1.3392
 9082SOL     OW38707   0.196   3.055  11.778 -0.1368 -0.0610  0.0093
 9082SOL    HW138708   0.102   3.057  11.759 -0.0232 -1.1706 -0.6311
 9082SOL    HW238709   0.200   3.127  11.841 -0.9291 -1.6852  1.8777
 9083SOL     OW38710   2.892   1.549   7.491  0.5148  0.2292  0.5126
 9083SOL    HW138711   2.933   1.605   7.557  2.0470 -0.5011  0.1682
 9083SOL    HW238712   2.876   1.464   7.534  2.6321 -1.1300 -1.4159
 9084SOL     OW38713   0.697   2.747   6.227  0.2689 -0.1901  0.7658
 9084SOL    HW138714   0.777   2.737   6.279  1.6381  2.0679 -0.9116
 9084SOL    HW238715   0.713   2.681   6.160  3.2438  1.8192 -0.4988
 9085SOL     OW38716   3.241   4.234  14.237  0.2476  0.3497 -0.7632
 9085SOL    HW138717   3.330   4.206  14.260  0.2080 -0.0565 -1.1107
 9085SOL    HW238718   3.218   4.281  14.317 -0.9281  0.8787 -1.4227
 9086SOL     OW38719   3.271   1.491  12.833  0.7375  0.5959 -0.2613
 9086SOL    HW138720   3.364   1.513  12.838  0.4114  2.3602 -1.6238
 9086SOL    HW238721   3.280   1.399  12.855  1.0421  0.5397 -0.6283
 9087SOL     OW38722   0.152   2.428  11.859  0.4149  0.2746  0.4098
 9087SOL    HW138723   0.116   2.347  11.822 -1.2418  1.0533  0.3542
 9087SOL    HW238724   0.237   2.435  11.815 -0.6905  0.7238 -1.6135
 9088SOL     OW38725   3.273   2.714   7.320  0.4571  0.0185  0.6371
 9088SOL    HW138726   3.201   2.689   7.379  0.8100  0.3321  1.1990
 9088SOL    HW238727   3.339   2.664   7.367  0.5780 -0.8954 -0.5033
 9089SOL     OW38728   2.100   2.249   7.746  0.9091 -0.1155 -0.0080
 9089SOL    HW138729   2.115   2.164   7.787 -1.4004 -2.0729 -3.2180
 9089SOL    HW238730   2.181   2.251   7.695  1.4479  2.3848  0.9281
 9090SOL     OW38731   3.104   0.218   6.833 -0.0719 -0.0855 -0.5018
 9090SOL    HW138732   3.150   0.228   6.917  0.0897 -0.3615 -0.5588
 9090SOL    HW238733   3.065   0.306   6.827  0.2665  0.2465  2.2573
 9091SOL     OW38734   3.061   3.283   6.620 -1.0160  0.1755 -0.1996
 9091SOL    HW138735   3.148   3.252   6.594 -0.2901  2.6563 -0.7213
 9091SOL    HW238736   3.079   3.281   6.714 -3.4065  0.6705  0.2799
 9092SOL     OW38737   0.978   2.872   6.930 -0.0631 -0.0232 -0.0827
 9092SOL    HW138738   1.042   2.910   6.871  1.8694 -3.5356 -0.2978
 9092SOL    HW238739   0.970   2.784   6.893  1.0038  0.0567 -0.4908
 9093SOL     OW38740   0.587   1.165   6.133  0.2954 -0.4378 -0.5982
 9093SOL    HW138741   0.499   1.148   6.166  1.0070 -2.3199  0.2865
 9093SOL    HW238742   0.627   1.204   6.211  0.4995  0.0253 -0.9293
 9094SOL     OW38743   0.839   0.674   7.947 -0.0152 -0.3701  0.4571
 9094SOL    HW138744   0.906   0.625   7.995 -1.4496 -2.4232  0.3239
 9094SOL    HW238745   0.765   0.668   8.008 -1.7685  2.4808 -1.3651
 9095SOL     OW38746   2.828   2.721   9.753 -0.1301 -0.2331  0.1334
 9095SOL    HW138747   2.797   2.632   9.734  0.7859 -0.3907 -0.5977
 9095SOL    HW238748   2.762   2.763   9.808 -1.6721  0.3883 -2.1710
 9096SOL     OW38749   1.241   4.180   8.473  0.0835  0.1087 -0.1645
 9096SOL    HW138750   1.230   4.101   8.421 -0.1827  0.4687 -0.6560
 9096SOL    HW238751   1.201   4.155   8.557 -1.1930  2.5094 -0.0294
 9097SOL     OW38752   0.672   2.025   7.020 -1.0349  0.2392  0.2798
 9097SOL    HW138753   0.732   1.980   7.079 -0.4751 -0.7705 -1.0671
 9097SOL    HW238754   0.648   1.957   6.958 -1.0524  2.1975 -1.8439
 9098SOL     OW38755   2.674   0.100   9.364  0.2478 -0.0276  0.5014
 9098SOL    HW138756   2.591   0.078   9.406  1.3107  0.3459  2.7841
 9098SOL    HW238757   2.688   0.035   9.295 -1.8738 -0.5137  0.5162
 9099SOL     OW38758   1.887   0.314   8.695 -0.0298  0.7221 -0.5239
 9099SOL    HW138759   1.849   0.227   8.680  0.1677  0.8120 -1.5817
 9099SOL    HW238760   1.808   0.367   8.685 -0.4221  0.0619 -0.9300
 9100SOL     OW38761   4.079   1.725  16.476 -0.5092 -0.3150 -0.0944
 9100SOL    HW138762   4.075   1.721  16.571  1.8506 -1.4395 -0.0698
 9100SOL    HW238763   4.082   1.820  16.460  1.7964 -0.0885  1.7621
 9101SOL     OW38764   0.493   3.876   8.355  0.4135  0.2795 -0.5441
 9101SOL    HW138765   0.521   3.784   8.351 -1.6017 -0.3860  0.7792
 9101SOL    HW238766   0.504   3.881   8.449 -1.1137 -0.6313 -0.3040
 9102SOL     OW38767   2.378   1.759  12.939  0.0672  0.0893 -0.1920
 9102SOL    HW138768   2.318   1.705  12.990 -0.4386  0.9170  0.0843
 9102SOL    HW238769   2.457   1.772  12.992 -0.7780 -0.6288  1.2138
 9103SOL     OW38770   3.283   2.797   5.449  0.0085 -0.0219 -0.6741
 9103SOL    HW138771   3.344   2.850   5.397 -0.1341  0.9968  0.2064
 9103SOL    HW238772   3.200   2.832   5.418  0.3585 -1.2981 -3.0971
 9104SOL     OW38773   2.349   3.361  11.072  0.0939  0.0641 -0.3874
 9104SOL    HW138774   2.323   3.447  11.040  0.6087  0.8720  1.3740
 9104SOL    HW238775   2.412   3.325  11.009 -0.6732  0.6138 -1.4673
 9105SOL     OW38776   3.746   2.948  15.044  0.4183 -0.1165  0.4589
 9105SOL    HW138777   3.757   2.891  15.120  0.4173  2.4689  2.3694
 9105SOL    HW238778   3.817   3.012  15.050 -0.8984  1.3771  0.0125
 9106SOL     OW38779   2.847   1.043   9.915 -0.0049 -0.2211 -0.2959
 9106SOL    HW138780   2.789   0.968   9.930 -2.2717  1.1509 -2.2606
 9106SOL    HW238781   2.931   1.017   9.953 -0.5756 -0.5527  0.7393
 9107SOL     OW38782   1.165   2.636   6.661 -0.4313  0.2234 -0.5924
 9107SOL    HW138783   1.085   2.663   6.705 -1.2347 -2.2924 -0.5195
 9107SOL    HW238784   1.133   2.618   6.573  0.8732  0.6063 -1.1432
 9108SOL     OW38785   1.423   0.216   9.114  0.3097  0.1370  0.3369
 9108SOL    HW138786   1.479   0.235   9.039  2.0918 -1.2657  1.3226
 9108SOL    HW238787   1.404   0.123   9.105 -0.3077  0.2929 -0.0124
 9109SOL     OW38788   1.996   0.726   0.381  0.2985  0.3270  0.3659
 9109SOL    HW138789   1.901   0.737   0.383  0.5920  2.1178  3.4486
 9109SOL    HW238790   2.013   0.647   0.431 -2.4758 -0.9223 -0.6361
 9110SOL     OW38791   4.549   1.043   0.717 -0.4259 -0.0268  0.4979
 9110SOL    HW138792   4.574   1.040   0.624 -1.0674 -1.8329  0.3884
 9110SOL    HW238793   4.611   0.980   0.754  0.3219 -1.1502 -2.5895
 9111SOL     OW38794   2.640   3.014   3.307 -0.4248 -0.0657 -0.2333
 9111SOL    HW138795   2.651   3.027   3.401 -1.9538 -0.1930 -0.0239
 9111SOL    HW238796   2.703   3.076   3.271 -1.1221  0.6652 -0.2081
 9112SOL     OW38797   2.937   0.269  13.412 -0.1317 -0.1925 -0.1428
 9112SOL    HW138798   3.001   0.215  13.366 -0.5743 -0.6583 -0.2124
 9112SOL    HW238799   2.925   0.224  13.495 -2.0057 -0.7047 -0.6837
 9113SOL     OW38800   4.270   0.110   6.698  0.4231  0.5499 -0.1077
 9113SOL    HW138801   4.322   0.062   6.634  0.4556 -0.5750  0.7596
 9113SOL    HW238802   4.267   0.050   6.773  1.5414  0.5676 -0.0472
 9114SOL     OW38803   3.587   0.798  11.489  0.5314 -0.2379  0.1630
 9114SOL    HW138804   3.618   0.781  11.400 -2.0187 -1.3461 -0.5369
 9114SOL    HW238805   3.570   0.892  11.481  1.5551 -0.0472  0.3009
 9115SOL     OW38806   4.672   2.856   7.738  0.1782 -0.3478 -0.1314
 9115SOL    HW138807   4.696   2.918   7.669 -0.8797  2.8812  2.3698
 9115SOL    HW238808   4.626   2.792   7.683  0.4999 -2.1473  1.6922
 9116SOL     OW38809   3.935   0.934   8.209  0.2724 -0.0251  0.2652
 9116SOL    HW138810   4.002   0.984   8.162 -1.2359  1.6669 -0.1035
 9116SOL    HW238811   3.991   0.866   8.247 -1.2409 -1.0202  0.6931
 9117SOL     OW38812   4.480   1.848   7.379 -0.2915 -0.9732 -0.0626
 9117SOL    HW138813   4.565   1.808   7.361  0.3120  0.1284  0.4092
 9117SOL    HW238814   4.503   1.927   7.427  0.2637 -0.9690 -0.3424
 9118SOL     OW38815   0.195   2.706  10.500  0.0356  0.2993 -0.0284
 9118SOL    HW138816   0.166   2.786  10.457 -0.2842  1.1092  1.6904
 9118SOL    HW238817   0.205   2.729  10.592 -2.1468 -0.9303  0.5230
 9119SOL     OW38818   4.382   0.851  16.837  0.1371  0.6046  0.2502
 9119SOL    HW138819   4.349   0.856  16.747  1.1221  1.8393 -0.0434
 9119SOL    HW238820   4.392   0.757  16.853 -0.0460  0.7084  0.9502
 9120SOL     OW38821   3.338   0.445  10.167 -0.2123 -0.3642  0.0790
 9120SOL    HW138822   3.355   0.393  10.245 -0.2091  1.4704  1.2868
 9120SOL    HW238823   3.242   0.445  10.162 -0.1095 -2.1538 -2.1790
 9121SOL     OW38824   1.582   3.011   0.826  0.3348 -0.3035  0.2138
 9121SOL    HW138825   1.654   2.981   0.771 -0.0463  1.6080 -1.3338
 9121SOL    HW238826   1.561   3.092   0.781 -0.9087 -0.2572  0.8842
 9122SOL     OW38827   3.701   1.613  12.028 -0.4496  0.1414  0.0508
 9122SOL    HW138828   3.607   1.629  12.020 -0.7421 -1.4709  0.1779
 9122SOL    HW238829   3.714   1.573  12.114  0.3003  2.3030  0.9303
 9123SOL     OW38830   4.363   2.474   6.208  0.0587 -0.0626  0.1507
 9123SOL    HW138831   4.420   2.426   6.148 -0.9301 -0.3649 -0.5435
 9123SOL    HW238832   4.277   2.449   6.175  0.6761 -0.3145 -1.2555
 9124SOL     OW38833   2.329   3.333   7.969 -0.3517  0.0389  0.0882
 9124SOL    HW138834   2.381   3.414   7.960 -0.1606 -0.0486  0.4291
 9124SOL    HW238835   2.315   3.321   8.063  0.3912  0.0040  0.1976
 9125SOL     OW38836   3.323   1.324   6.862 -0.0592 -0.3652 -0.4333
 9125SOL    HW138837   3.302   1.415   6.844  3.0904  0.5603  0.6129
 9125SOL    HW238838   3.320   1.283   6.776 -0.3231 -0.1457 -0.5279
 9126SOL     OW38839   1.542   2.284  16.054 -0.2310  0.1291  0.2029
 9126SOL    HW138840   1.499   2.368  16.070 -1.6744 -0.5415 -0.1782
 9126SOL    HW238841   1.568   2.293  15.963  0.7331  1.7566  0.6389
 9127SOL     OW38842   0.580   3.994   8.066  0.5534 -0.1958  0.3755
 9127SOL    HW138843   0.621   4.081   8.062 -0.5473  0.3200  0.1350
 9127SOL    HW238844   0.542   3.986   7.978  1.1380  0.3777  0.0657
 9128SOL     OW38845   3.878   0.633   1.079  0.3638  0.2382  0.0902
 9128SOL    HW138846   3.941   0.700   1.055 -0.1641  0.1129 -1.6516
 9128SOL    HW238847   3.863   0.590   0.995 -0.1891  0.1259  0.2434
 9129SOL     OW38848   1.346   1.266   2.745 -0.4370  0.3669 -0.4793
 9129SOL    HW138849   1.306   1.212   2.813 -0.8630  2.3135  0.8174
 9129SOL    HW238850   1.270   1.291   2.693  0.6125 -0.3987 -2.3870
 9130SOL     OW38851   1.370   3.238  10.679  0.5186  0.2838 -0.6599
 9130SOL    HW138852   1.372   3.243  10.774  2.0165 -1.7371 -0.5696
 9130SOL    HW238853   1.433   3.165  10.673  0.1671  0.1223 -2.6390
 9131SOL     OW38854   2.269   3.334   4.946  0.1150  0.1951  0.4512
 9131SOL    HW138855   2.183   3.357   4.910  1.3379  2.1909 -1.1746
 9131SOL    HW238856   2.271   3.239   4.942 -0.5137  0.1843  0.4069
 9132SOL     OW38857   3.909   0.510   5.193  0.8318  0.0527 -0.0664
 9132SOL    HW138858   3.876   0.420   5.194  0.5370  0.1466 -0.9471
 9132SOL    HW238859   3.826   0.551   5.170  1.1292 -0.0041 -1.2736
 9133SOL     OW38860   4.536   2.690  16.429  0.4915  0.0438 -0.0145
 9133SOL    HW138861   4.597   2.753  16.466 -0.3474  1.2947 -0.7845
 9133SOL    HW238862   4.587   2.643  16.363 -0.6357 -1.3882  0.1378
 9134SOL     OW38863   1.507   3.190  13.454  0.0003 -0.2121 -0.3747
 9134SOL    HW138864   1.557   3.118  13.415  0.5391 -0.6849  1.1832
 9134SOL    HW238865   1.460   3.237  13.385 -1.2928 -1.1987 -0.1838
 9135SOL     OW38866   2.938   2.396   2.978  0.2863  0.1074  0.0460
 9135SOL    HW138867   3.006   2.330   2.993 -1.4989 -1.8814 -0.6114
 9135SOL    HW238868   2.915   2.418   3.069  0.0979 -0.5705  0.1634
 9136SOL     OW38869   3.771   4.002   3.877  0.3290  0.2018  0.0099
 9136SOL    HW138870   3.782   4.090   3.913 -0.6333 -0.2289  1.3712
 9136SOL    HW238871   3.862   3.976   3.888  0.4253  0.5156 -0.0433
 9137SOL     OW38872   4.545   2.539   0.881 -0.1804  0.5569 -0.4298
 9137SOL    HW138873   4.488   2.580   0.945  0.1891  3.0225 -1.6724
 9137SOL    HW238874   4.618   2.537   0.943 -0.1374  0.4136 -0.4838
 9138SOL     OW38875   0.419   3.921   7.002 -0.2483  0.1073  0.0228
 9138SOL    HW138876   0.510   3.903   7.027 -0.2537  0.4039  0.2634
 9138SOL    HW238877   0.435   3.989   6.936 -0.5621 -1.3970 -1.5852
 9139SOL     OW38878   1.151   1.829   9.795  0.8214 -0.4611 -0.2680
 9139SOL    HW138879   1.212   1.878   9.740 -0.8653  1.0866 -0.7652
 9139SOL    HW238880   1.134   1.898   9.859 -1.2321 -0.1890 -1.0878
 9140SOL     OW38881   0.575   3.674  15.700 -0.3660  0.1345  0.0814
 9140SOL    HW138882   0.568   3.645  15.609  1.5816 -3.2425  1.0297
 9140SOL    HW238883   0.598   3.767  15.691 -0.4022  0.2503  1.2273
 9141SOL     OW38884   3.365   3.464  12.254  0.4181 -0.0668 -0.4491
 9141SOL    HW138885   3.289   3.484  12.198 -0.1162  0.9647  0.6441
 9141SOL    HW238886   3.421   3.541  12.263  0.2265  0.0407 -0.1657
 9142SOL     OW38887   0.881   4.540  16.751  0.0345  0.1936  0.2843
 9142SOL    HW138888   0.855   4.449  16.738 -0.9575  0.5139  0.0424
 9142SOL    HW238889   0.965   4.513  16.787 -0.0702  0.6682  0.8786
 9143SOL     OW38890   2.302   4.626   8.433  0.6589 -0.1879 -0.1732
 9143SOL    HW138891   2.231   4.563   8.418  1.0883 -0.3999 -1.3954
 9143SOL    HW238892   2.313   4.660   8.344 -3.5811  0.3087 -0.4810
 9144SOL     OW38893   4.392   4.626   3.157 -0.2383  0.5511 -0.0549
 9144SOL    HW138894   4.323   4.596   3.097 -1.3119  3.1628 -0.1293
 9144SOL    HW238895   4.337   4.645   3.233  1.1537 -0.9810  1.3507
 9145SOL     OW38896   4.399   4.433  11.267 -0.5961 -0.2347  0.4743
 9145SOL    HW138897   4.467   4.380  11.308  0.4425 -2.4572 -4.1122
 9145SOL    HW238898   4.430   4.518  11.298  0.2151  0.0955 -1.2615
 9146SOL     OW38899   2.598   1.791   8.550  0.2476 -0.3429 -1.0122
 9146SOL    HW138900   2.553   1.748   8.623  1.5471  0.4905  0.2799
 9146SOL    HW238901   2.601   1.714   8.494 -0.6363 -1.2298  0.1530
 9147SOL     OW38902   0.784   0.241  15.145  0.4418  0.5263  0.3592
 9147SOL    HW138903   0.818   0.184  15.214 -0.2345  0.2073  0.4225
 9147SOL    HW238904   0.689   0.239  15.155  0.3469  3.9572  0.0655
 9148SOL     OW38905   3.065   2.515   5.562 -0.8932 -0.1302 -0.0446
 9148SOL    HW138906   2.994   2.579   5.569  1.4567  2.4734  0.1634
 9148SOL    HW238907   3.071   2.491   5.654 -0.5532  1.5026  0.3690
 9149SOL     OW38908   4.173   3.598   6.599 -0.7058  0.3110  0.5865
 9149SOL    HW138909   4.127   3.559   6.525 -0.9614  4.9085 -1.6127
 9149SOL    HW238910   4.221   3.670   6.558 -0.5552 -0.5724 -0.7954
 9150SOL     OW38911   1.217   0.664   9.114  0.2063  0.0085  0.8918
 9150SOL    HW138912   1.248   0.613   9.190 -0.6427  1.5337  2.2581
 9150SOL    HW238913   1.210   0.752   9.152  2.1169  1.4046 -1.9501
 9151SOL     OW38914   3.995   1.300   1.265 -0.4743  0.3750 -0.3708
 9151SOL    HW138915   4.020   1.334   1.179 -3.2392  0.2407 -1.2017
 9151SOL    HW238916   3.939   1.370   1.299 -2.0120 -0.2136 -1.7607
 9152SOL     OW38917   1.541   2.032   2.756  0.5121 -0.8480  0.2139
 9152SOL    HW138918   1.529   2.121   2.788  1.3891 -0.4536 -0.5413
 9152SOL    HW238919   1.458   1.992   2.730  0.4458  0.5427 -1.7406
 9153SOL     OW38920   2.964   1.415   2.874  0.3690 -0.1440 -0.3931
 9153SOL    HW138921   3.022   1.461   2.813 -0.2683  0.6370 -0.4237
 9153SOL    HW238922   2.951   1.331   2.830  3.4316 -0.4612 -0.6833
 9154SOL     OW38923   3.724   0.627  17.581  0.0456  0.1820 -0.1731
 9154SOL    HW138924   3.775   0.674  17.646 -0.8146  2.0287 -0.8521
 9154SOL    HW238925   3.789   0.581  17.529 -0.0456  0.2081 -0.3105
 9155SOL     OW38926   2.360   1.775   5.255  0.0512 -0.0715  0.5773
 9155SOL    HW138927   2.293   1.756   5.321 -1.0700 -0.1610 -0.6039
 9155SOL    HW238928   2.393   1.859   5.286  0.7632 -0.1603  0.0787
 9156SOL     OW38929   1.199   0.931   1.857 -0.2288 -0.1798 -0.1301
 9156SOL    HW138930   1.294   0.936   1.847 -0.3288 -1.3257 -1.5294
 9156SOL    HW238931   1.187   0.837   1.847 -0.8509 -0.0974 -0.1121
 9157SOL     OW38932   0.635   3.293   3.143  0.0146 -0.2429  0.0626
 9157SOL    HW138933   0.562   3.353   3.131 -0.9642 -1.0958  1.7012
 9157SOL    HW238934   0.714   3.346   3.130 -1.2757  1.8823  0.8803
 9158SOL     OW38935   2.407   0.431   7.273 -0.2564 -0.3281  0.8154
 9158SOL    HW138936   2.491   0.392   7.298  0.4915  1.1007  0.5826
 9158SOL    HW238937   2.346   0.358   7.268 -1.1945  0.4308  1.2558
 9159SOL     OW38938   2.077   0.097   7.441  0.4118  0.2037 -0.3923
 9159SOL    HW138939   2.005   0.063   7.388 -0.4731 -0.3153  1.1443
 9159SOL    HW238940   2.112   0.158   7.377  0.9385  0.5324  0.2049
 9160SOL     OW38941   2.100   3.963   0.873  0.3562 -0.0178 -0.7702
 9160SOL    HW138942   2.166   4.018   0.832 -0.6102  0.3633 -1.8256
 9160SOL    HW238943   2.037   3.957   0.801 -0.2472 -1.0552 -0.1678
 9161SOL     OW38944   1.591   1.411  13.843  0.3682 -0.3760  0.3726
 9161SOL    HW138945   1.602   1.319  13.818  2.8199  0.2466 -0.9570
 9161SOL    HW238946   1.659   1.422  13.909 -0.2673  2.4609  0.5678
 9162SOL     OW38947   1.446   0.821  12.300 -0.1692 -0.4368  0.0339
 9162SOL    HW138948   1.373   0.768  12.332 -0.6553 -0.5804 -1.3199
 9162SOL    HW238949   1.515   0.798  12.363  0.6535 -0.9509 -1.0588
 9163SOL     OW38950   0.052   0.136   5.096  0.2855  0.1527  0.7042
 9163SOL    HW138951   0.098   0.197   5.154 -0.6164  2.0304 -0.5432
 9163SOL    HW238952   0.126   0.079   5.078  0.6612  0.9893 -0.3970
 9164SOL     OW38953   3.719   3.522   8.992  0.2411  0.4075 -0.6206
 9164SOL    HW138954   3.797   3.566   9.026  0.2044 -0.0493  0.0343
 9164SOL    HW238955   3.699   3.450   9.050 -0.9511  2.0025  0.9421
 9165SOL     OW38956   3.378   0.859  10.392 -0.0195 -0.2250  0.0087
 9165SOL    HW138957   3.328   0.838  10.314  0.2094 -0.6131 -0.0325
 9165SOL    HW238958   3.328   0.940  10.405  2.2513  1.6156 -2.8137
 9166SOL     OW38959   0.314   2.785   1.828 -0.0382 -0.0661 -0.0806
 9166SOL    HW138960   0.383   2.851   1.833  1.3848 -1.7344  2.2792
 9166SOL    HW238961   0.364   2.708   1.802 -1.7292 -0.3717 -2.4507
 9167SOL     OW38962   2.886   1.484  14.661 -0.1200 -0.0731  0.3852
 9167SOL    HW138963   2.930   1.516  14.740 -0.3864 -1.1496  0.9776
 9167SOL    HW238964   2.915   1.550  14.598  0.0094  0.7320  1.3037
 9168SOL     OW38965   3.366   2.164   7.030 -0.0199 -0.1562  0.5109
 9168SOL    HW138966   3.339   2.082   6.988 -1.8570  1.2477 -1.0611
 9168SOL    HW238967   3.333   2.230   6.968 -1.3153 -1.5725 -0.3319
 9169SOL     OW38968   0.811   0.615   7.648 -0.2471  0.5074  0.5203
 9169SOL    HW138969   0.801   0.616   7.743 -1.4840 -0.1982  0.3983
 9169SOL    HW238970   0.905   0.602   7.635 -0.4914  1.7163 -2.4613
 9170SOL     OW38971   3.182   0.078  16.098  0.0158  0.0689 -1.0319
 9170SOL    HW138972   3.207   4.713  16.081 -0.8133 -0.3808  0.1612
 9170SOL    HW238973   3.179   0.111  16.008 -1.5797  0.7586 -0.7304
 9171SOL     OW38974   1.643   3.691   7.081  0.1455 -0.0175 -0.0210
 9171SOL    HW138975   1.738   3.697   7.076  0.3211 -2.6237  0.4482
 9171SOL    HW238976   1.638   3.602   7.116  0.2959 -0.9895 -2.4772
 9172SOL     OW38977   0.203   2.211   5.730  0.0609 -0.3240  0.4039
 9172SOL    HW138978   0.227   2.149   5.661 -3.8557 -1.4299  0.0597
 9172SOL    HW238979   0.109   2.212   5.718  0.0673 -1.0005  0.2614
 9173SOL     OW38980   1.798   3.283   7.055 -0.1040  0.3724 -0.0201
 9173SOL    HW138981   1.780   3.359   7.110 -1.9617  0.0046 -0.1196
 9173SOL    HW238982   1.726   3.222   7.073 -0.1840 -0.2781 -2.5170
 9174SOL     OW38983   1.258   4.633   4.977  0.2995  0.2630 -0.4756
 9174SOL    HW138984   1.281   4.583   5.055 -1.2595  0.3298  0.0246
 9174SOL    HW238985   1.201   4.565   4.941  0.5317 -0.5988  0.8031
 9175SOL     OW38986   2.589   3.011   5.254 -0.2358  0.7026  0.0861
 9175SOL    HW138987   2.635   3.052   5.181  0.0475 -2.0520 -1.2779
 9175SOL    HW238988   2.593   3.073   5.327  0.2238  1.1744 -0.3396
 9176SOL     OW38989   1.586   0.195   7.644 -0.4860  0.3698  0.0557
 9176SOL    HW138990   1.597   0.282   7.606 -1.4270 -0.0805 -1.2258
 9176SOL    HW238991   1.629   0.224   7.725  0.0994  0.0350 -0.1355
 9177SOL     OW38992   0.103   0.062   2.405 -0.4419  0.0465 -0.0916
 9177SOL    HW138993   0.094   0.123   2.478  2.0673  0.8553 -0.4514
 9177SOL    HW238994   0.189   0.031   2.434 -0.3791  0.8753  0.6116
 9178SOL     OW38995   4.510   4.690   8.090  0.4565 -0.2920  0.1424
 9178SOL    HW138996   4.468   0.002   8.013  1.0786  0.8442  0.3645
 9178SOL    HW238997   4.429   4.659   8.132 -1.0362 -0.3899 -2.7758
 9179SOL     OW38998   4.475   2.920   5.709  0.0343  0.1713 -0.3900
 9179SOL    HW138999   4.460   3.006   5.670  0.7954 -0.2164 -1.5411
 9179SOL    HW239000   4.441   2.858   5.644  0.8936  1.2322 -1.8414
 9180SOL     OW39001   0.672   2.446   2.176 -0.0718 -0.7088 -0.1792
 9180SOL    HW139002   0.723   2.449   2.257  1.0413 -2.1867 -0.8216
 9180SOL    HW239003   0.582   2.438   2.208  0.8916 -1.5060  2.3292
 9181SOL     OW39004   0.889   1.356   0.423 -0.2027 -0.2252  0.0964
 9181SOL    HW139005   0.868   1.445   0.452 -1.1573 -1.3148  2.7121
 9181SOL    HW239006   0.965   1.328   0.473 -0.9179  1.3324  2.0568
 9182SOL     OW39007   0.958   4.713  14.342 -0.0788  0.1462 -0.1686
 9182SOL    HW139008   0.887   0.045  14.372  0.3693 -0.6172  2.3253
 9182SOL    HW239009   1.018   0.050  14.301 -0.7302 -0.4711 -2.0832
 9183SOL     OW39010   1.866   3.724   6.846  0.1704  0.3330  0.1076
 9183SOL    HW139011   1.895   3.787   6.912 -0.7727  2.3758 -1.4364
 9183SOL    HW239012   1.916   3.738   6.766 -0.0433  0.5020  0.0027
 9184SOL     OW39013   0.930   0.096   5.203 -0.0987  0.5128 -0.4724
 9184SOL    HW139014   1.015   0.121   5.165  0.6524  0.7696  1.3992
 9184SOL    HW239015   0.942   0.001   5.201 -3.4765 -0.0093  4.2724
 9185SOL     OW39016   4.361   1.278   4.719  0.2494 -0.0860  0.7264
 9185SOL    HW139017   4.345   1.198   4.669  0.2609 -0.3915  1.2071
 9185SOL    HW239018   4.421   1.318   4.656  2.3630 -3.3462  0.6860
 9186SOL     OW39019   1.538   0.231   5.035  0.4856  0.1863 -0.3469
 9186SOL    HW139020   1.573   0.308   5.079 -0.2881  1.3468 -1.7924
 9186SOL    HW239021   1.453   0.273   5.025  0.2148 -0.4642 -0.7502
 9187SOL     OW39022   3.611   1.406   2.309 -0.2393  0.0761  0.0933
 9187SOL    HW139023   3.698   1.405   2.271  0.2041  2.6252  1.0485
 9187SOL    HW239024   3.635   1.405   2.402  1.4438 -0.6881 -0.3637
 9188SOL     OW39025   4.131   0.167   7.158  0.1004 -0.0360 -0.6074
 9188SOL    HW139026   4.036   0.176   7.149  0.0734 -0.5105 -0.8321
 9188SOL    HW239027   4.163   0.254   7.136  0.2649  0.3732  1.2652
 9189SOL     OW39028   3.934   4.182   1.571 -0.2777 -0.5752 -0.4765
 9189SOL    HW139029   3.884   4.133   1.505 -1.7634  0.8781 -0.4181
 9189SOL    HW239030   3.991   4.224   1.507 -0.8424 -2.1117 -2.0221
 9190SOL     OW39031   3.468   0.196   1.878 -0.2592  0.1317  0.1055
 9190SOL    HW139032   3.536   0.178   1.813 -0.7720 -0.9899 -0.1233
 9190SOL    HW239033   3.477   0.112   1.922 -0.5076  1.2536  2.2991
 9191SOL     OW39034   1.561   4.655  14.095 -0.1678 -0.3975 -0.3325
 9191SOL    HW139035   1.603   4.687  14.174  0.6263 -1.5732 -0.2874
 9191SOL    HW239036   1.507   4.591  14.140 -0.6153 -0.1868 -0.5634
 9192SOL     OW39037   1.683   1.393   4.934 -0.3031 -0.0956 -0.0390
 9192SOL    HW139038   1.619   1.431   4.875 -0.1043 -1.0257 -0.8597
 9192SOL    HW239039   1.732   1.469   4.965  0.4637  0.0829 -1.6909
 9193SOL     OW39040   3.919   1.956   7.582  0.0017 -0.2145 -0.2913
 9193SOL    HW139041   3.977   2.033   7.585  0.4503 -0.6963  3.8632
 9193SOL    HW239042   3.942   1.900   7.656 -0.1794  0.9379  0.6419
 9194SOL     OW39043   2.288   3.280  12.986  0.3930  0.2413  0.3276
 9194SOL    HW139044   2.353   3.214  12.960  0.1699  0.1369  0.0263
 9194SOL    HW239045   2.330   3.340  13.047  0.7779 -1.1176  1.4016
 9195SOL     OW39046   0.451   4.591   4.450  0.0489  0.7442  0.3618
 9195SOL    HW139047   0.448   4.686   4.463  1.4970  0.7481  0.6412
 9195SOL    HW239048   0.530   4.575   4.501 -1.3486  0.8203  2.5726
 9196SOL     OW39049   0.243   2.404   1.442  0.6790 -0.0333  0.3832
 9196SOL    HW139050   0.270   2.468   1.376  0.5702  0.5812  0.9390
 9196SOL    HW239051   0.321   2.431   1.489  0.0321 -0.4904  1.7199
 9197SOL     OW39052   0.875   3.022   3.108 -0.3937 -0.0200 -0.0468
 9197SOL    HW139053   0.939   3.083   3.073 -0.6226  0.5155  0.4720
 9197SOL    HW239054   0.819   3.008   3.031 -2.8289 -1.2950  1.9459
 9198SOL     OW39055   0.588   0.276  11.119  1.0798  0.5307  0.3526
 9198SOL    HW139056   0.661   0.325  11.080  2.3909 -1.3296  0.5005
 9198SOL    HW239057   0.602   0.298  11.211  1.3324 -1.0933  0.6978
 9199SOL     OW39058   4.689   2.857  11.916 -0.4013 -0.5068  0.1000
 9199SOL    HW139059   4.660   2.922  11.851  2.3616  1.1993  0.5335
 9199SOL    HW239060   4.683   2.915  11.992  0.0805 -0.4892  0.1271
 9200SOL     OW39061   4.325   1.378  14.960  0.7456 -0.3859  0.3220
 9200SOL    HW139062   4.270   1.445  14.919  0.2312 -1.1875 -0.3076
 9200SOL    HW239063   4.308   1.313  14.892 -1.0877  1.2475 -0.7841
 9201SOL     OW39064   3.626   3.035   5.879  0.2369 -0.0726 -0.4318
 9201SOL    HW139065   3.641   2.965   5.816  0.3870  1.7294 -2.4301
 9201SOL    HW239066   3.673   3.011   5.959  0.2979 -2.1189 -1.0866
 9202SOL     OW39067   4.596   3.334   3.412 -0.2385 -0.7234  0.5353
 9202SOL    HW139068   4.518   3.313   3.463 -0.8067  1.2142  0.4357
 9202SOL    HW239069   4.620   3.418   3.450 -0.1703 -0.0540 -0.9888
 9203SOL     OW39070   4.305   1.609   7.261  0.2713  0.5092 -0.0462
 9203SOL    HW139071   4.252   1.631   7.338  0.2280 -0.9847  0.3381
 9203SOL    HW239072   4.240   1.629   7.193  1.2666  1.2559 -0.7703
 9204SOL     OW39073   2.657   3.124   6.512 -0.4640 -0.5252  0.3335
 9204SOL    HW139074   2.682   3.205   6.556  0.3869  0.4434 -1.9121
 9204SOL    HW239075   2.567   3.110   6.539 -0.0065 -1.5221  1.3817
 9205SOL     OW39076   2.331   1.288  17.133 -0.1717 -0.0754  0.0545
 9205SOL    HW139077   2.303   1.254  17.048 -1.3632  0.3836  0.2712
 9205SOL    HW239078   2.409   1.338  17.108  0.0582 -0.3996  0.1324
 9206SOL     OW39079   1.476   2.336   4.096 -0.0543  0.5795 -0.0177
 9206SOL    HW139080   1.537   2.273   4.058 -1.5751 -0.8512 -0.1061
 9206SOL    HW239081   1.447   2.388   4.021  0.7447 -0.4777 -1.0629
 9207SOL     OW39082   1.175   2.845  10.683  0.4213 -0.5238 -0.1495
 9207SOL    HW139083   1.232   2.899  10.738  1.2146 -0.9055 -0.6047
 9207SOL    HW239084   1.163   2.763  10.732 -0.9290 -1.0255 -1.3360
 9208SOL     OW39085   0.522   3.861   2.382  0.2406 -0.4251  0.9089
 9208SOL    HW139086   0.476   3.925   2.437  0.1772 -0.1160  0.4982
 9208SOL    HW239087   0.583   3.918   2.337 -0.5276  0.4289  0.9401
 9209SOL     OW39088   1.456   4.581   2.311 -0.2137  0.0459 -0.0056
 9209SOL    HW139089   1.413   4.521   2.250 -0.1475  1.2916 -1.2611
 9209SOL    HW239090   1.392   4.650   2.328  1.7229  1.8706 -0.0961
 9210SOL     OW39091   3.085   3.757   3.354  0.0759 -0.0466  0.5758
 9210SOL    HW139092   3.021   3.762   3.425 -0.0149 -0.1618  0.5027
 9210SOL    HW239093   3.111   3.846   3.331  3.2313 -0.7711  1.4059
 9211SOL     OW39094   4.706   4.258   6.311 -0.1234 -0.0727  0.5978
 9211SOL    HW139095   4.720   4.206   6.390  0.7377 -3.4560 -1.7401
 9211SOL    HW239096   4.620   4.226   6.283  1.9517 -3.5023 -1.9741
 9212SOL     OW39097   3.229   3.234   6.821 -0.0693  0.3470 -0.7531
 9212SOL    HW139098   3.256   3.154   6.865  1.9798  2.2925  1.4887
 9212SOL    HW239099   3.204   3.281   6.900 -1.5304 -1.4326 -0.1535
 9213SOL     OW39100   0.639   3.994   5.361  0.4047 -0.0866  0.0593
 9213SOL    HW139101   0.710   3.930   5.353 -1.5868 -2.2029 -0.7465
 9213SOL    HW239102   0.680   4.046   5.430  1.1142 -1.2094  0.4735
 9214SOL     OW39103   0.422   3.621   2.298 -0.1321 -0.7040 -0.5500
 9214SOL    HW139104   0.453   3.709   2.317 -1.9791 -0.3236  0.7491
 9214SOL    HW239105   0.328   3.635   2.284 -0.3936  0.2823  2.3131
 9215SOL     OW39106   3.167   3.873   2.448 -0.1178 -0.0572  0.4340
 9215SOL    HW139107   3.144   3.939   2.514  0.6521  0.8193 -0.1904
 9215SOL    HW239108   3.162   3.795   2.504  0.5966 -0.1796  0.3287
 9216SOL     OW39109   3.356   2.772   5.716  0.8203  0.3475  0.2548
 9216SOL    HW139110   3.273   2.755   5.761 -0.6457  0.7184 -2.3361
 9216SOL    HW239111   3.320   2.805   5.634  0.7574  0.4731  0.3328
 9217SOL     OW39112   1.694   0.492   8.665  0.0275  0.5409  0.3683
 9217SOL    HW139113   1.685   0.558   8.735  1.2488  1.5535 -0.4216
 9217SOL    HW239114   1.618   0.514   8.611 -1.3494  2.0951  2.8756
 9218SOL     OW39115   1.662   2.497   3.724  0.7108  0.5854  0.8620
 9218SOL    HW139116   1.641   2.478   3.633  0.2051 -1.5143  1.4039
 9218SOL    HW239117   1.590   2.456   3.771  0.1926 -1.7440 -1.9734
 9219SOL     OW39118   2.230   2.029   3.021  0.1105  0.2704 -0.4977
 9219SOL    HW139119   2.306   2.087   3.030  0.0513  0.0159  1.6114
 9219SOL    HW239120   2.248   1.983   2.939  0.0030 -1.5638  0.5224
 9220SOL     OW39121   2.181   2.648   5.033  0.2324 -0.3789 -0.0990
 9220SOL    HW139122   2.167   2.619   5.123  1.6928 -0.0274  0.2481
 9220SOL    HW239123   2.103   2.701   5.020 -0.5879 -1.7745 -0.8889
 9221SOL     OW39124   1.170   4.461   0.392 -0.6220  0.2034  0.2410
 9221SOL    HW139125   1.231   4.423   0.455 -0.8215 -1.5844 -0.6708
 9221SOL    HW239126   1.101   4.479   0.457  0.6496  0.8451  1.4293
 9222SOL     OW39127   2.738   3.556   5.501  0.0340  0.4432 -0.6298
 9222SOL    HW139128   2.800   3.550   5.574 -0.9732 -0.0908  0.1848
 9222SOL    HW239129   2.787   3.533   5.422  0.9533  0.4151 -0.0489
 9223SOL     OW39130   2.098   4.303  14.481  0.1637 -0.1050  0.1649
 9223SOL    HW139131   2.147   4.369  14.433 -3.0170  2.4186  0.3888
 9223SOL    HW239132   2.005   4.326  14.475  0.7111  2.1331  0.0725
 9224SOL     OW39133   1.665   2.653   6.849  0.2324 -0.0413 -0.5142
 9224SOL    HW139134   1.641   2.704   6.926  0.2012 -2.3814  1.0015
 9224SOL    HW239135   1.578   2.643   6.809 -0.3931  3.3889 -0.0897
 9225SOL     OW39136   0.465   3.284  14.143  0.1050  0.0152  0.1541
 9225SOL    HW139137   0.557   3.302  14.166  0.2048 -1.8977  1.2890
 9225SOL    HW239138   0.421   3.366  14.164  0.7197  0.6922 -1.2190
 9226SOL     OW39139   3.038   2.463   2.569  0.0745 -0.0850  0.2832
 9226SOL    HW139140   3.088   2.480   2.489  2.1600  1.5034  1.9175
 9226SOL    HW239141   2.957   2.432   2.529 -0.1095  1.3884 -0.4864
 9227SOL     OW39142   2.679   0.110  16.909  0.4812 -0.3174 -0.1744
 9227SOL    HW139143   2.705   0.044  16.973  0.4207 -0.1486  0.0204
 9227SOL    HW239144   2.651   0.051  16.838 -0.3531  0.8416 -0.8021
 9228SOL     OW39145   3.527   2.455   0.813  0.1934 -0.1996  0.0481
 9228SOL    HW139146   3.620   2.442   0.796  0.2066  1.3649 -1.0204
 9228SOL    HW239147   3.518   2.425   0.904  0.6447  2.2403  0.9027
 9229SOL     OW39148   1.182   2.683   3.501  0.3153  0.2747  0.6659
 9229SOL    HW139149   1.260   2.636   3.530  0.1808 -0.2914  0.1305
 9229SOL    HW239150   1.216   2.770   3.480 -2.2183  0.5491 -2.3108
 9230SOL     OW39151   1.556   2.824   8.696  0.3348  0.6055 -0.5284
 9230SOL    HW139152   1.511   2.892   8.745 -1.8320 -1.0123 -0.2607
 9230SOL    HW239153   1.642   2.812   8.737  0.7797  0.6310 -1.4423
 9231SOL     OW39154   3.652   2.847  14.788 -0.7316  0.3769  0.2847
 9231SOL    HW139155   3.571   2.898  14.782 -0.3830  0.8106 -0.5887
 9231SOL    HW239156   3.693   2.873  14.871  0.9167  1.5596 -0.8970
 9232SOL     OW39157   1.327   3.857  10.760 -0.5471  0.0136 -0.0306
 9232SOL    HW139158   1.272   3.792  10.717 -1.1356  1.1473 -0.9801
 9232SOL    HW239159   1.308   3.942  10.722 -3.5745 -0.2183  1.0397
 9233SOL     OW39160   1.796   1.138   7.646 -0.3525  0.7821  0.1471
 9233SOL    HW139161   1.801   1.150   7.741  1.4504 -0.6338  0.2226
 9233SOL    HW239162   1.713   1.091   7.635  0.1091  0.5762 -2.5230
 9234SOL     OW39163   0.068   1.361  14.822  0.4511  0.4518 -0.5698
 9234SOL    HW139164   0.013   1.321  14.889  1.2993 -0.0713 -0.1761
 9234SOL    HW239165   0.118   1.281  14.800  0.1587 -0.2864  1.5055
 9235SOL     OW39166   2.229   3.086   7.958  0.0862  0.5462  0.0155
 9235SOL    HW139167   2.156   3.070   8.018 -1.2213 -0.1490 -1.7675
 9235SOL    HW239168   2.247   3.180   7.964  1.5465  0.2570  0.1029
 9236SOL     OW39169   2.298   2.912   7.487 -0.8446  0.5963  0.1928
 9236SOL    HW139170   2.269   2.833   7.532 -2.1365 -0.1491 -1.9484
 9236SOL    HW239171   2.219   2.928   7.435 -0.7220  0.2769 -0.0876
 9237SOL     OW39172   2.851   0.246   6.628 -0.0895  0.1222  0.0742
 9237SOL    HW139173   2.827   0.252   6.720  0.2925 -1.5862  0.3040
 9237SOL    HW239174   2.911   0.171   6.618  0.4581  0.3187  1.8123
 9238SOL     OW39175   4.477   3.816   1.379  0.1276  0.5528 -0.0590
 9238SOL    HW139176   4.484   3.843   1.287  2.7177  0.7964  0.2157
 9238SOL    HW239177   4.393   3.851   1.409 -1.8023 -3.3308 -1.0304
 9239SOL     OW39178   3.417   0.080  12.813  0.0164 -0.4174 -0.3229
 9239SOL    HW139179   3.324   0.082  12.837  0.1020  2.8778 -0.1673
 9239SOL    HW239180   3.450   4.721  12.841 -1.0938  0.0234  2.3236
 9240SOL     OW39181   3.741   1.430  14.159 -0.1786 -0.5668  0.6193
 9240SOL    HW139182   3.769   1.348  14.119  1.0747  0.8503 -1.4307
 9240SOL    HW239183   3.810   1.494  14.141 -0.2963 -1.2117 -2.1035
 9241SOL     OW39184   2.740   2.668   1.243 -0.1012 -0.0468 -0.1570
 9241SOL    HW139185   2.713   2.748   1.288  1.6630  1.1169 -1.1400
 9241SOL    HW239186   2.769   2.707   1.160 -0.4880 -2.4371 -1.4104
 9242SOL     OW39187   2.051   4.554  14.973  0.7293  0.5291  0.6337
 9242SOL    HW139188   2.025   4.483  15.032 -1.4635  0.5334 -0.3204
 9242SOL    HW239189   2.077   4.505  14.896  0.1473  1.4658 -0.1582
 9243SOL     OW39190   4.701   1.070   6.331 -0.1797  0.4255  0.3017
 9243SOL    HW139191   4.657   0.985   6.339 -0.0072  0.2935 -0.1169
 9243SOL    HW239192   4.626   1.128   6.320 -0.1655  0.4993  0.5982
 9244SOL     OW39193   2.026   1.907  17.381  0.0566  0.2304 -0.4781
 9244SOL    HW139194   1.996   1.997  17.372  0.4877  0.3116 -1.1409
 9244SOL    HW239195   2.082   1.903  17.304  1.6485 -1.3537  0.7794
 9245SOL     OW39196   0.845   3.929   3.562  0.2850 -0.1505 -0.2263
 9245SOL    HW139197   0.789   3.888   3.496  0.5208  0.7146 -0.9610
 9245SOL    HW239198   0.854   3.853   3.620 -0.1945 -0.8053 -1.0021
 9246SOL     OW39199   2.573   0.678   8.875 -1.4369  0.0679  0.4428
 9246SOL    HW139200   2.519   0.602   8.852  1.3343 -1.1210 -2.0940
 9246SOL    HW239201   2.552   0.747   8.812  0.8523 -1.8206 -2.3369
 9247SOL     OW39202   4.072   2.480   6.814 -0.1853 -0.1267  0.0159
 9247SOL    HW139203   4.007   2.496   6.882  0.7580 -0.0102  0.8735
 9247SOL    HW239204   4.154   2.461   6.859  0.7711  2.9594 -0.4008
 9248SOL     OW39205   1.078   0.234   8.150 -0.0794  0.3635 -0.7593
 9248SOL    HW139206   1.125   0.203   8.073  0.9119 -0.9568  0.3853
 9248SOL    HW239207   0.997   0.184   8.140  1.3181 -2.0410  0.0536
 9249SOL     OW39208   1.596   1.567   1.899  0.5625 -0.0445 -0.0040
 9249SOL    HW139209   1.596   1.616   1.981  1.6523  1.8127 -1.1352
 9249SOL    HW239210   1.510   1.526   1.890  0.9397 -0.7221 -0.5879
 9250SOL     OW39211   3.666   3.309   0.915 -0.0024 -0.0233 -0.4916
 9250SOL    HW139212   3.741   3.262   0.951 -0.1902 -0.0394 -0.1184
 9250SOL    HW239213   3.639   3.347   0.999  0.2744  0.6969 -0.7251
 9251SOL     OW39214   0.047   0.614   4.390  0.3459 -0.4158 -0.0788
 9251SOL    HW139215   0.057   0.543   4.454  0.1358 -0.6611 -0.3147
 9251SOL    HW239216   0.116   0.597   4.326 -1.0262  0.6590 -1.8530
 9252SOL     OW39217   4.505   4.556   8.871  0.0607  0.3823  0.2885
 9252SOL    HW139218   4.590   4.559   8.827  0.3193  2.1919  0.8814
 9252SOL    HW239219   4.437   4.569   8.804 -0.2611 -0.2694  0.4946
 9253SOL     OW39220   3.097   0.086  15.068  0.2420  0.9060  0.1670
 9253SOL    HW139221   3.179   0.038  15.076 -0.5276 -0.3939  0.3144
 9253SOL    HW239222   3.108   0.135  14.987 -2.0831 -1.0271 -1.3085
 9254SOL     OW39223   3.050   1.219   7.540  0.4674  0.0430  0.2326
 9254SOL    HW139224   2.964   1.258   7.557 -0.1593 -0.9089 -0.7000
 9254SOL    HW239225   3.102   1.298   7.525 -2.5969  1.8819 -0.7957
 9255SOL     OW39226   3.343   3.587  16.100 -0.1757 -0.4631 -0.5616
 9255SOL    HW139227   3.312   3.515  16.155 -2.6969 -0.7765 -2.4170
 9255SOL    HW239228   3.264   3.641  16.100 -0.8713 -1.4816  0.1547
 9256SOL     OW39229   0.730   4.023   3.147  0.0665  0.3610  0.1670
 9256SOL    HW139230   0.660   4.081   3.118 -2.0445 -2.0025  0.5032
 9256SOL    HW239231   0.701   3.984   3.230 -1.7614 -0.4722 -0.8776
 9257SOL     OW39232   3.844   4.666   3.301  0.3096 -0.2111  0.2323
 9257SOL    HW139233   3.904   4.697   3.233  0.5463  1.2387  1.1054
 9257SOL    HW239234   3.896   4.706   3.371  0.2111 -0.4521  0.4451
 9258SOL     OW39235   0.850   0.816   1.174  0.5769  0.2420 -0.3603
 9258SOL    HW139236   0.847   0.908   1.202 -1.6204  1.5804 -5.0294
 9258SOL    HW239237   0.929   0.787   1.221  0.8399 -1.0417 -1.6015
 9259SOL     OW39238   0.074   0.246   2.625 -0.0500  0.2071  0.1002
 9259SOL    HW139239   4.714   0.267   2.589 -0.8071 -2.9734  0.0398
 9259SOL    HW239240   0.096   0.332   2.661 -0.8836 -0.0207  1.1441
 9260SOL     OW39241   2.343   2.024   2.716  0.0686 -0.7064  0.2052
 9260SOL    HW139242   2.274   1.980   2.667 -0.7850 -1.7265  2.2941
 9260SOL    HW239243   2.333   2.112   2.681 -3.6112 -1.0659  0.4284
 9261SOL     OW39244   1.023   2.501   2.417 -0.1358  0.7361 -0.3131
 9261SOL    HW139245   1.114   2.528   2.408  0.2511 -0.0035  1.3160
 9261SOL    HW239246   0.977   2.566   2.363 -2.4306 -0.5831  0.0381
 9262SOL     OW39247   1.653   4.241   5.049 -0.4396 -0.0777  0.3993
 9262SOL    HW139248   1.593   4.167   5.063 -2.9769  1.9566  0.3341
 9262SOL    HW239249   1.623   4.292   5.124 -1.9996  0.0319 -0.2845
 9263SOL     OW39250   3.597   3.271  10.283  0.6507  0.6876  0.1186
 9263SOL    HW139251   3.569   3.359  10.309 -0.5733 -0.2956  2.0960
 9263SOL    HW239252   3.622   3.299  10.194  0.6405  0.5148  0.0624
 9264SOL     OW39253   2.542   4.206  11.304 -0.4010  0.0218  0.0454
 9264SOL    HW139254   2.457   4.162  11.312 -1.0403  1.0037 -1.3045
 9264SOL    HW239255   2.590   4.131  11.339  0.9208  0.5530 -0.6380
 9265SOL     OW39256   0.903   2.664   2.236 -0.8762  0.0233 -0.5508
 9265SOL    HW139257   0.866   2.747   2.206  0.0528  0.7906  0.4267
 9265SOL    HW239258   0.893   2.607   2.159  0.7433 -2.2815  0.9319
 9266SOL     OW39259   3.373   0.504   7.303 -0.6265 -0.3099 -0.8457
 9266SOL    HW139260   3.287   0.464   7.297 -0.8173  0.0291 -0.4260
 9266SOL    HW239261   3.426   0.425   7.288 -0.3506 -0.4535  0.8448
 9267SOL     OW39262   0.174   0.087  15.063  0.1532  0.1704 -0.3453
 9267SOL    HW139263   0.137   0.162  15.018  1.3383  1.7333  1.3083
 9267SOL    HW239264   0.188   0.127  15.149 -0.5292  0.5615 -0.4159
 9268SOL     OW39265   2.865   2.972   9.479  0.1941  0.0073  0.1470
 9268SOL    HW139266   2.905   2.935   9.400 -1.5054  0.3974 -0.8920
 9268SOL    HW239267   2.802   3.035   9.446  2.6686  2.3840 -0.0478
 9269SOL     OW39268   1.290   4.354   5.873 -0.5328 -0.0662  0.0726
 9269SOL    HW139269   1.220   4.288   5.874 -0.1151 -0.4783  1.6544
 9269SOL    HW239270   1.340   4.302   5.936 -0.4952 -0.0380  0.0663
 9270SOL     OW39271   3.864   0.160   7.077  0.2203 -0.0985  0.0370
 9270SOL    HW139272   3.851   0.067   7.097 -0.8699  0.2726  1.0500
 9270SOL    HW239273   3.777   0.180   7.043  0.6447  1.0799 -0.3626
 9271SOL     OW39274   2.478   2.297   7.403  0.6182  0.2049  0.2843
 9271SOL    HW139275   2.573   2.302   7.393  0.4245  0.4276 -1.5970
 9271SOL    HW239276   2.446   2.381   7.368 -1.3992 -0.2943  0.9384
 9272SOL     OW39277   0.261   3.057   2.269 -0.2684  0.1411 -0.1416
 9272SOL    HW139278   0.256   3.136   2.322  0.8698  1.7735 -2.4728
 9272SOL    HW239279   0.353   3.029   2.265 -0.3366  0.0361 -0.9262
 9273SOL     OW39280   3.554   2.628  16.931 -0.4858  0.4474 -0.0335
 9273SOL    HW139281   3.498   2.652  17.005 -0.8045 -0.3887 -0.0113
 9273SOL    HW239282   3.527   2.541  16.902  0.7460 -0.0176  0.2170
 9274SOL     OW39283   2.862   3.353  17.005 -0.1515  0.2911  0.1597
 9274SOL    HW139284   2.891   3.401  16.927 -2.8444 -0.2037 -1.1390
 9274SOL    HW239285   2.870   3.424  17.068  0.2367  0.1878  0.2303
 9275SOL     OW39286   3.306   3.989  17.014  0.5936  0.1914 -0.2248
 9275SOL    HW139287   3.372   4.056  17.034  1.2411 -0.4927 -0.0586
 9275SOL    HW239288   3.235   4.051  16.996 -0.0504  0.4049  3.0957
 9276SOL     OW39289   2.886   3.471   1.379  0.3844  0.6095  0.2236
 9276SOL    HW139290   2.864   3.560   1.350 -0.0069  0.1480 -0.9040
 9276SOL    HW239291   2.865   3.489   1.471  3.2384  0.6021  0.8454
 9277SOL     OW39292   2.843   2.285   2.493  0.1081 -0.3125 -0.0753
 9277SOL    HW139293   2.915   2.225   2.475  1.4513  1.0929  0.5864
 9277SOL    HW239294   2.770   2.224   2.485 -0.3634  0.6695 -3.2724
 9278SOL     OW39295   3.697   0.692  11.718  0.3090  0.4109  0.5740
 9278SOL    HW139296   3.673   0.749  11.791  0.2231  0.3496  0.5934
 9278SOL    HW239297   3.671   0.746  11.643 -0.8160  0.7549  1.2061
 9279SOL     OW39298   1.765   0.787   9.728  0.4058 -0.2114 -0.3732
 9279SOL    HW139299   1.794   0.841   9.802 -0.1320 -1.0248  0.4266
 9279SOL    HW239300   1.676   0.822   9.718  0.3319  0.1777  1.7571
 9280SOL     OW39301   2.789   4.087   4.701  0.1651 -0.2271 -0.3037
 9280SOL    HW139302   2.870   4.128   4.672 -0.0782  0.0161 -0.6478
 9280SOL    HW239303   2.774   4.030   4.626 -2.5296  0.4071 -0.2476
 9281SOL     OW39304   1.847   1.822   3.721  0.7769 -0.3878 -0.2862
 9281SOL    HW139305   1.881   1.906   3.691 -1.8133  1.7437  2.6130
 9281SOL    HW239306   1.857   1.774   3.639  0.4386  0.6648 -0.9393
 9282SOL     OW39307   1.364   1.688   9.182  0.0098  0.3293  0.6394
 9282SOL    HW139308   1.426   1.630   9.139 -0.3210  0.3035  0.2023
 9282SOL    HW239309   1.420   1.767   9.181 -1.6837  1.5572  2.7602
 9283SOL     OW39310   2.669   4.286   9.134 -0.0995  0.3036  0.3714
 9283SOL    HW139311   2.602   4.294   9.201  0.7300 -0.2840  1.2638
 9283SOL    HW239312   2.697   4.196   9.153 -0.7194  0.2221  0.8768
 9284SOL     OW39313   0.852   1.053   2.757  0.3673  0.0001 -0.5653
 9284SOL    HW139314   0.913   1.114   2.800 -0.3785  0.4382 -0.1126
 9284SOL    HW239315   0.781   1.114   2.735 -0.8598 -1.4271 -0.5966
 9285SOL     OW39316   4.278   4.558   9.036  0.1950 -0.3429 -0.9922
 9285SOL    HW139317   4.258   4.514   8.953  0.1494  0.1563 -1.2450
 9285SOL    HW239318   4.204   4.617   9.050  1.0510  0.7549 -1.0219
 9286SOL     OW39319   3.070   0.831   3.297 -0.0178 -0.0958  0.5366
 9286SOL    HW139320   3.131   0.848   3.369  2.1249  1.9309 -1.7718
 9286SOL    HW239321   3.002   0.788   3.349 -0.5987 -1.7122 -1.5497
 9287SOL     OW39322   2.393   3.868   3.774 -0.1482 -0.1157  0.4050
 9287SOL    HW139323   2.372   3.834   3.687  0.0952  0.0569  0.2776
 9287SOL    HW239324   2.483   3.841   3.794 -0.1300 -3.0391 -3.6257
 9288SOL     OW39325   3.045   2.447   5.823  0.0805 -0.0936 -0.2847
 9288SOL    HW139326   2.962   2.398   5.820  0.5200 -0.8557  0.1680
 9288SOL    HW239327   3.019   2.500   5.898  1.0745 -0.2968  0.1896
 9289SOL     OW39328   1.259   1.330   5.700  0.0344  0.4351  0.1716
 9289SOL    HW139329   1.283   1.285   5.780  0.4892  0.2980 -0.0432
 9289SOL    HW239330   1.227   1.416   5.728  2.9291  1.0851  1.4973
 9290SOL     OW39331   1.665   2.963   4.991 -0.1300 -0.4462 -0.1302
 9290SOL    HW139332   1.587   2.994   4.945  1.1512  1.1084 -1.2315
 9290SOL    HW239333   1.656   2.868   4.990  0.8433 -0.5122 -2.4118
 9291SOL     OW39334   2.386   0.876  11.800  0.0575 -0.6505  0.0260
 9291SOL    HW139335   2.414   0.906  11.886 -1.9478  0.5778  0.2465
 9291SOL    HW239336   2.324   0.946  11.781 -1.2104 -1.7910 -0.0652
 9292SOL     OW39337   3.636   2.629  15.088 -0.1543  0.3250 -0.2251
 9292SOL    HW139338   3.563   2.665  15.139  0.0736 -1.3135  1.2277
 9292SOL    HW239339   3.710   2.672  15.130  0.1570  1.0436 -1.5068
 9293SOL     OW39340   2.231   3.829   4.711 -0.5006  0.1191  0.4542
 9293SOL    HW139341   2.305   3.890   4.706  1.3255 -2.1625 -0.2327
 9293SOL    HW239342   2.258   3.762   4.649 -0.3720  0.8778 -0.3074
 9294SOL     OW39343   0.716   3.522  15.256 -0.1247 -0.4208  0.1195
 9294SOL    HW139344   0.733   3.429  15.243 -1.0733 -0.4156 -1.0938
 9294SOL    HW239345   0.800   3.559  15.229  0.5996 -1.1396  1.3922
 9295SOL     OW39346   0.291   4.379   7.991 -0.1599  0.1354 -0.7051
 9295SOL    HW139347   0.210   4.336   7.963 -0.4875  0.9263 -0.9748
 9295SOL    HW239348   0.351   4.367   7.917  0.7897 -0.1053  0.1049
 9296SOL     OW39349   0.577   0.171   2.124 -0.4434 -0.4621 -0.8408
 9296SOL    HW139350   0.642   0.196   2.190 -0.6787 -1.8104 -0.0880
 9296SOL    HW239351   0.538   0.252   2.093 -0.1826  0.1700  0.5155
 9297SOL     OW39352   3.064   0.443  10.230  0.8361 -0.1537 -0.0074
 9297SOL    HW139353   3.023   0.359  10.249 -1.4765  0.3987 -2.5175
 9297SOL    HW239354   3.096   0.461  10.319  0.7327  1.3504 -0.2634
 9298SOL     OW39355   3.504   1.898   1.006 -0.7180 -0.2620  0.4795
 9298SOL    HW139356   3.439   1.901   0.935  0.2874  1.2953 -0.3885
 9298SOL    HW239357   3.557   1.976   0.988  0.6478 -1.8808 -2.5517
 9299SOL     OW39358   3.532   0.458  17.668 -0.3881  0.4190  0.2932
 9299SOL    HW139359   3.589   0.526  17.632  0.3674 -0.7936 -0.8261
 9299SOL    HW239360   3.569   0.450   0.052 -0.0314 -1.1482  0.0032
 9300SOL     OW39361   2.626   3.903   3.494 -0.4368 -0.3235 -0.7848
 9300SOL    HW139362   2.681   3.880   3.420  1.7358  1.1290  0.3711
 9300SOL    HW239363   2.570   3.826   3.501  1.5757 -1.5443  2.0833
 9301SOL     OW39364   1.315   2.848  17.116  0.1987  0.3057  0.1707
 9301SOL    HW139365   1.250   2.790  17.157 -0.4235  1.2363  0.4959
 9301SOL    HW239366   1.353   2.880  17.198  0.4980  1.6332 -0.4960
 9302SOL     OW39367   2.873   0.565   1.570  0.0029 -0.0039 -0.4107
 9302SOL    HW139368   2.951   0.537   1.617 -0.4930 -1.2634 -0.3518
 9302SOL    HW239369   2.811   0.507   1.614 -1.2769  2.3878  0.9446
 9303SOL     OW39370   4.621   2.470  11.965  0.2426 -0.0506 -0.0318
 9303SOL    HW139371   4.576   2.424  11.894 -0.8995 -0.7810  1.1813
 9303SOL    HW239372   4.712   2.468  11.933  0.2172  1.3939 -0.1844
 9304SOL     OW39373   0.523   3.612   5.208 -0.3072 -0.1255  0.0077
 9304SOL    HW139374   0.475   3.562   5.142 -1.0775  0.0015  0.4586
 9304SOL    HW239375   0.495   3.575   5.292  1.4059 -1.5242 -0.0586
 9305SOL     OW39376   0.391   2.748   0.295 -0.1096 -0.2552 -0.3841
 9305SOL    HW139377   0.463   2.733   0.235 -0.1120 -1.0964 -0.1820
 9305SOL    HW239378   0.379   2.661   0.335  1.9724  0.0496  0.8736
 9306SOL     OW39379   4.426   2.596   4.385  0.7851  0.5128 -0.0020
 9306SOL    HW139380   4.338   2.571   4.357  1.1320 -1.6886  0.8272
 9306SOL    HW239381   4.426   2.552   4.470 -0.4274 -0.7566 -0.6528
 9307SOL     OW39382   2.273   0.292   3.457  0.2832  0.7053 -0.2825
 9307SOL    HW139383   2.255   0.328   3.371  1.9682  2.6355  0.1787
 9307SOL    HW239384   2.347   0.346   3.485  1.3536  0.0456 -1.8347
 9308SOL     OW39385   2.394   4.307  16.336 -0.1424  0.2888  0.6665
 9308SOL    HW139386   2.341   4.280  16.411  1.0126  0.7755  1.6593
 9308SOL    HW239387   2.362   4.397  16.335 -0.1573  0.2827  0.5672
 9309SOL     OW39388   1.061   2.435   4.109  0.0353  0.0336 -0.5687
 9309SOL    HW139389   1.138   2.425   4.166 -0.2396 -1.5669 -0.4968
 9309SOL    HW239390   1.086   2.510   4.054 -2.4060  0.6796 -0.7868
 9310SOL     OW39391   2.605   4.176   3.816  0.0144  0.1142  0.2745
 9310SOL    HW139392   2.607   4.224   3.899 -0.1286 -0.5093  0.6430
 9310SOL    HW239393   2.512   4.182   3.793  0.1087 -1.2499 -0.4709
 9311SOL     OW39394   3.577   3.151   2.965 -0.0367  0.2903  0.5003
 9311SOL    HW139395   3.613   3.236   2.941  1.7395 -0.5038  0.3143
 9311SOL    HW239396   3.623   3.101   2.897  1.4242  0.7563  1.1443
 9312SOL     OW39397   3.011   3.545  12.722  0.0298  0.4291 -0.6031
 9312SOL    HW139398   3.103   3.520  12.718 -0.1122 -0.0168 -1.0493
 9312SOL    HW239399   2.985   3.563  12.813  0.8311 -0.4555 -0.2032
 9313SOL     OW39400   3.210   1.952   9.131 -0.1992 -0.6130  0.1157
 9313SOL    HW139401   3.173   1.889   9.194  2.8379 -2.5461 -0.0279
 9313SOL    HW239402   3.138   2.013   9.114 -0.8302 -1.5738 -0.7135
 9314SOL     OW39403   4.355   3.990  12.882  0.3769 -0.4717  0.0836
 9314SOL    HW139404   4.405   3.909  12.897 -1.0690 -1.4937 -0.6067
 9314SOL    HW239405   4.427   4.053  12.885  0.2324 -0.2795 -0.4687
 9315SOL     OW39406   0.822   1.671   7.864  0.1415  0.1151 -0.3277
 9315SOL    HW139407   0.822   1.619   7.944 -0.4819 -2.3983 -1.9928
 9315SOL    HW239408   0.734   1.660   7.829  1.0093 -0.3557 -2.3527
 9316SOL     OW39409   1.133   1.401   2.354  0.5755 -0.1086 -0.1700
 9316SOL    HW139410   1.157   1.316   2.391  1.3307  0.8922  1.6709
 9316SOL    HW239411   1.162   1.457   2.426  2.3698 -0.7228 -0.4243
 9317SOL     OW39412   2.892   0.394   6.203 -0.3194 -0.1784  0.3051
 9317SOL    HW139413   2.961   0.355   6.150 -0.8326  0.8833 -1.1302
 9317SOL    HW239414   2.935   0.478   6.210  1.4414 -0.9196 -1.5382
 9318SOL     OW39415   4.515   4.232  17.650  0.7135  0.2197  0.1997
 9318SOL    HW139416   4.496   4.317  17.691 -0.1030 -0.1632  0.6068
 9318SOL    HW239417   4.549   4.180   0.019  1.9929  1.1118  0.2380
 9319SOL     OW39418   3.256   2.438   1.120 -0.4622  0.7110 -0.2247
 9319SOL    HW139419   3.249   2.522   1.164  3.1285 -0.0010  1.7245
 9319SOL    HW239420   3.183   2.443   1.059 -1.5024  1.6677  1.1020
 9320SOL     OW39421   0.148   2.912   2.996  0.2495  0.4770 -0.0001
 9320SOL    HW139422   0.225   2.927   2.941 -0.1742  0.8659 -0.4846
 9320SOL    HW239423   0.100   2.850   2.940  0.2429  1.6323 -1.2842
 9321SOL     OW39424   2.670   3.371  12.928  0.4021 -0.0245 -0.1738
 9321SOL    HW139425   2.673   3.466  12.940 -0.1735  0.1573 -1.3852
 9321SOL    HW239426   2.760   3.356  12.956  1.2481  0.3426 -2.6520
 9322SOL     OW39427   0.030   1.433   8.002  0.5767 -0.0517 -0.2462
 9322SOL    HW139428   0.122   1.442   8.027  0.5038  1.8249 -0.6518
 9322SOL    HW239429   4.707   1.453   8.082  0.3997  0.3614 -0.4549
 9323SOL     OW39430   1.849   3.474   8.896  0.3831  0.5264 -0.1126
 9323SOL    HW139431   1.885   3.562   8.888 -0.7181  1.0674  0.9882
 9323SOL    HW239432   1.827   3.468   8.989 -1.0649  2.2798 -0.3592
 9324SOL     OW39433   2.057   0.743  13.543 -0.2129  0.3420  0.1292
 9324SOL    HW139434   1.971   0.702  13.553 -0.2558  0.5044  0.4277
 9324SOL    HW239435   2.116   0.680  13.585  0.7160  0.3549 -1.1320
 9325SOL     OW39436   4.378   2.930  17.214  0.3595  0.2897 -0.2668
 9325SOL    HW139437   4.472   2.947  17.218  0.4299  0.1800 -1.7518
 9325SOL    HW239438   4.354   2.996  17.149 -2.2360  0.0193  0.3927
 9326SOL     OW39439   4.241   1.806  16.971 -0.0307  0.0971  0.2829
 9326SOL    HW139440   4.260   1.725  17.018 -1.6907 -0.5226 -0.1382
 9326SOL    HW239441   4.269   1.868  17.038  3.6025  0.1045 -1.2320
 9327SOL     OW39442   1.326   3.759   7.594  0.8292  0.4331 -0.3262
 9327SOL    HW139443   1.378   3.836   7.570 -1.0162  1.8983  0.3353
 9327SOL    HW239444   1.387   3.689   7.573  0.1197  0.4526 -2.4784
 9328SOL     OW39445   2.018   2.232   3.010  0.2539 -0.0752  0.1698
 9328SOL    HW139446   2.008   2.208   3.102 -0.3266  0.0663  0.1451
 9328SOL    HW239447   2.057   2.152   2.977  0.9065 -0.3000  1.4732
 9329SOL     OW39448   3.399   3.166   5.690 -0.2407 -0.8186 -0.6105
 9329SOL    HW139449   3.438   3.128   5.768  1.8196  1.7663 -0.4112
 9329SOL    HW239450   3.461   3.153   5.618 -0.1322 -0.6220 -0.5494
 9330SOL     OW39451   0.128   1.340  10.572 -0.4180  0.0087 -0.0015
 9330SOL    HW139452   0.045   1.340  10.618  0.5943  1.9476  1.8224
 9330SOL    HW239453   0.139   1.434  10.557  1.5509 -0.3258 -0.7131
 9331SOL     OW39454   4.660   3.480   7.624  0.1247 -0.5917  0.4694
 9331SOL    HW139455   4.590   3.416   7.639  0.1907 -0.6408  0.5713
 9331SOL    HW239456   4.719   3.488   7.700 -1.2523  1.6118  1.2858
 9332SOL     OW39457   1.088   0.643   7.701 -0.0796 -0.5632 -0.3028
 9332SOL    HW139458   1.137   0.606   7.628 -0.7358  1.7684 -1.9034
 9332SOL    HW239459   1.144   0.607   7.770 -0.3760  0.4355  0.4627
 9333SOL     OW39460   3.904   0.552   9.751  0.0528 -0.0614 -0.3360
 9333SOL    HW139461   3.994   0.526   9.770 -0.3912 -1.9168 -0.7733
 9333SOL    HW239462   3.902   0.644   9.778  2.1020  0.4475 -1.8817
 9334SOL     OW39463   3.271   4.092   8.379  0.0726  0.4693  0.2915
 9334SOL    HW139464   3.353   4.129   8.412  0.4034 -0.9125  0.9954
 9334SOL    HW239465   3.226   4.167   8.338  1.6786  2.7749  2.7057
 9335SOL     OW39466   1.077   0.573  15.895  0.0567  0.5053 -0.2263
 9335SOL    HW139467   1.084   0.534  15.982  0.6473 -2.3867 -1.5944
 9335SOL    HW239468   1.092   0.496  15.841  1.5601 -1.7933  3.5168
 9336SOL     OW39469   2.357   4.376   6.364 -0.1373  0.4903  0.1133
 9336SOL    HW139470   2.427   4.378   6.431  0.5943  0.8526 -0.6598
 9336SOL    HW239471   2.373   4.285   6.340  0.9570  0.2849  1.5608
 9337SOL     OW39472   2.634   2.906  13.028  0.0050 -0.3547  0.5259
 9337SOL    HW139473   2.647   2.850  13.104 -3.3530 -0.6704  0.8690
 9337SOL    HW239474   2.711   2.879  12.978 -0.3686 -0.6111  0.0841
 9338SOL     OW39475   4.663   0.964   5.328 -0.2467  0.1392  0.1150
 9338SOL    HW139476   4.619   1.046   5.306  0.2303  0.6671  1.0960
 9338SOL    HW239477   4.686   0.977   5.420  0.4345  0.1808 -0.0652
 9339SOL     OW39478   3.172   3.488   5.366 -0.7016 -0.1254  0.1121
 9339SOL    HW139479   3.254   3.524   5.333 -0.8338 -0.6678 -0.8068
 9339SOL    HW239480   3.187   3.455   5.455 -0.5832 -2.0734 -0.6159
 9340SOL     OW39481   3.173   1.291   3.130 -0.1685 -0.4349  0.3822
 9340SOL    HW139482   3.087   1.330   3.146  0.3210  0.8650 -0.0751
 9340SOL    HW239483   3.219   1.369   3.097 -2.6118  0.9803  0.3182
 9341SOL     OW39484   3.373   3.426  10.360  0.1352 -0.0755 -0.1618
 9341SOL    HW139485   3.290   3.475  10.360 -0.6973 -1.4860  1.1737
 9341SOL    HW239486   3.349   3.333  10.360  0.6246 -0.2077  1.3493
 9342SOL     OW39487   3.451   4.005   6.109 -0.2990 -0.0136 -0.5915
 9342SOL    HW139488   3.454   3.997   6.014  2.8555 -1.3862 -0.3513
 9342SOL    HW239489   3.524   3.952   6.141 -0.7978  1.4914  3.0591
 9343SOL     OW39490   4.327   3.066  12.739  0.1964 -0.0167 -0.2062
 9343SOL    HW139491   4.304   3.063  12.646 -2.1393  1.0420  0.3317
 9343SOL    HW239492   4.331   3.159  12.761  0.2322  0.3128 -1.6017
 9344SOL     OW39493   2.636   2.383  11.990 -0.3635 -0.1926 -0.2035
 9344SOL    HW139494   2.706   2.448  11.986  0.9621 -1.5251  1.5101
 9344SOL    HW239495   2.577   2.427  12.050 -1.5608 -1.3875 -0.5123
 9345SOL     OW39496   1.438   2.287   6.906  0.1200 -0.7565  0.1911
 9345SOL    HW139497   1.379   2.344   6.857  2.2523  0.5277 -0.9023
 9345SOL    HW239498   1.378   2.214   6.915 -2.0358  1.2038  1.6802
 9346SOL     OW39499   0.816   1.102   5.351  0.0384  0.3814 -0.0433
 9346SOL    HW139500   0.793   1.038   5.418 -2.8750  1.7245  0.2820
 9346SOL    HW239501   0.898   1.071   5.314 -0.4936 -0.0454 -0.8772
 9347SOL     OW39502   1.131   1.207   2.006 -0.0370  0.0467  0.0606
 9347SOL    HW139503   1.173   1.149   1.943 -0.7772 -1.3581  0.8422
 9347SOL    HW239504   1.206   1.221   2.063  0.4476 -0.4947 -0.4543
 9348SOL     OW39505   0.592   2.635   2.439  0.0790 -0.0775  0.2602
 9348SOL    HW139506   0.574   2.545   2.466 -0.7058 -0.2407 -0.8210
 9348SOL    HW239507   0.666   2.661   2.494 -2.7125  1.9005  3.0597
 9349SOL     OW39508   0.987   4.082   1.465 -0.4816  0.2181 -0.0493
 9349SOL    HW139509   0.950   4.116   1.547  0.3564  2.2785 -0.5299
 9349SOL    HW239510   0.929   4.008   1.447 -0.1825  0.0693 -0.3905
 9350SOL     OW39511   0.924   3.545   7.140  0.1842  0.0584  0.4622
 9350SOL    HW139512   0.863   3.615   7.162  0.1373 -0.1854  1.1030
 9350SOL    HW239513   0.923   3.501   7.225 -1.0850 -0.8716 -0.0171
 9351SOL     OW39514   1.371   4.312   4.708 -0.1056  0.3172  0.2243
 9351SOL    HW139515   1.452   4.340   4.750 -0.5751 -0.6509  1.7414
 9351SOL    HW239516   1.369   4.371   4.632 -1.1192  0.3189  0.2517
 9352SOL     OW39517   3.469   1.835   6.505  0.0478 -0.9916 -0.5243
 9352SOL    HW139518   3.452   1.760   6.562  1.1342 -0.4913  0.4552
 9352SOL    HW239519   3.474   1.795   6.418 -0.8866 -1.4102 -0.3850
 9353SOL     OW39520   1.190   0.887   2.462  0.0105 -0.0063 -0.4057
 9353SOL    HW139521   1.250   0.896   2.388 -0.4638 -0.1359 -0.8112
 9353SOL    HW239522   1.107   0.877   2.415 -1.2035  0.5230  1.6570
 9354SOL     OW39523   0.198   4.294   1.929 -0.1159  0.4183 -0.2225
 9354SOL    HW139524   0.206   4.316   1.836  0.2247 -0.2072 -0.3385
 9354SOL    HW239525   0.161   4.205   1.927 -0.2135  0.4773 -1.0608
 9355SOL     OW39526   3.093   0.610   3.760  0.0796 -0.4691 -0.1634
 9355SOL    HW139527   3.121   0.701   3.751 -0.1729 -0.4049 -0.2989
 9355SOL    HW239528   3.166   0.572   3.711  1.2319 -1.4471  2.3210
 9356SOL     OW39529   2.227   3.824   7.269 -0.2000  0.1836  0.0487
 9356SOL    HW139530   2.132   3.836   7.265 -0.2527 -0.6761 -1.0864
 9356SOL    HW239531   2.246   3.738   7.232 -0.0422  1.7050 -3.3912
 9357SOL     OW39532   0.092   4.036  15.429 -0.2348  0.3289 -0.1001
 9357SOL    HW139533   0.175   4.037  15.382 -0.8101  0.4400 -1.1199
 9357SOL    HW239534   0.062   3.949  15.402 -0.4347  0.6088 -0.7878
 9358SOL     OW39535   0.216   0.431   6.022 -0.0095 -0.1450 -0.4908
 9358SOL    HW139536   0.249   0.415   5.934 -1.6814  0.1727 -1.1784
 9358SOL    HW239537   0.296   0.450   6.071 -1.1955 -1.7649  2.0963
 9359SOL     OW39538   2.456   3.113   1.929 -0.2436 -0.5001 -0.1755
 9359SOL    HW139539   2.486   3.199   1.901  1.1966  0.0759  3.1916
 9359SOL    HW239540   2.361   3.118   1.931 -0.2908 -0.4791 -2.1333
 9360SOL     OW39541   2.903   3.983   5.453  0.8447  0.0489 -0.2402
 9360SOL    HW139542   2.917   3.892   5.426  2.0488  0.3328 -0.5612
 9360SOL    HW239543   2.968   4.028   5.399  1.3075 -0.4052 -0.0689
 9361SOL     OW39544   1.662   2.406   7.557  0.0494 -0.2575  0.4314
 9361SOL    HW139545   1.699   2.349   7.624 -2.5942 -3.0100 -0.4458
 9361SOL    HW239546   1.630   2.473   7.616  2.8213  0.5826  0.9572
 9362SOL     OW39547   0.105   3.320   2.024  0.2149 -0.4491  0.4226
 9362SOL    HW139548   0.060   3.239   2.047  2.4405 -2.0565 -0.9310
 9362SOL    HW239549   0.093   3.370   2.104 -2.6481 -0.3018 -0.0820
 9363SOL     OW39550   0.721   1.460  13.357  0.1960 -0.4108 -0.0204
 9363SOL    HW139551   0.719   1.547  13.317  1.7493  0.1638  1.1878
 9363SOL    HW239552   0.811   1.467  13.388 -0.0500 -0.4089  0.6865
 9364SOL     OW39553   2.179   2.926   6.779  0.0040  0.1567  0.6647
 9364SOL    HW139554   2.104   2.907   6.835  1.3236 -2.7876  1.4627
 9364SOL    HW239555   2.149   2.892   6.694  0.8213 -0.5641  0.6589
 9365SOL     OW39556   2.885   1.720   3.935  0.0162 -0.0421  0.1392
 9365SOL    HW139557   2.829   1.713   3.858  2.0280  0.0035 -1.3282
 9365SOL    HW239558   2.866   1.644   3.991  0.8089 -0.5628 -0.2891
 9366SOL     OW39559   1.662   3.005   0.504 -0.0494  0.2453  0.6892
 9366SOL    HW139560   1.751   3.040   0.513  0.6257 -0.3920 -3.3851
 9366SOL    HW239561   1.633   3.058   0.430  0.4160  0.9063  0.9793
 9367SOL     OW39562   2.766   3.549   4.365  0.1137 -0.1399 -0.7429
 9367SOL    HW139563   2.840   3.598   4.402  0.7462  0.6444 -3.0540
 9367SOL    HW239564   2.785   3.458   4.385  3.6077  0.3298 -2.0747
 9368SOL     OW39565   2.314   2.366  14.116 -0.5555  0.4390 -0.7006
 9368SOL    HW139566   2.247   2.334  14.057 -1.4485 -0.2154  0.6773
 9368SOL    HW239567   2.267   2.395  14.194  1.6855  3.3183 -0.3829
 9369SOL     OW39568   3.005   3.701   0.551 -0.6936 -0.1706  0.2361
 9369SOL    HW139569   2.926   3.691   0.605 -0.4845  1.2880  0.8053
 9369SOL    HW239570   3.054   3.624   0.579  1.6657  0.9421 -0.8224
 9370SOL     OW39571   1.237   0.150  10.546  0.1698  0.2872 -0.1481
 9370SOL    HW139572   1.148   0.155  10.513  0.1201  0.1741 -0.0292
 9370SOL    HW239573   1.280   0.233  10.523  0.1277 -0.5786 -3.3237
 9371SOL     OW39574   2.661   3.117  10.442  0.2156 -0.2015  0.4653
 9371SOL    HW139575   2.718   3.147  10.513  0.6068 -1.7798  0.8184
 9371SOL    HW239576   2.688   3.028  10.420 -0.8987 -0.5467  0.4936
 9372SOL     OW39577   0.982   3.797  15.028 -0.1505 -0.0804 -0.1351
 9372SOL    HW139578   0.974   3.710  15.069 -1.1780 -0.1302 -0.4514
 9372SOL    HW239579   0.924   3.794  14.952  0.1389 -3.2413 -0.2605
 9373SOL     OW39580   0.094   0.039   7.500 -0.1099  0.3703  1.0208
 9373SOL    HW139581   0.115   4.695   7.562 -0.3408 -0.6058 -0.0048
 9373SOL    HW239582   0.109   4.724   7.415  0.1218 -1.9403  2.1549
 9374SOL     OW39583   0.514   0.543  11.205 -0.6524  0.5846  1.0391
 9374SOL    HW139584   0.576   0.494  11.259 -2.7837 -1.6114  1.5251
 9374SOL    HW239585   0.520   0.623  11.257  1.8841  0.3323  1.1172
 9375SOL     OW39586   2.227   3.340   7.411  0.3124  0.1880  0.1168
 9375SOL    HW139587   2.239   3.351   7.317  1.4472 -1.7370  0.0304
 9375SOL    HW239588   2.191   3.251   7.412  0.6152  0.0698  0.3374
 9376SOL     OW39589   2.914   1.131  15.093 -0.2309  0.7023  0.1063
 9376SOL    HW139590   2.930   1.223  15.112 -2.9727  1.0592  0.8058
 9376SOL    HW239591   2.844   1.142  15.028 -1.0797  3.4311  1.4758
 9377SOL     OW39592   2.688   1.683   2.946 -0.1320 -0.9896  0.4313
 9377SOL    HW139593   2.647   1.622   3.007 -1.1958 -0.4572  0.2604
 9377SOL    HW239594   2.618   1.724   2.894 -0.3327 -1.9418 -0.0446
 9378SOL     OW39595   2.787   0.952   6.503 -0.2852 -0.6976 -0.5636
 9378SOL    HW139596   2.792   1.046   6.486  2.0797 -1.1050 -2.0890
 9378SOL    HW239597   2.845   0.951   6.579 -3.1916 -0.6000  1.6506
 9379SOL     OW39598   4.389   0.581   6.333  0.5400 -0.4442  0.2808
 9379SOL    HW139599   4.319   0.605   6.272  0.5908 -1.6394 -0.2449
 9379SOL    HW239600   4.335   0.561   6.410 -1.1179 -1.7454 -1.2149
 9380SOL     OW39601   4.685   0.523  12.613 -0.1806  0.0556  0.2651
 9380SOL    HW139602   0.019   0.597  12.624 -0.6629  0.6667 -1.2044
 9380SOL    HW239603   0.013   0.453  12.575 -2.0483 -0.5337 -1.2812
 9381SOL     OW39604   4.282   0.344  15.260  0.1459  0.1666 -0.5341
 9381SOL    HW139605   4.289   0.291  15.339 -0.2668 -1.3033 -1.4995
 9381SOL    HW239606   4.190   0.368  15.272 -0.1102 -1.5035  0.8468
 9382SOL     OW39607   0.984   0.936   4.299 -0.0835 -0.0520  0.4066
 9382SOL    HW139608   1.002   0.857   4.350  0.9020 -0.2032 -0.1626
 9382SOL    HW239609   1.044   1.003   4.333 -0.4758  0.0458  0.9026
 9383SOL     OW39610   3.092   0.515   4.036 -0.2183  0.2202  0.2384
 9383SOL    HW139611   3.070   0.547   3.948 -2.0647  0.2330  0.7013
 9383SOL    HW239612   3.166   0.573   4.053 -1.3761  1.8369 -0.2214
 9384SOL     OW39613   2.697   3.118   5.039  0.0113  0.0284  0.5857
 9384SOL    HW139614   2.759   3.064   4.990 -1.9585 -0.5630 -1.2801
 9384SOL    HW239615   2.747   3.200   5.037 -1.8841  1.1663 -0.7217
 9385SOL     OW39616   3.656   3.850   1.994 -0.0991  0.1279 -0.2937
 9385SOL    HW139617   3.563   3.831   1.984  0.4146 -1.5465 -1.8593
 9385SOL    HW239618   3.653   3.905   2.072 -0.3535 -1.0181  0.4932
 9386SOL     OW39619   1.084   0.341  12.022  0.3248  0.2369 -0.1022
 9386SOL    HW139620   0.993   0.329  12.048  0.5254  1.4087  1.0890
 9386SOL    HW239621   1.075   0.322  11.928 -1.5217 -1.9858  0.5342
 9387SOL     OW39622   2.609   0.243  17.381  0.3989  0.2419 -0.0698
 9387SOL    HW139623   2.587   0.324  17.336  0.2254  1.0346  1.4393
 9387SOL    HW239624   2.650   0.197  17.307 -1.4949 -0.8335 -0.4491
 9388SOL     OW39625   0.707   3.200   8.386 -0.0427 -0.1917 -0.3944
 9388SOL    HW139626   0.707   3.258   8.310  0.1352  0.9853  0.5082
 9388SOL    HW239627   0.728   3.257   8.460  1.9921 -2.9847  1.1699
 9389SOL     OW39628   3.149   0.451  11.086 -0.2738  0.2620 -0.3927
 9389SOL    HW139629   3.174   0.451  10.993  0.8033 -1.5618 -0.0889
 9389SOL    HW239630   3.220   0.504  11.121  0.5289 -0.6170 -0.7179
 9390SOL     OW39631   3.000   0.896   8.732  0.3635  0.2480  0.0124
 9390SOL    HW139632   2.906   0.885   8.715  0.0712 -1.0148  2.4188
 9390SOL    HW239633   3.005   0.834   8.805 -3.3472 -1.7455 -1.4071
 9391SOL     OW39634   0.527   1.772   6.065  0.3030  0.6673  0.1002
 9391SOL    HW139635   0.483   1.689   6.045 -0.6324  1.4212 -0.8916
 9391SOL    HW239636   0.560   1.793   5.978 -2.7245 -0.9095 -1.4224
 9392SOL     OW39637   0.348   0.223  16.517  0.3662  0.3327  0.1576
 9392SOL    HW139638   0.334   0.138  16.476 -2.1875  1.2304 -0.8348
 9392SOL    HW239639   0.378   0.201  16.605 -3.7834 -3.9009  0.5174
 9393SOL     OW39640   4.208   3.117   2.274  0.2056 -0.1925  0.0736
 9393SOL    HW139641   4.174   3.195   2.318 -0.5124 -0.3275 -0.2373
 9393SOL    HW239642   4.284   3.093   2.326  0.4025  0.2797 -0.0027
 9394SOL     OW39643   0.324   1.850   9.117 -0.1894  0.1047 -0.4459
 9394SOL    HW139644   0.311   1.933   9.164  1.6463  1.2358 -1.8869
 9394SOL    HW239645   0.246   1.851   9.063 -0.0650  0.8198 -0.6160
 9395SOL     OW39646   3.862   4.124   7.386 -0.1442  0.3264 -0.4894
 9395SOL    HW139647   3.779   4.084   7.411  0.0042  2.2475  3.1049
 9395SOL    HW239648   3.917   4.051   7.356 -1.8447 -0.1479 -2.4768
 9396SOL     OW39649   3.389   0.374   8.260 -0.3248 -0.4442 -0.5738
 9396SOL    HW139650   3.307   0.343   8.221 -0.4100 -1.3304  0.3134
 9396SOL    HW239651   3.444   0.296   8.246  1.5594  1.0373 -1.4685
 9397SOL     OW39652   0.088   3.849   8.522  0.3661  0.1858 -0.0537
 9397SOL    HW139653   0.118   3.834   8.432  1.5067  0.4011  0.2915
 9397SOL    HW239654   0.174   3.871   8.557  0.8432 -1.0054 -0.4789
 9398SOL     OW39655   3.210   2.911  11.413 -0.7096 -0.2024  0.3104
 9398SOL    HW139656   3.118   2.935  11.423 -0.6317 -0.4384  1.5874
 9398SOL    HW239657   3.221   2.819  11.437 -0.6914 -0.3310 -0.1856
 9399SOL     OW39658   3.479   3.991   5.834 -0.2965 -0.0068  0.1117
 9399SOL    HW139659   3.398   4.025   5.795  0.7337  1.5096 -0.7046
 9399SOL    HW239660   3.486   3.901   5.803  0.5688 -0.2328  0.9615
 9400SOL     OW39661   2.539   1.385   5.018 -0.0828  0.3724  0.0017
 9400SOL    HW139662   2.548   1.459   5.078  0.0564 -0.6222  1.2081
 9400SOL    HW239663   2.484   1.329   5.072  0.9798 -0.2498  0.4336
 9401SOL     OW39664   1.533   2.106   3.734 -0.4983  0.1364 -0.3330
 9401SOL    HW139665   1.452   2.097   3.684  0.7371  3.6352 -2.9168
 9401SOL    HW239666   1.496   2.095   3.821  0.9262  2.3610  0.5371
 9402SOL     OW39667   1.452   0.274  12.586 -0.1634  0.0544  0.2869
 9402SOL    HW139668   1.463   0.234  12.500 -0.2974  0.7103 -0.0337
 9402SOL    HW239669   1.372   0.322  12.566 -1.1687 -0.9145  2.0040
 9403SOL     OW39670   1.995   0.239   3.660 -0.2403 -0.3529  0.0555
 9403SOL    HW139671   2.016   0.303   3.729  1.1618  0.7318 -1.3701
 9403SOL    HW239672   1.965   0.170   3.719  2.1274 -0.3589  1.2668
 9404SOL     OW39673   1.264   1.721   4.046 -0.2195 -0.0971 -0.1577
 9404SOL    HW139674   1.305   1.729   3.960  3.2541 -3.2342  1.2264
 9404SOL    HW239675   1.182   1.770   4.039  0.0554  0.6074  1.5036
 9405SOL     OW39676   4.573   3.672  13.271  0.1577  0.3470 -0.1128
 9405SOL    HW139677   4.656   3.629  13.249  0.8116  1.4720  0.1498
 9405SOL    HW239678   4.609   3.742  13.324 -1.3089  1.6624 -0.8509
 9406SOL     OW39679   3.170   0.165  15.839 -0.3760  0.6228 -0.1539
 9406SOL    HW139680   3.126   0.234  15.889 -1.1194  0.1678 -0.1790
 9406SOL    HW239681   3.124   0.168  15.755 -1.5427 -0.3215  0.4436
 9407SOL     OW39682   1.180   1.401   7.287  0.1148  0.2736  0.1232
 9407SOL    HW139683   1.206   1.493   7.292  0.0777  0.3547 -1.0224
 9407SOL    HW239684   1.186   1.383   7.381 -1.8188  0.1142  0.2083
 9408SOL     OW39685   1.518   1.260   0.393  0.1439 -0.7645  0.3152
 9408SOL    HW139686   1.501   1.330   0.330 -1.8766 -0.8992  0.7239
 9408SOL    HW239687   1.498   1.294   0.480  1.1730  0.4389  0.0849
 9409SOL     OW39688   1.803   2.899   4.554 -0.3660  0.0087 -0.1520
 9409SOL    HW139689   1.863   2.973   4.560 -0.6784  0.0329  2.5276
 9409SOL    HW239690   1.786   2.914   4.461 -0.4002  1.1724  0.0451
 9410SOL     OW39691   3.725   2.036   2.208  0.1031 -0.2392  0.1144
 9410SOL    HW139692   3.659   2.102   2.229  0.0451 -0.0706 -0.5762
 9410SOL    HW239693   3.777   2.036   2.288 -1.2595  1.3411  0.9859
 9411SOL     OW39694   0.416   1.124   9.937 -0.4266  0.1518  0.0238
 9411SOL    HW139695   0.438   1.042   9.891  0.9198  1.9658 -2.5751
 9411SOL    HW239696   0.430   1.191   9.870  0.1591 -0.3517 -0.3514
 9412SOL     OW39697   3.872   4.165   2.421  0.5402 -0.0383  0.2730
 9412SOL    HW139698   3.792   4.166   2.474  1.2470 -3.0634  1.3448
 9412SOL    HW239699   3.901   4.256   2.430  0.5014 -0.1896  1.8489
 9413SOL     OW39700   3.605   2.193   6.411  0.4149 -0.7884 -0.1648
 9413SOL    HW139701   3.657   2.244   6.349 -0.6629 -0.2184 -0.6019
 9413SOL    HW239702   3.644   2.226   6.492 -0.3957  1.1849 -0.5765
 9414SOL     OW39703   3.879   2.280   3.168  0.0131 -0.4700  0.8594
 9414SOL    HW139704   3.906   2.263   3.077 -2.6015 -1.7262  0.2980
 9414SOL    HW239705   3.784   2.264   3.164  0.0585 -0.2155 -1.2950
 9415SOL     OW39706   3.022   4.582  13.986 -0.1377  0.2387  0.1558
 9415SOL    HW139707   3.101   4.600  13.935  0.5423 -1.3168  0.6664
 9415SOL    HW239708   3.036   4.489  14.003 -3.2661 -0.8183 -2.9202
 9416SOL     OW39709   1.450   3.150   3.905 -0.5731  0.6770 -0.0266
 9416SOL    HW139710   1.542   3.152   3.933 -0.1259 -1.9173 -1.3074
 9416SOL    HW239711   1.443   3.225   3.846  0.8782  0.6600 -0.2268
 9417SOL     OW39712   3.409   2.830   5.061 -0.2755 -0.0458 -0.2597
 9417SOL    HW139713   3.347   2.884   5.013 -0.0857  1.0553  0.7033
 9417SOL    HW239714   3.487   2.839   5.006  0.3058 -0.3980  0.5035
 9418SOL     OW39715   2.433   0.254   2.199  0.0019  0.0277 -0.5276
 9418SOL    HW139716   2.429   0.347   2.224 -0.0428  0.5884 -2.6958
 9418SOL    HW239717   2.340   0.235   2.191 -0.0043  0.3123 -1.1286
 9419SOL     OW39718   2.401   3.663  11.804  0.0046 -0.2466  0.1039
 9419SOL    HW139719   2.326   3.719  11.784  1.3575  1.4976  0.0441
 9419SOL    HW239720   2.423   3.650  11.711  1.3950  2.5379  0.0688
 9420SOL     OW39721   2.051   2.706  13.673 -0.0265 -0.5073 -0.4383
 9420SOL    HW139722   1.976   2.669  13.626 -1.0247 -2.4560  2.6260
 9420SOL    HW239723   2.014   2.728  13.759 -1.5403  1.5641 -1.6270
 9421SOL     OW39724   3.165   1.189   8.280 -0.3148 -0.0956  1.0849
 9421SOL    HW139725   3.239   1.146   8.238  0.3687 -0.0166  2.2224
 9421SOL    HW239726   3.200   1.267   8.324  2.6007  0.1686 -1.6857
 9422SOL     OW39727   3.643   0.505   5.720 -0.6576  0.2145  0.3058
 9422SOL    HW139728   3.685   0.451   5.787  1.8295  1.0511 -0.6093
 9422SOL    HW239729   3.687   0.491   5.637 -1.1602 -1.5796  0.3429
 9423SOL     OW39730   4.016   1.912   7.205  0.1869 -0.0273  0.0868
 9423SOL    HW139731   3.946   1.866   7.251  1.1761 -1.7798 -0.1529
 9423SOL    HW239732   4.070   1.953   7.272  1.7257  0.7478 -1.6267
 9424SOL     OW39733   2.707   3.602   5.078 -0.1378 -0.4786 -0.7439
 9424SOL    HW139734   2.627   3.598   5.130 -0.5143 -0.0039 -1.2936
 9424SOL    HW239735   2.737   3.689   5.104 -1.4594  0.0479 -1.0060
 9425SOL     OW39736   1.822   0.146   5.841  0.5448  0.6778 -0.4309
 9425SOL    HW139737   1.903   0.189   5.871  0.0963  0.3203  1.2676
 9425SOL    HW239738   1.766   0.222   5.824 -0.3608 -0.4130 -2.3276
 9426SOL     OW39739   4.294   3.322  13.097  0.1589  0.1315 -0.3308
 9426SOL    HW139740   4.272   3.317  13.004 -2.2837  0.5305  0.2250
 9426SOL    HW239741   4.253   3.405  13.122 -0.6666  0.3027 -2.2446
 9427SOL     OW39742   0.967   0.631   2.557 -0.4522  0.6530  0.1298
 9427SOL    HW139743   0.971   0.589   2.642  2.5938  0.4799 -0.1148
 9427SOL    HW239744   0.932   0.718   2.577 -1.4058  0.1582  0.5641
 9428SOL     OW39745   4.139   1.064   7.531 -0.4564  0.5431 -0.1836
 9428SOL    HW139746   4.215   1.050   7.587  0.0839 -0.1788 -1.1085
 9428SOL    HW239747   4.103   0.976   7.518  1.3010 -0.0980 -0.7260
 9429SOL     OW39748   3.535   0.180   6.761  0.5098 -0.0247  0.0403
 9429SOL    HW139749   3.623   0.190   6.725 -0.4835 -1.3537 -2.7481
 9429SOL    HW239750   3.518   0.270   6.787  2.2130  0.3817 -0.2793
 9430SOL     OW39751   0.759   1.423  15.914 -0.2677  0.0650  0.0851
 9430SOL    HW139752   0.724   1.367  15.845 -1.9922  2.5582 -1.0427
 9430SOL    HW239753   0.831   1.463  15.865 -1.4220 -0.4242 -2.0110
 9431SOL     OW39754   0.802   0.137  17.058  0.1703 -0.2507  0.0118
 9431SOL    HW139755   0.768   0.106  16.974  0.0628 -0.0255 -0.0275
 9431SOL    HW239756   0.735   0.108  17.121  0.6883  0.6094  0.9613
 9432SOL     OW39757   2.513   0.553   2.730  0.7108 -0.2249  0.2272
 9432SOL    HW139758   2.444   0.579   2.791  0.4937  3.8951 -1.7264
 9432SOL    HW239759   2.534   0.635   2.685  0.0800 -0.6499 -0.8343
 9433SOL     OW39760   3.315   0.394   1.787 -0.1341 -0.1269  0.4790
 9433SOL    HW139761   3.379   0.393   1.715  0.9897  1.2790  1.4790
 9433SOL    HW239762   3.337   0.309   1.825 -0.5664 -0.1850  0.5981
 9434SOL     OW39763   4.051   1.908   8.154 -0.9505  0.7620  0.9289
 9434SOL    HW139764   4.113   1.939   8.088 -0.8295 -0.0506  0.6695
 9434SOL    HW239765   4.065   1.814   8.153 -0.4921  0.8426 -0.0931
 9435SOL     OW39766   1.822   2.430   7.962  0.0827  0.4190 -0.0594
 9435SOL    HW139767   1.786   2.511   8.000  0.1523  0.3090  0.2403
 9435SOL    HW239768   1.818   2.372   8.038  1.5661 -1.1716 -1.1948
 9436SOL     OW39769   1.307   2.038   6.901 -0.2119  0.3254 -0.8175
 9436SOL    HW139770   1.289   2.017   6.809  1.4508  1.5518 -1.4203
 9436SOL    HW239771   1.368   1.970   6.929  2.1711  1.6169 -2.8640
 9437SOL     OW39772   3.658   1.445   3.255  0.3770 -0.4155  0.1239
 9437SOL    HW139773   3.652   1.399   3.339 -0.1621  1.6216  1.1916
 9437SOL    HW239774   3.647   1.362   3.208  0.8514 -0.3828 -0.0413
 9438SOL     OW39775   0.680   3.403   1.901 -0.1138  0.6827  0.0974
 9438SOL    HW139776   0.623   3.346   1.953  0.6471  2.4377  2.8258
 9438SOL    HW239777   0.717   3.456   1.971 -0.6781  1.1964  0.0033
 9439SOL     OW39778   2.580   4.328   6.012  0.2955  0.0799 -0.1671
 9439SOL    HW139779   2.647   4.387   5.977 -1.2554  1.7588 -0.2922
 9439SOL    HW239780   2.512   4.323   5.945  0.4638 -1.7207 -0.2030
 9440SOL     OW39781   0.179   4.571   7.267  0.2325 -0.3135 -0.4969
 9440SOL    HW139782   0.270   4.588   7.291 -0.5848 -0.0836  2.4465
 9440SOL    HW239783   0.201   4.496   7.210  0.4210  0.0206 -0.8632
 9441SOL     OW39784   4.081   0.899   8.819 -0.4166 -0.8907  0.1572
 9441SOL    HW139785   4.073   0.820   8.873  1.1775 -1.7301 -0.8293
 9441SOL    HW239786   4.173   0.920   8.833 -0.9482  1.4180  0.1420
 9442SOL     OW39787   3.150   4.707   0.403  0.1760 -0.9931  0.7449
 9442SOL    HW139788   3.198   4.628   0.425  1.2948 -1.2927 -2.7155
 9442SOL    HW239789   3.196   0.017   0.326 -1.9310 -1.7388 -0.8741
 9443SOL     OW39790   3.412   4.475   5.351 -0.1650  0.0693 -0.2368
 9443SOL    HW139791   3.485   4.528   5.317 -1.3423  1.8302 -0.0489
 9443SOL    HW239792   3.446   4.387   5.364  2.0034  0.9974  0.4730
 9444SOL     OW39793   2.350   3.104   4.588 -0.1824 -0.2505 -0.1068
 9444SOL    HW139794   2.396   3.147   4.516 -0.0114  0.2968  0.3319
 9444SOL    HW239795   2.418   3.085   4.652  1.8144  0.4677 -2.0115
 9445SOL     OW39796   4.387   0.202   0.977 -0.2044 -0.2353 -0.1186
 9445SOL    HW139797   4.408   0.136   0.911  0.6358  0.3490 -0.4389
 9445SOL    HW239798   4.351   0.270   0.919 -1.3037 -1.6870 -1.1250
 9446SOL     OW39799   0.244   1.993   7.153 -0.0416  0.5906 -0.1469
 9446SOL    HW139800   0.262   2.057   7.221  0.7308 -2.4367  2.5141
 9446SOL    HW239801   0.287   2.043   7.083  0.9767 -0.6113 -0.3997
 9447SOL     OW39802   3.247   3.407   8.104  0.0783  0.2607  0.2398
 9447SOL    HW139803   3.342   3.401   8.116  0.0553 -0.9666 -0.1983
 9447SOL    HW239804   3.214   3.355   8.178  1.0169  0.7922  1.0377
 9448SOL     OW39805   1.728   2.946   7.944 -0.3674 -0.4692 -0.5206
 9448SOL    HW139806   1.802   2.990   7.903 -0.0516  1.5955  2.2522
 9448SOL    HW239807   1.660   2.989   7.892  1.3376  3.0209  0.1732
 9449SOL     OW39808   2.015   0.312   1.869  0.4211 -0.3629 -0.0985
 9449SOL    HW139809   1.996   0.291   1.778  1.7615 -0.9276 -0.2424
 9449SOL    HW239810   2.003   0.407   1.865  0.0901 -0.3928  0.2055
 9450SOL     OW39811   0.476   0.896   9.799  0.4316  0.0020 -0.0850
 9450SOL    HW139812   0.493   0.810   9.838 -3.2273 -1.3279 -1.4792
 9450SOL    HW239813   0.425   0.862   9.726 -0.2756 -1.3946  1.0698
 9451SOL     OW39814   2.687   4.639  17.104  0.3448  0.3395 -0.4349
 9451SOL    HW139815   2.749   4.570  17.080 -0.7986 -0.4658 -1.0800
 9451SOL    HW239816   2.695   4.660  17.197  1.3417  2.0991 -0.9118
 9452SOL     OW39817   0.955   0.098  15.394 -0.2459 -0.5306  0.2652
 9452SOL    HW139818   1.040   0.099  15.351 -1.6379 -0.2136 -2.4640
 9452SOL    HW239819   0.971   0.033  15.463  2.1077  1.1515  1.3024
 9453SOL     OW39820   4.555   1.189   7.117  0.4902  0.1527  0.0564
 9453SOL    HW139821   4.644   1.194   7.151  0.1394 -1.7646  1.2951
 9453SOL    HW239822   4.519   1.122   7.176  1.4047  0.3330  0.8191
 9454SOL     OW39823   4.102   1.160   4.630 -0.3196  0.2060 -0.3922
 9454SOL    HW139824   4.091   1.255   4.629  4.7296  0.8029  0.9262
 9454SOL    HW239825   4.114   1.141   4.723  1.8179  1.6497 -0.3677
 9455SOL     OW39826   2.024   3.958   3.430  0.4105 -0.5649  0.5328
 9455SOL    HW139827   2.092   3.949   3.363 -0.5879  0.2862 -0.5966
 9455SOL    HW239828   1.974   3.882   3.401  0.4441 -0.3963  0.0396
 9456SOL     OW39829   2.740   2.821  11.886  0.5951 -0.1560  0.0436
 9456SOL    HW139830   2.658   2.843  11.932  1.1928  1.4617  0.3365
 9456SOL    HW239831   2.703   2.768  11.815 -0.6344 -1.6985  1.8463
 9457SOL     OW39832   2.275   0.466   0.749 -0.0052 -0.0454  0.5844
 9457SOL    HW139833   2.198   0.444   0.696 -0.9289  0.9701  1.4977
 9457SOL    HW239834   2.294   0.554   0.717  1.6737 -0.4259  0.5255
 9458SOL     OW39835   1.120   2.932   5.074  0.8594 -0.2736 -0.1063
 9458SOL    HW139836   1.196   2.907   5.022 -0.2907 -3.2233 -0.3656
 9458SOL    HW239837   1.077   3.004   5.026  2.3815  0.9910  0.4204
 9459SOL     OW39838   3.170   2.483   8.290 -0.1860  0.2725  0.1607
 9459SOL    HW139839   3.199   2.399   8.254 -1.7672  0.2174 -0.9828
 9459SOL    HW239840   3.176   2.466   8.384  0.0557 -1.0279 -0.0870
 9460SOL     OW39841   0.856   1.419   3.827 -0.3971  0.6962  0.3977
 9460SOL    HW139842   0.915   1.363   3.776 -1.5577 -0.0214 -0.1577
 9460SOL    HW239843   0.853   1.375   3.912  0.5166  3.6095  1.9281
 9461SOL     OW39844   4.330   1.036  14.043  0.1822 -0.0183  0.3928
 9461SOL    HW139845   4.416   1.072  14.022 -1.2300  2.5653 -0.9903
 9461SOL    HW239846   4.314   0.956  13.993 -0.5774  0.2621  0.1861
 9462SOL     OW39847   1.998   2.100   0.695  0.2022 -0.3416  0.2549
 9462SOL    HW139848   1.935   2.059   0.754  0.9410  0.6281  1.7271
 9462SOL    HW239849   1.943   2.124   0.620  0.1014 -0.6888  0.2205
 9463SOL     OW39850   2.931   2.185   7.294  0.1176 -0.0111 -0.2791
 9463SOL    HW139851   2.899   2.100   7.324 -1.8109  0.2702 -1.4696
 9463SOL    HW239852   2.863   2.224   7.238 -1.2424 -0.4220  1.0979
 9464SOL     OW39853   0.746   2.946   3.334  0.1115  0.5311  0.4760
 9464SOL    HW139854   0.753   2.857   3.300  1.2757  0.3595  1.1837
 9464SOL    HW239855   0.802   2.996   3.275  0.4902 -1.0821 -0.5047
 9465SOL     OW39856   1.779   0.501   0.112  0.1433 -0.3894 -0.6161
 9465SOL    HW139857   1.701   0.455   0.081  0.3263  0.5790 -2.4588
 9465SOL    HW239858   1.810   0.509   0.022  0.2783 -1.7840 -0.7042
 9466SOL     OW39859   1.887   0.942   7.222  0.0335 -0.0239 -0.5068
 9466SOL    HW139860   1.927   0.917   7.305  0.9800  0.9978 -0.6540
 9466SOL    HW239861   1.808   0.889   7.216 -0.1183  0.2602 -1.0497
 9467SOL     OW39862   0.719   0.963   4.730 -0.0054  0.0693 -1.0684
 9467SOL    HW139863   0.748   1.052   4.750 -1.9506  0.2425  1.0249
 9467SOL    HW239864   0.747   0.957   4.639  1.4561  0.9539 -0.6810
 9468SOL     OW39865   3.684   3.616  17.285  0.4935  0.1602  0.2292
 9468SOL    HW139866   3.665   3.529  17.250  0.3192  0.4568 -0.4004
 9468SOL    HW239867   3.665   3.676  17.214 -1.6157  1.2875  1.7266
 9469SOL     OW39868   2.811   3.065  13.845  0.4477  0.1386  0.9480
 9469SOL    HW139869   2.833   3.154  13.873 -0.7088  0.8263 -0.3273
 9469SOL    HW239870   2.770   3.028  13.923  2.1283  1.2023  2.3333
 9470SOL     OW39871   3.233   0.832   4.212 -0.1246 -0.6390 -0.1395
 9470SOL    HW139872   3.191   0.814   4.296  1.4290  1.9240  1.1801
 9470SOL    HW239873   3.275   0.749   4.192 -2.4013 -1.8207  0.0023
 9471SOL     OW39874   0.898   3.361   5.528  0.2435 -0.4049  0.3067
 9471SOL    HW139875   0.845   3.403   5.595  0.7327 -0.2974  0.6310
 9471SOL    HW239876   0.961   3.318   5.587 -0.5590 -1.7390  0.1734
 9472SOL     OW39877   4.063   2.422   8.395 -0.1879 -0.5758 -0.3228
 9472SOL    HW139878   3.988   2.475   8.421  0.5543 -0.0331  0.7367
 9472SOL    HW239879   4.134   2.485   8.405 -0.0897 -1.1761  2.7213
 9473SOL     OW39880   1.520   1.956   8.311  0.1022  0.3368  0.4914
 9473SOL    HW139881   1.528   1.937   8.404 -0.6280 -0.5065  0.3875
 9473SOL    HW239882   1.538   1.868   8.278 -0.7858  0.4915 -0.4243
 9474SOL     OW39883   2.482   2.372  15.547 -0.5683 -0.3247  0.4387
 9474SOL    HW139884   2.448   2.380  15.458 -0.6504  1.0438  0.6017
 9474SOL    HW239885   2.576   2.390  15.536 -0.8048  1.3155  1.1425
 9475SOL     OW39886   1.838   0.866   8.468  0.5091 -0.6202 -0.3046
 9475SOL    HW139887   1.893   0.902   8.538 -0.5511  0.9835 -0.3049
 9475SOL    HW239888   1.896   0.808   8.419 -0.1916 -0.9541 -0.7333
 9476SOL     OW39889   2.907   0.001   0.266  0.2507 -0.1855  0.0371
 9476SOL    HW139890   2.945   4.657   0.212  2.9598  0.0902  1.5854
 9476SOL    HW239891   2.983   0.020   0.321  0.3000 -0.5633  0.1046
 9477SOL     OW39892   1.907   0.238   4.185  0.2474  0.5893  0.4243
 9477SOL    HW139893   1.977   0.279   4.133 -0.5233 -0.2629 -1.2768
 9477SOL    HW239894   1.829   0.266   4.136  0.1357 -2.1188 -0.9814
 9478SOL     OW39895   3.066   1.964   6.544  0.3251  0.4915 -0.1027
 9478SOL    HW139896   2.988   2.014   6.519  0.6921  1.1611  0.0674
 9478SOL    HW239897   3.072   2.000   6.632  0.8259  0.4979 -0.1394
 9479SOL     OW39898   3.343   1.454   8.162  0.0176  0.3639  0.7488
 9479SOL    HW139899   3.330   1.404   8.082  2.2347  0.8606  0.0736
 9479SOL    HW239900   3.401   1.389   8.204 -0.8528  0.6718  2.4439
 9480SOL     OW39901   0.824   2.117   7.935 -0.5434  0.3027  0.8181
 9480SOL    HW139902   0.886   2.086   7.869 -1.4129 -1.2270  0.7159
 9480SOL    HW239903   0.823   2.212   7.930  1.6455  0.3877  2.2867
 9481SOL     OW39904   2.868   3.715  14.204 -0.3423 -0.1410  0.3273
 9481SOL    HW139905   2.916   3.786  14.246  0.1638  0.9696 -2.1533
 9481SOL    HW239906   2.920   3.697  14.126 -2.3507 -2.9709 -0.3455
 9482SOL     OW39907   4.401   0.788   8.875 -0.4442 -0.0132  0.0888
 9482SOL    HW139908   4.392   0.878   8.903  2.6654 -0.4755  2.6624
 9482SOL    HW239909   4.416   0.748   8.961  1.7194  0.6539  0.0304
 9483SOL     OW39910   0.640   2.797  13.220  0.3536 -0.6411  0.2267
 9483SOL    HW139911   0.695   2.875  13.224  0.8453 -0.8750 -1.8926
 9483SOL    HW239912   0.617   2.807  13.127 -0.6945  0.3989  0.5864
 9484SOL     OW39913   0.234   3.918   8.258 -0.7692  0.4633 -0.0250
 9484SOL    HW139914   0.232   4.010   8.233 -3.1497  0.3985 -0.1118
 9484SOL    HW239915   0.328   3.905   8.269 -0.9220 -1.3441 -0.8223
 9485SOL     OW39916   2.671   2.640  17.683 -0.1408  0.4744  0.3825
 9485SOL    HW139917   2.719   2.564   0.015 -1.3829 -0.0232  0.9833
 9485SOL    HW239918   2.588   2.596  17.669 -0.3890  0.8946  0.5441
 9486SOL     OW39919   0.565   1.558   3.777 -0.1160  0.2701 -0.1610
 9486SOL    HW139920   0.652   1.520   3.789  0.9023  2.1452 -1.6082
 9486SOL    HW239921   0.532   1.505   3.704 -2.8298  1.4176  0.2433
 9487SOL     OW39922   2.781   3.376   6.593 -0.0709  0.1857 -0.0152
 9487SOL    HW139923   2.818   3.460   6.619 -0.6601 -0.1706  1.9382
 9487SOL    HW239924   2.778   3.388   6.498 -0.7724  2.0592  0.2562
 9488SOL     OW39925   2.402   2.006   8.511  0.0179 -0.4932 -0.3097
 9488SOL    HW139926   2.455   1.935   8.545 -0.5328 -1.2957 -1.1165
 9488SOL    HW239927   2.469   2.074   8.503 -0.0846 -0.5133 -1.3683
 9489SOL     OW39928   2.131   0.058  15.929  0.0430  0.3374 -0.0739
 9489SOL    HW139929   2.082   0.107  15.862 -0.9087  0.5081  0.7404
 9489SOL    HW239930   2.209   0.112  15.926 -0.0100  0.4416  0.4874
 9490SOL     OW39931   3.793   4.518   1.431  0.7399  0.2381  0.0756
 9490SOL    HW139932   3.759   4.458   1.364  1.5738  2.2984 -2.1951
 9490SOL    HW239933   3.726   4.538   1.496  0.0107  0.9985 -0.9075
 9491SOL     OW39934   0.278   0.459   8.684 -0.3816  0.1800  0.1725
 9491SOL    HW139935   0.306   0.474   8.593 -1.5727 -1.6371 -0.4794
 9491SOL    HW239936   0.351   0.416   8.729 -0.0106  1.6027  0.9296
 9492SOL     OW39937   0.817   4.656   3.229  0.0688 -0.2606  0.0545
 9492SOL    HW139938   0.845   4.569   3.257 -1.0933 -0.7080 -0.1881
 9492SOL    HW239939   0.723   4.648   3.242  0.4416  1.1710  3.7670
 9493SOL     OW39940   0.363   1.647  10.478  0.1425 -0.5769 -0.4805
 9493SOL    HW139941   0.444   1.691  10.451  0.3743 -1.2705 -0.9347
 9493SOL    HW239942   0.362   1.576  10.414  4.3176 -1.2332  0.1977
 9494SOL     OW39943   2.610   1.165   7.457  0.4441 -0.4904 -0.1107
 9494SOL    HW139944   2.619   1.078   7.498 -1.0554 -0.2203  0.7862
 9494SOL    HW239945   2.604   1.139   7.365 -2.7490 -3.4934  0.9208
 9495SOL     OW39946   2.599   0.657   5.302  0.4588 -0.1479 -0.0365
 9495SOL    HW139947   2.567   0.747   5.305  3.1216  0.7456  1.5721
 9495SOL    HW239948   2.665   0.658   5.233  1.7398  1.9218  1.2427
 9496SOL     OW39949   2.869   0.442   7.215  0.0364 -0.2851  0.2671
 9496SOL    HW139950   2.862   0.494   7.295 -1.8995 -1.0533  0.5911
 9496SOL    HW239951   2.780   0.448   7.179  1.3228  1.6494 -2.6020
 9497SOL     OW39952   0.941   0.656   2.145  0.0650  0.3079 -0.4204
 9497SOL    HW139953   0.990   0.731   2.180 -0.2347  0.7119 -0.8692
 9497SOL    HW239954   1.002   0.603   2.095 -0.0091  0.1000 -0.2901
 9498SOL     OW39955   1.769   2.232   7.759 -0.0446 -0.3162  0.1672
 9498SOL    HW139956   1.843   2.172   7.769  0.4899  0.2879 -0.1649
 9498SOL    HW239957   1.782   2.289   7.834  2.3934  1.7075 -1.7741
 9499SOL     OW39958   3.310   2.504   5.429  0.0097  0.2960 -0.1055
 9499SOL    HW139959   3.305   2.600   5.425 -0.9077  0.2604  0.2392
 9499SOL    HW239960   3.237   2.494   5.489 -1.2552  0.3511 -1.6472
 9500SOL     OW39961   0.455   0.248   8.498  0.4189 -0.0213 -0.2664
 9500SOL    HW139962   0.376   0.216   8.454  1.3890 -0.9263 -1.3228
 9500SOL    HW239963   0.519   0.182   8.473  1.3496  0.0537  1.9399
 9501SOL     OW39964   2.901   3.643  16.570 -0.3816  0.2686 -0.2854
 9501SOL    HW139965   2.834   3.637  16.502  0.8348  0.2219 -1.4551
 9501SOL    HW239966   2.965   3.695  16.523 -1.3634  2.2321  0.5762
 9502SOL     OW39967   2.153   0.089   8.239  0.1794  0.7914  0.5963
 9502SOL    HW139968   2.061   0.075   8.262  0.1474  0.5574  0.3333
 9502SOL    HW239969   2.160   0.183   8.251  0.2955  0.9208 -0.4622
 9503SOL     OW39970   3.039   0.581   5.954  0.2790 -0.6240  0.0671
 9503SOL    HW139971   3.089   0.530   5.890  1.5390  0.1185  0.4642
 9503SOL    HW239972   3.020   0.659   5.902 -0.6584 -0.8520  0.0665
 9504SOL     OW39973   1.907   1.112  10.708 -0.1389  0.1315 -0.4018
 9504SOL    HW139974   1.836   1.138  10.766 -1.1020 -1.1604 -1.0191
 9504SOL    HW239975   1.940   1.044  10.766  1.3128  0.7983 -0.4464
 9505SOL     OW39976   3.056   2.938   6.841  0.3196 -0.1969  0.2361
 9505SOL    HW139977   3.038   2.855   6.797  0.8877  0.6354 -1.5387
 9505SOL    HW239978   3.013   3.003   6.786 -1.6132 -1.4791  0.2119
 9506SOL     OW39979   2.739   3.106   8.332  0.3125  0.0222 -0.1449
 9506SOL    HW139980   2.771   3.031   8.383  0.6602 -0.2255 -0.7304
 9506SOL    HW239981   2.811   3.134   8.275 -1.3640  1.6627 -1.4445
 9507SOL     OW39982   2.351   1.007   8.332  0.2415 -0.1972  0.1245
 9507SOL    HW139983   2.305   0.954   8.397 -1.5750 -1.0761 -1.8766
 9507SOL    HW239984   2.302   1.089   8.332  1.2295  0.3901  0.2782
 9508SOL     OW39985   3.970   1.429   7.378 -0.3968  0.1264  0.4893
 9508SOL    HW139986   4.012   1.485   7.313 -0.0898  2.1666  2.4436
 9508SOL    HW239987   3.898   1.480   7.416 -1.0984 -0.9978  0.6670
 9509SOL     OW39988   2.478   3.157   8.408  0.7120  0.3970 -0.9636
 9509SOL    HW139989   2.474   3.234   8.465 -2.7084  0.0427 -0.7484
 9509SOL    HW239990   2.572   3.138   8.401  0.7775  0.2584  0.2340
 9510SOL     OW39991   4.326   1.730  16.295  0.5594  0.2062  0.0342
 9510SOL    HW139992   4.268   1.728  16.218 -0.6467 -1.4363  0.9807
 9510SOL    HW239993   4.259   1.752  16.360 -0.1483  1.1195 -0.9934
 9511SOL     OW39994   3.662   0.434   8.983 -0.6954  0.1257  0.8469
 9511SOL    HW139995   3.572   0.433   9.016 -1.6498 -0.1103 -1.7110
 9511SOL    HW239996   3.660   0.492   8.907  0.9667 -0.1579  0.5937
 9512SOL     OW39997   0.237   1.709   3.071  0.2829  0.8175 -0.5731
 9512SOL    HW139998   0.325   1.686   3.101  0.8809  0.2016 -2.8497
 9512SOL    HW239999   0.186   1.629   3.081 -0.7305  1.7703  2.0057
 9513SOL     OW40000   3.596   1.130   5.735  0.2234  0.1065  0.0357
 9513SOL    HW140001   3.511   1.086   5.732  1.3785 -2.0335 -1.6553
 9513SOL    HW240002   3.643   1.093   5.660 -0.2712  3.2418 -1.8250
 9514SOL     OW40003   4.011   3.106  14.323  0.9533 -0.3847 -0.0638
 9514SOL    HW140004   4.039   3.027  14.276 -0.4945 -0.6646 -0.4555
 9514SOL    HW240005   3.927   3.080  14.361  0.7202  0.0100 -0.3131
 9515SOL     OW40006   4.322   0.890   6.694  0.2933  0.7207 -0.2889
 9515SOL    HW140007   4.286   0.910   6.608 -2.5210 -0.6193  0.5825
 9515SOL    HW240008   4.386   0.961   6.684 -0.8639  1.6687 -1.0385
 9516SOL     OW40009   3.783   1.236   5.191 -0.8180 -0.0343  0.0973
 9516SOL    HW140010   3.752   1.252   5.280 -1.3776  0.3643 -0.1759
 9516SOL    HW240011   3.828   1.320   5.186 -1.0393 -0.0568 -2.4404
 9517SOL     OW40012   3.471   0.591   8.008 -0.3609 -0.3517 -0.2277
 9517SOL    HW140013   3.498   0.545   7.928  0.0034  1.7188 -1.3038
 9517SOL    HW240014   3.420   0.517   8.040  0.5592 -1.2913 -0.9353
 9518SOL     OW40015   2.919   1.376   5.620 -0.1637  0.4572 -0.2500
 9518SOL    HW140016   2.951   1.441   5.682  1.6132 -1.2356  0.5899
 9518SOL    HW240017   2.943   1.419   5.538  0.2226 -1.7826 -1.3272
 9519SOL     OW40018   4.686   0.999   4.832 -0.6924  0.6585 -0.2266
 9519SOL    HW140019   4.608   0.976   4.782 -0.8152  1.9391 -0.6318
 9519SOL    HW240020   0.023   1.003   4.759 -2.9573 -0.0850 -2.2070
 9520SOL     OW40021   2.880   0.721   3.473  0.1972  0.2615 -0.1539
 9520SOL    HW140022   2.925   0.764   3.545 -1.1140 -1.3321  1.6305
 9520SOL    HW240023   2.832   0.655   3.523 -0.2176 -0.1630 -1.1190
 9521SOL     OW40024   1.635   3.490   8.025 -0.6219  0.0590 -0.2791
 9521SOL    HW140025   1.679   3.426   7.970 -0.0732  0.7712 -0.6663
 9521SOL    HW240026   1.543   3.482   7.997 -0.3462  1.3585 -1.5150
 9522SOL     OW40027   3.666   3.637   3.495  0.1984 -0.5769  0.1464
 9522SOL    HW140028   3.717   3.693   3.554 -0.1247  1.3918 -1.4498
 9522SOL    HW240029   3.578   3.674   3.505  0.4838 -0.3904  1.9969
 9523SOL     OW40030   0.342   0.880  12.241 -0.1617  0.1182  0.2502
 9523SOL    HW140031   0.265   0.823  12.236  0.6483 -0.6681 -3.2448
 9523SOL    HW240032   0.360   0.895  12.334  2.7185 -0.6653 -0.2028
 9524SOL     OW40033   3.115   4.046   6.878 -0.1105  0.1403 -0.1215
 9524SOL    HW140034   3.069   3.965   6.899  1.6931 -0.5637  1.0744
 9524SOL    HW240035   3.164   4.009   6.804 -1.3877  0.2523 -1.0160
 9525SOL     OW40036   4.676   4.136   8.843  0.0423 -0.1511 -0.2058
 9525SOL    HW140037   0.035   4.131   8.888 -1.0347 -0.5397  1.8064
 9525SOL    HW240038   4.689   4.070   8.775 -1.0184  0.3606 -0.9084
 9526SOL     OW40039   2.664   2.340   6.487  0.0464  0.0030 -0.2052
 9526SOL    HW140040   2.703   2.428   6.481  1.2422 -0.4450  0.8955
 9526SOL    HW240041   2.586   2.344   6.432 -0.6138 -2.2805  0.5655
 9527SOL     OW40042   4.510   3.802   7.812 -0.1591 -0.2582 -0.5825
 9527SOL    HW140043   4.495   3.795   7.906 -1.4379  1.2450 -0.6910
 9527SOL    HW240044   4.601   3.831   7.817 -0.3768  0.7378 -2.1962
 9528SOL     OW40045   1.378   0.692   1.857  0.0432  0.5301  0.0532
 9528SOL    HW140046   1.337   0.629   1.799  0.4488 -1.3160  1.7863
 9528SOL    HW240047   1.459   0.701   1.807 -0.0523  1.4931  0.0636
 9529SOL     OW40048   0.564   1.165   2.352  0.1328 -0.4217 -0.2877
 9529SOL    HW140049   0.575   1.257   2.377  1.1428 -1.3374  2.6216
 9529SOL    HW240050   0.573   1.166   2.257 -0.2658  0.9652 -0.3178
 9530SOL     OW40051   2.465   1.492  14.532  0.1293  0.0009 -0.3893
 9530SOL    HW140052   2.462   1.397  14.527 -2.8164 -0.0652  2.9395
 9530SOL    HW240053   2.446   1.519  14.443 -1.3403  1.7122  0.4393
 9531SOL     OW40054   0.274   4.073   7.187  0.2710  0.1859 -0.4339
 9531SOL    HW140055   0.337   4.026   7.132  0.4046  0.0875 -0.1969
 9531SOL    HW240056   0.191   4.033   7.163 -0.5522 -1.1168  4.5763
 9532SOL     OW40057   4.639   3.347   4.160 -0.3845  0.2872 -0.3919
 9532SOL    HW140058   4.570   3.397   4.116  0.9574  0.6927 -2.0519
 9532SOL    HW240059   4.613   3.267   4.114  0.6834  0.3218 -1.0590
 9533SOL     OW40060   2.469   3.196   3.945  0.0124 -0.7194  0.6634
 9533SOL    HW140061   2.521   3.275   3.961  0.4561 -0.8466 -0.1413
 9533SOL    HW240062   2.485   3.152   4.028  3.5682 -0.4358  0.1134
 9534SOL     OW40063   2.949   1.770   1.017 -0.2524 -0.0968 -0.0860
 9534SOL    HW140064   3.037   1.732   1.019  0.2512  1.2321  2.5006
 9534SOL    HW240065   2.944   1.776   1.112 -0.4635 -0.4543 -0.0734
 9535SOL     OW40066   3.597   0.822  17.441  0.1750  0.1800  0.2332
 9535SOL    HW140067   3.625   0.749  17.496 -0.0263 -0.4841 -0.5392
 9535SOL    HW240068   3.550   0.886  17.495 -0.0034  0.2256  0.0221
 9536SOL     OW40069   1.388   1.639   3.416 -0.4144 -0.7424 -0.3663
 9536SOL    HW140070   1.314   1.655   3.475 -1.0523 -0.5285 -1.2282
 9536SOL    HW240071   1.420   1.564   3.466 -0.7430 -1.5265 -1.3207
 9537SOL     OW40072   3.308   2.226   0.768 -0.3744  0.2736  0.5785
 9537SOL    HW140073   3.327   2.312   0.729 -2.4863  1.3533  1.9380
 9537SOL    HW240074   3.214   2.236   0.780 -0.1803  0.6632  1.7268
 9538SOL     OW40075   2.069   1.366  10.730  0.4399  0.3035 -0.1102
 9538SOL    HW140076   1.984   1.326  10.717 -0.5396  1.7849  1.7947
 9538SOL    HW240077   2.068   1.431  10.659  1.8281 -0.1725 -0.5726
 9539SOL     OW40078   2.812   1.685   8.215  0.0965 -0.5562  0.1904
 9539SOL    HW140079   2.831   1.672   8.308 -0.5939  1.4818  0.6168
 9539SOL    HW240080   2.867   1.759   8.190 -0.5697 -0.4191 -0.9034
 9540SOL     OW40081   0.359   3.355   4.330  0.4623  0.3907 -0.1330
 9540SOL    HW140082   0.395   3.270   4.357  2.2196  1.1252 -0.1629
 9540SOL    HW240083   0.350   3.392   4.418 -0.5035  1.2430 -0.5941
 9541SOL     OW40084   1.159   1.695   3.580  0.0081 -0.3918  0.2009
 9541SOL    HW140085   1.214   1.709   3.657 -0.6315  1.2371  0.3661
 9541SOL    HW240086   1.143   1.782   3.544  0.4825 -1.0611 -1.6317
 9542SOL     OW40087   0.992   4.375   3.770 -0.6045  0.8024 -0.1609
 9542SOL    HW140088   1.058   4.319   3.810  0.2938  2.8769  1.2489
 9542SOL    HW240089   1.028   4.459   3.800 -1.7298  1.9734 -2.0569
 9543SOL     OW40090   3.233   0.858   3.068 -0.0329 -0.4766  0.6728
 9543SOL    HW140091   3.168   0.831   3.133  0.1563 -1.1447  0.5908
 9543SOL    HW240092   3.314   0.811   3.089  0.3626 -0.9426 -1.8684
 9544SOL     OW40093   1.473   1.500   4.732 -0.3589 -0.5105  0.0417
 9544SOL    HW140094   1.389   1.499   4.686 -1.5166 -0.2418  2.1494
 9544SOL    HW240095   1.521   1.477   4.652 -0.3543 -0.6133  0.0741
 9545SOL     OW40096   0.170   1.338   0.139 -0.4103 -0.3299  0.2641
 9545SOL    HW140097   0.185   1.288   0.058  3.4269 -1.1395  1.4876
 9545SOL    HW240098   0.104   1.402   0.111  1.3514  1.8502  1.1104
 9546SOL     OW40099   1.270   1.181   9.101  0.4037  0.5204 -0.0661
 9546SOL    HW140100   1.329   1.219   9.166 -0.1031 -0.7330  1.1360
 9546SOL    HW240101   1.219   1.255   9.070  0.8800  0.8543 -0.0475
 9547SOL     OW40102   0.059   4.023   1.952  0.1152 -0.0173 -0.1767
 9547SOL    HW140103   0.132   3.963   1.966  0.3161  0.2873  0.1134
 9547SOL    HW240104   4.718   4.003   2.018 -2.4722  1.9079 -2.1952
 9548SOL     OW40105   1.018   2.522   3.761 -0.0265 -0.1240 -0.1753
 9548SOL    HW140106   1.064   2.585   3.816  1.5240 -1.9137  0.5630
 9548SOL    HW240107   0.976   2.569   3.688 -0.1453  0.4844  0.2795
 9549SOL     OW40108   2.527   1.060   5.211 -0.1318  0.2226 -0.8278
 9549SOL    HW140109   2.481   1.029   5.133  1.5725 -1.8764 -0.9816
 9549SOL    HW240110   2.514   0.991   5.275 -1.2819  1.5068  0.3201
 9550SOL     OW40111   3.956   2.641   5.925 -0.1003 -0.2124 -0.0697
 9550SOL    HW140112   3.965   2.546   5.929  0.3114 -0.1981 -0.7639
 9550SOL    HW240113   3.860   2.646   5.931 -0.0009  1.0336  0.4507
 9551SOL     OW40114   2.141   1.829  10.113 -0.4670  0.1708  0.1345
 9551SOL    HW140115   2.188   1.826  10.030  0.4877  1.5957  0.6249
 9551SOL    HW240116   2.061   1.776  10.112 -1.0472  1.0984 -2.0322
 9552SOL     OW40117   4.242   0.806   7.186 -0.7174  0.4774 -0.3949
 9552SOL    HW140118   4.190   0.824   7.264 -0.4325 -3.6101  0.7158
 9552SOL    HW240119   4.187   0.862   7.130 -1.3341  2.1847  1.9373
 9553SOL     OW40120   2.207   1.914   5.617  0.4106 -0.1642 -0.1602
 9553SOL    HW140121   2.272   1.846   5.635  0.9607 -0.1162 -1.9472
 9553SOL    HW240122   2.152   1.872   5.550 -0.2009  3.6023 -2.0192
 9554SOL     OW40123   4.636   4.262  11.297 -0.2932 -0.1945  0.1655
 9554SOL    HW140124   4.680   4.347  11.298  0.3974 -0.5405 -0.7942
 9554SOL    HW240125   4.651   4.237  11.206 -1.3867  2.4540 -0.7477
 9555SOL     OW40126   1.471   3.535   7.512  0.2904 -0.1016 -0.4532
 9555SOL    HW140127   1.452   3.542   7.419 -0.9224  1.6508 -0.0755
 9555SOL    HW240128   1.565   3.516   7.503  0.7787  1.9949  0.1476
 9556SOL     OW40129   0.763   3.577   6.390  0.1795  0.2056  0.1890
 9556SOL    HW140130   0.717   3.561   6.307  0.3485  0.3485  0.0678
 9556SOL    HW240131   0.855   3.575   6.365  0.4238  0.8836  1.0212
 9557SOL     OW40132   0.181   1.827  15.486 -0.1567 -0.4635 -1.2315
 9557SOL    HW140133   0.131   1.865  15.414  2.1569 -0.6011 -2.9272
 9557SOL    HW240134   0.181   1.905  15.542  0.6739 -0.7140 -0.8856
 9558SOL     OW40135   4.711   2.267   4.072  0.4574  0.4180  0.4175
 9558SOL    HW140136   0.055   2.201   4.070  1.0546  1.0622 -0.3331
 9558SOL    HW240137   0.027   2.337   4.122 -0.9776 -0.8440  3.3920
 9559SOL     OW40138   1.784   2.674  17.619  0.2403  0.0895 -0.3070
 9559SOL    HW140139   1.723   2.717  17.679 -0.5159 -1.4651  0.0656
 9559SOL    HW240140   1.872   2.708  17.635  0.4194 -0.5670  0.1135
 9560SOL     OW40141   4.427   2.945  15.948 -0.1756  0.4149 -0.3583
 9560SOL    HW140142   4.334   2.922  15.952 -0.1972  0.4947 -0.3966
 9560SOL    HW240143   4.445   2.950  16.042 -3.0471 -0.4062  0.2526
 9561SOL     OW40144   3.355   2.518   4.704  0.4328 -0.3169 -0.1856
 9561SOL    HW140145   3.434   2.563   4.733 -0.4753  1.2574 -0.1346
 9561SOL    HW240146   3.344   2.457   4.777 -3.5153  2.3640  1.4494
 9562SOL     OW40147   3.307   1.697   1.902 -0.2578  0.5439 -0.3997
 9562SOL    HW140148   3.373   1.655   1.958 -0.4527  1.2927  0.3805
 9562SOL    HW240149   3.235   1.690   1.964 -1.3014  0.2156 -1.6513
 9563SOL     OW40150   3.778   0.275  11.834  0.5934  0.1628  0.0088
 9563SOL    HW140151   3.721   0.211  11.877 -1.7558  0.8237 -2.1239
 9563SOL    HW240152   3.809   0.220  11.762  2.1822 -0.1646  0.9558
 9564SOL     OW40153   1.641   0.165  17.641  0.0590  0.0300  0.4119
 9564SOL    HW140154   1.593   0.148   0.019  0.1945  3.3453  1.2159
 9564SOL    HW240155   1.651   0.260  17.652 -1.5417  0.2047  0.2389
 9565SOL     OW40156   2.495   1.463   7.646  0.3943 -0.4408 -0.6429
 9565SOL    HW140157   2.507   1.373   7.676 -1.5437 -0.0026  1.4460
 9565SOL    HW240158   2.582   1.479   7.609  0.4408 -0.3293 -0.4824
 9566SOL     OW40159   1.789   4.559   7.047 -0.3183  0.0979 -0.3364
 9566SOL    HW140160   1.843   4.542   7.125 -1.2357  0.8742  0.4726
 9566SOL    HW240161   1.738   4.480   7.032 -1.9436  1.6545 -2.9384
 9567SOL     OW40162   2.748   0.901   9.251  0.3475  0.1361  0.7667
 9567SOL    HW140163   2.771   0.964   9.182 -0.3722  0.3461  0.7149
 9567SOL    HW240164   2.679   0.843   9.218  0.8997 -0.9829  1.5849
 9568SOL     OW40165   2.751   2.135   8.114  0.3872 -0.0895 -0.2199
 9568SOL    HW140166   2.755   2.206   8.177 -0.7227 -1.6317  1.5713
 9568SOL    HW240167   2.660   2.104   8.114  0.3725 -0.0566 -1.8577
   4.72549   4.72549  17.70323
